Membrane in water
40347
    1TMC1    C1    1   0.878   3.539  11.222  0.5660  0.5073 -0.0703
    1TMC1    C2    2   0.847   3.534  11.091  0.2172 -0.4060 -0.0944
    1TMC1    C3    3   0.914   3.618  11.009 -0.5517  0.4183 -0.0705
    1TMC1    C4    4   0.985   3.617  11.270  0.2889  0.3999 -0.1464
    1TMC1    C5    5   1.052   3.699  11.184  0.3510 -0.0136 -0.6314
    1TMC1    C6    6   1.020   3.691  11.052 -0.0432  0.2305 -0.4015
    1TMC1     C    7   0.792   3.453  11.308 -0.4595 -0.3229  0.7845
    1TMC1     O    8   0.685   3.417  11.257  0.7198 -0.1525  0.8427
    1TMC1     H    9   0.763   3.473  11.061 -0.1091  0.8931 -1.7962
    1TMC1    H1   10   1.012   3.617  11.375  0.4795 -1.1809 -0.1969
    1TMC1    H2   11   1.079   3.750  10.983  0.3339  1.8942  1.3681
    1TMC1    C7   12   1.158   3.785  11.232  0.4989 -0.3249  0.5588
    1TMC1    C8   13   0.928   3.569  10.873  0.9948  0.1638 -0.3217
    1TMC1    O1   14   1.174   3.797  11.352 -0.4349  0.1657 -0.0198
    1TMC1    O2   15   0.890   3.456  10.847  0.4345 -0.2758 -0.3437
    1TMC1    O3   16   1.260   3.761  11.145  0.8481 -0.0566 -0.3580
    1TMC1    H3   17   1.238   3.796  11.056 -1.8381 -1.8597 -0.4148
    1TMC1    O5   18   0.924   3.679  10.796 -0.2977 -0.3515 -0.1042
    1TMC1    H5   19   0.934   3.763  10.845  1.6939 -0.6456  0.0001
    2MPD2     C   20   0.716   3.105  11.657 -0.0858  0.1397 -0.6561
    2MPD2    C1   21   0.622   3.189  11.604 -0.3318  0.1842  0.0075
    2MPD2    C2   22   0.669   3.297  11.530  0.0669 -0.7202  0.7654
    2MPD2    C3   23   0.802   3.311  11.508 -0.3585  0.1899 -0.1755
    2MPD2    C4   24   0.895   3.226  11.561 -0.0335 -0.3870 -0.7164
    2MPD2    C5   25   0.849   3.118  11.632 -0.4757  0.1905 -0.0343
    2MPD2     H   26   0.600   3.367  11.484  0.4774 -0.1306  1.0466
    2MPD2    H1   27   1.003   3.235  11.549  0.0948  0.5553  1.1193
    2MPD2    H2   28   0.687   3.016  11.712  0.2582  1.1558  1.1690
    2MPD2    H3   29   0.913   3.040  11.671  0.5880  1.1734  0.1703
    2MPD2     N   30   0.856   3.415  11.425 -0.1359 -0.4522 -0.0110
    2MPD2    H5   31   0.954   3.442  11.430 -0.5482  1.1094 -0.2323
    2MPD2    N1   32   0.490   3.191  11.649  1.3158 -0.9676  0.1224
    2MPD2    H7   33   0.433   3.273  11.632  2.3718 -0.4459 -0.8869
    3TMC1    C1   34   4.565   3.661  11.315  0.1715  0.3234  0.3128
    3TMC1    C2   35   4.516   3.534  11.327  0.5098  0.4536 -0.3535
    3TMC1    C3   36   4.567   3.437  11.236 -0.6066  0.3947 -0.0808
    3TMC1    C4   37   4.639   3.692  11.202 -0.7244  0.1645 -1.0488
    3TMC1    C5   38   4.678   3.598  11.116  0.3651  0.0552 -0.7180
    3TMC1    C6   39   4.648   3.466  11.129 -0.1583  0.4397 -0.5608
    3TMC1     C   40   4.523   3.757  11.420 -0.2093 -0.2262  0.8845
    3TMC1     O   41   4.452   3.724  11.511  0.4757 -0.1622 -0.6031
    3TMC1     H   42   4.438   3.512  11.398 -0.3321  1.3377 -1.0133
    3TMC1    H1   43   4.657   3.794  11.170 -1.4237  0.5460 -0.2359
    3TMC1    H2   44   4.675   3.386  11.062 -1.5187  0.2724 -0.9085
    3TMC1    C7   45   0.051   3.629  11.029  0.2631  0.0357 -0.3919
    3TMC1    C8   46   4.530   3.292  11.232 -0.3298 -0.2386 -0.1273
    3TMC1    O1   47   0.070   3.739  10.972  0.3218  0.8467  0.1638
    3TMC1    O2   48   4.566   3.222  11.140  0.2149  0.3602 -0.6938
    3TMC1    O3   49   0.158   3.553  11.077 -0.2549  0.1044 -0.2851
    3TMC1    H3   50   0.155   3.482  11.145  1.0798 -0.2652 -0.6034
    3TMC1    O5   51   4.435   3.279  11.324  0.0848  0.2230 -0.2119
    3TMC1    H5   52   4.412   3.187  11.350 -2.0847  0.6020 -0.7750
    4MPD2     C   53   4.499   4.243  11.570  0.3781 -0.5254 -0.0370
    4MPD2    C1   54   4.548   4.244  11.441 -0.3142 -0.3871 -0.1213
    4MPD2    C2   55   4.565   4.121  11.384 -0.5875  0.2550 -0.0957
    4MPD2    C3   56   4.530   4.005  11.449 -0.2528  0.3122  0.3551
    4MPD2    C4   57   4.469   4.006  11.574 -0.0559  0.8186  0.6903
    4MPD2    C5   58   4.459   4.129  11.637 -0.2326  0.0955  0.3714
    4MPD2     H   59   4.612   4.110  11.287 -0.2494 -0.3389  0.1348
    4MPD2    H1   60   4.448   3.922  11.640 -1.6036  1.4065  0.9368
    4MPD2    H2   61   4.490   4.335  11.628  0.0167 -0.6008  0.0237
    4MPD2    H3   62   4.419   4.140  11.737  0.7548 -1.3677  0.9276
    4MPD2     N   63   4.567   3.882  11.386  0.0319 -0.5184  0.2944
    4MPD2    H5   64   4.605   3.905  11.295  0.9740  1.1204  1.1129
    4MPD2    N1   65   4.579   4.361  11.366  0.1450  0.0170  0.6164
    4MPD2    H7   66   4.635   4.349  11.282 -0.7362 -0.4218  0.0955
    5TCq1    O1   67   4.597   1.836  10.819  0.2345 -0.1943 -0.8395
    5TCq1    C1   68   4.677   1.797  10.922 -0.0011  0.2909 -0.3692
    5TCq1    O2   69   4.710   1.871  11.013  0.9631 -0.3869 -0.0937
    5TCq1    C2   70   4.731   1.664  10.890  0.0080  1.0001 -0.0658
    5TCq1    C3   71   4.654   1.578  10.812 -0.3637  0.0246  0.5448
    5TCq1    C4   72   4.689   1.449  10.813  0.2578  0.4241  0.2620
    5TCq1    C5   73   0.066   1.403  10.865  0.1684  0.8310 -0.7039
    5TCq1    C6   74   0.143   1.491  10.917 -0.8422  0.4369  0.4993
    5TCq1    C7   75   0.111   1.621  10.940 -0.0641  0.2326  1.0972
    5TCq1    C8   76   0.278   1.448  10.949 -0.3134 -0.2539  0.1903
    5TCq1    O4   77   0.289   1.327  10.958  0.1360 -0.7874 -0.9319
    5TCq1    C9   78   4.600   1.355  10.753 -0.1007  0.3424  0.4273
    5TCq1    O5   79   4.477   1.379  10.754 -0.4049  0.5798 -0.0437
    5TCq1    O6   80   4.647   1.243  10.729  0.4640 -0.0082  0.3297
    5TCq1    H1   81   4.600   1.779  10.740  0.9533 -0.7991 -0.3775
    5TCq1    H2   82   4.567   1.611  10.756  0.0487 -0.7521 -0.5527
    5TCq1    H3   83   0.081   1.296  10.871 -0.9128  0.7218  0.1386
    5TCq1    H4   84   0.177   1.698  10.977  1.3032 -1.0202  1.2542
    6MPD2     C   85   0.568   1.643  11.019  0.0944  0.8024  0.0443
    6MPD2    C1   86   0.493   1.532  10.991 -1.1108 -0.2005  0.0827
    6MPD2    C2   87   0.559   1.411  10.983 -0.1415 -0.0515  0.5734
    6MPD2    C3   88   0.693   1.396  11.005  0.2539  0.9592  0.1403
    6MPD2    C4   89   0.758   1.507  11.040  0.4257  0.0448 -0.4760
    6MPD2    C5   90   0.702   1.629  11.037 -0.2206 -0.5705 -0.0610
    6MPD2     H   91   0.504   1.319  10.964  1.7420 -0.8264 -1.1777
    6MPD2    H1   92   0.864   1.497  11.063  0.7680  1.6851 -1.3809
    6MPD2    H2   93   0.520   1.740  11.020 -0.5118  0.4899  1.9768
    6MPD2    H3   94   0.759   1.718  11.060 -0.9672 -0.0528 -0.2103
    6MPD2     N   95   0.747   1.264  11.004  0.0251 -0.2625  0.6738
    6MPD2    H5   96   0.677   1.191  11.004  1.3996 -1.5983  1.7107
    6MPD2    N1   97   0.363   1.550  10.962 -0.5423 -0.6913 -0.1181
    6MPD2    H7   98   0.334   1.645  10.943 -3.1285 -1.3440  0.5369
    7TCq1    O1   99   2.668   0.694  12.769  0.2019  0.0754  0.0263
    7TCq1    C1  100   2.725   0.641  12.877 -0.6752  0.3922 -0.2850
    7TCq1    O2  101   2.792   0.696  12.964 -0.3668 -0.4041  0.3418
    7TCq1    C2  102   2.697   0.499  12.867 -0.3569 -0.2734 -0.0709
    7TCq1    C3  103   2.644   0.440  12.756 -0.1113 -0.0072  0.3077
    7TCq1    C4  104   2.664   0.307  12.740 -0.1784 -0.0627  0.0983
    7TCq1    C5  105   2.708   0.231  12.840  0.0755 -0.0444 -0.3971
    7TCq1    C6  106   2.754   0.287  12.954  0.3450  0.5575  0.1811
    7TCq1    C7  107   2.745   0.422  12.971 -0.2903 -0.6847 -0.1478
    7TCq1    C8  108   2.782   0.202  13.069  0.4617  0.2294 -0.4295
    7TCq1    O4  109   2.814   0.084  13.051 -0.1048 -0.1424 -0.1302
    7TCq1    C9  110   2.634   0.249  12.613  0.4869  1.0912  0.3116
    7TCq1    O5  111   2.615   0.123  12.611  0.0114 -0.1977 -0.3227
    7TCq1    O6  112   2.565   0.318  12.536  0.2009  0.2668  1.0061
    7TCq1    H1  113   2.603   0.630  12.734 -0.2847  0.7921 -0.3750
    7TCq1    H2  114   2.625   0.496  12.666  0.1589  0.2160  0.3877
    7TCq1    H3  115   2.726   0.127  12.817 -0.9346  0.0436 -1.5739
    7TCq1    H4  116   2.787   0.460  13.063  0.6467  0.7940 -1.1944
    8MPD2     C  117   2.760   0.125  13.571  0.0535  0.5914 -0.4352
    8MPD2    C1  118   2.814   0.053  13.474 -0.3110 -0.3570 -0.1990
    8MPD2    C2  119   2.815   0.103  13.343 -0.1104 -0.2200 -0.7610
    8MPD2    C3  120   2.755   0.221  13.318 -0.2365 -0.4798  0.1193
    8MPD2    C4  121   2.694   0.301  13.418 -0.1573 -0.2777 -0.5041
    8MPD2    C5  122   2.711   0.252  13.544 -0.9761 -0.3234 -0.0766
    8MPD2     H  123   2.842   0.037  13.261 -1.3692  0.7094 -1.9234
    8MPD2    H1  124   2.658   0.403  13.407  1.2587  0.2049 -0.6274
    8MPD2    H2  125   2.754   0.089  13.673  0.1672 -1.7229 -1.2566
    8MPD2    H3  126   2.674   0.310  13.626  1.7428  1.2921  0.0040
    8MPD2     N  127   2.757   0.268  13.186  0.7854 -0.6637  0.5275
    8MPD2    H5  128   2.718   0.362  13.183  1.2585 -0.5750 -2.7024
    8MPD2    N1  129   2.870   4.666  13.522 -0.8308 -0.3604 -0.0444
    8MPD2    H7  130   2.890   4.657  13.621  0.5892 -0.0020 -0.2948
    9TMC1    C1  131   0.537   4.005  10.815  0.1500  0.2127  0.0733
    9TMC1    C2  132   0.480   3.880  10.834 -0.4922  0.8913 -0.2268
    9TMC1    C3  133   0.430   3.816  10.727 -0.1296 -0.3872  0.0427
    9TMC1    C4  134   0.531   4.065  10.695  0.4835 -0.7440  0.3423
    9TMC1    C5  135   0.476   3.996  10.587 -0.4127 -0.0537 -0.6401
    9TMC1    C6  136   0.432   3.866  10.597 -0.4440 -0.1211  0.2137
    9TMC1     C  137   0.551   4.085  10.936  0.2882 -0.9350 -0.2943
    9TMC1     O  138   0.469   4.059  11.024  0.4069 -0.1471  0.2084
    9TMC1     H  139   0.467   3.836  10.932  1.0342 -1.5973 -1.1415
    9TMC1    H1  140   0.572   4.164  10.680 -1.3086 -0.0091  0.3589
    9TMC1    H2  141   0.406   3.819  10.503 -0.9689  0.1841  0.2098
    9TMC1    C7  142   0.500   4.050  10.460  0.1090 -0.1292 -0.0000
    9TMC1    C8  143   0.358   3.691  10.746  0.3203 -0.1789 -0.4593
    9TMC1    O1  144   0.605   4.104  10.431  0.2350 -0.5173 -0.2787
    9TMC1    O2  145   0.297   3.646  10.651  0.9484 -0.5122  0.3383
    9TMC1    O3  146   0.391   4.030  10.387  0.2676  0.0981  0.8630
    9TMC1    H3  147   0.310   4.005  10.435 -0.1005 -0.2566  0.0549
    9TMC1    O5  148   0.422   3.622  10.838 -0.4442 -0.4543 -0.2956
    9TMC1    H5  149   0.391   3.529  10.840  1.1624 -0.9642  1.6503
   10MPD2     C  150   0.776   4.357  10.986  0.0262 -0.2130  0.1852
   10MPD2    C1  151   0.685   4.261  11.023  1.1059  0.3761 -0.6486
   10MPD2    C2  152   0.639   4.251  11.152  0.6302 -0.9540  0.7048
   10MPD2    C3  153   0.678   4.346  11.243  0.9896 -0.0443 -0.1663
   10MPD2    C4  154   0.774   4.440  11.208 -0.0463 -0.1675  0.0454
   10MPD2    C5  155   0.817   4.444  11.082  0.3778 -0.1112  0.4130
   10MPD2     H  156   0.574   4.166  11.169 -1.2201  0.2464 -0.4543
   10MPD2    H1  157   0.801   4.513  11.283  0.4731 -1.0343  0.7040
   10MPD2    H2  158   0.820   4.364  10.888  1.5755 -2.3427  0.7356
   10MPD2    H3  159   0.899   4.507  11.049 -0.1460  1.4024  2.0265
   10MPD2     N  160   0.646   4.343  11.379  0.4952 -0.1127  0.6636
   10MPD2    H5  161   0.695   4.412  11.434  0.3852  1.2733 -0.9708
   10MPD2    N1  162   0.656   4.165  10.925  0.2681 -0.9705  0.2999
   10MPD2    H7  163   0.710   4.166  10.840 -0.5477  0.0073 -0.2073
   11TCq1    O1  164   1.177   4.353  15.112  0.8500  0.0585  0.6580
   11TCq1    C1  165   1.066   4.362  15.025  0.6632  0.2370 -0.6619
   11TCq1    O2  166   0.992   4.458  15.006  0.2116 -0.7496 -0.5099
   11TCq1    C2  167   1.061   4.241  14.948  0.6249  0.4059  0.4596
   11TCq1    C3  168   1.059   4.121  15.015 -0.0577 -0.0461 -0.5039
   11TCq1    C4  169   1.046   4.007  14.936  0.5231 -0.3098 -0.1885
   11TCq1    C5  170   1.030   4.024  14.802  0.0916  0.8672  0.1048
   11TCq1    C6  171   1.003   4.147  14.743  0.5001  0.2051 -0.0500
   11TCq1    C7  172   1.020   4.259  14.821  0.0708  0.9542  0.4236
   11TCq1    C8  173   1.028   4.172  14.603 -0.3625 -0.7573 -0.1382
   11TCq1    O4  174   1.089   4.280  14.583 -0.1709  0.0452  0.3562
   11TCq1    C9  175   1.056   3.878  14.994 -0.0027  0.2904  0.0613
   11TCq1    O5  176   1.002   3.787  14.925  0.0313 -0.5037  0.1791
   11TCq1    O6  177   1.062   3.880  15.120  0.0835 -0.6282 -0.1338
   11TCq1    H1  178   1.237   4.280  15.087 -2.0207 -1.6727 -1.1074
   11TCq1    H2  179   1.080   4.114  15.121  0.5410 -1.9573 -0.7470
   11TCq1    H3  180   1.032   3.935  14.740 -0.5829 -0.4210  1.9266
   11TCq1    H4  181   1.011   4.357  14.776 -1.0097  0.7395  0.1780
   12MPD2     C  182   1.055   4.160  14.307 -0.2929 -0.5385  0.4262
   12MPD2    C1  183   0.958   4.093  14.372 -0.0208  0.2503 -0.0066
   12MPD2    C2  184   0.873   4.018  14.296 -0.4078 -1.1064 -0.0219
   12MPD2    C3  185   0.887   4.010  14.155  0.8470 -0.4304 -0.0294
   12MPD2    C4  186   0.984   4.085  14.098  0.5276  0.0977 -0.4991
   12MPD2    C5  187   1.069   4.161  14.172  0.1967 -0.1127  0.2691
   12MPD2     H  188   0.801   3.962  14.355  0.8364 -1.9086  0.7501
   12MPD2    H1  189   0.983   4.082  13.990  0.4201 -1.9573 -0.4324
   12MPD2    H2  190   1.126   4.216  14.366 -0.2452  0.1029 -0.2446
   12MPD2    H3  191   1.142   4.227  14.127  0.0415  0.7274  1.2615
   12MPD2     N  192   0.819   3.919  14.068 -0.1302  0.2175  0.1481
   12MPD2    H5  193   0.834   3.921  13.968  0.3536  0.6936  0.2327
   12MPD2    N1  194   0.957   4.088  14.517 -0.1430  0.6284 -0.5417
   12MPD2    H7  195   0.898   4.018  14.560  0.2390  1.8536  1.9660
   13TCq1    O1  196   1.220   4.396  11.505 -0.1122 -0.6557  0.3185
   13TCq1    C1  197   1.089   4.363  11.527 -0.6357  0.4170  0.8971
   13TCq1    O2  198   1.004   4.420  11.586  0.3215  0.0377 -0.3870
   13TCq1    C2  199   1.048   4.273  11.420  0.1762  0.0061 -0.4961
   13TCq1    C3  200   1.101   4.274  11.293  0.2012  0.0421 -0.0132
   13TCq1    C4  201   1.063   4.170  11.206  0.3629 -0.3823  0.3514
   13TCq1    C5  202   0.961   4.088  11.233  0.7836 -0.1456  0.1565
   13TCq1    C6  203   0.905   4.098  11.357  0.0541 -0.2125  0.3317
   13TCq1    C7  204   0.947   4.189  11.452 -0.4956  0.5389 -0.1112
   13TCq1    C8  205   0.807   3.997  11.405 -0.2911 -0.4800 -0.5650
   13TCq1    O4  206   0.797   3.990  11.524  0.4524  0.0276 -0.2594
   13TCq1    C9  207   1.126   4.168  11.081 -0.3428 -0.3070 -0.5917
   13TCq1    O5  208   1.214   4.255  11.060 -0.2095  0.1832  0.2126
   13TCq1    O6  209   1.077   4.091  10.992 -0.3865 -0.0058 -0.3941
   13TCq1    H1  210   1.261   4.321  11.457  0.7866  0.4985 -0.7140
   13TCq1    H2  211   1.184   4.337  11.264  0.7302 -1.3373 -1.4733
   13TCq1    H3  212   0.927   4.013  11.162  1.8322  1.2031 -1.7898
   13TCq1    H4  213   0.901   4.190  11.550  0.8236 -0.6102  0.5219
   14MPD2     C  214   0.609   3.770  11.189  0.4102 -0.0732  0.3208
   14MPD2    C1  215   0.638   3.843  11.307 -0.3988  0.1681  0.2375
   14MPD2    C2  216   0.550   3.842  11.415  0.2269  0.2894 -0.3650
   14MPD2    C3  217   0.432   3.767  11.406 -0.0249  0.0593 -0.2153
   14MPD2    C4  218   0.397   3.701  11.290  0.4600  0.4335 -0.5245
   14MPD2    C5  219   0.486   3.700  11.186  0.3039 -0.1686  0.0881
   14MPD2     H  220   0.563   3.904  11.502  4.0656 -1.8757  0.6228
   14MPD2    H1  221   0.304   3.651  11.265  0.1150  0.9846 -0.3327
   14MPD2    H2  222   0.678   3.777  11.106  1.4636 -0.7818  1.1374
   14MPD2    H3  223   0.462   3.649  11.093 -0.9354 -1.5928  1.2095
   14MPD2     N  224   0.333   3.779  11.514  0.6503  0.4063 -0.2913
   14MPD2    H5  225   0.350   3.846  11.589 -1.6033  0.0612  0.5090
   14MPD2    N1  226   0.751   3.930  11.301 -0.3291  0.1538  0.2059
   14MPD2    H7  227   0.800   3.932  11.212  0.6835  1.5925  0.7915
   15TCq1    O1  228   2.664   3.411   1.914  1.1294  0.1193 -0.4816
   15TCq1    C1  229   2.653   3.309   1.825 -0.8775  0.6343  0.5144
   15TCq1    O2  230   2.608   3.199   1.853  0.2931 -0.1108 -0.0759
   15TCq1    C2  231   2.743   3.328   1.714  0.0915 -0.3814 -0.5962
   15TCq1    C3  232   2.862   3.394   1.738 -0.0734  0.3387  0.4269
   15TCq1    C4  233   2.970   3.368   1.658  0.0214  0.0740  0.2629
   15TCq1    C5  234   2.962   3.280   1.559 -0.6206 -0.1767  0.1031
   15TCq1    C6  235   2.844   3.216   1.536  0.0806 -0.3628 -0.1272
   15TCq1    C7  236   2.734   3.231   1.617  0.3540  0.2404 -0.3742
   15TCq1    C8  237   2.849   3.117   1.427  0.2140  0.8667  0.0260
   15TCq1    O4  238   2.955   3.057   1.404 -0.4390  0.6780  0.5513
   15TCq1    C9  239   3.097   3.428   1.689 -0.5315 -0.8385  0.4789
   15TCq1    O5  240   3.107   3.485   1.800  0.9821  0.4659  0.2260
   15TCq1    O6  241   3.192   3.403   1.609 -0.7293 -0.2201 -0.2183
   15TCq1    H1  242   2.695   3.487   1.861  0.7352  1.8195  1.7030
   15TCq1    H2  243   2.876   3.459   1.824 -2.0234 -0.1662  1.1139
   15TCq1    H3  244   3.054   3.272   1.502 -0.5813  0.2577  0.1077
   15TCq1    H4  245   2.649   3.165   1.621 -0.1781  1.0604  1.9513
   16MPD2     C  246   2.549   2.975   1.252  1.1707  0.9337  0.2233
   16MPD2    C1  247   2.682   2.989   1.294 -0.1509 -1.3292  0.0537
   16MPD2    C2  248   2.766   2.893   1.237  0.2601  0.2937  0.1316
   16MPD2    C3  249   2.725   2.795   1.151  0.5818 -0.3525  0.3561
   16MPD2    C4  250   2.596   2.793   1.111  0.7956 -0.0056  0.3585
   16MPD2    C5  251   2.504   2.881   1.157 -0.4760  0.0089  0.5482
   16MPD2     H  252   2.873   2.907   1.250  0.1308  0.4887  0.9600
   16MPD2    H1  253   2.559   2.717   1.044  4.8475 -0.4334 -1.3530
   16MPD2    H2  254   2.466   3.042   1.271  1.0092  0.7595  0.1414
   16MPD2    H3  255   2.403   2.893   1.122 -0.5058 -0.5787  0.4499
   16MPD2     N  256   2.820   2.712   1.090 -0.3324 -0.8678 -0.2595
   16MPD2    H5  257   2.911   2.719   1.135 -0.1958 -1.8487 -0.3806
   16MPD2    N1  258   2.725   3.096   1.378 -0.2816 -0.3096  0.4146
   16MPD2    H7  259   2.657   3.166   1.405 -0.0314  0.9840 -2.3366
   17TMC1    C1  260   0.020   2.325   9.968  0.3234 -0.0823  0.7181
   17TMC1    C2  261   4.678   2.257   9.885  0.5640  0.2202 -0.0248
   17TMC1    C3  262   4.618   2.145   9.932  0.2483 -0.0770 -0.1939
   17TMC1    C4  263   0.055   2.285  10.092 -0.9122  0.7876  0.2237
   17TMC1    C5  264   0.002   2.172  10.133  0.0637  0.3192  0.7660
   17TMC1    C6  265   4.652   2.099  10.058  0.5788  0.0311  0.1789
   17TMC1     C  266   0.076   2.448   9.913 -0.0277  0.3325  0.4629
   17TMC1     O  267   0.091   2.457   9.794 -0.5411 -0.0423 -0.2265
   17TMC1     H  268   4.660   2.297   9.785  2.1897 -0.2846 -0.5307
   17TMC1    H1  269   0.137   2.333  10.144  0.3796 -0.5186 -0.6119
   17TMC1    H2  270   4.602   2.018  10.110  0.6985  0.8963  1.6348
   17TMC1    C7  271   0.032   2.111  10.264 -0.5174 -0.6645 -0.2572
   17TMC1    C8  272   4.499   2.091   9.868 -0.3092  0.3331 -0.2375
   17TMC1    O1  273   0.017   1.995  10.282 -0.3838  0.1851 -0.0011
   17TMC1    O2  274   4.430   2.161   9.795  0.6166  0.3741 -0.6447
   17TMC1    O3  275   0.101   2.199  10.342  0.5732 -0.1235  0.2779
   17TMC1    H3  276   0.091   2.293  10.315 -0.7235 -1.2902 -3.2047
   17TMC1    O5  277   4.501   1.957   9.882 -0.9553  0.1635  0.1579
   17TMC1    H5  278   4.567   1.929   9.949  0.4174 -2.6916 -2.4484
   18MPD2     C  279   0.267   2.685   9.878  0.0911  0.1662  0.0452
   18MPD2    C1  280   0.207   2.645   9.996  0.4352  0.2345  0.1010
   18MPD2    C2  281   0.213   2.730  10.104  0.1743 -0.1260  0.2613
   18MPD2    C3  282   0.293   2.843  10.099  0.2357  0.5250 -0.3038
   18MPD2    C4  283   0.357   2.875   9.981 -0.5166  0.1829  0.7639
   18MPD2    C5  284   0.346   2.796   9.870 -0.5582 -0.0055 -0.2418
   18MPD2     H  285   0.145   2.712  10.187  1.0304 -1.9284  0.5553
   18MPD2    H1  286   0.411   2.970   9.978 -2.1546  1.1316  1.6083
   18MPD2    H2  287   0.253   2.620   9.793 -1.1842  0.8325 -0.2533
   18MPD2    H3  288   0.372   2.833   9.771  0.4470 -1.8119 -0.6322
   18MPD2     N  289   0.310   2.933  10.207 -0.2458  0.5148 -0.7085
   18MPD2    H5  290   0.391   2.993  10.194  0.4025 -0.1780  0.1319
   18MPD2    N1  291   0.128   2.530  10.011 -0.0053  0.7635  0.6089
   18MPD2    H7  292   0.109   2.514  10.109  0.9474 -2.4339  0.2970
   19TMC2    C1  293   2.501   3.475  13.323 -0.8721  0.4896 -0.3747
   19TMC2    C2  294   2.439   3.512  13.208  1.0815  0.6114  0.1648
   19TMC2    C3  295   2.312   3.461  13.187  0.3238  0.1684 -0.7613
   19TMC2    C4  296   2.451   3.386  13.416 -0.2512  0.2217  0.1320
   19TMC2    C5  297   2.330   3.329  13.387 -0.4014 -0.3475  0.1536
   19TMC2    C6  298   2.260   3.360  13.270 -0.9102 -0.0968 -0.2743
   19TMC2     C  299   2.646   3.508  13.333  0.1554 -0.3408  0.0740
   19TMC2     O  300   2.717   3.519  13.234 -0.1309  0.2918 -0.3690
   19TMC2     H  301   2.476   3.580  13.133 -1.3598  0.2288 -1.3843
   19TMC2    H1  302   2.515   3.353  13.497 -1.5892 -0.2120  1.0018
   19TMC2    H2  303   2.156   3.334  13.250 -1.0335  1.5394 -1.7477
   19TMC2    C7  304   2.240   3.280  13.486  1.0566  0.2137 -0.0329
   19TMC2    C8  305   2.257   3.476  13.059 -0.8442  0.9082  0.6858
   19TMC2    O1  306   2.133   3.229  13.458 -0.4231 -0.4909 -0.3967
   19TMC2    O2  307   2.210   3.380  12.998 -0.4671  0.1099  0.1720
   19TMC2    O5  308   2.269   3.604  13.023  0.6755  0.4915 -0.2191
   19TMC2    H5  309   2.292   3.669  13.093  1.5251 -0.3963  0.3301
   20MPD2     C  310   2.917   3.589  13.441 -0.1403 -0.5369  0.3577
   20MPD2    C1  311   2.803   3.562  13.521 -0.7375  0.3350 -0.1827
   20MPD2    C2  312   2.801   3.578  13.655  0.3210  0.1967  0.6358
   20MPD2    C3  313   2.915   3.617  13.715  0.4676 -0.7470  0.7567
   20MPD2    C4  314   3.028   3.646  13.641 -0.5261  0.8256 -0.6292
   20MPD2    C5  315   3.030   3.636  13.502 -0.0220 -0.5469 -0.6218
   20MPD2     H  316   2.713   3.558  13.715 -0.5659  0.6881 -0.5056
   20MPD2    H1  317   3.118   3.689  13.683 -1.5212  2.0158  0.2598
   20MPD2    H2  318   2.911   3.568  13.334  1.5726 -1.2378  0.4056
   20MPD2    H3  319   3.119   3.663  13.446 -1.5726  2.5907 -1.5894
   20MPD2     N  320   2.928   3.646  13.850  0.0415 -0.0978  0.3400
   20MPD2    H5  321   3.008   3.703  13.873  0.4346 -2.0973  3.9952
   20MPD2    N1  322   2.677   3.527  13.463 -0.1322 -0.1433 -0.3392
   20MPD2    H7  323   2.598   3.518  13.526 -1.7795 -0.0660 -2.4254
   21TMC2    C1  324   4.415   3.984  15.032 -0.1714 -0.1985 -0.5572
   21TMC2    C2  325   4.401   3.865  15.094 -0.5116  0.3910 -0.1131
   21TMC2    C3  326   4.372   3.870  15.225 -0.1062 -0.5987 -0.5025
   21TMC2    C4  327   4.393   4.104  15.085 -0.4277 -0.5456  0.8353
   21TMC2    C5  328   4.359   4.101  15.221 -0.0228 -0.0164 -0.1810
   21TMC2    C6  329   4.354   3.985  15.293 -0.2953 -0.5806 -0.9779
   21TMC2     C  330   4.440   3.979  14.890 -0.1460 -0.4183  0.2106
   21TMC2     O  331   4.519   3.890  14.857  0.1947 -0.1935  0.3601
   21TMC2     H  332   4.418   3.773  15.038  1.0526  0.2378  0.6243
   21TMC2    H1  333   4.404   4.193  15.025  0.4505 -1.7422 -0.7750
   21TMC2    H2  334   4.326   3.968  15.396  2.5877 -0.6173 -0.2037
   21TMC2    C7  335   4.320   4.228  15.289 -0.1251  0.1082 -0.4102
   21TMC2    C8  336   4.327   3.752  15.294  0.4860  0.3932  0.1391
   21TMC2    O1  337   4.323   4.244  15.410  0.0250 -0.0887  0.0792
   21TMC2    O2  338   4.246   3.735  15.383 -0.0858 -0.5196 -0.5493
   21TMC2    O5  339   4.389   3.647  15.242 -0.3388  0.3774 -0.2735
   21TMC2    H5  340   4.458   3.666  15.175  0.2698  1.1108  0.5565
   22MPD2     C  341   4.469   4.251  14.468  0.0958 -0.5731  0.5853
   22MPD2    C1  342   4.550   4.148  14.513 -0.3396 -0.0977 -0.3627
   22MPD2    C2  343   4.520   4.087  14.633  0.8155 -0.5029  0.6525
   22MPD2    C3  344   4.407   4.127  14.696 -0.5748 -0.1900  0.5878
   22MPD2    C4  345   4.326   4.228  14.657  0.5778 -0.0269  0.4679
   22MPD2    C5  346   4.357   4.283  14.538 -0.1236 -0.3305 -0.5932
   22MPD2     H  347   4.583   4.007  14.671 -0.3650 -1.0349  1.4738
   22MPD2    H1  348   4.240   4.265  14.710 -0.0534  0.6021 -1.0022
   22MPD2    H2  349   4.485   4.285  14.366  0.7633 -0.3638  0.7642
   22MPD2    H3  350   4.285   4.354  14.499  0.4089  0.4515 -0.1363
   22MPD2     N  351   4.365   4.072  14.821  0.0827  0.8310 -0.0708
   22MPD2    H5  352   4.288   4.119  14.867  0.5928  1.3727  0.2339
   22MPD2    N1  353   4.655   4.093  14.436  0.1716 -0.3575 -0.1334
   22MPD2    H7  354   4.700   4.006  14.460  2.0744  0.8009  0.4666
   23TMC2    C1  355   1.224   0.365  14.367 -0.0998 -1.2191  0.1020
   23TMC2    C2  356   1.211   0.420  14.243  0.1234 -0.4972 -0.2679
   23TMC2    C3  357   1.091   0.406  14.179  0.3210 -0.2314 -1.0451
   23TMC2    C4  358   1.122   0.301  14.429 -0.2761  0.5465 -0.3161
   23TMC2    C5  359   1.000   0.302  14.365 -0.0904 -0.0050  0.5915
   23TMC2    C6  360   0.979   0.351  14.236 -0.6688 -0.2983  0.6006
   23TMC2     C  361   1.359   0.370  14.428  0.8586  0.1769  0.0919
   23TMC2     O  362   1.362   0.368  14.553 -0.2080 -0.6938  0.0607
   23TMC2     H  363   1.299   0.460  14.194  0.3275 -1.0934 -0.3845
   23TMC2    H1  364   1.132   0.254  14.526 -2.6139  0.0682 -0.3072
   23TMC2    H2  365   0.886   0.329  14.185 -0.3465  0.7477 -0.4345
   23TMC2    C7  366   0.893   0.232  14.427  0.2098 -0.0713  0.9198
   23TMC2    C8  367   1.089   0.416  14.032  0.3625 -0.3927  0.8470
   23TMC2    O1  368   0.917   0.172  14.529 -0.3520  0.9642  0.2455
   23TMC2    O2  369   1.012   0.343  13.967  0.1345  0.6143  0.1466
   23TMC2    O5  370   1.088   0.551  14.018  0.3509 -0.2137  0.6703
   23TMC2    H5  371   1.142   0.595  14.087  0.5118 -0.4647  0.7066
   24MPD2     C  372   1.823   0.161  14.399  0.0452 -0.4294 -0.2947
   24MPD2    C1  373   1.754   0.200  14.510 -0.3377 -0.4901  0.0422
   24MPD2    C2  374   1.636   0.268  14.490 -0.3639 -0.2367  0.4648
   24MPD2    C3  375   1.589   0.297  14.361  0.0787  0.3108  0.3331
   24MPD2    C4  376   1.662   0.263  14.251 -0.1804  0.4760 -0.4792
   24MPD2    C5  377   1.784   0.202  14.269  0.2660 -0.2524 -0.5912
   24MPD2     H  378   1.584   0.300  14.579 -1.8635 -1.7171  0.1216
   24MPD2    H1  379   1.618   0.283  14.155 -3.1023  0.4421  0.8633
   24MPD2    H2  380   1.918   0.110  14.403  0.3150  0.2703  2.5195
   24MPD2    H3  381   1.837   0.169  14.180  2.5758  1.3640  0.1606
   24MPD2     N  382   1.457   0.348  14.335 -0.4843  0.4222  0.0664
   24MPD2    H5  383   1.428   0.356  14.238  0.9044 -2.5234 -0.6004
   24MPD2    N1  384   1.784   0.158  14.640 -0.2957  0.4545 -0.3003
   24MPD2    H7  385   1.719   0.182  14.715 -1.0469 -1.7327 -0.2781
   25TMC2    C1  386   0.211   2.834  11.216  0.6080  0.1916 -0.2589
   25TMC2    C2  387   0.135   2.889  11.112 -0.3635  0.5791  0.2442
   25TMC2    C3  388   0.090   3.020  11.131  0.4982 -0.1912 -0.1083
   25TMC2    C4  389   0.219   2.894  11.336 -0.6288  0.3233 -0.6323
   25TMC2    C5  390   0.165   3.019  11.352 -0.5090 -0.4463  0.4382
   25TMC2    C6  391   0.110   3.088  11.244  0.0574  0.3590 -0.3491
   25TMC2     C  392   0.259   2.698  11.214 -0.4812 -0.6584 -0.0332
   25TMC2     O  393   0.363   2.672  11.277  0.0101 -0.2536 -0.3420
   25TMC2     H  394   0.139   2.844  11.014 -0.4144  0.7599  0.1582
   25TMC2    H1  395   0.258   2.838  11.420 -2.7351 -1.3362 -0.7574
   25TMC2    H2  396   0.071   3.189  11.247 -0.9862 -0.0600  0.3901
   25TMC2    C7  397   0.146   3.074  11.477 -0.2186  0.6021  0.0731
   25TMC2    C8  398   0.106   3.100  11.014  0.2986  0.0194  0.0860
   25TMC2    O1  399   0.175   2.999  11.568 -0.1598  0.2361 -0.3995
   25TMC2    O2  400   0.169   3.203  11.010  0.0610 -0.3115 -0.4127
   25TMC2    O5  401   4.730   3.078  10.941  0.0259  0.1037 -0.3313
   25TMC2    H5  402   4.689   2.994  10.969 -1.7982  1.5588  1.3643
   26MPD2     C  403   0.157   2.201  11.166 -0.6529  0.1805 -0.1077
   26MPD2    C1  404   0.049   2.265  11.111 -1.3035 -0.2219  0.2628
   26MPD2    C2  405   0.061   2.402  11.111  0.3335 -0.3046 -0.0420
   26MPD2    C3  406   0.176   2.470  11.149  0.3672  0.3218 -0.1122
   26MPD2    C4  407   0.288   2.399  11.197  0.1805 -0.2441 -0.0263
   26MPD2    C5  408   0.272   2.266  11.204  0.1512 -0.0365 -0.5153
   26MPD2     H  409   4.717   2.459  11.068  1.5860  0.3905 -1.5286
   26MPD2    H1  410   0.383   2.448  11.220 -1.1009  2.3660 -0.3288
   26MPD2    H2  411   0.162   2.094  11.180  1.3172  0.3395  0.4013
   26MPD2    H3  412   0.358   2.204  11.227 -0.4713 -0.3801  0.8840
   26MPD2     N  413   0.179   2.612  11.141  0.0854 -0.0516 -0.3551
   26MPD2    H5  414   0.094   2.654  11.104  0.4125 -0.3613 -1.4749
   26MPD2    N1  415   4.672   2.192  11.069 -0.5808 -0.4946  0.1370
   26MPD2    H7  416   4.679   2.091  11.076  0.0267 -0.4605  0.0297
   27TMC2    C1  417   3.569   0.078  11.967 -0.4730 -0.5275  0.1486
   27TMC2    C2  418   3.525   0.171  11.879  0.0797 -1.2014  0.3046
   27TMC2    C3  419   3.553   0.302  11.902  0.0744  0.0284 -0.2570
   27TMC2    C4  420   3.642   0.108  12.080  0.7702 -0.3441 -0.4572
   27TMC2    C5  421   3.674   0.245  12.097  0.7390 -0.5409  0.1891
   27TMC2    C6  422   3.620   0.341  12.016 -0.5660 -0.2512  0.0140
   27TMC2     C  423   3.488   4.699  11.981 -0.5773  0.8863 -0.4384
   27TMC2     O  424   3.408   4.685  11.891 -0.3194 -0.1487 -0.6216
   27TMC2     H  425   3.455   0.141  11.802  0.2616 -0.4483 -0.1582
   27TMC2    H1  426   3.699   0.033  12.133 -0.0376 -1.3934 -1.0678
   27TMC2    H2  427   3.607   0.442  12.051  1.5305  0.0577 -0.0963
   27TMC2    C7  428   3.701   0.264  12.240 -0.1027 -0.9136  0.0398
   27TMC2    C8  429   3.500   0.407  11.808  0.0102 -0.0288 -0.8204
   27TMC2    O1  430   3.672   0.178  12.320  0.0958  0.2685  0.2855
   27TMC2    O2  431   3.422   0.372  11.719  0.0192  0.6209  0.7563
   27TMC2    O5  432   3.613   0.480  11.782  0.8656 -0.4165  0.0022
   27TMC2    H5  433   3.677   0.488  11.855  1.5076 -0.2845 -0.5803
   28MPD2     C  434   3.345   4.342  12.303 -0.3042 -0.6799 -0.2859
   28MPD2    C1  435   3.388   4.449  12.378  0.0573 -0.2410  0.3294
   28MPD2    C2  436   3.444   4.555  12.305 -0.1879  0.3389 -1.1400
   28MPD2    C3  437   3.441   4.557  12.172 -0.3857  0.4901 -0.2697
   28MPD2    C4  438   3.389   4.452  12.100  0.2781 -0.9969 -0.6180
   28MPD2    C5  439   3.359   4.340  12.168  0.0552  0.4545  0.6604
   28MPD2     H  440   3.490   4.639  12.355  0.8831 -0.8991 -0.0700
   28MPD2    H1  441   3.394   4.446  11.992 -2.4420 -0.8466 -0.7532
   28MPD2    H2  442   3.300   4.259  12.357  0.2427  0.5906  2.1599
   28MPD2    H3  443   3.336   4.252  12.109  0.9365  1.1318 -0.7125
   28MPD2     N  444   3.499   4.666  12.113  0.3552  0.7079 -0.0273
   28MPD2    H5  445   3.546   4.732  12.173  0.8719 -0.2565  0.6158
   28MPD2    N1  446   3.349   4.448  12.513  0.5949 -0.1326  0.3010
   28MPD2    H7  447   3.307   4.364  12.552  0.7797 -0.9184 -1.2082
   29TMC2    C1  448   3.798   2.512  14.168  0.1402  0.6971  0.0829
   29TMC2    C2  449   3.923   2.540  14.135  0.2449  0.0910 -0.5068
   29TMC2    C3  450   3.978   2.661  14.175  0.1120  0.2223 -1.0245
   29TMC2    C4  451   3.712   2.607  14.226 -0.3019 -0.9265 -0.1632
   29TMC2    C5  452   3.769   2.724  14.248  0.3061 -0.2377 -0.1651
   29TMC2    C6  453   3.898   2.761  14.215 -0.9048 -0.0610  0.3581
   29TMC2     C  454   3.740   2.395  14.105  0.1198 -0.5255  0.8912
   29TMC2     O  455   3.825   2.311  14.060  0.1454 -0.4716 -0.4408
   29TMC2     H  456   3.985   2.473  14.076 -0.0537 -0.8872  0.2912
   29TMC2    H1  457   3.605   2.591  14.233 -0.4657  0.1127 -0.3526
   29TMC2    H2  458   3.946   2.850  14.255  2.0286 -0.9942 -1.1083
   29TMC2    C7  459   3.676   2.829  14.304 -0.6631  0.7301  0.0217
   29TMC2    C8  460   4.105   2.704  14.128  1.0328  0.8731 -0.3673
   29TMC2    O1  461   3.554   2.813  14.288  0.1819  0.6869 -0.2707
   29TMC2    O2  462   4.132   2.816  14.089 -0.0960  0.6838 -0.3302
   29TMC2    O5  463   4.191   2.606  14.114  0.1916 -0.1574 -0.1610
   29TMC2    H5  464   4.169   2.523  14.160  0.9904 -0.4496 -0.3198
   30MPD2     C  465   3.351   2.103  13.982  0.5442 -0.2588 -0.8764
   30MPD2    C1  466   3.484   2.074  13.988 -0.3512 -0.1845  0.2024
   30MPD2    C2  467   3.565   2.176  14.026 -0.7291  1.1041  0.2570
   30MPD2    C3  468   3.517   2.300  14.056  0.2413 -0.2684 -0.0686
   30MPD2    C4  469   3.384   2.322  14.063 -0.3273  0.0780 -0.4558
   30MPD2    C5  470   3.300   2.220  14.033  0.4789  1.0248 -0.5403
   30MPD2     H  471   3.664   2.150  14.061 -0.9371  1.5854  1.2163
   30MPD2    H1  472   3.346   2.420  14.090  0.5459  0.2634  0.0857
   30MPD2    H2  473   3.277   2.033  13.946 -0.2858  0.3631 -0.3921
   30MPD2    H3  474   3.194   2.241  14.025  0.4739  1.2306  0.0400
   30MPD2     N  475   3.601   2.407  14.089 -0.4925  0.3973 -0.6275
   30MPD2    H5  476   3.562   2.501  14.094  3.1080  1.9635 -1.2537
   30MPD2    N1  477   3.539   1.945  13.955  0.5276  0.2120 -0.2767
   30MPD2    H7  478   3.640   1.933  13.946  0.6472 -0.8768  2.5439
   31TMC2    C1  479   0.723   1.174  15.123  0.5599 -0.0862 -0.1977
   31TMC2    C2  480   0.612   1.246  15.146  0.1073  0.7251  0.6186
   31TMC2    C3  481   0.512   1.181  15.221 -0.2193  0.6478  0.0376
   31TMC2    C4  482   0.741   1.050  15.178  0.4449 -0.5765  0.5843
   31TMC2    C5  483   0.645   0.977  15.240  0.0735  0.2523 -0.0400
   31TMC2    C6  484   0.524   1.051  15.262 -0.9879  0.0241  0.8695
   31TMC2     C  485   0.838   1.246  15.066 -0.2131  0.5550 -0.0966
   31TMC2     O  486   0.805   1.347  15.006 -0.0941  0.1731 -0.3085
   31TMC2     H  487   0.595   1.344  15.104  0.2431 -0.1858 -1.5549
   31TMC2    H1  488   0.836   1.000  15.162 -0.0389 -1.3461  0.1303
   31TMC2    H2  489   0.438   0.999  15.303 -0.4748 -0.8422  0.8472
   31TMC2    C7  490   0.707   0.906  15.355 -0.4780  0.1964 -0.2930
   31TMC2    C8  491   0.376   1.241  15.220 -1.1618 -0.2283 -0.0176
   31TMC2    O1  492   0.829   0.905  15.358 -0.1033 -0.0743  0.0830
   31TMC2    O2  493   0.335   1.318  15.131 -0.1114  0.4912  0.1477
   31TMC2    O5  494   0.317   1.220  15.342  0.3468 -0.4473  0.3732
   31TMC2    H5  495   0.371   1.174  15.410  0.5951  1.6720  1.5798
   32MPD2     C  496   1.348   1.306  14.966 -0.1335 -0.4106 -0.6488
   32MPD2    C1  497   1.240   1.385  14.926  0.0828  1.0099 -0.3104
   32MPD2    C2  498   1.113   1.355  14.971 -0.0130  0.1671 -0.0283
   32MPD2    C3  499   1.087   1.246  15.047 -0.5869  0.1718  0.5957
   32MPD2    C4  500   1.199   1.172  15.082  0.1732  0.4958 -0.9390
   32MPD2    C5  501   1.324   1.202  15.046  0.1495  0.3545  0.3732
   32MPD2     H  502   1.023   1.409  14.941 -0.0680  0.4059  0.5680
   32MPD2    H1  503   1.189   1.082  15.141  0.4665  1.3347  0.4061
   32MPD2    H2  504   1.449   1.329  14.933 -0.0006  0.4634  0.3581
   32MPD2    H3  505   1.407   1.146  15.090  0.0312  0.9217  1.3189
   32MPD2     N  506   0.960   1.190  15.085 -0.2853  0.5055 -0.3242
   32MPD2    H5  507   0.952   1.104  15.137 -0.4999  0.6716 -0.0841
   32MPD2    N1  508   1.259   1.500  14.845  0.0089 -0.4232 -0.1926
   32MPD2    H7  509   1.348   1.501  14.795 -0.5154  1.8951 -1.1082
   33TMC2    C1  510   0.510   3.852   9.971  0.2246  0.4911 -0.7772
   33TMC2    C2  511   0.502   3.803   9.841 -0.2790  0.3070  0.3901
   33TMC2    C3  512   0.510   3.886   9.735 -0.4278 -0.0433  0.3230
   33TMC2    C4  513   0.517   3.988   9.991 -0.5016 -0.0124  0.5514
   33TMC2    C5  514   0.535   4.065   9.877 -0.3194  0.0465 -0.3517
   33TMC2    C6  515   0.530   4.018   9.750  0.0992  0.1343  0.2271
   33TMC2     C  516   0.513   3.761  10.077  1.3164  0.1723 -0.2658
   33TMC2     O  517   0.448   3.659  10.063 -0.2106 -0.8840  0.1021
   33TMC2     H  518   0.491   3.697   9.820 -2.1774  0.0928  2.4366
   33TMC2    H1  519   0.514   4.031  10.090 -2.0230 -0.8346  0.8480
   33TMC2    H2  520   0.557   4.070   9.659 -1.3039  0.4959  0.0123
   33TMC2    C7  521   0.604   4.188   9.903 -0.0355 -0.5727 -0.4932
   33TMC2    C8  522   0.470   3.836   9.607  0.1169  0.6999 -0.2931
   33TMC2    O1  523   0.685   4.211   9.813  0.0123  0.4213 -0.4829
   33TMC2    O2  524   0.416   3.898   9.518 -0.1180  0.3003 -0.2809
   33TMC2    O5  525   0.547   3.732   9.580  0.2867  0.7124 -0.5577
   33TMC2    H5  526   0.608   3.698   9.649 -1.2208 -0.5031  0.1606
   34MPD2     C  527   0.696   3.604  10.537  0.5409  0.5436 -0.3850
   34MPD2    C1  528   0.602   3.546  10.454 -0.3357  0.0491 -0.5275
   34MPD2    C2  529   0.563   3.613  10.337 -0.1006  0.0571 -0.1004
   34MPD2    C3  530   0.623   3.729  10.299  0.5102  0.7156  0.6876
   34MPD2    C4  531   0.708   3.789  10.392 -0.2431 -0.7559  0.2416
   34MPD2    C5  532   0.755   3.719  10.504 -0.2519  0.5674 -0.4889
   34MPD2     H  533   0.481   3.570  10.279  1.3924 -2.4142 -0.3730
   34MPD2    H1  534   0.741   3.891  10.381  1.1380 -1.1074  1.1672
   34MPD2    H2  535   0.725   3.557  10.630  2.4562 -0.4871 -1.4969
   34MPD2    H3  536   0.806   3.768  10.585 -0.1433 -1.2616  0.5500
   34MPD2     N  537   0.596   3.797  10.180  0.5954  0.1040  0.0360
   34MPD2    H5  538   0.654   3.876  10.155  0.3003  1.0667  2.4638
   34MPD2    N1  539   0.550   3.420  10.493  0.3103 -0.9137 -0.0579
   34MPD2    H7  540   0.577   3.379  10.581  3.2701 -0.9763 -0.9918
   35TMC2    C1  541   2.456   4.474  11.337 -0.4475  0.4489 -0.4696
   35TMC2    C2  542   2.397   4.551  11.245  0.1044 -0.0412  0.3420
   35TMC2    C3  543   2.263   4.553  11.248  0.0259  0.0655 -0.1632
   35TMC2    C4  544   2.388   4.417  11.436 -0.5991  0.2101  0.5612
   35TMC2    C5  545   2.254   4.423  11.438  0.2324  0.0392  0.0134
   35TMC2    C6  546   2.189   4.487  11.342  0.0520 -0.1937  0.1232
   35TMC2     C  547   2.605   4.486  11.347 -0.5199  0.2797 -0.4477
   35TMC2     O  548   2.670   4.533  11.257 -0.5145  0.3725 -0.2063
   35TMC2     H  549   2.454   4.610  11.173 -0.4784 -1.4566 -1.2645
   35TMC2    H1  550   2.445   4.350  11.501 -1.5267  0.5911  1.7548
   35TMC2    H2  551   2.081   4.483  11.348 -0.0062  3.2998  0.9124
   35TMC2    C7  552   2.189   4.337  11.530 -0.5580 -0.3233  0.9595
   35TMC2    C8  553   2.191   4.602  11.135 -0.8386  0.4843  0.5117
   35TMC2    O1  554   2.266   4.257  11.576 -0.1195  0.0274 -0.6664
   35TMC2    O2  555   2.210   4.709  11.073 -0.2184 -0.2124 -0.4284
   35TMC2    O5  556   2.134   4.493  11.080  0.1195 -0.3935 -0.6499
   35TMC2    H5  557   2.154   4.405  11.119  0.1850 -0.6687 -1.3048
   36MPD2     C  558   3.007   4.569  11.661 -0.3959  0.0754  0.5362
   36MPD2    C1  559   2.890   4.591  11.727 -0.2847 -0.2271  0.1765
   36MPD2    C2  560   2.767   4.564  11.658 -0.0534 -0.2334 -0.1397
   36MPD2    C3  561   2.767   4.514  11.526  0.0978 -0.4134 -0.0358
   36MPD2    C4  562   2.884   4.499  11.459  0.8526  0.6386  0.0285
   36MPD2    C5  563   2.999   4.527  11.531 -0.0398  0.0199 -0.2885
   36MPD2     H  564   2.670   4.571  11.705  0.3844  0.9667  0.5759
   36MPD2    H1  565   2.887   4.479  11.353  0.9849  1.1142 -0.0546
   36MPD2    H2  566   3.101   4.590  11.709 -0.9477 -1.3429  2.2573
   36MPD2    H3  567   3.091   4.515  11.475  0.2765  0.2464  0.1728
   36MPD2     N  568   2.642   4.479  11.480  0.0500  0.5292 -0.0857
   36MPD2    H5  569   2.582   4.449  11.556  0.2391  0.7439  0.1501
   36MPD2    N1  570   2.883   4.631  11.864  0.7535 -0.6109  0.1609
   36MPD2    H7  571   2.964   4.635  11.925  1.3538  0.3837 -0.6843
   37TMC2    C1  572   0.204   0.544  11.942  0.0330  0.5988  0.5812
   37TMC2    C2  573   0.200   0.522  11.806  0.2150 -0.2934  0.0158
   37TMC2    C3  574   0.299   0.569  11.732  0.3479  0.8844  1.0138
   37TMC2    C4  575   0.308   0.624  11.998 -0.0742  0.5067 -0.5086
   37TMC2    C5  576   0.407   0.663  11.911 -0.1050  0.7282 -0.2193
   37TMC2    C6  577   0.410   0.636  11.775 -0.3258 -0.1660 -0.2764
   37TMC2     C  578   0.098   0.491  12.014  0.0572  0.2849 -0.2648
   37TMC2     O  579   0.017   0.424  11.949  0.4494  0.4745  0.9375
   37TMC2     H  580   0.131   0.459  11.750  1.2899 -1.1660 -0.3348
   37TMC2    H1  581   0.315   0.634  12.106  1.8426  0.6418 -0.6507
   37TMC2    H2  582   0.489   0.659  11.704 -1.0506  0.1802 -0.9702
   37TMC2    C7  583   0.523   0.725  11.972 -0.1103 -0.3383  0.1085
   37TMC2    C8  584   0.290   0.543  11.597 -1.1548 -0.4972  0.3260
   37TMC2    O1  585   0.520   0.703  12.093  0.0506  0.0532  0.0788
   37TMC2    O2  586   0.193   0.533  11.522  0.4468 -0.6984 -0.4804
   37TMC2    O5  587   0.387   0.462  11.568 -0.0475  0.3628 -0.0943
   37TMC2    H5  588   0.458   0.456  11.636 -0.8834 -2.4732  0.5253
   38MPD2     C  589   4.530   0.453  12.433 -0.0814 -0.2867 -0.5341
   38MPD2    C1  590   4.660   0.484  12.459 -0.3563 -0.4479 -0.1204
   38MPD2    C2  591   0.021   0.498  12.370  0.1242  0.0137  0.2068
   38MPD2    C3  592   4.727   0.492  12.239  0.0678  0.3411  0.2914
   38MPD2    C4  593   4.598   0.459  12.200  0.3626 -0.3856 -0.0925
   38MPD2    C5  594   4.500   0.433  12.296 -0.4706  0.6988  0.3671
   38MPD2     H  595   0.124   0.516  12.399 -0.0138 -2.3426  2.0936
   38MPD2    H1  596   4.573   0.450  12.095  1.1016  0.5904 -0.3552
   38MPD2    H2  597   4.452   0.448  12.508 -1.0713 -0.1419 -1.5606
   38MPD2    H3  598   4.403   0.394  12.270  0.0347  0.1642 -0.7139
   38MPD2     N  599   0.098   0.516  12.148  0.0741 -0.1206 -0.0226
   38MPD2    H5  600   0.179   0.544  12.203 -0.3998 -0.5561  0.9032
   38MPD2    N1  601   4.707   0.516  12.591  0.2124 -0.3280  0.9666
   38MPD2    H7  602   0.068   0.533  12.611  0.5506 -0.3121 -0.7144
   39TMC2    C1  603   3.160   2.672   1.465 -0.1405  0.9238 -0.3577
   39TMC2    C2  604   3.094   2.736   1.566  0.6334 -0.3744  0.9101
   39TMC2    C3  605   3.164   2.828   1.646 -0.0361  0.0513 -0.6597
   39TMC2    C4  606   3.295   2.690   1.448 -0.3479 -0.0390 -0.7738
   39TMC2    C5  607   3.361   2.780   1.529  0.1542  0.5268 -0.4419
   39TMC2    C6  608   3.300   2.854   1.623 -0.0569 -0.5977 -0.2465
   39TMC2     C  609   3.095   2.559   1.397  0.1296 -0.0938 -0.2029
   39TMC2     O  610   2.976   2.578   1.369  0.6901  0.1495 -0.1843
   39TMC2     H  611   2.991   2.716   1.595 -0.1759  1.8291 -0.4655
   39TMC2    H1  612   3.339   2.650   1.358 -2.5890 -0.2065 -1.7933
   39TMC2    H2  613   3.348   2.920   1.694 -2.3213  0.5975  0.1692
   39TMC2    C7  614   3.501   2.807   1.489 -0.2979 -0.0748  0.0703
   39TMC2    C8  615   3.100   2.911   1.746 -0.4033 -0.3996 -0.8314
   39TMC2    O1  616   3.560   2.721   1.429 -0.2421  0.0922 -0.1020
   39TMC2    O2  617   3.156   3.008   1.798  0.2436 -0.1455 -0.1548
   39TMC2    O5  618   2.964   2.908   1.725  0.0904 -0.0872 -0.1621
   39TMC2    H5  619   2.924   2.848   1.659  1.7809 -1.5284  0.1391
   40MPD2     C  620   3.251   2.248   1.293 -0.0733 -0.0792  0.0673
   40MPD2    C1  621   3.151   2.336   1.317 -0.4178 -0.4184 -0.9615
   40MPD2    C2  622   3.024   2.307   1.267  0.5407 -0.1352 -0.3374
   40MPD2    C3  623   2.999   2.180   1.219  0.1288  0.6244  0.0451
   40MPD2    C4  624   3.096   2.082   1.212  0.4730 -0.3373 -0.3934
   40MPD2    C5  625   3.225   2.126   1.233  0.2000  0.0450  0.4027
   40MPD2     H  626   2.948   2.383   1.272  1.0434  0.1864  2.2976
   40MPD2    H1  627   3.079   1.981   1.177 -2.4371 -0.4846  1.5068
   40MPD2    H2  628   3.357   2.267   1.311  0.4341 -0.9380 -1.9965
   40MPD2    H3  629   3.309   2.060   1.216  0.6889  0.5853  0.7021
   40MPD2     N  630   2.876   2.141   1.167  0.0375  0.0670 -0.4024
   40MPD2    H5  631   2.873   2.047   1.131  2.5371  0.8204 -2.5847
   40MPD2    N1  632   3.182   2.452   1.378  0.1079  0.5274 -0.0498
   40MPD2    H7  633   3.274   2.449   1.421  0.2747 -0.2742 -0.4559
   41TMC2    C1  634   2.194   0.443  13.550  0.3138  0.4424  0.0428
   41TMC2    C2  635   2.261   0.554  13.598  0.2500  0.1125  0.3764
   41TMC2    C3  636   2.267   0.660  13.518 -0.3815  0.3580 -0.6983
   41TMC2    C4  637   2.134   0.443  13.426 -0.2155  0.5292  0.3437
   41TMC2    C5  638   2.136   0.559  13.353  0.5161 -0.5405  0.0956
   41TMC2    C6  639   2.218   0.662  13.392 -0.3274 -0.2811 -0.2100
   41TMC2     C  640   2.176   0.332  13.636 -0.4300 -0.2918 -0.2577
   41TMC2     O  641   2.173   0.216  13.591 -0.1110  0.3392  0.4314
   41TMC2     H  642   2.308   0.550  13.696 -1.4143  2.5047  1.2771
   41TMC2    H1  643   2.079   0.351  13.405 -0.6404  0.8038  0.2511
   41TMC2    H2  644   2.221   0.761  13.349 -0.8254  0.2691  1.0149
   41TMC2    C7  645   2.051   0.584  13.236 -0.4430  0.5865 -0.0118
   41TMC2    C8  646   2.317   0.784  13.573 -0.5701 -0.1936  0.6533
   41TMC2    O1  647   2.025   0.696  13.202  0.1833 -0.3385  0.7758
   41TMC2    O2  648   2.411   0.850  13.530 -0.3972 -0.6695  0.0860
   41TMC2    O5  649   2.277   0.783  13.697 -0.7275 -0.0601  0.2517
   41TMC2    H5  650   2.192   0.736  13.705 -0.9987  0.1284 -1.4941
   42MPD2     C  651   2.153   0.166  13.888 -0.2076 -0.0836 -0.2706
   42MPD2    C1  652   2.125   0.299  13.878 -0.0578  0.2171 -0.2999
   42MPD2    C2  653   2.089   0.375  13.986 -0.2211  0.4920 -0.2874
   42MPD2    C3  654   2.089   0.311  14.105  0.3040 -0.5697 -0.0924
   42MPD2    C4  655   2.105   0.181  14.118  0.5724  0.4394  0.1241
   42MPD2    C5  656   2.139   0.101  14.013 -0.4433 -0.2941  0.2388
   42MPD2     H  657   2.070   0.480  13.967  0.9848  0.9009  0.7808
   42MPD2    H1  658   2.079   0.126  14.208 -0.4753 -0.0205 -0.4576
   42MPD2    H2  659   2.176   0.105  13.802 -1.8121 -0.2047 -0.6214
   42MPD2    H3  660   2.161   4.735  14.035  0.9525  0.0113  0.2987
   42MPD2     N  661   2.059   0.379  14.226 -0.6135  0.4657  0.5973
   42MPD2    H5  662   2.062   0.316  14.307 -1.6827 -1.2685 -0.7018
   42MPD2    N1  663   2.146   0.377  13.765 -0.0423 -0.0418  0.1476
   42MPD2    H7  664   2.111   0.472  13.769 -0.8222 -0.3823  1.2862
   43TMC2    C1  665   3.648   3.310   0.755 -0.3764  0.0967  0.3383
   43TMC2    C2  666   3.519   3.342   0.725  0.2056  0.5256 -0.1054
   43TMC2    C3  667   3.470   3.449   0.795 -0.6207 -0.7827  0.5575
   43TMC2    C4  668   3.716   3.379   0.851  0.6550  0.5383  0.0709
   43TMC2    C5  669   3.659   3.488   0.915  0.1279 -0.3396  1.4112
   43TMC2    C6  670   3.532   3.521   0.886 -0.2816  0.9832  0.0656
   43TMC2     C  671   3.713   3.195   0.695  0.5253 -0.0996  0.8849
   43TMC2     O  672   3.829   3.169   0.723  0.2889 -0.2333 -0.0253
   43TMC2     H  673   3.451   3.288   0.661 -1.2391  1.0854  0.9614
   43TMC2    H1  674   3.802   3.330   0.894  0.2387 -1.9171 -1.9139
   43TMC2    H2  675   3.480   3.597   0.942 -2.0095 -0.3914  0.3121
   43TMC2    C7  676   3.750   3.559   1.007 -0.2488  0.9329  0.7212
   43TMC2    C8  677   3.336   3.487   0.764  0.2775  0.3440  0.2136
   43TMC2    O1  678   3.872   3.538   0.990  0.5008 -0.3967 -0.1183
   43TMC2    O2  679   3.254   3.414   0.712 -0.3168  0.3336  0.6716
   43TMC2    O5  680   3.300   3.611   0.795  0.2310  0.5381  0.1680
   43TMC2    H5  681   3.376   3.673   0.795 -0.2999  1.1789 -0.1658
   44MPD2     C  682   3.748   2.888   0.285 -0.7343 -0.3198 -0.2266
   44MPD2    C1  683   3.835   2.928   0.381 -0.6607 -0.5644  0.9036
   44MPD2    C2  684   3.795   3.002   0.491  0.0730 -0.2839  0.0303
   44MPD2    C3  685   3.669   3.046   0.503 -0.7742 -0.1609 -0.1252
   44MPD2    C4  686   3.575   3.012   0.408 -0.4434 -0.0679 -0.9514
   44MPD2    C5  687   3.620   2.941   0.301  0.2306  0.7907 -0.2175
   44MPD2     H  688   3.871   3.042   0.557  1.6731 -2.0594 -0.7099
   44MPD2    H1  689   3.473   3.048   0.398 -0.3223  1.2070  2.4987
   44MPD2    H2  690   3.759   2.820   0.201  1.7271  0.5886 -0.6364
   44MPD2    H3  691   3.557   2.933   0.213  0.2002 -0.0267 -0.1235
   44MPD2     N  692   3.631   3.144   0.593 -0.0019  0.7272 -0.6601
   44MPD2    H5  693   3.532   3.165   0.601 -0.0179  0.3471  0.1888
   44MPD2    N1  694   3.976   2.911   0.370 -0.6898  0.1425  0.3625
   44MPD2    H7  695   4.028   2.952   0.447  0.9835 -0.8393 -0.2458
   45TMC2    C1  696   3.750   1.021   9.021 -0.0309 -0.0588 -0.4667
   45TMC2    C2  697   3.866   0.999   8.948  0.0592  1.1207 -0.3864
   45TMC2    C3  698   3.978   1.063   8.985  0.5795  0.5242 -0.4841
   45TMC2    C4  699   3.749   1.112   9.123  0.1253  0.3561 -1.3131
   45TMC2    C5  700   3.867   1.177   9.153 -0.7853  0.0758  0.3219
   45TMC2    C6  701   3.980   1.164   9.082  0.1097  0.8289  0.0177
   45TMC2     C  702   3.622   0.973   8.970 -0.7177 -0.2808 -0.6960
   45TMC2     O  703   3.620   0.941   8.854 -0.1756 -0.7009  0.4629
   45TMC2     H  704   3.862   0.956   8.848  1.4548 -0.1841  0.1188
   45TMC2    H1  705   3.660   1.137   9.180  1.3980 -0.1332  0.8846
   45TMC2    H2  706   4.074   1.215   9.103  0.5202  0.0330  0.1517
   45TMC2    C7  707   3.871   1.255   9.277  0.1754  0.0880  0.0782
   45TMC2    C8  708   4.099   1.064   8.898 -0.6178  0.7725  0.2247
   45TMC2    O1  709   3.805   1.203   9.367  0.3357 -0.4355  0.2758
   45TMC2    O2  710   4.187   1.148   8.915 -0.1548 -0.8137  0.3421
   45TMC2    O5  711   4.111   0.951   8.821 -0.4362 -0.0590  0.5294
   45TMC2    H5  712   4.043   0.880   8.828  1.9051 -2.1907  1.5217
   46MPD2     C  713   3.348   0.858   8.943 -0.4309 -0.3943 -0.4100
   46MPD2    C1  714   3.393   0.922   9.055  0.6548 -0.0230  0.3774
   46MPD2    C2  715   3.302   0.941   9.153 -1.0950  0.1525  0.0896
   46MPD2    C3  716   3.176   0.887   9.151  0.1243 -0.3626  0.1089
   46MPD2    C4  717   3.148   0.797   9.048  0.3439  0.0846  0.3596
   46MPD2    C5  718   3.232   0.785   8.942  0.9349  0.1656  0.0122
   46MPD2     H  719   3.333   1.000   9.239  0.2394 -0.9992  0.3877
   46MPD2    H1  720   3.058   0.738   9.039  0.2977  0.1890  0.1121
   46MPD2    H2  721   3.416   0.846   8.859  2.9381  1.2154  2.1004
   46MPD2    H3  722   3.209   0.717   8.860 -2.4831  0.4575  0.7317
   46MPD2     N  723   3.093   0.925   9.260  0.4556 -0.5950  0.0672
   46MPD2    H5  724   3.129   0.995   9.323  2.4349  0.2659 -2.0062
   46MPD2    N1  725   3.524   0.973   9.070  0.3289 -0.1092  0.0172
   46MPD2    H7  726   3.543   1.004   9.165 -2.0652  1.6200 -0.0649
   47TMC2    C1  727   2.227   0.849   8.973 -1.0456  0.2888 -0.0076
   47TMC2    C2  728   2.224   0.877   8.843  0.0369 -0.2954  0.0735
   47TMC2    C3  729   2.125   0.959   8.800 -0.4598  0.3354  0.0712
   47TMC2    C4  730   2.147   0.907   9.070 -0.0494 -0.6711 -0.2942
   47TMC2    C5  731   2.043   0.987   9.027 -0.0618  0.2225  0.1867
   47TMC2    C6  732   2.033   1.010   8.891  0.1486 -0.3523 -0.2141
   47TMC2     C  733   2.340   0.766   9.021  0.4730  0.1457  0.4092
   47TMC2     O  734   2.436   0.778   8.945 -0.0194 -0.4687  0.0231
   47TMC2     H  735   2.305   0.846   8.778 -1.1744 -3.1540 -0.0726
   47TMC2    H1  736   2.153   0.890   9.177 -1.5549  2.7341  0.3600
   47TMC2    H2  737   1.951   1.061   8.840 -0.4088 -0.5470  0.4886
   47TMC2    C7  738   1.930   1.028   9.107  0.5544 -0.0888  0.5159
   47TMC2    C8  739   2.135   1.001   8.653 -0.6740 -0.3900  0.0388
   47TMC2    O1  740   1.842   1.084   9.043 -0.0437  0.2292  0.3184
   47TMC2    O2  741   2.220   0.970   8.572 -0.2353  0.4989  0.0253
   47TMC2    O5  742   2.047   1.103   8.619  0.2889 -0.0876 -0.0484
   47TMC2    H5  743   1.980   1.116   8.689  0.6675 -3.6948  0.9424
   48MPD2     C  744   2.542   0.597   9.161  0.0851  0.2862  0.1249
   48MPD2    C1  745   2.415   0.621   9.209 -0.8248 -0.8326 -0.2890
   48MPD2    C2  746   2.371   0.545   9.314  0.2027 -0.1073  0.7773
   48MPD2    C3  747   2.458   0.458   9.379 -0.5837  0.2860 -0.3410
   48MPD2    C4  748   2.584   0.440   9.333  0.8612  0.6741 -0.4829
   48MPD2    C5  749   2.634   0.519   9.231 -0.3723 -0.7377 -0.0668
   48MPD2     H  750   2.268   0.555   9.348 -0.2127 -3.0088  0.3989
   48MPD2    H1  751   2.647   0.370   9.387 -1.1695  0.0829  1.1213
   48MPD2    H2  752   2.574   0.647   9.070 -1.6732  0.5431 -0.3375
   48MPD2    H3  753   2.735   0.506   9.195 -0.5349 -0.8425 -0.4932
   48MPD2     N  754   2.405   0.392   9.495 -0.2489 -0.0807 -0.6396
   48MPD2    H5  755   2.311   0.421   9.519 -0.5801  0.5713 -2.7829
   48MPD2    N1  756   2.316   0.703   9.142  0.2446  0.8416  0.0930
   48MPD2    H7  757   2.226   0.723   9.184 -0.7431 -0.9363 -1.2067
   49TMC2    C1  758   4.480   3.150   9.927  0.5502  0.6554 -0.4694
   49TMC2    C2  759   4.458   3.176   9.801  0.2786  0.0552 -0.3870
   49TMC2    C3  760   4.433   3.075   9.719 -0.1080  0.2068 -0.0825
   49TMC2    C4  761   4.472   3.022   9.976  0.0730  0.2442 -0.0964
   49TMC2    C5  762   4.441   2.918   9.890  0.0280 -0.8787  0.3700
   49TMC2    C6  763   4.403   2.947   9.760 -0.2757  0.6321  0.5061
   49TMC2     C  764   4.484   3.266  10.012 -0.4393 -0.4036 -0.1679
   49TMC2     O  765   4.527   3.369   9.959  0.1924  0.1741  0.1792
   49TMC2     H  766   4.457   3.278   9.765 -0.5514  0.8765  1.9393
   49TMC2    H1  767   4.489   3.006  10.082 -0.8018  1.4079  0.2192
   49TMC2    H2  768   4.369   2.873   9.688 -0.9155  1.4958 -0.0625
   49TMC2    C7  769   4.414   2.782   9.932 -0.5638 -0.0349  0.3170
   49TMC2    C8  770   4.405   3.098   9.576  0.0520  0.5943  0.6032
   49TMC2    O1  771   4.346   2.724   9.847 -0.1193  0.3309 -0.0814
   49TMC2    O2  772   4.298   3.079   9.518 -0.2607  0.2194  0.4107
   49TMC2    O5  773   4.486   3.196   9.536  0.1623 -0.5049 -0.1327
   49TMC2    H5  774   4.558   3.205   9.602  0.5449  2.2220 -0.9054
   50MPD2     C  775   4.490   3.445  10.238 -0.3351 -0.2648 -0.1416
   50MPD2    C1  776   4.420   3.328  10.239  0.2831  0.3537 -0.4650
   50MPD2    C2  777   4.356   3.286  10.353 -0.4876 -0.0223 -0.1049
   50MPD2    C3  778   4.373   3.365  10.474 -1.1719  0.7455  0.1160
   50MPD2    C4  779   4.445   3.478  10.468 -0.3434 -0.5957 -0.3809
   50MPD2    C5  780   4.498   3.521  10.351  0.3034 -0.2893 -0.4592
   50MPD2     H  781   4.299   3.194  10.355  1.1563 -1.0534 -0.4142
   50MPD2    H1  782   4.465   3.541  10.554 -0.4148 -0.3953 -0.5084
   50MPD2    H2  783   4.532   3.481  10.145  0.2553  1.4181  0.7719
   50MPD2    H3  784   4.566   3.605  10.345 -1.0738  0.7292 -1.8427
   50MPD2     N  785   4.317   3.328  10.595 -0.0956  0.0077  0.4088
   50MPD2    H5  786   4.353   3.384  10.671 -1.7693  1.4302  0.1709
   50MPD2    N1  787   4.432   3.235  10.135 -0.1076  0.2629 -0.2298
   50MPD2    H7  788   4.376   3.152  10.150  0.7499 -0.3837 -0.5868
   51TMC2    C1  789   2.336   1.334   1.254 -0.5076 -0.1275 -0.1231
   51TMC2    C2  790   2.476   1.320   1.256 -0.1515 -0.1360 -0.4989
   51TMC2    C3  791   2.543   1.375   1.365  0.3154 -0.0143  0.0247
   51TMC2    C4  792   2.267   1.395   1.352  0.2004 -0.1498 -0.2412
   51TMC2    C5  793   2.347   1.463   1.447 -0.6439  0.2918 -0.3162
   51TMC2    C6  794   2.482   1.461   1.447  0.1065  0.7279  0.9185
   51TMC2     C  795   2.257   1.251   1.157  0.2394 -0.3982 -0.9165
   51TMC2     O  796   2.146   1.211   1.190  0.0322 -0.1970  0.1186
   51TMC2     H  797   2.527   1.263   1.178  0.1076  0.2536 -0.6125
   51TMC2    H1  798   2.159   1.399   1.344  0.0894 -0.1888  1.1609
   51TMC2    H2  799   2.530   1.505   1.533 -2.1931  1.1583  1.9637
   51TMC2    C7  800   2.286   1.564   1.536 -0.3436 -0.6286  0.2104
   51TMC2    C8  801   2.683   1.372   1.358  0.2098  0.4937 -0.0431
   51TMC2    O1  802   2.360   1.636   1.603 -0.4009  0.0243 -0.8234
   51TMC2    O2  803   2.742   1.353   1.253  0.5832  0.0643 -0.3743
   51TMC2    O5  804   2.745   1.380   1.478  0.0130  0.0161  0.2053
   51TMC2    H5  805   2.678   1.389   1.549 -0.6781 -0.5398 -0.3818
   52MPD2     C  806   2.275   0.966   0.728 -0.0208  0.5064 -0.3699
   52MPD2    C1  807   2.173   0.974   0.826  0.9478  0.1708  0.0979
   52MPD2    C2  808   2.194   1.062   0.932  0.2338  0.0055 -0.1528
   52MPD2    C3  809   2.310   1.131   0.948  0.8216  0.1679 -0.2791
   52MPD2    C4  810   2.414   1.106   0.861  0.1735  0.2346 -0.4651
   52MPD2    C5  811   2.393   1.024   0.751  0.9507  0.0544 -0.0432
   52MPD2     H  812   2.113   1.080   1.001  1.0788  1.4857  0.4407
   52MPD2    H1  813   2.510   1.154   0.878  0.2141  1.1821 -3.4422
   52MPD2    H2  814   2.269   0.902   0.641  1.2461 -0.6650  0.4102
   52MPD2    H3  815   2.478   1.002   0.688  1.8440  2.0987  0.4197
   52MPD2     N  816   2.335   1.223   1.050  0.2506  0.6466  0.2426
   52MPD2    H5  817   2.418   1.281   1.041  0.1816  0.4966 -1.3611
   52MPD2    N1  818   2.052   0.905   0.822  0.4315 -0.2689  0.4368
   52MPD2    H7  819   1.984   0.917   0.896 -1.6085 -2.9323 -0.9901
   53TMC2    C1  820   1.042   1.003  12.405 -0.0332 -0.5258 -0.4876
   53TMC2    C2  821   1.079   1.123  12.455  0.8581  0.4732 -0.7084
   53TMC2    C3  822   1.023   1.177  12.572 -0.5649 -0.1501 -0.0739
   53TMC2    C4  823   0.937   0.938  12.450  0.1296 -0.0839  0.1674
   53TMC2    C5  824   0.879   0.993  12.563 -0.8003  0.5406  0.2855
   53TMC2    C6  825   0.925   1.107  12.628 -0.0599  0.5669  0.7686
   53TMC2     C  826   1.039   1.000  12.262  0.2840  0.1034  0.4061
   53TMC2     O  827   1.112   1.077  12.202  0.0668 -0.0602 -0.0347
   53TMC2     H  828   1.165   1.175  12.415  1.9350  1.6531  3.1955
   53TMC2    H1  829   0.909   0.839  12.418 -1.8545  0.9059 -1.1413
   53TMC2    H2  830   0.890   1.136  12.726 -1.2887  1.9813 -0.0875
   53TMC2    C7  831   0.737   0.969  12.571  0.2272 -0.1308 -0.3804
   53TMC2    C8  832   1.076   1.292  12.647  0.4496  0.8520  0.3772
   53TMC2    O1  833   0.682   0.950  12.463  0.1113  0.1686  0.2652
   53TMC2    O2  834   1.066   1.281  12.770  0.3534 -0.0184  0.2598
   53TMC2    O5  835   1.174   1.355  12.583  0.0353 -0.0396  0.3567
   53TMC2    H5  836   1.151   1.367  12.489 -2.9746  0.3403  1.1365
   54MPD2     C  837   0.966   0.970  11.976  0.2027  0.2528  0.4980
   54MPD2    C1  838   0.893   0.910  12.077  0.2064 -0.3127 -0.2216
   54MPD2    C2  839   0.777   0.844  12.048  0.3706  0.3722 -0.2298
   54MPD2    C3  840   0.734   0.836  11.915 -0.3537  0.5823  0.6324
   54MPD2    C4  841   0.803   0.894  11.814 -0.8015  0.2786 -0.5260
   54MPD2    C5  842   0.918   0.961  11.844  0.1139  0.4810  0.5269
   54MPD2     H  843   0.715   0.813  12.131 -0.9800  0.3432 -1.2508
   54MPD2    H1  844   0.765   0.904  11.713 -0.5995 -0.2700 -0.6605
   54MPD2    H2  845   1.059   1.024  11.990  1.0841 -1.3874  0.9963
   54MPD2    H3  846   0.974   0.998  11.759 -0.5647  0.9688  0.2866
   54MPD2     N  847   0.608   0.777  11.888 -0.0485 -0.0344 -0.7297
   54MPD2    H5  848   0.576   0.771  11.791 -0.6168 -1.0946 -0.4882
   54MPD2    N1  849   0.935   0.917  12.213 -0.3091  1.0894  0.1822
   54MPD2    H7  850   0.894   0.852  12.278  0.9303 -1.8807 -2.0022
   55TMC2    C1  851   1.779   2.859   0.593  0.5714  0.3271  0.3763
   55TMC2    C2  852   1.896   2.854   0.530  0.3049 -0.2776 -0.8894
   55TMC2    C3  853   1.986   2.761   0.568  0.1458 -0.1546 -0.8175
   55TMC2    C4  854   1.735   2.756   0.676 -0.0242  1.0173  0.2237
   55TMC2    C5  855   1.834   2.653   0.704  0.2740 -0.6436 -0.4688
   55TMC2    C6  856   1.961   2.656   0.655 -0.4448  0.0222  0.6085
   55TMC2     C  857   1.679   2.961   0.559  0.1462  0.8928 -0.2405
   55TMC2     O  858   1.608   3.010   0.643  0.5174  0.4369  0.0351
   55TMC2     H  859   1.933   2.931   0.463 -0.2730 -0.8714 -1.9021
   55TMC2    H1  860   1.642   2.775   0.728 -0.4101 -0.5667  0.0976
   55TMC2    H2  861   2.029   2.572   0.664 -0.0945  0.3903  1.4440
   55TMC2    C7  862   1.803   2.545   0.795 -0.0111 -0.0091  0.1586
   55TMC2    C8  863   2.115   2.771   0.513  0.4786  0.9158  0.1278
   55TMC2    O1  864   1.874   2.445   0.813  0.2618  0.2896  0.2747
   55TMC2    O2  865   2.205   2.714   0.577 -0.0623  0.1725 -0.2391
   55TMC2    O5  866   2.109   2.796   0.381  0.0655  0.0783 -0.3081
   55TMC2    H5  867   2.019   2.824   0.352 -0.3036 -0.8131 -0.0283
   56MPD2     C  868   1.640   3.135   0.232 -0.3146  0.3673 -0.3304
   56MPD2    C1  869   1.604   3.095   0.353  0.3805  0.2397 -0.6165
   56MPD2    C2  870   1.490   3.147   0.406  0.5834  0.7708 -0.3906
   56MPD2    C3  871   1.411   3.246   0.342 -0.1760  0.4087  0.4158
   56MPD2    C4  872   1.448   3.289   0.221 -0.6521 -0.1013  0.3997
   56MPD2    C5  873   1.563   3.241   0.174 -0.2275  0.4599 -0.1450
   56MPD2     H  874   1.452   3.106   0.499 -1.7866 -0.7097 -2.0028
   56MPD2    H1  875   1.391   3.365   0.169  0.4564  1.9740  2.1982
   56MPD2    H2  876   1.730   3.096   0.186  0.0895  0.6842  0.2007
   56MPD2    H3  877   1.594   3.284   0.079  4.8252 -0.3364  1.1559
   56MPD2     N  878   1.295   3.289   0.409 -0.3484 -0.1778 -0.0336
   56MPD2    H5  879   1.289   3.276   0.509 -0.0918  1.6209  0.2272
   56MPD2    N1  880   1.684   2.993   0.426 -0.1869  0.5778 -0.0956
   56MPD2    H7  881   1.751   2.942   0.369  0.4738  2.4597 -0.9950
   57TMC2    C1  882   0.585   4.266  13.490 -0.1213 -0.4423 -0.3957
   57TMC2    C2  883   0.644   4.192  13.586 -0.2561 -0.5895 -0.2192
   57TMC2    C3  884   0.760   4.130  13.559 -0.4250  0.1834 -0.2101
   57TMC2    C4  885   0.644   4.282  13.373  0.2816 -0.0106  0.4272
   57TMC2    C5  886   0.757   4.215  13.339 -0.2988 -0.0884  1.1475
   57TMC2    C6  887   0.825   4.139  13.435 -0.2481 -0.0131 -0.2130
   57TMC2     C  888   0.450   4.315  13.504 -0.2481  0.2648 -0.3115
   57TMC2     O  889   0.416   4.422  13.455  0.1095  0.2715 -0.5951
   57TMC2     H  890   0.604   4.185  13.686 -0.0643 -0.8898 -0.1655
   57TMC2    H1  891   0.595   4.330  13.290  2.2651 -0.4451 -1.0006
   57TMC2    H2  892   0.914   4.081  13.414 -0.9621 -0.3559 -2.2927
   57TMC2    C7  893   0.826   4.243  13.210 -0.6157 -0.5011 -0.7090
   57TMC2    C8  894   0.834   4.058  13.659  0.5481 -0.2163 -0.5405
   57TMC2    O1  895   0.802   4.347  13.150 -0.4271  0.3549  0.0737
   57TMC2    O2  896   0.952   4.081  13.662 -0.3394 -0.3010 -0.1642
   57TMC2    O5  897   0.745   4.009  13.756 -0.0832  0.2177 -0.3391
   57TMC2    H5  898   0.658   3.980  13.722  0.1726  0.5436 -1.2683
   58MPD2     C  899   0.002   4.263  13.736  0.1172 -0.0800  1.1143
   58MPD2    C1  900   0.033   4.346  13.639  0.5115 -0.9696 -0.1010
   58MPD2    C2  901   0.155   4.323  13.570 -0.2704  0.7107  0.6249
   58MPD2    C3  902   0.247   4.236  13.618 -1.0523  0.5104 -0.3915
   58MPD2    C4  903   0.216   4.146  13.720 -0.0519 -0.2338 -0.1224
   58MPD2    C5  904   0.088   4.166  13.775 -0.2112  0.3878  0.1538
   58MPD2     H  905   0.187   4.386  13.487  1.3945 -0.2829  0.4985
   58MPD2    H1  906   0.280   4.069  13.761  0.4652 -0.4651 -1.3714
   58MPD2    H2  907   4.644   4.270  13.786 -0.0565  1.4508  0.5540
   58MPD2    H3  908   0.052   4.112  13.861  0.5568 -0.4889 -0.0688
   58MPD2     N  909   0.376   4.223  13.577 -0.3827 -0.1043 -0.3393
   58MPD2    H5  910   0.420   4.151  13.633  0.3539 -0.4626 -1.3645
   58MPD2    N1  911   4.686   4.450  13.601 -0.0396 -0.0882 -0.0666
   58MPD2    H7  912   4.726   4.498  13.521  1.2617 -0.9159  0.0943
   59TMC2    C1  913   3.206   4.124  12.968 -0.6411  0.1668  0.7933
   59TMC2    C2  914   3.312   4.048  13.010  0.8530 -0.2268 -0.0879
   59TMC2    C3  915   3.316   3.919  12.959  0.2420 -0.3568 -0.0077
   59TMC2    C4  916   3.119   4.083  12.867  0.6314  0.5157  0.1439
   59TMC2    C5  917   3.144   3.960  12.806  0.4963 -0.3853  0.4053
   59TMC2    C6  918   3.229   3.868  12.865  0.0359 -0.2587  0.0454
   59TMC2     C  919   3.173   4.252  13.036 -0.6626  0.0787 -0.6661
   59TMC2     O  920   3.058   4.293  13.006 -0.2521 -0.4467 -0.0487
   59TMC2     H  921   3.372   4.084  13.093 -0.0551  0.6548  0.1803
   59TMC2    H1  922   3.058   4.156  12.815  1.9114 -1.0262 -3.5091
   59TMC2    H2  923   3.232   3.775  12.809  1.2115 -0.5687  0.6462
   59TMC2    C7  924   3.052   3.907  12.707 -0.7610  0.0305  0.8956
   59TMC2    C8  925   3.429   3.843  13.019  0.2143  0.5588  0.2660
   59TMC2    O1  926   3.019   3.787  12.719 -0.8847 -0.0068 -0.0286
   59TMC2    O2  927   3.519   3.888  13.090 -0.1568 -0.3613 -0.5650
   59TMC2    O5  928   3.388   3.717  13.032 -0.1445 -0.2240 -0.0683
   59TMC2    H5  929   3.305   3.685  12.991 -0.2113  1.3067 -1.0961
   60MPD2     C  930   3.163   4.533  13.151  0.2025  0.4810  0.2061
   60MPD2    C1  931   3.251   4.437  13.188 -0.1496  0.1314 -0.1979
   60MPD2    C2  932   3.348   4.455  13.281  0.9984 -0.2151  0.3348
   60MPD2    C3  933   3.354   4.580  13.343 -0.2977 -0.2883 -0.1038
   60MPD2    C4  934   3.268   4.681  13.309  0.6297 -0.3497  0.5621
   60MPD2    C5  935   3.174   4.655  13.210 -0.1910 -0.2670 -0.1115
   60MPD2     H  936   3.412   4.371  13.308 -0.6154 -2.1120 -1.7120
   60MPD2    H1  937   3.251   0.030  13.371 -2.7432 -0.2992 -0.4588
   60MPD2    H2  938   3.079   4.517  13.084  1.6009  1.3529 -1.7537
   60MPD2    H3  939   3.088   4.721  13.205 -0.4048 -0.5440 -0.0269
   60MPD2     N  940   3.451   4.610  13.436  0.0732  0.4379  0.2207
   60MPD2    H5  941   3.458   4.708  13.459 -0.8854 -0.2375  3.4939
   60MPD2    N1  942   3.258   4.306  13.126 -0.3286 -0.6564 -0.1809
   60MPD2    H7  943   3.347   4.262  13.147  0.4821  1.2244  0.3471
   61TMC2    C1  944   2.139   0.844  14.935  0.2014 -0.1416  0.1191
   61TMC2    C2  945   2.085   0.794  15.058 -0.3376  0.3060 -0.0716
   61TMC2    C3  946   2.047   0.892  15.147 -0.6089  0.0650 -0.3014
   61TMC2    C4  947   2.140   0.976  14.908 -0.4666  0.1340 -0.4707
   61TMC2    C5  948   2.104   1.065  15.009 -0.3631  0.8780 -0.1632
   61TMC2    C6  949   2.061   1.027  15.129  0.3704 -0.3658  0.0824
   61TMC2     C  950   2.197   0.759  14.839 -0.1770 -0.5357 -0.2297
   61TMC2     O  951   2.131   0.654  14.825  0.1563 -0.3638 -0.5875
   61TMC2     H  952   2.089   0.689  15.087 -0.4292  0.0046 -1.1330
   61TMC2    H1  953   2.181   1.017  14.816 -1.5079  2.6858  0.2016
   61TMC2    H2  954   2.038   1.100  15.206  0.4150  0.1953 -0.4409
   61TMC2    C7  955   2.162   1.197  14.999  0.7073 -1.3218  0.0671
   61TMC2    C8  956   2.006   0.845  15.281 -0.1536 -0.0079 -0.3933
   61TMC2    O1  957   2.270   1.208  14.945 -0.4995 -0.8093  0.4480
   61TMC2    O2  958   2.029   0.899  15.385 -1.1977  0.0105 -0.3827
   61TMC2    O5  959   1.923   0.734  15.262  0.3530 -0.2683  0.1414
   61TMC2    H5  960   1.886   0.716  15.173  2.9964 -1.2924 -0.7547
   62MPD2     C  961   2.350   0.645  14.601  0.6974  0.1632 -0.2784
   62MPD2    C1  962   2.382   0.758  14.671 -0.0869 -0.4057 -0.0323
   62MPD2    C2  963   2.466   0.844  14.609  0.5294  0.3060  0.7297
   62MPD2    C3  964   2.540   0.809  14.495 -0.0835  0.2150 -0.3139
   62MPD2    C4  965   2.520   0.684  14.442 -0.2814  0.5517 -0.9535
   62MPD2    C5  966   2.419   0.605  14.491 -0.6087 -0.3182  0.4333
   62MPD2     H  967   2.487   0.937  14.660 -0.2851  1.0375 -0.2536
   62MPD2    H1  968   2.566   0.661  14.347 -0.3200  1.9764 -1.3281
   62MPD2    H2  969   2.281   0.570  14.638 -0.6087  1.0927 -0.8150
   62MPD2    H3  970   2.398   0.514  14.437 -2.6398  0.5816 -0.3049
   62MPD2     N  971   2.612   0.911  14.431 -0.1212  0.0896 -0.2518
   62MPD2    H5  972   2.630   0.992  14.490 -2.2137  0.1904  0.2353
   62MPD2    N1  973   2.316   0.805  14.788 -0.5761 -0.1294  0.1008
   62MPD2    H7  974   2.344   0.894  14.825  0.4426 -1.3912  2.3619
   63TMC2    C1  975   1.884   0.723  10.974 -0.4204  0.2410 -0.0039
   63TMC2    C2  976   1.992   0.775  11.042  0.5439 -0.1760  0.0940
   63TMC2    C3  977   2.022   0.908  11.017  0.2139  0.2761 -0.1318
   63TMC2    C4  978   1.814   0.797  10.879  0.7288 -0.3917 -0.4158
   63TMC2    C5  979   1.839   0.934  10.873 -0.6714  0.9853 -1.0705
   63TMC2    C6  980   1.939   0.988  10.948 -0.9183 -0.0193 -0.1072
   63TMC2     C  981   1.812   0.614  11.044 -0.2563  0.1493 -0.2168
   63TMC2     O  982   1.835   0.614  11.164  0.6626  0.2458  0.8147
   63TMC2     H  983   2.049   0.728  11.121 -0.1007 -1.5289 -0.2425
   63TMC2    H1  984   1.729   0.757  10.825 -0.4973  1.5939  0.0428
   63TMC2    H2  985   1.963   1.094  10.949 -0.0006 -0.2480  1.9242
   63TMC2    C7  986   1.739   1.019  10.805  0.3550 -0.0345  0.1686
   63TMC2    C8  987   2.146   0.957  11.075 -0.3135 -0.0022 -0.4745
   63TMC2    O1  988   1.656   0.955  10.735 -0.0382  0.3063  0.1682
   63TMC2    O2  989   2.164   1.075  11.102 -0.5621 -0.2497 -0.0231
   63TMC2    O5  990   2.244   0.883  11.006  0.0257 -0.0484 -0.0115
   63TMC2    H5  991   2.224   0.794  10.968 -1.2470  0.2918 -0.1203
   64MPD2     C  992   1.546   0.169  11.094  0.1694  0.2986  0.3673
   64MPD2    C1  993   1.596   0.184  10.958  0.0745  0.3731 -0.3298
   64MPD2    C2  994   1.661   0.302  10.920 -0.4989  1.7662 -0.1893
   64MPD2    C3  995   1.682   0.405  11.008  0.4969 -0.1154  0.7299
   64MPD2    C4  996   1.637   0.395  11.137 -0.0622  0.3449 -0.0150
   64MPD2    C5  997   1.569   0.279  11.174  0.7658  0.1569 -0.2850
   64MPD2     H  998   1.697   0.308  10.818 -0.9454  2.2848 -0.3162
   64MPD2    H1  999   1.655   0.482  11.199  0.5639  2.5489 -3.2545
   64MPD2    H2 1000   1.489   0.084  11.129 -0.0934  0.5178  0.4702
   64MPD2    H3 1001   1.535   0.272  11.277  1.6531  0.1506  0.0128
   64MPD2     N 1002   1.746   0.526  10.959 -0.4185 -0.0199  0.1442
   64MPD2    H5 1003   1.764   0.545  10.861  1.6075 -0.3230  0.4557
   64MPD2    N1 1004   1.578   0.081  10.858 -0.0858 -0.0339 -0.2431
   64MPD2    H7 1005   1.631   0.085  10.771 -0.0986  0.2565 -0.2389
   65TMC2    C1 1006   2.281   0.407  15.891  0.3490 -0.4456  0.1850
   65TMC2    C2 1007   2.151   0.422  15.931  0.2312 -0.9053  0.0963
   65TMC2    C3 1008   2.081   0.520  15.868  0.0734 -0.7980 -0.3394
   65TMC2    C4 1009   2.338   0.497  15.803  0.4362  0.3243  0.4634
   65TMC2    C5 1010   2.267   0.601  15.753 -0.7085 -0.0384  0.5281
   65TMC2    C6 1011   2.132   0.613  15.786  0.7563  0.4651 -0.1267
   65TMC2     C 1012   2.356   0.288  15.934 -0.9777 -0.3447 -0.8278
   65TMC2     O 1013   2.314   0.243  16.041 -0.2183  0.6141 -0.0701
   65TMC2     H 1014   2.108   0.351  16.000  0.3110 -3.4101 -2.3870
   65TMC2    H1 1015   2.441   0.480  15.775 -0.4116  1.5521 -3.3953
   65TMC2    H2 1016   2.084   0.707  15.760  0.1627  0.1046 -0.3441
   65TMC2    C7 1017   2.337   0.705  15.683  0.1809 -0.4573  0.3150
   65TMC2    C8 1018   1.947   0.540  15.919  0.7970  0.5042  0.0751
   65TMC2    O1 1019   2.280   0.769  15.597 -0.5782  0.4826 -0.5477
   65TMC2    O2 1020   1.910   0.491  16.023 -1.5300  0.2890  0.2542
   65TMC2    O5 1021   1.879   0.564  15.806  0.1884 -0.2410  0.1523
   65TMC2    H5 1022   1.936   0.583  15.729 -1.6609  2.4124 -0.5776
   66MPD2     C 1023   2.487   0.031  15.945 -0.4083 -0.1747  0.3910
   66MPD2    C1 1024   2.504   0.114  15.833 -0.2765 -0.4154  0.7937
   66MPD2    C2 1025   2.546   0.057  15.717  0.0207  0.0623  0.1672
   66MPD2    C3 1026   2.570   4.656  15.709  0.4080 -0.6110 -0.0725
   66MPD2    C4 1027   2.551   4.575  15.816  0.0072  0.5497  0.0058
   66MPD2    C5 1028   2.509   4.634  15.940  0.3999  0.9988  0.3754
   66MPD2     H 1029   2.546   0.116  15.627  0.8607  0.0845  0.1822
   66MPD2    H1 1030   2.539   4.468  15.804 -0.9017  0.5707  0.6789
   66MPD2    H2 1031   2.437   0.059  16.037 -1.1335  0.8483 -0.3165
   66MPD2    H3 1032   2.492   4.573  16.028 -1.2210  0.6029 -0.2188
   66MPD2     N 1033   2.606   4.590  15.593  0.4959  0.0777 -0.4575
   66MPD2    H5 1034   2.611   4.490  15.606  0.4106  0.1434  0.0734
   66MPD2    N1 1035   2.451   0.244  15.841  0.3164 -0.4879 -0.7920
   66MPD2    H7 1036   2.466   0.296  15.756  2.6377 -1.7811 -1.1508
   67TMC2    C1 1037   3.083   4.417  14.167 -0.1538 -0.1154 -0.3984
   67TMC2    C2 1038   3.005   4.523  14.197 -0.2227 -0.0224  0.1771
   67TMC2    C3 1039   3.047   4.621  14.283  0.6933 -0.1168 -0.9261
   67TMC2    C4 1040   3.199   4.389  14.238 -0.3915 -0.5924 -0.4174
   67TMC2    C5 1041   3.225   4.480  14.339 -0.0601  0.8076  0.0071
   67TMC2    C6 1042   3.158   4.599  14.360 -0.3767 -0.2986 -0.2279
   67TMC2     C 1043   3.016   4.316  14.093 -0.1037  0.2911  0.1358
   67TMC2     O 1044   2.898   4.306  14.121  0.2941 -0.1051 -0.4393
   67TMC2     H 1045   2.915   4.532  14.137  1.4618 -2.0346 -2.6600
   67TMC2    H1 1046   3.256   4.297  14.226 -0.7913 -0.8537 -0.2878
   67TMC2    H2 1047   3.198   4.681  14.418 -0.9486  0.0114 -0.2795
   67TMC2    C7 1048   3.361   4.462  14.401  0.4062 -0.1747 -0.0954
   67TMC2    C8 1049   2.969   4.735  14.306 -0.3959  0.7924 -0.2650
   67TMC2    O1 1050   3.421   4.366  14.356 -0.2566  0.6148 -0.1785
   67TMC2    O2 1051   2.973   0.054  14.415  0.3827 -0.1322  0.0576
   67TMC2    O5 1052   2.906   0.046  14.199 -0.1482  0.2315 -1.1992
   67TMC2    H5 1053   2.915   4.726  14.121  1.1024 -0.8993 -0.2120
   68MPD2     C 1054   3.149   4.069  13.851 -0.5062 -0.6673 -0.6001
   68MPD2    C1 1055   3.059   4.136  13.936  0.1722 -0.2140  0.6675
   68MPD2    C2 1056   2.928   4.086  13.939  0.3653 -0.4464 -0.4907
   68MPD2    C3 1057   2.882   4.000  13.842  0.0799 -0.3889  0.0411
   68MPD2    C4 1058   2.977   3.953  13.746  0.5109  0.4814  0.8606
   68MPD2    C5 1059   3.110   3.985  13.754 -0.4335  0.3468  0.9359
   68MPD2     H 1060   2.863   4.113  14.021 -0.3942  0.2339 -1.3148
   68MPD2    H1 1061   2.962   3.903  13.651  2.5764  1.0555  0.2296
   68MPD2    H2 1062   3.254   4.095  13.854 -0.3689 -1.3519  0.9702
   68MPD2    H3 1063   3.172   3.939  13.678  0.5725  1.3427  1.1546
   68MPD2     N 1064   2.749   3.961  13.825 -0.7983 -0.1764 -0.0054
   68MPD2    H5 1065   2.732   3.900  13.745 -2.0040  0.3664 -0.1514
   68MPD2    N1 1066   3.103   4.246  14.018 -0.3637 -0.1344  0.0548
   68MPD2    H7 1067   3.196   4.287  14.013 -0.2815 -0.2491  0.6627
   69TMC2    C1 1068   0.497   1.335  12.929  0.2729 -0.4886 -0.4043
   69TMC2    C2 1069   0.544   1.419  13.029  0.1368  0.1068 -0.7294
   69TMC2    C3 1070   0.655   1.485  13.001  0.3890 -0.2300 -0.1944
   69TMC2    C4 1071   0.549   1.312  12.808  0.1114 -0.3969 -0.0428
   69TMC2    C5 1072   0.655   1.394  12.783  0.4555  0.3402 -0.3129
   69TMC2    C6 1073   0.704   1.483  12.869 -0.0777 -0.6641 -0.6579
   69TMC2     C 1074   0.368   1.268  12.960  0.0394 -0.4388  0.4744
   69TMC2     O 1075   0.341   1.247  13.078 -1.0961  0.1572 -0.2249
   69TMC2     H 1076   0.501   1.414  13.128 -0.3767 -0.2193 -0.9699
   69TMC2    H1 1077   0.513   1.245  12.730  0.8485 -1.1298  0.2439
   69TMC2    H2 1078   0.786   1.543  12.831  0.9275 -1.3185  0.4904
   69TMC2    C7 1079   0.725   1.381  12.648  0.0993  0.2386  0.1671
   69TMC2    C8 1080   0.694   1.591  13.091  0.0228 -0.2555 -0.4965
   69TMC2    O1 1081   0.835   1.432  12.626 -0.6858 -0.5408 -0.0438
   69TMC2    O2 1082   0.614   1.635  13.172 -0.1805  0.6029  0.0127
   69TMC2    O5 1083   0.818   1.638  13.057 -0.0328  0.4427 -0.7377
   69TMC2    H5 1084   0.861   1.578  12.992  0.8274 -0.1206  0.3599
   70MPD2     C 1085   0.066   1.207  12.767 -0.6294  0.3245  0.3184
   70MPD2    C1 1086   0.162   1.188  12.862  0.0324 -0.1514  0.1839
   70MPD2    C2 1087   0.128   1.104  12.968  0.9503  0.2753 -0.1845
   70MPD2    C3 1088   0.013   1.028  12.963 -0.0167  0.3085  0.6235
   70MPD2    C4 1089   4.650   1.054  12.873  0.5434  0.0489 -0.8381
   70MPD2    C5 1090   4.678   1.145  12.771  0.0034  0.5912  0.3834
   70MPD2     H 1091   0.183   1.087  13.059 -1.1028 -1.5925  0.7127
   70MPD2    H1 1092   4.554   1.005  12.872  0.3563  0.3862  0.1694
   70MPD2    H2 1093   0.098   1.259  12.677 -2.5781  1.8950  0.5226
   70MPD2    H3 1094   4.603   1.168  12.696 -0.2196  1.4664  0.8762
   70MPD2     N 1095   4.717   0.926  13.053  0.2778  0.1147 -0.1237
   70MPD2    H5 1096   4.636   0.868  13.033  2.5010 -2.8724 -0.3872
   70MPD2    N1 1097   0.285   1.254  12.855 -0.0236  0.2361 -0.3311
   70MPD2    H7 1098   0.307   1.301  12.767  1.4443 -0.8099 -0.5333
   71TMC2    C1 1099   2.555   2.021   1.499 -1.0090  0.0883  0.3496
   71TMC2    C2 1100   2.648   2.039   1.599 -1.0069 -0.1182 -1.1140
   71TMC2    C3 1101   2.602   2.062   1.727 -0.5143 -0.1939  0.0663
   71TMC2    C4 1102   2.419   2.044   1.525 -0.3669 -0.1197 -0.3024
   71TMC2    C5 1103   2.384   2.073   1.652  0.6128  0.2542 -0.3214
   71TMC2    C6 1104   2.470   2.079   1.760  0.5614  0.1489 -0.1911
   71TMC2     C 1105   2.590   1.936   1.384 -0.0333 -0.0446  0.2530
   71TMC2     O 1106   2.707   1.910   1.382 -0.7965 -0.0188  0.0824
   71TMC2     H 1107   2.752   2.024   1.574 -0.4311 -2.0270  2.3948
   71TMC2    H1 1108   2.346   2.059   1.447  0.9949 -0.3054 -1.6183
   71TMC2    H2 1109   2.439   2.101   1.862  1.1924  0.0018  0.0339
   71TMC2    C7 1110   2.241   2.067   1.674  0.2289  0.0685 -0.4170
   71TMC2    C8 1111   2.694   2.051   1.840 -0.5169 -0.0465 -0.4935
   71TMC2    O1 1112   2.195   2.145   1.761  0.0817 -0.1435 -0.2159
   71TMC2    O2 1113   2.662   2.006   1.945  0.5968 -0.0182  0.0025
   71TMC2    O5 1114   2.809   2.120   1.801  0.2547 -0.3178 -0.0750
   71TMC2    H5 1115   2.822   2.141   1.706  0.4919  0.8297  0.2206
   72MPD2     C 1116   2.443   1.590   1.050 -0.3422 -0.0933 -0.2617
   72MPD2    C1 1117   2.565   1.638   1.078 -0.4923 -0.2316 -0.6041
   72MPD2    C2 1118   2.578   1.742   1.171 -0.3862 -0.2267  0.3951
   72MPD2    C3 1119   2.469   1.802   1.226 -1.0881 -1.0815 -0.2187
   72MPD2    C4 1120   2.348   1.759   1.188 -0.9713 -0.2934  0.8009
   72MPD2    C5 1121   2.336   1.657   1.102 -0.0838  0.1382  0.2060
   72MPD2     H 1122   2.676   1.780   1.197  0.1234 -0.3832 -1.3595
   72MPD2    H1 1123   2.261   1.798   1.240 -0.9087 -0.2930  0.9059
   72MPD2    H2 1124   2.415   1.522   0.970  0.0419 -0.8360  0.2313
   72MPD2    H3 1125   2.236   1.623   1.079  1.1189 -2.8902 -0.6908
   72MPD2     N 1126   2.477   1.896   1.319  0.0315  0.3810 -0.2511
   72MPD2    H5 1127   2.391   1.940   1.350  0.8834  1.5346  0.4522
   72MPD2    N1 1128   2.678   1.587   1.007  0.1605 -0.2046 -0.6041
   72MPD2    H7 1129   2.764   1.640   1.009 -0.0067  0.1025 -2.0054
   73TMC2    C1 1130   2.714   3.050  13.730  0.0624  0.1095  0.0875
   73TMC2    C2 1131   2.659   3.111  13.834  0.3845 -0.1197 -0.4309
   73TMC2    C3 1132   2.735   3.200  13.911 -0.5502 -0.2237 -0.7594
   73TMC2    C4 1133   2.843   3.069  13.700  0.6251  0.5851  0.3421
   73TMC2    C5 1134   2.917   3.160  13.772  0.3237  1.0461  0.7756
   73TMC2    C6 1135   2.869   3.213  13.886 -0.1324 -0.0193  0.1504
   73TMC2     C 1136   2.640   3.079  13.615 -0.2115  0.4181 -0.1953
   73TMC2     O 1137   2.689   3.171  13.552 -0.4724 -0.8646  0.4249
   73TMC2     H 1138   2.558   3.086  13.864  0.4084  0.8804  0.4669
   73TMC2    H1 1139   2.890   3.020  13.616  0.7747  2.4117 -0.6210
   73TMC2    H2 1140   2.930   3.290  13.932  1.7350 -0.9716 -0.7512
   73TMC2    C7 1141   3.013   3.238  13.698  0.1000 -0.0169  0.4955
   73TMC2    C8 1142   2.681   3.228  14.044 -0.7479  0.3226  0.3342
   73TMC2    O1 1143   3.121   3.273  13.748 -0.3057 -0.0562 -0.2254
   73TMC2    O2 1144   2.570   3.192  14.068 -0.4948  0.7304  0.6893
   73TMC2    O5 1145   2.783   3.203  14.128 -0.1284 -0.8176 -0.1312
   73TMC2    H5 1146   2.874   3.207  14.090 -0.2447 -1.3953 -0.4586
   74MPD2     C 1147   2.357   2.918  13.220  0.2613 -0.1544  0.0724
   74MPD2    C1 1148   2.458   3.017  13.217  0.6005 -0.5253 -0.0761
   74MPD2    C2 1149   2.514   3.041  13.350 -0.2574  0.3584  0.2000
   74MPD2    C3 1150   2.470   2.989  13.463 -0.6506  0.0484 -0.6211
   74MPD2    C4 1151   2.372   2.898  13.457 -0.4412  0.2370  0.2685
   74MPD2    C5 1152   2.314   2.864  13.340  0.3241  0.1274 -0.9917
   74MPD2     H 1153   2.601   3.105  13.347 -1.1080  1.4423 -1.7234
   74MPD2    H1 1154   2.342   2.842  13.545  0.3626 -0.8861 -0.1665
   74MPD2    H2 1155   2.303   2.894  13.130  0.2509  0.3470 -0.0524
   74MPD2    H3 1156   2.234   2.791  13.342 -1.3976  2.0096 -0.9248
   74MPD2     N 1157   2.531   2.999  13.586  0.0811 -0.8099  0.0268
   74MPD2    H5 1158   2.500   2.937  13.661 -3.4625 -0.0003 -0.7681
   74MPD2    N1 1159   2.505   3.056  13.089  0.1371 -0.3517 -0.6411
   74MPD2    H7 1160   2.467   3.024  13.001  0.3478  1.9047 -1.5538
   75TMC2    C1 1161   2.518   3.947  13.854  0.3266  0.4441  0.9405
   75TMC2    C2 1162   2.519   3.826  13.796 -0.8607  0.0805  0.6382
   75TMC2    C3 1163   2.408   3.788  13.728 -0.2492 -0.8769  0.7679
   75TMC2    C4 1164   2.412   4.038  13.831  0.3341  0.2861 -0.0695
   75TMC2    C5 1165   2.301   3.998  13.759 -0.2261 -0.0838 -0.7213
   75TMC2    C6 1166   2.300   3.873  13.699  0.2311 -0.4875  0.0152
   75TMC2     C 1167   2.643   3.999  13.900 -0.8243 -0.1210 -0.1948
   75TMC2     O 1168   2.632   4.084  13.986 -0.3653  0.9056  0.6607
   75TMC2     H 1169   2.606   3.764  13.814 -0.5403 -0.2187 -2.0188
   75TMC2    H1 1170   2.415   4.135  13.878  1.6874  0.0777  0.2971
   75TMC2    H2 1171   2.221   3.827  13.641 -0.4280 -0.4162  0.8541
   75TMC2    C7 1172   2.241   4.108  13.689 -0.6177 -0.1485 -0.2391
   75TMC2    C8 1173   2.411   3.659  13.661 -0.1486  0.3476 -0.3897
   75TMC2    O1 1174   2.195   4.085  13.575 -0.2494  0.5906  0.1876
   75TMC2    O2 1175   2.335   3.630  13.569  0.0669 -0.2386  0.3560
   75TMC2    O5 1176   2.485   3.571  13.735 -0.4297 -0.0535  0.3895
   75TMC2    H5 1177   2.490   3.586  13.832  0.4519 -1.0901  0.5155
   76TMC2    C1 1178   1.650   0.612  11.804  0.0745 -0.5016  0.9000
   76TMC2    C2 1179   1.602   0.639  11.675 -0.2286 -0.6499 -0.2683
   76TMC2    C3 1180   1.538   0.543  11.608 -0.4944  0.2459 -0.4271
   76TMC2    C4 1181   1.643   0.483  11.851 -1.1376  0.7735  0.0817
   76TMC2    C5 1182   1.593   0.381  11.765  0.3476 -0.4036  0.2623
   76TMC2    C6 1183   1.517   0.413  11.657  0.3757  1.0125 -0.4062
   76TMC2     C 1184   1.631   0.724  11.896  0.4949  0.3059  0.0331
   76TMC2     O 1185   1.584   0.825  11.838  0.2823 -0.3856  0.5369
   76TMC2     H 1186   1.621   0.736  11.630 -0.1400 -0.0875  1.0060
   76TMC2    H1 1187   1.681   0.462  11.950  0.6868  1.2040 -0.5199
   76TMC2    H2 1188   1.462   0.337  11.601  1.4256 -0.9381  1.2136
   76TMC2    C7 1189   1.616   0.236  11.779 -0.1204  0.4390 -0.3539
   76TMC2    C8 1190   1.526   0.569  11.467  0.1792 -0.7302  0.2579
   76TMC2    O1 1191   1.558   0.163  11.699  0.1363 -0.4694 -0.0784
   76TMC2    O2 1192   1.623   0.622  11.407  0.1315 -0.2459  0.2088
   76TMC2    O5 1193   1.435   0.486  11.412 -0.0562  0.2143  0.0274
   76TMC2    H5 1194   1.370   0.453  11.478  0.9480 -0.7841  0.5057
   77MPD2     C 1195   1.717   1.075  12.246  0.5568 -0.7963 -0.3916
   77MPD2    C1 1196   1.621   1.057  12.149 -0.4657  0.4431  0.1973
   77MPD2    C2 1197   1.606   0.937  12.088  0.8067 -0.4762  0.2553
   77MPD2    C3 1198   1.693   0.832  12.104 -0.0843 -0.2425  0.3618
   77MPD2    C4 1199   1.790   0.845  12.201  0.2079 -0.3355 -0.4869
   77MPD2    C5 1200   1.798   0.964  12.270  0.2732  0.7368  0.0588
   77MPD2     H 1201   1.518   0.919  12.027  1.8047  0.4372 -1.4841
   77MPD2    H1 1202   1.875   0.779  12.214 -0.2986 -0.6070  1.4414
   77MPD2    H2 1203   1.734   1.161  12.310  3.3416 -1.1223 -0.6892
   77MPD2    H3 1204   1.881   0.974  12.339 -0.2570 -0.6312  0.8882
   77MPD2     N 1205   1.687   0.718  12.023 -0.0191 -0.4194 -0.7476
   77MPD2    H5 1206   1.761   0.650  12.039  1.0234  0.7412 -0.5922
   77MPD2    N1 1207   1.524   1.154  12.115 -0.2119 -0.1732 -0.2700
   77MPD2    H7 1208   1.447   1.128  12.053  0.1210  2.9799 -1.9920
   78TMC2    C1 1209   1.967   0.763   1.197  0.2290 -0.0422 -0.8335
   78TMC2    C2 1210   1.884   0.861   1.251 -0.3826 -1.0898  0.3705
   78TMC2    C3 1211   1.931   0.975   1.305 -0.1131  0.0194 -0.1560
   78TMC2    C4 1212   2.107   0.781   1.205 -0.4727 -0.1341  0.4979
   78TMC2    C5 1213   2.147   0.885   1.287 -0.1478  0.2940  0.4112
   78TMC2    C6 1214   2.064   0.980   1.335 -0.1072  0.3513 -0.3557
   78TMC2     C 1215   1.911   0.663   1.113  0.1866 -0.9306 -0.2577
   78TMC2     O 1216   1.992   0.607   1.036 -0.1091  0.2791  0.4690
   78TMC2     H 1217   1.777   0.857   1.233 -0.1560 -4.3541 -0.2917
   78TMC2    H1 1218   2.172   0.719   1.145 -0.1153  0.9113 -0.1865
   78TMC2    H2 1219   2.106   1.062   1.393 -0.4371 -0.7006  1.3719
   78TMC2    C7 1220   2.293   0.911   1.292 -0.2838  0.1116  0.9125
   78TMC2    C8 1221   1.835   1.080   1.339  0.4956 -0.8653  0.3379
   78TMC2    O1 1222   2.356   0.876   1.190 -0.0399  0.1060 -0.5260
   78TMC2    O2 1223   1.718   1.052   1.345 -0.3307  0.3723 -0.1067
   78TMC2    O5 1224   1.880   1.191   1.269  0.7077  0.4719 -0.8062
   78TMC2    H5 1225   1.975   1.198   1.249  0.6571 -1.1830 -1.6308
   79MPD1     C 1226   1.521   0.378   0.953  0.3138 -0.1335  0.6132
   79MPD1    C1 1227   1.655   0.361   0.935 -0.0656 -0.4918 -0.8318
   79MPD1    C2 1228   1.740   0.452   0.990  0.6626  0.3924 -0.3538
   79MPD1    C3 1229   1.696   0.546   1.081 -0.9149  0.3293  0.3413
   79MPD1    C4 1230   1.561   0.547   1.108  0.0935 -0.8252  0.1671
   79MPD1    C5 1231   1.471   0.469   1.043  0.3329  0.2919  0.6847
   79MPD1     H 1232   1.848   0.443   0.977  0.0516 -3.9102 -2.2536
   79MPD1    H1 1233   1.522   0.623   1.175  0.4650 -0.0169 -0.5337
   79MPD1    H2 1234   1.454   0.305   0.908 -0.3074  0.6787  0.2111
   79MPD1    H3 1235   1.366   0.490   1.063 -0.6366 -1.0955 -3.0661
   79MPD1     N 1236   1.780   0.633   1.149 -0.0271  0.2969 -0.3956
   79MPD1    H5 1237   1.746   0.687   1.228 -0.0332  0.9208 -0.8281
   79MPD1    N1 1238   1.696   0.267   0.834 -0.4241 -0.2471 -0.3629
   79MPD1    H6 1239   1.749   0.295   0.752 -0.1870  0.9261  0.1962
   79MPD1    H7 1240   1.628   0.196   0.807  0.2578 -0.7442 -0.7785
   80TMC2    C1 1241   0.769   0.495  12.132  0.5634  0.4659 -0.3625
   80TMC2    C2 1242   0.875   0.534  12.053 -0.3204 -0.2893  0.5405
   80TMC2    C3 1243   0.858   0.512  11.919 -0.9232 -0.6011 -0.0958
   80TMC2    C4 1244   0.659   0.420  12.084 -0.4186  0.5915  0.4605
   80TMC2    C5 1245   0.660   0.385  11.954  0.2490 -0.2927  0.1889
   80TMC2    C6 1246   0.753   0.440  11.868  0.1228 -0.3622  0.6454
   80TMC2     C 1247   0.768   0.546  12.266 -0.0498 -0.2464  0.7670
   80TMC2     O 1248   0.839   0.645  12.280 -0.0245 -0.1870 -0.6886
   80TMC2     H 1249   0.954   0.589  12.103  0.4370 -0.9578  0.0716
   80TMC2    H1 1250   0.572   0.395  12.143  0.3661 -0.9229  0.9925
   80TMC2    H2 1251   0.746   0.421  11.762  1.1130 -2.8306  1.0128
   80TMC2    C7 1252   0.536   0.334  11.895  0.3471  0.8019  0.0124
   80TMC2    C8 1253   0.975   0.538  11.834  0.0796 -0.1002 -0.3364
   80TMC2    O1 1254   0.506   0.371  11.780 -0.7829  0.2987  0.1851
   80TMC2    O2 1255   1.057   0.627  11.849 -0.0795  0.0211 -0.2671
   80TMC2    O5 1256   1.001   0.426  11.763  0.6388 -0.0386  0.4578
   80TMC2    H5 1257   0.928   0.362  11.773 -1.2430  2.0555  0.2436
   81MPD2     C 1258   0.753   0.600  12.551  0.5174 -0.3054 -0.4518
   81MPD2    C1 1259   0.659   0.527  12.485  0.7200 -0.6582  0.1476
   81MPD2    C2 1260   0.557   0.478  12.563 -0.2214  0.6441 -0.2388
   81MPD2    C3 1261   0.543   0.513  12.701 -0.0693  0.3136 -0.2553
   81MPD2    C4 1262   0.641   0.583  12.763  0.4999 -0.0764  0.3656
   81MPD2    C5 1263   0.747   0.620  12.691  0.9893 -0.5456 -0.3438
   81MPD2     H 1264   0.483   0.410  12.522  0.9427  1.0003 -2.9311
   81MPD2    H1 1265   0.621   0.607  12.867  0.7541  0.5665  0.2645
   81MPD2    H2 1266   0.840   0.639  12.498  0.8898  0.3317  0.6254
   81MPD2    H3 1267   0.835   0.673  12.728  1.8176 -2.5052  0.4641
   81MPD2     N 1268   0.431   0.479  12.780 -0.5850  0.6250  0.2512
   81MPD2    H5 1269   0.426   0.500  12.879 -1.1501  2.4114 -0.1575
   81MPD2    N1 1270   0.674   0.493  12.347  0.9965 -0.3860 -0.4353
   81MPD2    H7 1271   0.616   0.415  12.318 -0.9424  0.2685  1.6183
   82TMC2    C1 1272   3.772   3.619  10.986  0.4179 -0.5071  0.1433
   82TMC2    C2 1273   3.811   3.718  11.066 -0.8181  0.9098  0.2638
   82TMC2    C3 1274   3.842   3.685  11.199  0.3656 -0.4275  0.3981
   82TMC2    C4 1275   3.753   3.492  11.039 -0.1829 -0.3475 -0.2627
   82TMC2    C5 1276   3.783   3.460  11.170 -0.1971 -0.2078  0.3980
   82TMC2    C6 1277   3.838   3.555  11.247 -1.1691 -0.1696 -0.7291
   82TMC2     C 1278   3.670   3.652  10.889  0.3943 -0.0687 -0.2880
   82TMC2     O 1279   3.578   3.579  10.858  0.8109 -0.4305  0.1176
   82TMC2     H 1280   3.821   3.821  11.035  3.8317  0.6188  0.7621
   82TMC2    H1 1281   3.686   3.424  10.988 -1.2100 -1.4742  2.6016
   82TMC2    H2 1282   3.861   3.532  11.350  0.3938 -1.7391 -1.4372
   82TMC2    C7 1283   3.720   3.336  11.222 -0.4162  0.8869  0.4825
   82TMC2    C8 1284   3.910   3.785  11.274  0.4103 -0.0795 -0.2458
   82TMC2    O1 1285   3.730   3.236  11.150  0.2826 -0.0552  0.0496
   82TMC2    O2 1286   3.935   3.894  11.225  0.2810  0.4641 -0.6478
   82TMC2    O5 1287   3.871   3.777  11.402 -0.1613 -0.6052 -0.2136
   82TMC2    H5 1288   3.866   3.684  11.431  2.5642 -0.1271  1.7966
   83MPD2     C 1289   3.545   4.002  10.521  0.7958  0.7458  0.0908
   83MPD2    C1 1290   3.466   3.901  10.571 -0.5712 -0.0721  0.1456
   83MPD2    C2 1291   3.520   3.823  10.679 -0.7863  0.0246 -0.4716
   83MPD2    C3 1292   3.646   3.850  10.728 -0.2281 -1.2649  0.0926
   83MPD2    C4 1293   3.704   3.971  10.696 -0.0714  0.5554  0.0903
   83MPD2    C5 1294   3.659   4.040  10.587  0.1756 -0.9561  0.1032
   83MPD2     H 1295   3.463   3.740  10.718  0.1118 -0.8658 -1.0721
   83MPD2    H1 1296   3.799   4.002  10.737 -0.2894 -1.3647  2.0470
   83MPD2    H2 1297   3.503   4.061  10.441  2.0873 -0.4836 -1.5196
   83MPD2    H3 1298   3.726   4.108  10.536  1.4950 -1.3207  1.3521
   83MPD2     N 1299   3.709   3.780  10.833  1.0518  0.1454  0.7153
   83MPD2    H5 1300   3.793   3.826  10.866  1.4581 -1.2316  1.6326
   83MPD2    N1 1301   3.331   3.891  10.523 -0.0207 -0.0431  0.0356
   83MPD2    H7 1302   3.297   3.969  10.467 -1.3378 -2.0297 -1.9580
   84TMC2    C1 1303   4.182   3.332  10.951 -0.9269  0.5491 -0.5891
   84TMC2    C2 1304   4.159   3.217  11.016 -0.1524 -0.0508  0.3681
   84TMC2    C3 1305   4.158   3.104  10.941 -0.5512 -1.6862  0.2009
   84TMC2    C4 1306   4.211   3.339  10.816  0.3247  0.0743 -0.5394
   84TMC2    C5 1307   4.197   3.222  10.749  0.6179 -0.0728 -1.1883
   84TMC2    C6 1308   4.182   3.100  10.809  0.9352  0.1645 -0.3226
   84TMC2     C 1309   4.196   3.454  11.035 -0.0805  0.1450  0.0299
   84TMC2     O 1310   4.141   3.460  11.139 -0.1410 -1.0723  0.1043
   84TMC2     H 1311   4.154   3.213  11.125 -0.5601  1.3307  0.3946
   84TMC2    H1 1312   4.217   3.439  10.775 -0.2906 -0.5073 -2.0340
   84TMC2    H2 1313   4.201   3.006  10.759 -0.2325 -0.0915 -0.2871
   84TMC2    C7 1314   4.233   3.223  10.614  0.3289  0.1372 -0.6705
   84TMC2    C8 1315   4.230   3.006  11.018  0.2370  0.5251 -0.2436
   84TMC2    O1 1316   4.184   3.134  10.547  0.5026 -0.0105  0.4286
   84TMC2    O2 1317   4.326   2.949  10.969  0.5280  0.7093  0.2919
   84TMC2    O5 1318   4.159   2.970  11.127 -0.4224  0.5756  0.2956
   84TMC2    H5 1319   4.082   3.026  11.151 -1.5420  0.2162 -2.5070
   85TMC2    C1 1320   0.871   1.182  16.092  0.3845  0.6014  0.0535
   85TMC2    C2 1321   0.937   1.074  16.140 -0.1879 -0.2203  0.6651
   85TMC2    C3 1322   1.068   1.088  16.156  0.3757 -0.3583  0.1748
   85TMC2    C4 1323   0.931   1.306  16.069  0.0222  0.5587  0.6160
   85TMC2    C5 1324   1.061   1.315  16.099  0.5146 -0.2365 -0.0189
   85TMC2    C6 1325   1.133   1.207  16.135  0.2000  0.4558  0.0605
   85TMC2     C 1326   0.724   1.180  16.082  0.1436 -0.3376 -0.2997
   85TMC2     O 1327   0.655   1.279  16.053 -0.4552  0.6475  0.4934
   85TMC2     H 1328   0.897   0.973  16.150 -1.2956  0.1785  0.3532
   85TMC2    H1 1329   0.873   1.391  16.034 -1.2723  0.0168  1.4198
   85TMC2    H2 1330   1.240   1.214  16.148  0.2198  1.7948 -0.8019
   85TMC2    C7 1331   1.142   1.415  16.033 -0.3129  0.1944 -0.7586
   85TMC2    C8 1332   1.142   0.973  16.200  0.2316  0.1251  0.4797
   85TMC2    O1 1333   1.251   1.444  16.074 -0.5489  0.1128  0.1486
   85TMC2    O2 1334   1.100   0.870  16.248 -0.5068 -0.2840 -0.0920
   85TMC2    O5 1335   1.235   0.958  16.099 -0.2690 -0.0452  0.2684
   85TMC2    H5 1336   1.223   1.018  16.023  0.9560  0.4972  0.5138
   86MPD2     C 1337   0.291   0.906  16.131 -0.0180 -0.0931  0.3519
   86MPD2    C1 1338   0.389   0.816  16.101 -0.1805  0.0475 -0.1921
   86MPD2    C2 1339   0.520   0.866  16.079  0.1166  0.6590  0.0803
   86MPD2    C3 1340   0.546   1.004  16.105 -0.6280  0.7588  0.7552
   86MPD2    C4 1341   0.437   1.093  16.121 -0.1688 -0.3065  0.2745
   86MPD2    C5 1342   0.308   1.042  16.125  0.1673  0.5829  0.8396
   86MPD2     H 1343   0.600   0.793  16.077  0.2895  0.9130 -2.2444
   86MPD2    H1 1344   0.468   1.193  16.146 -1.0424  0.2679 -0.9535
   86MPD2    H2 1345   0.190   0.874  16.155 -0.7959  0.2728 -2.4549
   86MPD2    H3 1346   0.229   1.110  16.155  0.1525  0.7089  0.5161
   86MPD2     N 1347   0.681   1.048  16.097 -0.1101  0.0579  0.2542
   86MPD2    H5 1348   0.747   0.974  16.078 -0.7039 -0.3787 -0.1184
   86MPD2    N1 1349   0.364   0.676  16.097  0.2792 -0.1528 -0.0376
   86MPD2    H7 1350   0.445   0.617  16.112  1.9975  2.3534  0.4411
   87TMC2    C1 1351   3.051   4.539   0.898  0.2532 -0.1035  0.2824
   87TMC2    C2 1352   3.178   4.578   0.910 -0.2261  0.2581  0.2550
   87TMC2    C3 1353   3.214   4.659   1.017  0.0968  0.2835  0.4750
   87TMC2    C4 1354   2.958   4.558   0.998 -0.0651 -0.4001 -0.2010
   87TMC2    C5 1355   2.994   4.638   1.108  0.0941  0.2269 -0.1477
   87TMC2    C6 1356   3.126   4.686   1.119  0.2904 -0.3042  0.1063
   87TMC2     C 1357   3.018   4.429   0.813  0.4981  0.2354 -0.4083
   87TMC2     O 1358   2.908   4.417   0.770 -0.1719  0.2375  0.2762
   87TMC2     H 1359   3.254   4.551   0.837 -1.2566  0.7951 -1.0190
   87TMC2    H1 1360   2.854   4.530   0.991 -0.1368  0.3305 -2.2323
   87TMC2    H2 1361   3.149   0.017   1.200 -2.8140 -0.8348  1.4261
   87TMC2    C7 1362   2.885   4.710   1.165 -0.7462 -0.0631  0.3675
   87TMC2    C8 1363   3.341   4.721   1.008  0.0344  0.2075 -0.3226
   87TMC2    O1 1364   2.771   4.700   1.116 -0.3310  0.2280 -0.3425
   87TMC2    O2 1365   3.410   4.704   0.911 -0.0578 -0.2739 -0.4078
   87TMC2    O5 1366   3.335   0.110   1.059 -0.0045  0.2536 -0.3991
   87TMC2    H5 1367   3.256   0.110   1.116  0.3339  0.5394  0.0706
   88MPD2     C 1368   2.927   0.244   1.414  0.6182  0.2780  0.4221
   88MPD2    C1 1369   2.860   0.177   1.313 -0.4353  0.4060 -0.3025
   88MPD2    C2 1370   2.742   0.225   1.265 -0.5358 -0.2623  0.1988
   88MPD2    C3 1371   2.704   0.351   1.303  0.2584 -0.6820 -0.2939
   88MPD2    C4 1372   2.773   0.424   1.403  0.7202 -0.2868 -0.7242
   88MPD2    C5 1373   2.878   0.361   1.467 -0.0097 -0.2921  0.1635
   88MPD2     H 1374   2.685   0.162   1.196  2.6490 -2.6829 -0.2042
   88MPD2    H1 1375   2.747   0.525   1.433 -0.2233 -0.8590  0.3887
   88MPD2    H2 1376   3.022   0.205   1.452  0.4606 -1.8727 -1.3805
   88MPD2    H3 1377   2.925   0.410   1.552  0.8876 -0.7160 -0.0922
   88MPD2     N 1378   2.590   0.427   1.248  0.2391  0.8045  0.5385
   88MPD2    H5 1379   2.582   0.525   1.275  1.6774  0.7049  1.3189
   88MPD2    N1 1380   2.926   0.057   1.270 -0.0995  0.2383  0.5053
   88MPD2    H7 1381   3.017   0.038   1.310  0.1479 -1.1499 -0.6770
   89TMC2    C1 1382   3.820   3.574   1.470 -0.2588  0.9773  0.1732
   89TMC2    C2 1383   3.695   3.597   1.520 -0.2148 -0.9047  0.1117
   89TMC2    C3 1384   3.671   3.707   1.598  0.0397 -0.8136 -0.0017
   89TMC2    C4 1385   3.912   3.675   1.468  0.0730  0.6663 -0.0352
   89TMC2    C5 1386   3.879   3.796   1.537  0.4612  0.4089 -0.1927
   89TMC2    C6 1387   3.761   3.807   1.599  0.1424  0.0661 -0.7724
   89TMC2     C 1388   3.855   3.444   1.417  0.0401  0.6798 -0.2971
   89TMC2     O 1389   3.950   3.427   1.341  0.3211  0.5307  0.0847
   89TMC2     H 1390   3.611   3.534   1.493  0.8959 -2.4745  0.2882
   89TMC2    H1 1391   4.015   3.647   1.453  0.0232  1.5313 -2.0059
   89TMC2    H2 1392   3.742   3.887   1.669  0.4312 -1.3130  0.8616
   89TMC2    C7 1393   3.971   3.908   1.552  0.9607  0.3519  0.3242
   89TMC2    C8 1394   3.537   3.754   1.612 -0.7018 -0.2196 -0.6295
   89TMC2    O1 1395   3.934   3.996   1.633 -0.4827 -0.2438 -0.5531
   89TMC2    O2 1396   3.491   3.825   1.525  0.6428 -0.4152 -0.4970
   89TMC2    O5 1397   3.532   3.789   1.745 -0.8084 -0.6845 -0.1622
   89TMC2    H5 1398   3.580   3.721   1.797  3.4659  1.8231 -0.8158
   90MPD2     C 1399   3.750   2.944   1.405  0.1971 -0.1393 -0.2989
   90MPD2    C1 1400   3.647   3.005   1.470  0.1382  0.1546 -0.1783
   90MPD2    C2 1401   3.661   3.138   1.501  0.9692 -1.3454 -0.5008
   90MPD2    C3 1402   3.770   3.211   1.447  0.4156  0.2695  0.0486
   90MPD2    C4 1403   3.875   3.144   1.384  0.1490 -0.4693 -0.5565
   90MPD2    C5 1404   3.860   3.011   1.360  0.3813 -0.4459  0.1092
   90MPD2     H 1405   3.580   3.186   1.553  1.0449 -1.2605 -0.4607
   90MPD2    H1 1406   3.964   3.194   1.347 -0.1225  1.0684  0.8460
   90MPD2    H2 1407   3.755   2.840   1.373  0.6207  0.0411 -0.7975
   90MPD2    H3 1408   3.925   2.954   1.295 -0.0799  0.8100 -1.4503
   90MPD2     N 1409   3.771   3.348   1.471  0.3913  0.8661  0.7600
   90MPD2    H5 1410   3.702   3.384   1.536  1.7535  1.7339  1.7428
   90MPD2    N1 1411   3.528   2.936   1.520 -0.0509  0.1497  0.3506
   90MPD2    H7 1412   3.451   2.987   1.561  1.4581  3.6561 -1.2432
   91TMC2    C1 1413   0.643   1.824  16.414  0.1172 -0.3401 -0.7045
   91TMC2    C2 1414   0.706   1.870  16.306 -1.2364 -0.5097  0.4228
   91TMC2    C3 1415   0.625   1.900  16.204 -0.1390  0.9089 -0.2586
   91TMC2    C4 1416   0.506   1.795  16.402  0.0652  0.9696  0.4916
   91TMC2    C5 1417   0.427   1.841  16.303 -0.5099 -0.0169  0.1648
   91TMC2    C6 1418   0.484   1.897  16.193 -0.3651  0.6838 -0.3782
   91TMC2     C 1419   0.718   1.778  16.531  0.0821 -0.3863 -0.3656
   91TMC2     O 1420   0.664   1.711  16.614 -0.5135  0.2953  0.4052
   91TMC2     H 1421   0.813   1.876  16.296 -1.2395 -1.4089 -0.0943
   91TMC2    H1 1422   0.459   1.758  16.492  0.9083 -1.8855 -0.2453
   91TMC2    H2 1423   0.430   1.919  16.102  0.2931  0.0764 -0.9230
   91TMC2    C7 1424   0.291   1.877  16.334  0.5777  0.2066  0.5243
   91TMC2    C8 1425   0.692   1.941  16.089 -0.8419 -0.3590  0.2332
   91TMC2    O1 1426   0.241   1.830  16.436 -0.4936  0.0905 -0.7912
   91TMC2    O2 1427   0.811   1.912  16.070  0.5625 -0.3129  0.0037
   91TMC2    O5 1428   0.644   2.067  16.060  0.1150  0.0105  0.0984
   91TMC2    H5 1429   0.553   2.080  16.095 -0.0771  0.3048 -0.4898
   92MPD2     C 1430   0.911   1.725  16.753  0.2969 -0.0515  0.1222
   92MPD2    C1 1431   0.929   1.812  16.649  0.5957 -0.8671  0.1546
   92MPD2    C2 1432   1.053   1.881  16.646 -0.2018  0.1361  0.2842
   92MPD2    C3 1433   1.141   1.872  16.754 -0.6450 -0.2170 -0.8130
   92MPD2    C4 1434   1.115   1.794  16.862 -0.1547  0.2449  0.7109
   92MPD2    C5 1435   0.996   1.717  16.859  0.3455 -0.0641  0.2035
   92MPD2     H 1436   1.072   1.948  16.564  1.7690  0.3689  0.9468
   92MPD2    H1 1437   1.181   1.790  16.948 -0.7239 -0.5897  1.1084
   92MPD2    H2 1438   0.823   1.662  16.752  0.0603  0.3180 -1.3704
   92MPD2    H3 1439   0.963   1.658  16.943  1.5222 -0.1094  0.6407
   92MPD2     N 1440   1.265   1.941  16.743  0.1743  0.2740 -0.1406
   92MPD2    H5 1441   1.280   2.000  16.662  2.5986 -0.7990 -0.4964
   92MPD2    N1 1442   0.846   1.830  16.539  0.0884  0.3601  0.1145
   92MPD2    H7 1443   0.882   1.891  16.466  2.2303  0.1501  1.0134
   93TMC2    C1 1444   2.977   2.505  13.944 -0.1976  0.1306 -0.3755
   93TMC2    C2 1445   2.927   2.620  13.995 -0.1319 -0.4639  0.4836
   93TMC2    C3 1446   2.997   2.733  13.970  0.4475 -0.1819  0.7296
   93TMC2    C4 1447   3.102   2.491  13.893 -0.1542  0.2168  0.5896
   93TMC2    C5 1448   3.176   2.610  13.883 -0.4550 -0.3229 -0.0905
   93TMC2    C6 1449   3.124   2.727  13.921  0.1761  0.2851 -0.4522
   93TMC2     C 1450   2.888   2.386  13.926 -0.0644  0.0658  0.6557
   93TMC2     O 1451   2.959   2.293  13.886  0.3209  0.0410  0.4745
   93TMC2     H 1452   2.825   2.619  14.034 -0.3698  1.6980 -0.0824
   93TMC2    H1 1453   3.150   2.402  13.855 -0.1678  0.1115  0.8238
   93TMC2    H2 1454   3.173   2.822  13.907  0.4755  0.1895 -0.0660
   93TMC2    C7 1455   3.317   2.607  13.843 -0.7551 -0.7416  0.3181
   93TMC2    C8 1456   2.952   2.865  14.015 -0.5020 -0.1309 -0.2373
   93TMC2    O1 1457   3.350   2.498  13.791 -0.5411 -0.4087  0.2319
   93TMC2    O2 1458   3.035   2.942  14.065 -0.1685 -0.2579 -0.4542
   93TMC2    O5 1459   2.815   2.878  14.019  0.0104 -0.3445 -1.0329
   93TMC2    H5 1460   2.773   2.812  13.961 -0.6729  0.1864 -1.1464
   94MPD2     C 1461   2.683   2.168  13.921 -0.1704  0.2011 -0.2275
   94MPD2    C1 1462   2.660   2.298  13.961 -0.0058 -0.2861 -0.6167
   94MPD2    C2 1463   2.527   2.338  13.986  0.0748  0.2090  0.3184
   94MPD2    C3 1464   2.423   2.253  13.956 -0.6329  0.3215  0.9448
   94MPD2    C4 1465   2.447   2.124  13.932  0.2201  0.9109 -1.0053
   94MPD2    C5 1466   2.578   2.076  13.908 -0.0997  0.4791 -0.0318
   94MPD2     H 1467   2.513   2.438  14.025 -2.9956 -0.8162  1.8899
   94MPD2    H1 1468   2.368   2.050  13.917 -0.2058  1.3455 -0.9009
   94MPD2    H2 1469   2.778   2.134  13.883 -1.4460 -1.8048 -1.6032
   94MPD2    H3 1470   2.593   1.978  13.863 -3.4913  0.2050 -0.6451
   94MPD2     N 1471   2.286   2.296  13.955 -0.7161  0.1802 -0.7428
   94MPD2    H5 1472   2.213   2.226  13.963 -0.2702 -0.2003  0.0232
   94MPD2    N1 1473   2.757   2.400  13.969 -0.0261 -0.3102  0.3923
   94MPD2    H7 1474   2.726   2.489  14.006 -2.1442 -0.2553 -1.5625
   95TMC2    C1 1475   2.737   3.515  15.617 -0.1493  0.6466  0.3838
   95TMC2    C2 1476   2.846   3.435  15.596 -0.0236 -0.2730 -0.0425
   95TMC2    C3 1477   2.867   3.333  15.683  0.1814 -0.6407  0.2809
   95TMC2    C4 1478   2.661   3.502  15.737  0.0810 -0.0840 -0.7475
   95TMC2    C5 1479   2.682   3.390  15.815 -0.1373  0.1522 -0.1793
   95TMC2    C6 1480   2.787   3.297  15.788  0.0372  0.0854  0.6155
   95TMC2     C 1481   2.735   3.649  15.554  0.0228 -0.0094 -0.3159
   95TMC2     O 1482   2.707   3.746  15.620  0.3830  0.7279 -0.2636
   95TMC2     H 1483   2.920   3.454  15.519  0.3854 -0.1805  0.3745
   95TMC2    H1 1484   2.585   3.576  15.758  2.0469  1.9629 -0.9181
   95TMC2    H2 1485   2.810   3.213  15.853 -1.2928  1.1321  2.4554
   95TMC2    C7 1486   2.636   3.379  15.954 -0.7400  0.4436 -0.5788
   95TMC2    C8 1487   2.960   3.234  15.635 -0.0928 -0.0098  0.7456
   95TMC2    O1 1488   2.712   3.339  16.036 -0.2237  0.0312 -0.6010
   95TMC2    O2 1489   2.953   3.120  15.680  0.3329 -0.3277  0.0450
   95TMC2    O5 1490   3.075   3.295  15.621  0.7605  0.4388 -0.1835
   95TMC2    H5 1491   3.067   3.376  15.676  0.5146 -0.4112  1.0282
   96MPD2     C 1492   2.767   3.906  15.094 -0.7284  0.7503  0.4091
   96MPD2    C1 1493   2.739   3.959  15.219 -0.2289 -0.0839  0.4749
   96MPD2    C2 1494   2.743   3.875  15.330 -0.3789 -0.1572 -0.1532
   96MPD2    C3 1495   2.767   3.735  15.318 -0.0258  0.3887 -0.2438
   96MPD2    C4 1496   2.803   3.691  15.188 -0.5789  0.3406 -0.8452
   96MPD2    C5 1497   2.798   3.774  15.075  0.5398  0.0530 -0.5171
   96MPD2     H 1498   2.719   3.918  15.427 -1.3987 -1.3359  0.1266
   96MPD2    H1 1499   2.843   3.591  15.175  1.1693  0.7995  1.0975
   96MPD2    H2 1500   2.756   3.969  15.007  0.7658  1.3773  0.6726
   96MPD2    H3 1501   2.812   3.736  14.975  2.5129 -1.9017  0.5076
   96MPD2     N 1502   2.765   3.635  15.418  0.1072 -0.1559  0.2312
   96MPD2    H5 1503   2.782   3.543  15.379 -0.0963  0.3249 -1.0262
   96MPD2    N1 1504   2.712   4.099  15.212 -0.5220 -0.2903  0.1891
   96MPD2    H7 1505   2.714   4.147  15.123  0.2434  0.7681  0.7765
   97TMC2    C1 1506   4.486   1.462  17.694  0.2854 -0.7327 -0.3662
   97TMC2    C2 1507   4.598   1.426  17.620  0.2872 -0.5467 -0.1732
   97TMC2    C3 1508   4.721   1.477  17.658 -0.3873 -0.2086  0.3918
   97TMC2    C4 1509   4.496   1.543   0.054 -0.2764  0.6016 -0.2151
   97TMC2    C5 1510   4.620   1.602   0.091 -0.1133 -0.7157 -0.5326
   97TMC2    C6 1511   4.723   1.574   0.013 -0.2694 -0.2218 -1.1238
   97TMC2     C 1512   4.365   1.385  17.700 -0.0209 -1.7027 -0.4035
   97TMC2     O 1513   4.272   1.439   0.002 -0.5737 -0.4187 -0.2144
   97TMC2     H 1514   4.601   1.345  17.548  1.4522  0.2138 -0.9913
   97TMC2    H1 1515   4.409   1.561   0.116  0.8021 -0.7469  1.7231
   97TMC2    H2 1516   0.084   1.612   0.037  0.2651 -1.4992 -1.3222
   97TMC2    C7 1517   4.633   1.649   0.229  0.1991  0.5251 -0.1791
   97TMC2    C8 1518   0.075   1.488  17.552 -0.0114  0.0004  0.5138
   97TMC2    O1 1519   4.535   1.634   0.302 -0.0578  0.0729 -0.2683
   97TMC2    O2 1520   0.119   1.386  17.498 -0.4395 -0.3373  0.4544
   97TMC2    O5 1521   0.077   1.615  17.512  0.8815 -0.3196  0.1454
   97TMC2    H5 1522   0.012   1.674  17.555  0.2942 -0.8141 -0.0611
   98MPD2     C 1523   4.124   0.936  17.745 -0.9062 -0.0312  0.3961
   98MPD2    C1 1524   4.085   1.059   0.044 -0.3907 -0.3618 -0.5251
   98MPD2    C2 1525   4.174   1.163   0.020 -0.2058  0.1432  0.0185
   98MPD2    C3 1526   4.294   1.145  17.700  0.1916 -0.3894 -0.3151
   98MPD2    C4 1527   4.333   1.022  17.654 -0.5333 -0.0683  0.2266
   98MPD2    C5 1528   4.243   0.918  17.678 -0.2885  0.7515 -0.2654
   98MPD2     H 1529   4.169   1.262   0.063 -1.8979  0.3215 -0.6008
   98MPD2    H1 1530   4.426   0.997  17.604 -0.4606  0.1586  0.2498
   98MPD2    H2 1531   4.067   0.845   0.012  0.0618 -0.6779  0.1884
   98MPD2    H3 1532   4.269   0.820  17.639 -2.2963  0.2128 -0.2331
   98MPD2     N 1533   4.384   1.253  17.664 -0.5513  0.6946 -0.2630
   98MPD2    H5 1534   4.467   1.224  17.613 -0.9895  1.2376 -1.2743
   98MPD2    N1 1535   3.975   1.061   0.130  0.5588  0.1366  0.3181
   98MPD2    H7 1536   3.939   0.974   0.168 -2.2755  1.1515 -0.0140
   99TMC2    C1 1537   3.703   4.206   1.521  0.2487  0.6243  0.6634
   99TMC2    C2 1538   3.752   4.317   1.587 -0.0214  0.0439 -0.3040
   99TMC2    C3 1539   3.689   4.357   1.705 -0.0236  1.4622 -0.4184
   99TMC2    C4 1540   3.582   4.151   1.551  0.2649 -0.2093 -0.2546
   99TMC2    C5 1541   3.517   4.205   1.654 -0.4183 -0.6191  0.4570
   99TMC2    C6 1542   3.565   4.301   1.738  0.2891  0.2676 -0.0933
   99TMC2     C 1543   3.767   4.171   1.392 -0.1819 -0.8466  0.9153
   99TMC2     O 1544   3.847   4.248   1.351  0.4434  0.0488  0.0898
   99TMC2     H 1545   3.849   4.356   1.559  0.1781 -0.5925 -0.5059
   99TMC2    H1 1546   3.529   4.087   1.481 -0.4899 -1.5444  1.5415
   99TMC2    H2 1547   3.506   4.341   1.820 -2.8748 -2.0373 -1.2602
   99TMC2    C7 1548   3.383   4.157   1.687 -0.4115 -0.3082  0.1777
   99TMC2    C8 1549   3.743   4.458   1.791  0.2693  0.1023  0.5215
   99TMC2    O1 1550   3.344   4.181   1.797 -0.1942 -0.3055  0.3539
   99TMC2    O2 1551   3.697   4.571   1.786  0.3286 -0.4625 -0.3266
   99TMC2    O5 1552   3.768   4.393   1.904 -0.0867  0.3601 -0.4338
   99TMC2    H5 1553   3.794   4.299   1.892 -1.4423  0.1447 -1.5904
  100MPD2     C 1554   3.912   3.998   1.208 -0.0716  0.3115  0.4386
  100MPD2    C1 1555   3.784   3.977   1.255 -0.5886 -0.7828 -0.3397
  100MPD2    C2 1556   3.718   3.866   1.207 -0.6071  0.4358 -0.5164
  100MPD2    C3 1557   3.781   3.771   1.131  0.4655  0.3827 -0.1664
  100MPD2    C4 1558   3.906   3.799   1.077 -0.2271  0.9085  0.6949
  100MPD2    C5 1559   3.973   3.904   1.124  0.3193 -0.0009  0.0020
  100MPD2     H 1560   3.615   3.846   1.237 -0.2207 -1.1884 -0.2930
  100MPD2    H1 1561   3.946   3.735   0.999 -1.4477 -1.5006  2.0450
  100MPD2    H2 1562   3.975   4.081   1.237 -0.8825  1.0405  0.1116
  100MPD2    H3 1563   4.071   3.926   1.083  0.2195  0.3719 -0.0345
  100MPD2     N 1564   3.697   3.664   1.075 -0.3181 -0.0229  0.0600
  100MPD2    H5 1565   3.601   3.666   1.106  0.3749 -1.5002  2.2566
  100MPD2    N1 1566   3.716   4.050   1.348  0.6229 -0.4856 -0.3864
  100MPD2    H7 1567   3.623   4.018   1.372 -0.8344  5.3345  1.7014
  101TMC2    C1 1568   3.984   0.127  12.669 -0.3189  0.2042  0.2219
  101TMC2    C2 1569   3.952   0.027  12.592  0.2407 -0.6022 -0.2012
  101TMC2    C3 1570   3.958   0.043  12.458 -0.0389  0.5868 -0.8253
  101TMC2    C4 1571   4.018   0.249  12.618 -0.3773 -0.0854 -0.2420
  101TMC2    C5 1572   4.024   0.257  12.483 -0.6089 -0.4807  0.8426
  101TMC2    C6 1573   3.984   0.159  12.402 -0.0179  0.2612 -0.3843
  101TMC2     C 1574   3.967   0.123  12.812  0.4993 -0.6582 -0.0610
  101TMC2     O 1575   3.904   0.028  12.849 -0.1663  0.4038 -0.0314
  101TMC2     H 1576   3.938   4.665  12.633 -1.3220 -0.6317 -0.8091
  101TMC2    H1 1577   4.032   0.344  12.669 -1.3665  0.3644 -0.8123
  101TMC2    H2 1578   4.006   0.162  12.295 -4.0921 -0.9412 -1.2203
  101TMC2    C7 1579   4.086   0.376  12.433 -0.3506 -0.1633 -0.3770
  101TMC2    C8 1580   3.921   4.667  12.374 -0.2865 -0.5989  0.1590
  101TMC2    O1 1581   4.144   0.447  12.512  0.2025  0.7872 -0.1395
  101TMC2    O2 1582   3.820   4.605  12.408 -0.5107  0.2652  0.4658
  101TMC2    O5 1583   4.026   4.621  12.305  0.1592  0.0492 -0.4489
  101TMC2    H5 1584   4.107   4.675  12.313  1.0261 -1.3776  0.3069
  102MPD2     C 1585   4.067   0.365  13.060 -0.1711  0.4649  0.8739
  102MPD2    C1 1586   4.003   0.251  13.024  0.0300  0.5023  0.4833
  102MPD2    C2 1587   3.947   0.162  13.112  0.0448 -0.1073  0.3408
  102MPD2    C3 1588   3.953   0.192  13.244 -0.0720 -0.2629 -0.6615
  102MPD2    C4 1589   4.023   0.306  13.285  0.3117 -0.5660 -0.1707
  102MPD2    C5 1590   4.080   0.390  13.196  0.9742 -0.0862  0.3871
  102MPD2     H 1591   3.901   0.069  13.083  0.2755 -0.3914  0.8841
  102MPD2    H1 1592   4.032   0.336  13.389  3.9445  2.8679 -1.4998
  102MPD2    H2 1593   4.120   0.425  12.986 -1.9273 -1.5151 -2.0133
  102MPD2    H3 1594   4.132   0.480  13.225  0.0652  0.0304  1.6393
  102MPD2     N 1595   3.883   0.111  13.333 -0.3968 -0.3139 -0.3748
  102MPD2    H5 1596   3.826   0.035  13.297 -0.7479 -0.2748  0.0881
  102MPD2    N1 1597   4.014   0.227  12.890  0.2488  0.1473 -0.6837
  102MPD2    H7 1598   4.080   0.290  12.846  1.5878  0.2006  1.4267
  103TMC2    C1 1599   1.921   4.697  12.467 -0.7158  0.0873  0.4111
  103TMC2    C2 1600   1.999   4.588  12.463  0.2181  0.1468 -0.6580
  103TMC2    C3 1601   2.038   4.538  12.581  0.2361 -0.6902  0.2944
  103TMC2    C4 1602   1.880   0.031  12.578 -0.5941  0.0406 -0.4614
  103TMC2    C5 1603   1.936   4.724  12.693 -0.4036 -0.0868 -0.2543
  103TMC2    C6 1604   2.012   4.608  12.697  0.5508 -0.8173 -0.3857
  103TMC2     C 1605   1.879   0.023  12.348 -0.5076 -0.5613 -0.1076
  103TMC2     O 1606   1.869   0.144  12.337  0.1645 -0.1462 -0.6792
  103TMC2     H 1607   2.046   4.548  12.374 -1.3162  0.6540 -1.6889
  103TMC2    H1 1608   1.818   0.118  12.559 -1.2792 -0.8551 -2.2744
  103TMC2    H2 1609   2.069   4.587  12.787 -0.9677  2.0712  1.2339
  103TMC2    C7 1610   1.941   0.076  12.809  0.1971  0.6303  0.3277
  103TMC2    C8 1611   2.148   4.440  12.580 -0.3175 -0.0595  0.4232
  103TMC2    O1 1612   1.996   0.037  12.908 -0.8917  0.1991 -0.8448
  103TMC2    O2 1613   2.139   4.319  12.556 -0.1841  0.2379 -0.3036
  103TMC2    O5 1614   2.259   4.519  12.563 -0.7719 -0.3556  0.3518
  103TMC2    H5 1615   2.237   4.611  12.585 -2.0029 -0.6961  0.5423
  104MPD2     C 1616   1.805   4.567  12.036  0.1950  0.0009 -0.1028
  104MPD2    C1 1617   1.826   4.685  12.111  0.7024  0.0222 -0.7163
  104MPD2    C2 1618   1.785   0.063  12.054  0.7477  0.0266 -0.2384
  104MPD2    C3 1619   1.731   0.073  11.922 -0.2659 -0.0013 -0.1658
  104MPD2    C4 1620   1.719   4.697  11.847 -0.0729 -0.2398 -0.2098
  104MPD2    C5 1621   1.760   4.582  11.904 -1.1964 -0.1665  0.7679
  104MPD2     H 1622   1.810   0.155  12.105 -2.1787  0.6791 -0.0368
  104MPD2    H1 1623   1.673   4.697  11.749 -1.8573  2.4153  0.6465
  104MPD2    H2 1624   1.827   4.473  12.084  1.2290 -0.1790 -0.9353
  104MPD2    H3 1625   1.744   4.490  11.849 -0.8988  0.3429 -0.1613
  104MPD2     N 1626   1.696   0.200  11.881  0.1494  0.2615 -0.5246
  104MPD2    H5 1627   1.727   0.271  11.947 -0.9415 -0.2140  0.5032
  104MPD2    N1 1628   1.872   4.667  12.246 -1.0984 -0.2442 -0.7207
  104MPD2    H7 1629   1.883   4.570  12.276  2.3581  0.9929  2.0947
  105TMC2    C1 1630   2.830   3.847   0.039 -0.6119 -1.2658 -0.0259
  105TMC2    C2 1631   2.701   3.846   0.071  0.3382 -0.7038 -1.0777
  105TMC2    C3 1632   2.663   3.919   0.182 -0.5351 -0.2452  0.5526
  105TMC2    C4 1633   2.923   3.911   0.117 -0.1507 -0.1900  0.0555
  105TMC2    C5 1634   2.878   3.980   0.229  0.4190 -0.5521  0.4828
  105TMC2    C6 1635   2.746   3.991   0.258  0.0450  0.3267 -0.2940
  105TMC2     C 1636   2.864   3.751  17.686 -0.4096  0.5108  0.2747
  105TMC2     O 1637   2.794   3.656  17.670 -0.8004  0.2888  0.1696
  105TMC2     H 1638   2.623   3.806   0.006 -0.9954 -2.6416  1.7574
  105TMC2    H1 1639   3.029   3.910   0.093  0.6337 -1.1679  3.6032
  105TMC2    H2 1640   2.713   4.038   0.349  0.0607 -0.8859  0.3412
  105TMC2    C7 1641   2.972   3.973   0.341 -0.4532 -0.2553  0.2550
  105TMC2    C8 1642   2.528   3.909   0.221 -0.1269  0.1128  0.7703
  105TMC2    O1 1643   3.065   3.893   0.324 -0.3465  0.2043  0.5189
  105TMC2    O2 1644   2.475   3.986   0.298 -0.1163 -0.2260  0.2484
  105TMC2    O5 1645   2.498   3.778   0.219  0.1593 -0.3305 -0.0976
  105TMC2    H5 1646   2.570   3.718   0.191  1.6974 -0.0090  3.1486
  106MPD2     C 1647   3.173   3.631  17.280 -0.0770  0.3292 -0.1805
  106MPD2    C1 1648   3.188   3.766  17.316  0.0810 -0.1329  1.0272
  106MPD2    C2 1649   3.112   3.821  17.421 -0.2964 -0.4125 -0.4249
  106MPD2    C3 1650   3.032   3.750  17.502 -0.5709 -0.0136  0.2944
  106MPD2    C4 1651   3.025   3.615  17.475 -0.0131  0.4438 -0.0776
  106MPD2    C5 1652   3.098   3.552  17.371  0.1108  0.4234 -0.3205
  106MPD2     H 1653   3.133   3.926  17.431  0.2146 -0.3619 -1.9279
  106MPD2    H1 1654   2.977   3.549  17.547  0.1214  0.0864 -0.3169
  106MPD2    H2 1655   3.229   3.579  17.204 -1.8220 -0.5920 -0.8342
  106MPD2    H3 1656   3.072   3.451  17.342  0.1456  0.5086 -0.6410
  106MPD2     N 1657   2.957   3.815  17.608 -0.5776  0.1449 -0.1852
  106MPD2    H5 1658   2.980   3.910  17.636 -2.1289  0.1285  1.1472
  106MPD2    N1 1659   3.281   3.845  17.248 -0.7998 -0.6442 -0.2544
  106MPD2    H7 1660   3.298   3.936  17.289 -2.1330 -0.2420 -0.5859
  107TMC2    C1 1661   4.100   4.096  11.627  0.5610  0.2034  0.5688
  107TMC2    C2 1662   4.125   4.227  11.660 -0.5052  0.7068  0.6623
  107TMC2    C3 1663   4.162   4.310  11.563 -0.5557  0.6814 -0.0887
  107TMC2    C4 1664   4.108   4.047  11.501  0.6306  0.3931  0.2883
  107TMC2    C5 1665   4.154   4.133  11.410  0.0013 -0.0565 -0.3663
  107TMC2    C6 1666   4.190   4.260  11.439  0.0241 -0.6519 -0.1415
  107TMC2     C 1667   4.048   4.015  11.738 -0.3841 -0.0687 -0.1202
  107TMC2     O 1668   3.995   4.080  11.829  0.5407  0.3511  0.0351
  107TMC2     H 1669   4.129   4.266  11.761 -1.3125 -1.3365  1.4817
  107TMC2    H1 1670   4.058   3.954  11.477 -2.2291  2.3992 -1.4709
  107TMC2    H2 1671   4.233   4.324  11.362  0.2365 -0.5451  0.0663
  107TMC2    C7 1672   4.203   4.074  11.284  0.4060  0.5499  0.1557
  107TMC2    C8 1673   4.188   4.447  11.611  0.0024  0.2576 -0.0650
  107TMC2    O1 1674   4.200   4.150  11.187  0.1125 -0.1422 -1.0673
  107TMC2    O2 1675   4.229   4.481  11.725 -0.4543 -0.7574  0.4061
  107TMC2    O5 1676   4.213   4.523  11.502 -0.2061 -0.2822  0.0399
  107TMC2    H5 1677   4.165   4.500  11.419  2.7411 -1.0162 -1.4579
  108MPD2     C 1678   4.139   3.660  11.815  0.6089  0.3188  0.1075
  108MPD2    C1 1679   4.061   3.776  11.815 -0.3755 -0.1851 -0.0653
  108MPD2    C2 1680   3.968   3.784  11.913 -0.0708 -0.5286 -0.5364
  108MPD2    C3 1681   3.959   3.684  12.010 -0.2553  0.4746 -0.0875
  108MPD2    C4 1682   4.048   3.578  12.007  0.0920  0.4600 -0.2496
  108MPD2    C5 1683   4.131   3.555  11.904  1.0040  0.3019 -0.5368
  108MPD2     H 1684   3.907   3.873  11.915  0.7875  0.0623 -1.1268
  108MPD2    H1 1685   4.058   3.497  12.079  0.8378  2.7432  2.1767
  108MPD2    H2 1686   4.223   3.649  11.748  0.5114 -1.5299  0.2947
  108MPD2    H3 1687   4.196   3.468  11.897  1.1381  0.5694 -2.4713
  108MPD2     N 1688   3.883   3.688  12.132 -0.1899  0.1402 -0.1256
  108MPD2    H5 1689   3.902   3.616  12.201  0.3593  1.0602  0.6805
  108MPD2    N1 1690   4.090   3.882  11.726 -0.0755  0.7817  0.0382
  108MPD2    H7 1691   4.152   3.863  11.648 -1.7940  0.2726 -1.1947
  109TMC2    C1 1692   3.279   0.084   0.468 -0.7099 -0.7750 -0.6317
  109TMC2    C2 1693   3.248   0.049   0.343 -0.3366  0.0090 -0.1582
  109TMC2    C3 1694   3.302   0.127   0.247 -0.8771  0.4474 -0.0907
  109TMC2    C4 1695   3.350   0.200   0.507  0.1615 -0.4572  0.4610
  109TMC2    C5 1696   3.398   0.277   0.404  0.2539 -0.0406 -0.2202
  109TMC2    C6 1697   3.377   0.243   0.274  0.3347  0.0939  0.5955
  109TMC2     C 1698   3.187   0.034   0.570 -0.1412 -0.0311 -0.2622
  109TMC2     O 1699   3.104   4.693   0.532  0.7741  0.0952  0.5471
  109TMC2     H 1700   3.207   4.688   0.329 -1.3422  0.0795  2.3433
  109TMC2    H1 1701   3.401   0.202   0.603  2.6254 -0.2771 -0.8548
  109TMC2    H2 1702   3.414   0.303   0.192 -0.2708 -1.3838 -0.7586
  109TMC2    C7 1703   3.434   0.414   0.426  0.3192 -0.2121  0.0486
  109TMC2    C8 1704   3.274   0.088   0.112  0.8424 -0.5245  0.9092
  109TMC2    O1 1705   3.506   0.471   0.343 -0.0180  0.3881 -0.2106
  109TMC2    O2 1706   3.250   4.711   0.076 -0.0365 -0.4188 -0.6066
  109TMC2    O5 1707   3.253   0.199   0.032 -0.0561  0.7983 -0.1917
  109TMC2    H5 1708   3.272   0.291   0.060 -1.4478  0.0874  3.2380
  110MPD2     C 1709   2.861   0.218   0.903  0.8900  0.2385  0.1618
  110MPD2    C1 1710   2.974   0.295   0.907  0.3352  0.0628 -0.6334
  110MPD2    C2 1711   3.083   0.247   0.844 -0.7085  0.8214 -0.2140
  110MPD2    C3 1712   3.081   0.140   0.760  0.8482  0.3273  0.7534
  110MPD2    C4 1713   2.967   0.070   0.746 -0.0328 -0.2210  0.5506
  110MPD2    C5 1714   2.863   0.101   0.828 -0.0603  0.4613  0.2111
  110MPD2     H 1715   3.171   0.311   0.844  0.2688 -0.5241 -0.7003
  110MPD2    H1 1716   2.944   4.722   0.683  0.9439 -1.8298  2.4063
  110MPD2    H2 1717   2.774   0.244   0.962  1.3930  0.9666  0.5806
  110MPD2    H3 1718   2.779   0.033   0.834  0.5365 -0.2649  0.3552
  110MPD2     N 1719   3.190   0.118   0.677  0.0795  0.4034 -0.1048
  110MPD2    H5 1720   3.266   0.185   0.684  1.3707 -0.8217 -2.8974
  110MPD2    N1 1721   2.966   0.417   0.983  0.5488 -0.1603  0.8362
  110MPD2    H7 1722   2.872   0.450   1.001 -0.2268 -0.2028 -3.1241
  111TMC2    C1 1723   0.232   0.840  11.237 -0.4001 -0.1718 -0.4590
  111TMC2    C2 1724   0.328   0.913  11.181  0.8464 -0.4421 -0.2215
  111TMC2    C3 1725   0.396   1.010  11.248 -0.3149 -0.0717  0.0576
  111TMC2    C4 1726   0.199   0.861  11.370 -0.4192 -0.0796  0.5571
  111TMC2    C5 1727   0.273   0.960  11.435  0.1354  0.3765  0.2278
  111TMC2    C6 1728   0.379   1.028  11.379  0.0530  0.1106 -0.2589
  111TMC2     C 1729   0.128   0.769  11.157 -0.6251  0.3063 -0.5469
  111TMC2     O 1730   0.095   0.817  11.047 -0.4987  0.3814  0.1603
  111TMC2     H 1731   0.328   0.904  11.073  0.5118  1.6623 -0.3842
  111TMC2    H1 1732   0.127   0.799  11.424  1.0943 -1.9306  0.4449
  111TMC2    H2 1733   0.436   1.112  11.416 -1.0339  1.4192 -1.5485
  111TMC2    C7 1734   0.260   0.958  11.580  0.1021  0.4044  0.2021
  111TMC2    C8 1735   0.440   1.127  11.185 -0.5877  0.3918  0.2463
  111TMC2    O1 1736   0.167   0.892  11.628  0.5078  0.3654 -0.1123
  111TMC2    O2 1737   0.438   1.241  11.234  0.1749  0.0215  0.2441
  111TMC2    O5 1738   0.484   1.086  11.062  0.1641  0.1457  0.2259
  111TMC2    H5 1739   0.516   0.994  11.065 -1.9288 -0.5781 -0.0060
  112MPD2     C 1740   4.551   0.397  11.052  0.4871 -0.4950  0.3572
  112MPD2    C1 1741   4.554   0.527  11.010 -0.3261 -0.3649 -0.4084
  112MPD2    C2 1742   4.653   0.604  11.059 -0.0766  0.1733 -0.5259
  112MPD2    C3 1743   0.002   0.565  11.153  0.0014  0.6305  0.8996
  112MPD2    C4 1744   4.733   0.431  11.195 -0.2277  0.1470 -0.6207
  112MPD2    C5 1745   4.634   0.356  11.149  0.2066  0.4844 -0.1620
  112MPD2     H 1746   4.647   0.702  11.012 -1.1704  0.3104 -0.0829
  112MPD2    H1 1747   0.058   0.389  11.273 -0.6851 -1.4268 -1.1145
  112MPD2    H2 1748   4.477   0.326  11.018 -0.4732 -0.0172  1.4460
  112MPD2    H3 1749   4.631   0.255  11.189  2.0287  1.7715  3.2586
  112MPD2     N 1750   0.091   0.651  11.214 -0.1307 -0.6466 -0.0988
  112MPD2    H5 1751   0.149   0.618  11.290 -0.7278 -2.4005 -0.3997
  112MPD2    N1 1752   4.464   0.577  10.915 -0.4807  0.1917  0.0834
  112MPD2    H7 1753   4.474   0.673  10.885  1.1754  0.3119  1.0031
  113TMC2    C1 1754   2.129   3.579   0.931  0.1849 -0.4884 -0.0665
  113TMC2    C2 1755   2.013   3.631   0.969  0.2254  0.5327  0.3556
  113TMC2    C3 1756   1.899   3.555   0.962  1.0655  0.6500  0.0931
  113TMC2    C4 1757   2.131   3.454   0.871 -0.1449  0.5467  0.3483
  113TMC2    C5 1758   2.015   3.386   0.853 -0.3667 -0.2652  0.4159
  113TMC2    C6 1759   1.900   3.435   0.900  0.4983 -0.2969  0.0938
  113TMC2     C 1760   2.243   3.635   1.009 -0.1474 -0.0922  0.2364
  113TMC2     O 1761   2.216   3.716   1.094  0.1525  0.1929 -0.4892
  113TMC2     H 1762   2.018   3.732   1.007  0.4204  1.3078 -1.7221
  113TMC2    H1 1763   2.223   3.409   0.835  0.7862  0.7305  2.5001
  113TMC2    H2 1764   1.808   3.379   0.910  0.5927 -0.2750  1.1498
  113TMC2    C7 1765   2.036   3.242   0.832  0.3225 -0.3618  0.0852
  113TMC2    C8 1766   1.779   3.609   1.021 -0.3388  0.7908  0.2550
  113TMC2    O1 1767   2.133   3.204   0.767  0.7865  0.1884  0.1927
  113TMC2    O2 1768   1.776   3.629   1.141 -0.2796 -0.3707 -0.6571
  113TMC2    O5 1769   1.728   3.682   0.923  0.9643  0.4067 -0.2829
  113TMC2    H5 1770   1.747   3.644   0.835 -1.8102 -0.0860 -0.6633
  114MPD2     C 1771   2.740   3.742   1.063 -0.2328 -1.1467 -0.3569
  114MPD2    C1 1772   2.643   3.787   1.139 -0.3533  0.4309  0.5438
  114MPD2    C2 1773   2.516   3.743   1.109 -0.2449  0.4503 -0.2480
  114MPD2    C3 1774   2.489   3.662   0.995 -0.1971 -0.1894 -0.5429
  114MPD2    C4 1775   2.594   3.623   0.916  0.6043 -0.2952 -0.0954
  114MPD2    C5 1776   2.724   3.653   0.961 -0.2434 -0.5314  0.2964
  114MPD2     H 1777   2.434   3.788   1.164  1.8017  1.1309  2.2396
  114MPD2    H1 1778   2.595   3.564   0.826  0.8377 -2.0983  1.1016
  114MPD2    H2 1779   2.842   3.774   1.082 -0.5213  0.0484 -0.8315
  114MPD2    H3 1780   2.815   3.623   0.912 -1.5125 -1.9995 -1.1489
  114MPD2     N 1781   2.367   3.610   0.951  0.2592 -0.4507  0.7357
  114MPD2    H5 1782   2.375   3.545   0.874  2.5805 -0.3403  0.8821
  114MPD2    N1 1783   2.660   3.884   1.251 -0.1116 -0.3952 -0.5879
  114MPD2    H7 1784   2.570   3.908   1.290  0.9366  1.2819  0.8058
  115TMC2    C1 1785   3.195   0.747  17.496 -0.0434  0.0137 -0.0958
  115TMC2    C2 1786   3.277   0.712  17.394 -0.4680 -0.1119 -0.1122
  115TMC2    C3 1787   3.371   0.803  17.349  0.0973  0.6501  0.1947
  115TMC2    C4 1788   3.212   0.866  17.553  0.0674  0.5261  0.4034
  115TMC2    C5 1789   3.310   0.955  17.516 -0.0352 -0.2631  0.6641
  115TMC2    C6 1790   3.395   0.924  17.410  0.4255  0.0775 -0.3431
  115TMC2     C 1791   3.096   0.640  17.531  0.1125  0.1727  0.0983
  115TMC2     O 1792   3.103   0.536  17.471 -0.2181 -0.0951  0.5553
  115TMC2     H 1793   3.256   0.621  17.340 -1.2814 -0.0769  0.1467
  115TMC2    H1 1794   3.143   0.892  17.633  0.0695 -0.6388  0.7862
  115TMC2    H2 1795   3.476   0.990  17.382  0.3732  0.2671 -0.0444
  115TMC2    C7 1796   3.286   1.088  17.556 -0.1930  0.3193 -0.4438
  115TMC2    C8 1797   3.440   0.786  17.224  0.3267  0.4153 -0.0436
  115TMC2    O1 1798   3.212   1.111  17.653 -0.1394  0.0741  0.3798
  115TMC2    O2 1799   3.540   0.849  17.198 -0.3330  0.0892 -0.4202
  115TMC2    O5 1800   3.390   0.684  17.152  0.1342 -0.5332 -0.2330
  115TMC2    H5 1801   3.304   0.656  17.190 -0.0408 -0.8788 -0.8757
  116MPD2     C 1802   2.669   0.467   0.015  0.5292 -0.3292  0.0464
  116MPD2    C1 1803   2.742   0.422  17.657  0.1408 -0.3767  0.5132
  116MPD2    C2 1804   2.860   0.483  17.622 -0.2066 -0.4245 -0.2077
  116MPD2    C3 1805   2.900   0.599  17.682 -0.6552  0.0271  0.1236
  116MPD2    C4 1806   2.829   0.647   0.037  0.0272  0.3989 -1.1183
  116MPD2    C5 1807   2.722   0.575   0.086 -0.1543 -0.1515  0.7335
  116MPD2     H 1808   2.926   0.439  17.548  0.2374  1.5812 -1.0148
  116MPD2    H1 1809   2.858   0.739   0.086  1.0146 -1.0727  1.0107
  116MPD2    H2 1810   2.580   0.428   0.063 -0.9323  1.0062 -1.6221
  116MPD2    H3 1811   2.669   0.612   0.172 -1.0965  0.4846 -0.1141
  116MPD2     N 1812   3.010   0.673  17.637 -0.3259  0.6099  0.7450
  116MPD2    H5 1813   3.037   0.744  17.704  3.1568  1.2436 -1.3223
  116MPD2    N1 1814   2.694   0.302  17.599  0.5443 -0.0026  0.3624
  116MPD2    H7 1815   2.617   0.268  17.655  1.4988 -0.0271  1.6774
  117TMC2    C1 1816   1.477   3.104  13.847 -0.1147  0.6187 -0.7037
  117TMC2    C2 1817   1.458   3.169  13.968 -0.4608 -0.7609 -0.2601
  117TMC2    C3 1818   1.567   3.182  14.053  0.3203 -0.5594  0.1988
  117TMC2    C4 1819   1.601   3.068  13.809 -0.5053 -0.7608  0.6722
  117TMC2    C5 1820   1.702   3.085  13.896  0.2814  0.4246 -0.2839
  117TMC2    C6 1821   1.686   3.137  14.017  0.0308  0.2363  0.3713
  117TMC2     C 1822   1.367   3.076  13.758 -0.2848 -0.1712 -0.0493
  117TMC2     O 1823   1.393   3.017  13.658 -0.4744  0.4468  0.4361
  117TMC2     H 1824   1.360   3.201  14.002 -0.4495 -1.0012  0.0006
  117TMC2    H1 1825   1.628   3.021  13.715  0.4362  1.4785 -0.1541
  117TMC2    H2 1826   1.775   3.173  14.067  0.9323 -0.5179 -0.6956
  117TMC2    C7 1827   1.833   3.097  13.828  0.5779 -0.1715 -0.3080
  117TMC2    C8 1828   1.568   3.273  14.171  0.4875 -0.3849 -0.5588
  117TMC2    O1 1829   1.823   3.125  13.711 -0.1115  0.1171  0.2523
  117TMC2    O2 1830   1.649   3.259  14.261 -0.8048  0.2983  0.2649
  117TMC2    O5 1831   1.542   3.395  14.126  0.3170  0.2456  0.0377
  117TMC2    H5 1832   1.477   3.404  14.053  2.0952 -0.5642 -1.6332
  118MPD2     C 1833   2.157   3.181  13.983  0.3777  0.0573 -0.4799
  118MPD2    C1 1834   2.067   3.161  13.877  0.1085 -0.7241  0.3118
  118MPD2    C2 1835   2.098   3.203  13.750 -0.1955  0.8480 -0.3752
  118MPD2    C3 1836   2.228   3.266  13.730 -0.3396  0.8341 -0.4300
  118MPD2    C4 1837   2.316   3.276  13.835  0.1811  0.6905 -0.0212
  118MPD2    C5 1838   2.278   3.235  13.959  0.6176  0.1952 -0.9416
  118MPD2     H 1839   2.035   3.206  13.662 -1.7481  1.8389  0.7886
  118MPD2    H1 1840   2.418   3.309  13.817  0.8738 -1.3221  0.1501
  118MPD2    H2 1841   2.127   3.145  14.080  2.0752 -0.2020 -0.0549
  118MPD2    H3 1842   2.343   3.252  14.043  0.4261 -0.7276 -0.5985
  118MPD2     N 1843   2.289   3.306  13.605 -0.3768 -0.3848 -0.2460
  118MPD2    H5 1844   2.382   3.346  13.610 -0.7542  0.3162  1.4764
  118MPD2    N1 1845   1.943   3.103  13.907 -0.1320  1.7574  0.2308
  118MPD2    H7 1846   1.923   3.071  14.001  0.5516 -1.6833 -0.7974
  119TMC2    C1 1847   4.396   4.178  13.368 -0.6484  0.0821  0.2690
  119TMC2    C2 1848   4.264   4.145  13.378  0.3475  0.8561  0.2017
  119TMC2    C3 1849   4.214   4.063  13.477  0.4690  0.8207  0.0383
  119TMC2    C4 1850   4.474   4.142  13.476 -0.0051 -0.3195  0.3712
  119TMC2    C5 1851   4.428   4.063  13.575 -0.1748 -0.4151 -0.1003
  119TMC2    C6 1852   4.292   4.026  13.584 -0.0451  0.5799 -0.6953
  119TMC2     C 1853   4.414   4.311  13.304  0.4782  0.0494 -0.1802
  119TMC2     O 1854   4.520   4.365  13.335 -0.0448  0.4344  1.0574
  119TMC2     H 1855   4.204   4.168  13.291 -1.4279  2.4169  1.8361
  119TMC2    H1 1856   4.581   4.162  13.477  0.2662 -1.6369 -1.4574
  119TMC2    H2 1857   4.254   3.954  13.656 -3.6969  0.8186 -2.3893
  119TMC2    C7 1858   4.518   4.000  13.657  0.0885  0.3017  0.4125
  119TMC2    C8 1859   4.082   4.011  13.463 -0.5845  0.2409 -0.2944
  119TMC2    O1 1860   4.623   3.961  13.605  0.4011 -0.0016 -0.6295
  119TMC2    O2 1861   4.036   3.992  13.352  0.1170  0.0330 -0.0722
  119TMC2    O5 1862   4.019   4.003  13.581  0.3405  0.6125  0.1888
  119TMC2    H5 1863   4.062   4.057  13.650 -1.8203  2.2618  0.2357
  120MPD2     C 1864   4.235   4.732  13.080  0.7474  0.8302  0.9096
  120MPD2    C1 1865   4.357   4.705  13.149  0.0925 -0.8493 -0.2927
  120MPD2    C2 1866   4.385   4.572  13.179  0.0702 -0.2125  0.1720
  120MPD2    C3 1867   4.296   4.470  13.151  0.0033 -0.2820  0.8205
  120MPD2    C4 1868   4.184   4.500  13.066  0.2696  0.3296 -0.5392
  120MPD2    C5 1869   4.157   4.630  13.033  0.1505  0.0147  0.9998
  120MPD2     H 1870   4.481   4.551  13.226  0.2943 -0.4413 -0.3969
  120MPD2    H1 1871   4.112   4.429  13.026  1.5144 -0.6297 -1.0752
  120MPD2    H2 1872   4.213   0.099  13.062  1.3576  0.2533 -3.2835
  120MPD2    H3 1873   4.073   4.646  12.967  0.0918 -1.4544  0.7119
  120MPD2     N 1874   4.312   4.344  13.219 -0.3285  0.0932 -0.3115
  120MPD2    H5 1875   4.240   4.275  13.200 -0.0237  0.3176 -2.3367
  120MPD2    N1 1876   4.437   0.081  13.188 -0.2590 -0.5993  0.3098
  120MPD2    H7 1877   4.437   0.166  13.133  4.1358 -0.4724  0.5093
  121TMC2    C1 1878   2.106   1.423  14.096  0.3870 -0.0254 -0.8930
  121TMC2    C2 1879   2.015   1.358  14.173  0.2266  0.5001 -1.1731
  121TMC2    C3 1880   1.885   1.392  14.165  0.2202 -0.7775 -0.0711
  121TMC2    C4 1881   2.065   1.540  14.032 -0.4900  0.4900 -0.2863
  121TMC2    C5 1882   1.931   1.563  14.026  0.4496 -0.1068  0.4396
  121TMC2    C6 1883   1.841   1.498  14.097  0.0714 -0.3577 -0.0904
  121TMC2     C 1884   2.195   1.337  14.019  0.1677  0.2933  0.6158
  121TMC2     O 1885   2.216   1.226  14.062  0.4282 -0.4276 -0.0359
  121TMC2     H 1886   2.042   1.265  14.222 -2.2415  0.2473 -0.2748
  121TMC2    H1 1887   2.132   1.607  13.981 -1.1706  1.0549 -0.4388
  121TMC2    H2 1888   1.735   1.519  14.100  0.2506  0.4678  0.3850
  121TMC2    C7 1889   1.899   1.693  13.959 -0.1909  0.2369  0.7235
  121TMC2    C8 1890   1.795   1.320  14.249 -0.6143  0.3258 -0.7495
  121TMC2    O1 1891   1.986   1.783  13.957  0.3796 -0.3648 -0.6967
  121TMC2    O2 1892   1.817   1.204  14.283 -0.1996 -0.0251  0.5623
  121TMC2    O5 1893   1.723   1.410  14.322 -0.6198  0.7440 -0.3169
  121TMC2    H5 1894   1.740   1.499  14.285 -2.6298  1.9365  1.6225
  122MPD2     C 1895   2.227   1.180  13.770  0.2504 -0.2367 -1.0786
  122MPD2    C1 1896   2.214   1.319  13.771 -0.4021  0.4425 -0.0662
  122MPD2    C2 1897   2.194   1.395  13.655 -0.4015  0.8792 -0.5525
  122MPD2    C3 1898   2.211   1.332  13.531 -0.8970 -0.5473 -0.0227
  122MPD2    C4 1899   2.234   1.199  13.524 -0.3596  0.2191 -0.1041
  122MPD2    C5 1900   2.240   1.126  13.642  0.3256 -0.5484  0.0870
  122MPD2     H 1901   2.166   1.499  13.663 -0.4904  0.7226  1.3181
  122MPD2    H1 1902   2.243   1.155  13.425 -0.7140  2.6565 -1.2409
  122MPD2    H2 1903   2.228   1.117  13.858 -4.1861 -0.3356 -1.1357
  122MPD2    H3 1904   2.235   1.018  13.639 -0.6825 -0.5479  1.8710
  122MPD2     N 1905   2.191   1.400  13.411 -0.2094  0.0850  0.5354
  122MPD2    H5 1906   2.186   1.343  13.327 -1.0613 -0.2131  0.7894
  122MPD2    N1 1907   2.193   1.386  13.889  0.1057 -0.9206  0.1368
  122MPD2    H7 1908   2.165   1.484  13.881 -1.1180 -1.0851  2.1997
  123TMC2    C1 1909   4.701   4.528  10.558  0.1974 -0.1386  0.1388
  123TMC2    C2 1910   0.088   4.559  10.603 -0.6790  0.3628  0.1067
  123TMC2    C3 1911   0.155   4.668  10.561  0.3986 -0.0641 -0.2685
  123TMC2    C4 1912   4.642   4.617  10.465  0.0264  0.2520 -0.5533
  123TMC2    C5 1913   4.706   4.736  10.432  0.4481  0.3458  0.2461
  123TMC2    C6 1914   0.099   0.019  10.478 -0.8443  0.2933 -0.1300
  123TMC2     C 1915   4.646   4.394  10.585  0.1849  0.3977  0.2296
  123TMC2     O 1916   4.714   4.323  10.661 -0.0939  0.3732 -0.0319
  123TMC2     H 1917   0.142   4.491  10.668  0.0836  1.0794  0.2198
  123TMC2    H1 1918   4.543   4.594  10.427  1.3164 -4.9565 -0.8357
  123TMC2    H2 1919   0.166   0.097  10.443  0.4024 -0.0742  1.4155
  123TMC2    C7 1920   4.672   0.037  10.297  0.0707 -0.5237 -0.5199
  123TMC2    C8 1921   0.277   4.691  10.615 -0.0674  0.2819  0.2010
  123TMC2    O1 1922   4.560   0.012  10.256  0.4369  0.2310 -0.1499
  123TMC2    O2 1923   0.369   0.007  10.555  0.2105 -0.5165 -0.2063
  123TMC2    O5 1924   0.248   4.719  10.742 -0.2434  0.3445  0.2891
  123TMC2    H5 1925   0.158   4.683  10.760  0.4340  0.2481  3.5091
  124MPD2     C 1926   4.354   3.984  10.478  0.2256  0.0425 -0.3536
  124MPD2    C1 1927   4.340   4.073  10.373 -0.2291 -0.6936 -0.0642
  124MPD2    C2 1928   4.403   4.196  10.385  0.3570 -0.5884 -0.0485
  124MPD2    C3 1929   4.483   4.224  10.497  0.5952  0.4089  0.4895
  124MPD2    C4 1930   4.503   4.128  10.591 -0.4142 -0.0056  0.2121
  124MPD2    C5 1931   4.437   4.009  10.581 -0.0469 -0.4730 -0.5281
  124MPD2     H 1932   4.404   4.268  10.304  2.3331 -0.6614 -0.0851
  124MPD2    H1 1933   4.559   4.145  10.682  0.6725  0.4476 -0.5386
  124MPD2    H2 1934   4.309   3.886  10.485 -1.8893  1.0288 -0.1769
  124MPD2    H3 1935   4.455   3.934  10.657 -0.9933 -0.6436 -0.4768
  124MPD2     N 1936   4.551   4.346  10.497  0.1020 -0.0445  1.1678
  124MPD2    H5 1937   4.518   4.408  10.423  0.2564 -2.9027 -1.3210
  124MPD2    N1 1938   4.272   4.029  10.252 -0.1547 -0.1044 -0.2966
  124MPD2    H7 1939   4.222   3.940  10.253  0.9477 -0.6803  2.8903
  125TMC2    C1 1940   1.079   1.355   9.395  0.6217 -0.5419  0.3029
  125TMC2    C2 1941   1.102   1.400   9.267 -0.2404 -0.0764 -0.3294
  125TMC2    C3 1942   1.222   1.393   9.214  1.0702  0.4350 -0.9492
  125TMC2    C4 1943   1.171   1.280   9.457  0.3415  0.0428  0.3874
  125TMC2    C5 1944   1.296   1.265   9.397 -0.0260  0.8500  0.7662
  125TMC2    C6 1945   1.325   1.335   9.283 -0.1853 -0.0008 -1.0716
  125TMC2     C 1946   0.950   1.383   9.457  0.2211 -0.7151 -0.2768
  125TMC2     O 1947   0.915   1.294   9.533 -0.1135 -0.1264 -0.2590
  125TMC2     H 1948   1.021   1.437   9.204 -2.1272  2.7535  3.7967
  125TMC2    H1 1949   1.152   1.244   9.557 -2.5166 -0.5727 -0.3866
  125TMC2    H2 1950   1.425   1.335   9.243  0.4348 -1.1904  0.5010
  125TMC2    C7 1951   1.415   1.225   9.474 -0.2963  0.4261  0.0002
  125TMC2    C8 1952   1.245   1.428   9.077 -0.1192  0.2038  0.1188
  125TMC2    O1 1953   1.426   1.255   9.592  0.0451  0.0584 -0.0407
  125TMC2    O2 1954   1.342   1.384   9.014  0.3099 -0.5788 -0.3701
  125TMC2    O5 1955   1.168   1.521   9.029 -0.3682  0.3335 -0.4716
  125TMC2    H5 1956   1.108   1.545   9.103  0.6319  0.0468  0.4250
  126MPD1     C 1957   0.547   1.682   9.576  0.8871  0.2230 -0.1770
  126MPD1    C1 1958   0.615   1.738   9.463  0.0866  0.1817 -0.5425
  126MPD1    C2 1959   0.722   1.673   9.408  0.6233  0.2320  0.7174
  126MPD1    C3 1960   0.776   1.560   9.466 -0.1912 -0.0685  0.2879
  126MPD1    C4 1961   0.709   1.494   9.567 -0.2278  0.4733  0.2685
  126MPD1    C5 1962   0.598   1.563   9.624 -0.0331  0.2772  0.5918
  126MPD1     H 1963   0.778   1.722   9.329  2.1993 -1.9040  0.5120
  126MPD1    H1 1964   0.743   1.405   9.620 -1.2188  0.2100  0.4659
  126MPD1    H2 1965   0.472   1.733   9.634  0.1588 -1.4650  0.3732
  126MPD1    H3 1966   0.550   1.527   9.714  2.4512  3.2250  3.0564
  126MPD1     N 1967   0.896   1.501   9.415 -0.3731  0.2245 -0.0266
  126MPD1    H5 1968   0.959   1.546   9.350  0.2149  0.8424  0.9878
  126MPD1    N1 1969   0.587   1.876   9.436  0.0563  0.3932 -0.3834
  126MPD1    H6 1970   0.487   1.893   9.446 -0.0230  0.3727 -1.2065
  126MPD1    H7 1971   0.605   1.909   9.342 -2.2111  2.0543 -0.2579
  127TMC2    C1 1972   1.439   4.586  10.068 -0.1279 -0.5275 -0.0078
  127TMC2    C2 1973   1.469   4.453  10.090 -0.0774 -0.2921  0.2366
  127TMC2    C3 1974   1.368   4.366  10.106 -0.4265 -0.3132 -1.0309
  127TMC2    C4 1975   1.309   4.628  10.072 -0.0855 -0.6729 -0.5709
  127TMC2    C5 1976   1.213   4.534  10.095  0.0283  0.3442  0.2636
  127TMC2    C6 1977   1.240   4.405  10.115 -0.5160 -0.1527  0.1611
  127TMC2     C 1978   1.547   4.671  10.010 -0.2558  0.9508  0.5514
  127TMC2     O 1979   1.657   4.652  10.052 -0.7777 -0.1575  0.5008
  127TMC2     H 1980   1.568   4.409  10.081 -0.5497 -1.1091 -0.8502
  127TMC2    H1 1981   1.275   4.729  10.048 -0.5497 -0.6652  0.1256
  127TMC2    H2 1982   1.164   4.330  10.131 -1.0357  0.5058  0.7859
  127TMC2    C7 1983   1.076   4.584  10.107  0.0973 -0.4419  0.1143
  127TMC2    C8 1984   1.403   4.226  10.086 -0.9106  0.1798 -0.5195
  127TMC2    O1 1985   1.054   4.669  10.191  0.6346 -0.2249  0.3714
  127TMC2    O2 1986   1.519   4.186  10.087  0.3580  0.2602 -0.1961
  127TMC2    O5 1987   1.303   4.170  10.019  0.0205 -0.0678 -0.1201
  127TMC2    H5 1988   1.221   4.224  10.014  0.3644  0.3911 -0.7490
  128MPD2     C 1989   1.516   0.185   9.766  0.5979 -0.4292 -0.7006
  128MPD2    C1 1990   1.581   0.119   9.859  0.0637 -0.0319  0.8886
  128MPD2    C2 1991   1.714   0.147   9.879  0.1482 -0.2884 -0.2272
  128MPD2    C3 1992   1.787   0.228   9.793  0.2740  0.4587 -0.0563
  128MPD2    C4 1993   1.719   0.292   9.691  0.3276  0.8693 -0.0948
  128MPD2    C5 1994   1.583   0.269   9.678 -0.1875 -0.5973  0.0306
  128MPD2     H 1995   1.772   0.083   9.943 -0.6819  1.7302  2.5411
  128MPD2    H1 1996   1.755   0.371   9.626 -1.4092 -0.3974 -2.5871
  128MPD2    H2 1997   1.410   0.166   9.756  0.2604 -0.2101  2.5466
  128MPD2    H3 1998   1.528   0.321   9.601 -0.1545  1.4464  1.3879
  128MPD2     N 1999   1.923   0.245   9.805  0.7029 -0.0519 -0.3535
  128MPD2    H5 2000   1.969   0.199   9.883 -2.3768 -0.8212  1.0200
  128MPD2    N1 2001   1.501   0.033   9.934 -0.3249 -0.2290  0.5666
  128MPD2    H7 2002   1.403   0.024   9.908 -0.3151 -1.6015  0.9885
  129TMC2    C1 2003   0.903   0.308   0.327  0.1641  0.4258 -0.0778
  129TMC2    C2 2004   0.891   0.444   0.318 -0.0169 -0.2507 -0.1125
  129TMC2    C3 2005   0.772   0.494   0.364 -0.2395 -0.3625 -0.6198
  129TMC2    C4 2006   0.795   0.223   0.358  0.2973  0.9139  0.0889
  129TMC2    C5 2007   0.686   0.284   0.422 -0.4460 -0.2891 -0.0115
  129TMC2    C6 2008   0.669   0.417   0.430  0.2113 -0.9934 -0.0022
  129TMC2     C 2009   1.034   0.249   0.358 -0.3208 -0.3037 -0.1021
  129TMC2     O 2010   1.044   0.139   0.313 -0.4874  0.0925 -0.3572
  129TMC2     H 2011   0.967   0.515   0.290 -0.3848  0.3563  0.4312
  129TMC2    H1 2012   0.812   0.117   0.339 -1.0250  0.6657  0.3185
  129TMC2    H2 2013   0.593   0.460   0.494  0.4228  0.8242 -0.9591
  129TMC2    C7 2014   0.591   0.195   0.494 -0.6089  0.0420  0.4650
  129TMC2    C8 2015   0.788   0.635   0.402 -0.3364  0.2391  0.3141
  129TMC2    O1 2016   0.484   0.239   0.526  0.1272 -0.5988  0.2592
  129TMC2    O2 2017   0.899   0.681   0.426 -0.5273 -0.0555 -0.1788
  129TMC2    O5 2018   0.681   0.681   0.451  0.2041 -0.2727  1.0297
  129TMC2    H5 2019   0.600   0.643   0.411  0.5308 -1.8808  1.9207
  130MPD2     C 2020   1.328   0.172   0.404  0.3217  0.5834 -0.3845
  130MPD2    C1 2021   1.273   0.297   0.420 -0.0451  0.1068  0.2790
  130MPD2    C2 2022   1.349   0.396   0.472  0.1013 -0.0485  0.0011
  130MPD2    C3 2023   1.486   0.373   0.503  0.6417  0.8293  0.1458
  130MPD2    C4 2024   1.535   0.247   0.488 -0.2896  0.3457 -0.2514
  130MPD2    C5 2025   1.455   0.143   0.451  0.3254 -0.0532 -0.5680
  130MPD2     H 2026   1.310   0.496   0.486  2.0411  0.5831  1.0010
  130MPD2    H1 2027   1.635   0.215   0.513 -0.5237  0.2149  0.5277
  130MPD2    H2 2028   1.274   0.087   0.362 -0.4571  0.0806  1.6508
  130MPD2    H3 2029   1.500   0.045   0.447  0.9104  0.1158  1.6892
  130MPD2     N 2030   1.556   0.483   0.548 -0.2367 -0.1298  0.0123
  130MPD2    H5 2031   1.503   0.570   0.544  1.9263  1.3233  3.1464
  130MPD2    N1 2032   1.136   0.337   0.402  0.1057 -0.0264  1.0162
  130MPD2    H7 2033   1.113   0.434   0.418 -2.2262 -0.2848 -0.7271
  131TMC2    C1 2034   4.381   0.156   9.644 -0.9175 -0.3093 -0.1674
  131TMC2    C2 2035   4.437   0.212   9.758  0.0799  0.1958 -0.1371
  131TMC2    C3 2036   4.426   0.348   9.773 -0.3388 -0.1694  0.2012
  131TMC2    C4 2037   4.310   0.229   9.559 -0.1199  0.6407  0.0157
  131TMC2    C5 2038   4.306   0.361   9.570  0.6829  0.1955  0.1297
  131TMC2    C6 2039   4.366   0.425   9.681 -0.1951 -0.2373  0.5809
  131TMC2     C 2040   4.371   0.016   9.643 -0.4683  0.0137  0.7194
  131TMC2     O 2041   4.374   4.699   9.752 -0.2224 -0.3303  0.0764
  131TMC2     H 2042   4.488   0.145   9.826 -1.5014 -0.0371  0.8119
  131TMC2    H1 2043   4.251   0.194   9.475  1.9783  0.4065 -1.3791
  131TMC2    H2 2044   4.378   0.533   9.687 -1.1930  0.0153 -1.6636
  131TMC2    C7 2045   4.226   0.432   9.475 -0.6857  0.4333 -0.1184
  131TMC2    C8 2046   4.503   0.425   9.866  0.2276  0.4574  0.7306
  131TMC2    O1 2047   4.196   0.374   9.373  0.1224  0.2403  0.0962
  131TMC2    O2 2048   4.498   0.547   9.857 -0.2944  0.5918 -0.0656
  131TMC2    O5 2049   4.527   0.348   9.972  0.0919  0.4479 -0.3208
  131TMC2    H5 2050   4.508   0.252   9.964 -1.5629  0.6639  1.0598
  132MPD2     C 2051   4.345   4.514   9.366  0.4607 -0.5806 -0.5724
  132MPD2    C1 2052   4.350   4.560   9.496 -0.2324 -0.2303  0.1856
  132MPD2    C2 2053   4.320   4.467   9.594  0.4907 -0.3468 -0.6201
  132MPD2    C3 2054   4.294   4.331   9.561 -0.2742  0.1320  0.1288
  132MPD2    C4 2055   4.277   4.291   9.426  0.4154 -0.0633  0.4612
  132MPD2    C5 2056   4.313   4.386   9.332 -0.0047 -0.4100  0.3619
  132MPD2     H 2057   4.336   4.491   9.698 -1.5338 -3.8145  0.5138
  132MPD2    H1 2058   4.257   4.189   9.395 -1.5158  1.0320 -1.9663
  132MPD2    H2 2059   4.391   4.576   9.289 -0.3659 -0.5882 -1.0735
  132MPD2    H3 2060   4.312   4.355   9.228 -1.1014  0.5572  0.0813
  132MPD2     N 2061   4.261   4.240   9.669  0.5825  0.0400  0.1587
  132MPD2    H5 2062   4.250   4.285   9.759  0.8574  2.6099 -1.0847
  132MPD2    N1 2063   4.367   4.699   9.516 -0.2162  0.1220  0.4280
  132MPD2    H7 2064   4.371   0.020   9.433  0.0554  4.3187  3.3933
  133TMC2    C1 2065   2.975   1.823   9.943  0.2225 -0.0266 -0.1343
  133TMC2    C2 2066   3.008   1.792  10.072  0.4346  0.1039 -0.6331
  133TMC2    C3 2067   3.022   1.890  10.161 -0.3206  0.3388 -0.0887
  133TMC2    C4 2068   2.966   1.953   9.893 -0.4293 -0.9418 -0.0071
  133TMC2    C5 2069   2.996   2.055   9.982  0.9270  0.0108  0.6825
  133TMC2    C6 2070   3.021   2.027  10.115 -0.0990  0.2647 -0.2861
  133TMC2     C 2071   2.981   1.706   9.853  0.1812 -0.2144 -0.4488
  133TMC2     O 2072   2.986   1.590   9.898  0.2333  0.4624 -0.1554
  133TMC2     H 2073   3.021   1.687  10.097 -0.2035 -0.0175 -0.8105
  133TMC2    H1 2074   2.934   1.975   9.791  0.4290  0.5209  0.0372
  133TMC2    H2 2075   3.047   2.107  10.184 -0.9837  0.9212 -0.6999
  133TMC2    C7 2076   2.961   2.192   9.955 -0.0904  0.2914 -0.0284
  133TMC2    C8 2077   3.052   1.854  10.296  0.1944  0.2302 -0.2033
  133TMC2    O1 2078   2.973   2.269  10.050 -0.4464 -0.4594  0.1358
  133TMC2    O2 2079   3.040   1.932  10.388  0.4483  0.0646 -0.0616
  133TMC2    O5 2080   3.156   1.771  10.280  1.1673 -0.2616  0.0375
  133TMC2    H5 2081   3.193   1.753  10.191 -1.4968 -0.5128 -1.0180
  134MPD2     C 2082   3.066   1.696   9.501  0.0513 -0.1600  0.0337
  134MPD2    C1 2083   3.026   1.645   9.617 -0.1049 -0.9844  0.0380
  134MPD2    C2 2084   3.001   1.507   9.627  0.4659 -0.5236  0.0319
  134MPD2    C3 2085   3.036   1.425   9.514 -0.0237  0.5434  0.4093
  134MPD2    C4 2086   3.079   1.484   9.397  0.0636  0.4042 -0.0318
  134MPD2    C5 2087   3.095   1.617   9.392  0.8029 -0.3484  0.5969
  134MPD2     H 2088   2.951   1.458   9.709 -0.1818  0.1121  0.0222
  134MPD2    H1 2089   3.095   1.430   9.304 -2.4089  1.0076 -0.8142
  134MPD2    H2 2090   3.087   1.802   9.495  1.5827 -0.3547  1.9147
  134MPD2    H3 2091   3.113   1.661   9.294  1.7657  0.2706  1.0473
  134MPD2     N 2092   3.031   1.283   9.524 -0.5451  0.1746  0.0819
  134MPD2    H5 2093   3.050   1.228   9.441 -0.4900  0.6442 -0.2156
  134MPD2    N1 2094   3.008   1.739   9.719 -0.0591 -0.1444  0.0292
  134MPD2    H7 2095   3.020   1.836   9.694 -0.2591  0.3092  1.7128
  135TMC2    C1 2096   0.952   1.664   9.774  0.0318 -0.1572 -0.7362
  135TMC2    C2 2097   0.845   1.738   9.812  0.1268 -0.0798 -0.2164
  135TMC2    C3 2098   0.771   1.682   9.910 -0.0598  0.4110  0.1007
  135TMC2    C4 2099   0.957   1.533   9.802 -0.3767  0.5057 -0.1907
  135TMC2    C5 2100   0.873   1.478   9.888  0.0343 -0.0114  0.1640
  135TMC2    C6 2101   0.782   1.553   9.952 -0.0113 -0.5698 -0.1226
  135TMC2     C 2102   1.034   1.727   9.674  0.3057 -0.1088 -0.0777
  135TMC2     O 2103   1.000   1.837   9.625  0.0797  0.1395 -0.3806
  135TMC2     H 2104   0.824   1.841   9.788  0.4438 -0.3084 -1.4959
  135TMC2    H1 2105   1.034   1.463   9.771 -1.5965 -0.3375 -1.3735
  135TMC2    H2 2106   0.720   1.516  10.033  0.2959 -1.6388 -0.3735
  135TMC2    C7 2107   0.884   1.339   9.919 -0.1131 -0.5430  0.0360
  135TMC2    C8 2108   0.731   1.776  10.010 -0.3085 -0.2225  0.2787
  135TMC2    O1 2109   0.992   1.283   9.909 -0.3094 -0.4334 -1.0911
  135TMC2    O2 2110   0.700   1.889   9.977 -0.4048  0.8701 -0.9270
  135TMC2    O5 2111   0.771   1.741  10.130  0.5876  0.4188 -0.3422
  135TMC2    H5 2112   0.804   1.657  10.167 -0.2458  1.6025  3.0576
  136MPD2     C 2113   1.195   1.738   9.429 -0.1282 -0.3469  0.2711
  136MPD2    C1 2114   1.238   1.664   9.536  0.3818 -0.6946 -0.5495
  136MPD2    C2 2115   1.359   1.595   9.524  0.8230  0.2228 -0.0217
  136MPD2    C3 2116   1.434   1.598   9.408 -0.7298  0.0532  0.7014
  136MPD2    C4 2117   1.381   1.657   9.296  0.1255 -0.1178 -1.3070
  136MPD2    C5 2118   1.267   1.733   9.316 -0.2189 -0.0081  0.0453
  136MPD2     H 2119   1.401   1.541   9.608 -1.1550 -1.3626 -0.0590
  136MPD2    H1 2120   1.436   1.671   9.204  1.2477 -0.2847 -0.6505
  136MPD2    H2 2121   1.112   1.807   9.423  0.2198 -0.0986 -1.7469
  136MPD2    H3 2122   1.231   1.795   9.235 -0.5585 -0.5120 -0.1865
  136MPD2     N 2123   1.555   1.527   9.409 -0.7646  0.4187  0.0540
  136MPD2    H5 2124   1.589   1.502   9.502  0.6476 -1.1844 -0.8925
  136MPD2    N1 2125   1.143   1.641   9.642 -0.5167  0.1672 -0.3884
  136MPD2    H7 2126   1.153   1.556   9.697 -0.9011 -0.4143 -1.2166
  137TMC2    C1 2127   0.550   0.909   9.860  1.2989 -0.8895 -0.7894
  137TMC2    C2 2128   0.691   0.911   9.855  0.7847 -0.1008 -0.5234
  137TMC2    C3 2129   0.755   0.991   9.760  0.0667  0.0176 -0.0346
  137TMC2    C4 2130   0.479   0.994   9.783 -0.5652  0.4018 -0.2298
  137TMC2    C5 2131   0.541   1.067   9.683 -0.0694 -0.4244 -0.4127
  137TMC2    C6 2132   0.681   1.067   9.669 -0.1549 -0.7451  0.4935
  137TMC2     C 2133   0.492   0.799   9.935  0.1324 -0.2075 -0.2394
  137TMC2     O 2134   0.576   0.731   9.996  0.1442 -0.2943 -0.3747
  137TMC2     H 2135   0.758   0.847   9.910  1.0873 -0.0366 -0.8239
  137TMC2    H1 2136   0.373   1.010   9.799 -0.9126 -2.9671  0.8967
  137TMC2    H2 2137   0.734   1.120   9.592  0.2846 -1.4382  0.3174
  137TMC2    C7 2138   0.471   1.152   9.587  0.4108 -0.2252  0.0188
  137TMC2    C8 2139   0.888   0.950   9.728 -0.1687 -0.0447 -0.2822
  137TMC2    O1 2140   0.539   1.197   9.499  0.2923 -0.3617 -0.1164
  137TMC2    O2 2141   0.947   0.861   9.786 -0.1025  0.4563 -0.1795
  137TMC2    O5 2142   0.945   1.058   9.667  0.5056 -0.1265  0.6455
  137TMC2    H5 2143   0.875   1.121   9.637  0.9443 -0.1454 -0.4263
  138MPD2     C 2144   0.150   0.698  10.013  0.1725  0.4923 -0.2289
  138MPD2    C1 2145   0.287   0.708  10.031  0.3073  0.5553  0.3531
  138MPD2    C2 2146   0.344   0.638  10.137 -0.2436  0.1403  0.2655
  138MPD2    C3 2147   0.264   0.562  10.221  0.2793  0.1677 -0.2788
  138MPD2    C4 2148   0.128   0.541  10.193 -0.5084  0.4659 -1.1409
  138MPD2    C5 2149   0.078   0.604  10.083 -0.0816  0.0657 -0.7740
  138MPD2     H 2150   0.448   0.654  10.164 -0.5544 -0.8181  1.9966
  138MPD2    H1 2151   0.068   0.482  10.262 -0.8813  1.5582 -0.5403
  138MPD2    H2 2152   0.096   0.748   9.933 -1.3571 -0.9354 -0.0809
  138MPD2    H3 2153   4.709   0.598  10.065 -0.0085 -1.0670 -0.8621
  138MPD2     N 2154   0.324   0.519  10.343 -0.3907 -0.9493  0.5851
  138MPD2    H5 2155   0.419   0.554  10.351 -0.1281 -1.8657  1.4483
  138MPD2    N1 2156   0.353   0.796   9.952  0.1099  0.3975 -0.3909
  138MPD2    H7 2157   0.311   0.876   9.905 -1.1624  0.7229  1.3335
  139TMC2    C1 2158   1.302   4.140  13.380  0.1193  0.1956 -0.2065
  139TMC2    C2 2159   1.337   4.179  13.250  0.4596 -0.2513  0.8148
  139TMC2    C3 2160   1.308   4.310  13.217 -0.1145  0.0923 -0.6913
  139TMC2    C4 2161   1.225   4.213  13.461 -0.3680  0.2040  1.1939
  139TMC2    C5 2162   1.194   4.335  13.416 -0.8372  0.0307 -0.3636
  139TMC2    C6 2163   1.226   4.391  13.297  0.4746 -0.2691  0.2806
  139TMC2     C 2164   1.377   4.025  13.425 -0.1830 -0.3677  0.6506
  139TMC2     O 2165   1.430   3.957  13.339 -0.2877  0.0098 -0.6348
  139TMC2     H 2166   1.401   4.120  13.185  1.0170 -1.3824  2.4092
  139TMC2    H1 2167   1.187   4.169  13.552  0.3458 -1.2761  0.7677
  139TMC2    H2 2168   1.192   4.489  13.265 -0.3685 -0.5913  0.1965
  139TMC2    C7 2169   1.089   4.405  13.490 -0.5161 -0.2012 -0.4841
  139TMC2    C8 2170   1.383   4.361  13.105  0.7361 -0.0317  0.2248
  139TMC2    O1 2171   1.024   4.475  13.414 -0.2999  0.2475  0.2576
  139TMC2    O2 2172   1.404   4.287  13.011 -0.7163  0.1888 -0.4060
  139TMC2    O5 2173   1.472   4.448  13.166  0.2523  0.1529 -0.2693
  139TMC2    H5 2174   1.444   4.484  13.252  0.7345 -0.9589  0.3499
  140MPD2     C 2175   1.453   3.903  13.763 -0.6611 -0.1958  0.0394
  140MPD2    C1 2176   1.465   3.917  13.625 -0.4626 -0.3573  0.0976
  140MPD2    C2 2177   1.542   3.823  13.556 -0.5338 -0.2228  0.4193
  140MPD2    C3 2178   1.614   3.723  13.624 -0.4394  0.6573 -0.0523
  140MPD2    C4 2179   1.616   3.717  13.762 -0.3475  0.1823  0.0771
  140MPD2    C5 2180   1.534   3.808  13.823  0.0951 -0.4073 -0.4368
  140MPD2     H 2181   1.551   3.822  13.448  0.8107 -0.7569  0.5378
  140MPD2    H1 2182   1.666   3.642  13.821  1.4130  1.4304  0.1538
  140MPD2    H2 2183   1.386   3.959  13.827 -0.2515  0.7578 -0.3727
  140MPD2    H3 2184   1.515   3.785  13.927 -0.5718  1.6993 -0.0948
  140MPD2     N 2185   1.681   3.628  13.545 -0.2686  0.1300 -0.3770
  140MPD2    H5 2186   1.692   3.651  13.447 -0.0920  1.0414 -0.1438
  140MPD2    N1 2187   1.385   4.014  13.562  0.3744 -0.8130  0.2106
  140MPD2    H7 2188   1.335   4.084  13.614 -0.4894 -1.3497  0.0953
  141TMC2    C1 2189   1.981   0.543  14.385  0.7242 -0.1142  0.1253
  141TMC2    C2 2190   2.007   0.459  14.487  0.0867  0.5956  0.5424
  141TMC2    C3 2191   1.945   0.494  14.606  0.0013  0.5071 -0.1907
  141TMC2    C4 2192   1.937   0.671  14.408 -0.0010  0.1383 -0.6204
  141TMC2    C5 2193   1.906   0.711  14.537  0.1311 -0.3163 -0.1822
  141TMC2    C6 2194   1.910   0.620  14.634  0.0267  0.1163 -0.1338
  141TMC2     C 2195   2.009   0.506  14.244  0.4345  0.3116  0.4950
  141TMC2     O 2196   2.017   0.600  14.161  0.1992  0.0046 -0.3909
  141TMC2     H 2197   2.049   0.360  14.475 -1.9272 -0.0733 -1.0452
  141TMC2    H1 2198   1.928   0.737  14.323  0.7557  0.0492 -0.7684
  141TMC2    H2 2199   1.903   0.660  14.735  0.1213 -1.6239  0.5738
  141TMC2    C7 2200   1.935   0.853  14.577 -0.1704  0.0630 -0.3951
  141TMC2    C8 2201   1.997   0.407  14.715 -0.0312  0.0977  0.4531
  141TMC2    O1 2202   1.909   0.885  14.696  0.4565  0.6395 -0.0657
  141TMC2    O2 2203   2.083   0.320  14.700  0.5625 -0.4410 -0.3713
  141TMC2    O5 2204   1.915   0.420  14.817 -0.1684 -1.0651  0.1725
  141TMC2    H5 2205   1.847   0.489  14.799  1.3922 -0.4249 -3.2298
  142TMC2    C1 2206   4.625   4.247   9.637 -0.5574  0.8374 -0.4674
  142TMC2    C2 2207   4.643   4.285   9.506 -0.2146  0.6065  0.5280
  142TMC2    C3 2208   4.687   4.411   9.482 -0.1390 -0.1560  0.4835
  142TMC2    C4 2209   4.628   4.341   9.733 -0.0643 -0.6156  0.3307
  142TMC2    C5 2210   4.669   4.472   9.706 -0.2658  0.4265 -0.8388
  142TMC2    C6 2211   4.701   4.505   9.577 -0.2616  0.1643  0.1139
  142TMC2     C 2212   4.579   4.111   9.660  0.9445  0.1913  0.0202
  142TMC2     O 2213   4.561   4.036   9.566  0.7292  0.1161 -0.0133
  142TMC2     H 2214   4.624   4.229   9.415 -1.7699  2.2994 -0.1800
  142TMC2    H1 2215   4.581   4.315   9.828  1.2030  0.8446  1.3489
  142TMC2    H2 2216   0.000   4.603   9.547  2.9239 -1.1878 -0.3185
  142TMC2    C7 2217   4.664   4.566   9.811 -0.2551 -0.0673  0.2618
  142TMC2    C8 2218   4.692   4.458   9.346  0.0331  0.1923 -0.5567
  142TMC2    O1 2219   4.638   4.522   9.922  0.0751  0.6119 -0.4024
  142TMC2    O2 2220   4.679   4.577   9.317 -0.2195  0.1923 -0.7892
  142TMC2    O5 2221   0.038   4.375   9.278  0.3013  0.3044  0.8826
  142TMC2    H5 2222   0.062   4.304   9.342 -0.3837 -1.0042 -0.3189
  143MPD2     C 2223   4.471   3.729   9.982  0.4809  0.0609 -0.6303
  143MPD2    C1 2224   4.449   3.732   9.848 -0.3550 -0.2494 -0.4548
  143MPD2    C2 2225   4.480   3.856   9.785 -0.1852  0.3365 -0.4599
  143MPD2    C3 2226   4.556   3.955   9.849 -0.5915  0.2127 -0.0181
  143MPD2    C4 2227   4.570   3.941   9.988  0.0053  0.2098  0.6243
  143MPD2    C5 2228   4.532   3.830  10.051  0.2215  0.4532  0.0070
  143MPD2     H 2229   4.459   3.861   9.678 -0.6809  2.8724 -0.2524
  143MPD2    H1 2230   4.611   4.025  10.044  1.2862  0.6814 -1.0256
  143MPD2    H2 2231   4.451   3.640  10.040  0.9993  0.1999 -0.2390
  143MPD2    H3 2232   4.546   3.826  10.159 -1.6535 -0.9360  0.1976
  143MPD2     N 2233   4.605   4.069   9.791  0.2448 -0.0536  0.2111
  143MPD2    H5 2234   4.654   4.128   9.857  2.6199 -1.9483  0.1373
  143MPD2    N1 2235   4.393   3.623   9.787 -0.0382  0.5793  0.5697
  143MPD2    H7 2236   4.394   3.540   9.846 -1.4468 -0.4067 -0.7778
  144TMC2    C1 2237   3.460   2.600   0.676 -0.6950  0.0507 -0.8141
  144TMC2    C2 2238   3.560   2.556   0.596 -0.4065 -0.1297  0.1933
  144TMC2    C3 2239   3.673   2.630   0.591  0.2146  0.0573 -0.1799
  144TMC2    C4 2240   3.465   2.722   0.741  0.6587  0.1608  0.2700
  144TMC2    C5 2241   3.591   2.786   0.744  0.7137  0.5966  0.1985
  144TMC2    C6 2242   3.701   2.737   0.675  0.2380 -0.7049  0.3579
  144TMC2     C 2243   3.326   2.541   0.650 -0.6188  0.0609  0.5747
  144TMC2     O 2244   3.321   2.428   0.609 -0.0418  0.6848 -0.4517
  144TMC2     H 2245   3.556   2.457   0.552 -1.9868 -0.9424  2.1601
  144TMC2    H1 2246   3.396   2.748   0.820  0.6500  0.4808  0.1580
  144TMC2    H2 2247   3.796   2.789   0.670 -1.0302  1.5948  0.5983
  144TMC2    C7 2248   3.622   2.888   0.846  0.2453  0.0509 -0.3508
  144TMC2    C8 2249   3.769   2.587   0.496  0.2650 -0.2965  0.2810
  144TMC2    O1 2250   3.742   2.908   0.866  0.2727 -0.0496  0.1992
  144TMC2    O2 2251   3.742   2.536   0.390  0.0184 -0.4101 -0.2629
  144TMC2    O5 2252   3.893   2.627   0.529  0.7514  0.2952 -0.0870
  144TMC2    H5 2253   3.897   2.635   0.627  1.0597  0.6081 -0.1252
  145MPD2     C 2254   2.824   2.581   0.577 -0.3889  1.4376  0.1650
  145MPD2    C1 2255   2.913   2.481   0.543  0.1863  0.2865  0.0084
  145MPD2    C2 2256   3.044   2.499   0.564 -0.7010  0.6382  0.1060
  145MPD2    C3 2257   3.091   2.617   0.629 -0.1189  0.6926 -0.9385
  145MPD2    C4 2258   2.999   2.711   0.672 -0.2143 -0.2839  0.8780
  145MPD2    C5 2259   2.864   2.691   0.638  0.8841 -0.0554 -0.0371
  145MPD2     H 2260   3.114   2.427   0.524  0.1497  0.5831  1.6780
  145MPD2    H1 2261   3.030   2.805   0.717 -3.1410  1.2868 -0.3894
  145MPD2    H2 2262   2.716   2.568   0.572 -0.1127 -0.3360 -1.0305
  145MPD2    H3 2263   2.791   2.769   0.654  0.9337  0.2802 -1.3943
  145MPD2     N 2264   3.226   2.633   0.672 -0.8066  0.2875 -0.3046
  145MPD2    H5 2265   3.254   2.718   0.720  1.5452 -0.4143 -0.4540
  145MPD2    N1 2266   2.866   2.359   0.481 -0.4416 -0.5872 -0.0665
  145MPD2    H7 2267   2.938   2.306   0.433  0.9641  1.8814 -0.6583
  146TMC2    C1 2268   3.261   1.503  12.673  0.3592  0.0724 -0.4162
  146TMC2    C2 2269   3.211   1.560  12.553 -0.1615 -0.3488  0.4347
  146TMC2    C3 2270   3.169   1.470  12.458 -0.0618  0.5200 -0.3707
  146TMC2    C4 2271   3.280   1.365  12.690  0.8230 -0.3962  0.2490
  146TMC2    C5 2272   3.237   1.285  12.588 -0.1703 -0.0585  0.3886
  146TMC2    C6 2273   3.176   1.331  12.475 -0.0615 -0.0368  0.3987
  146TMC2     C 2274   3.299   1.593  12.774 -0.8251  0.2313  0.3021
  146TMC2     O 2275   3.268   1.710  12.747  0.0772  0.9274 -0.7520
  146TMC2     H 2276   3.181   1.664  12.543 -0.3122 -0.2470  1.9417
  146TMC2    H1 2277   3.299   1.323  12.788 -0.8552  0.9635  1.1574
  146TMC2    H2 2278   3.144   1.261  12.399  0.6236 -0.0612  0.1302
  146TMC2    C7 2279   3.272   1.142  12.599  0.4737 -0.4480  0.0009
  146TMC2    C8 2280   3.073   1.523  12.365 -0.1553 -0.1505  0.0505
  146TMC2    O1 2281   3.223   1.060  12.520 -0.3081 -0.4261 -0.2774
  146TMC2    O2 2282   3.081   1.640  12.329 -0.3330  0.4218 -0.5076
  146TMC2    O5 2283   2.958   1.458  12.385  0.3210 -0.3182  0.1135
  146TMC2    H5 2284   2.970   1.377  12.439 -3.3754 -1.8363 -1.3369
  147MPD2     C 2285   3.512   0.751  12.836 -0.2827 -0.0366  0.4714
  147MPD2    C1 2286   3.578   0.865  12.872  0.6082 -0.1253  0.1739
  147MPD2    C2 2287   3.530   0.988  12.836  0.1398 -0.2208 -0.1482
  147MPD2    C3 2288   3.427   0.996  12.740 -0.1162  0.2412 -0.3257
  147MPD2    C4 2289   3.377   0.874  12.698 -0.1926 -0.2292 -0.0468
  147MPD2    C5 2290   3.411   0.757  12.746  0.6895 -0.1151 -0.5487
  147MPD2     H 2291   3.576   1.074  12.884  0.1661  0.5755 -1.6054
  147MPD2    H1 2292   3.299   0.863  12.624 -0.2089 -2.2834  0.2833
  147MPD2    H2 2293   3.541   0.654  12.873 -1.1638 -1.3114 -2.1474
  147MPD2    H3 2294   3.352   0.671  12.718 -0.1823  0.6086 -0.9593
  147MPD2     N 2295   3.364   1.120  12.702 -0.1158  0.4119 -0.0218
  147MPD2    H5 2296   3.404   1.204  12.740  0.3301  1.1996 -2.2158
  147MPD2    N1 2297   3.689   0.845  12.956  0.3417 -0.5057 -0.1486
  147MPD2    H7 2298   3.707   0.746  12.967 -2.0430 -0.8689  0.3742
  148TMC2    C1 2299   4.280   4.472  10.700 -0.4196  0.4634  0.5777
  148TMC2    C2 2300   4.364   4.471  10.806 -0.3046  0.4178  0.6250
  148TMC2    C3 2301   4.344   4.351  10.874 -0.3318  0.2875  0.2431
  148TMC2    C4 2302   4.186   4.373  10.672 -0.1396  0.5606 -0.8538
  148TMC2    C5 2303   4.179   4.257  10.745 -0.0157  0.0487 -1.1904
  148TMC2    C6 2304   4.265   4.241  10.847  0.4735 -0.3695  0.1173
  148TMC2     C 2305   4.302   4.584  10.616  0.1998  0.2844  0.7484
  148TMC2     O 2306   4.357   4.679  10.667 -0.2259 -0.4514  0.4682
  148TMC2     H 2307   4.441   4.541  10.837 -1.8882  2.0672  0.8238
  148TMC2    H1 2308   4.119   4.380  10.587 -0.5367 -1.5390 -0.7000
  148TMC2    H2 2309   4.252   4.158  10.915 -1.0596  0.4622  0.8417
  148TMC2    C7 2310   4.107   4.146  10.685 -0.3867 -0.3733 -0.0122
  148TMC2    C8 2311   4.387   4.352  11.013  0.1735 -0.5317 -0.4008
  148TMC2    O1 2312   4.028   4.169  10.590  0.1113 -0.0389 -0.1780
  148TMC2    O2 2313   4.499   4.385  11.044 -0.3987 -0.2534 -0.4612
  148TMC2    O5 2314   4.274   4.400  11.067 -0.2154  0.1327 -0.3877
  148TMC2    H5 2315   4.193   4.379  11.016 -0.8380  1.1612  0.1850
  149MPD2     C 2316   4.260   0.077  10.427  0.1434  0.4862  0.4285
  149MPD2    C1 2317   4.209   4.689  10.404  0.0106  0.8521 -0.5025
  149MPD2    C2 2318   4.119   4.679  10.299  0.8268 -0.7439  0.3799
  149MPD2    C3 2319   4.076   0.045  10.218  0.9826 -0.0302 -0.7209
  149MPD2    C4 2320   4.133   0.170  10.244 -0.7732 -0.0484 -0.4944
  149MPD2    C5 2321   4.227   0.183  10.349 -0.5422  0.2182  0.5046
  149MPD2     H 2322   4.076   4.581  10.278 -0.3170 -0.7258  2.6231
  149MPD2    H1 2323   4.116   0.255  10.180  1.2593  0.3572 -0.4861
  149MPD2    H2 2324   4.311   0.100  10.520  0.2446 -0.3101  0.5701
  149MPD2    H3 2325   4.260   0.286  10.364 -1.9570  0.4981  1.6543
  149MPD2     N 2326   3.975   0.042  10.109  0.3425  0.0120 -0.1581
  149MPD2    H5 2327   3.959   0.127  10.056 -0.1113  0.3969  0.5999
  149MPD2    N1 2328   4.240   4.583  10.491  0.7635 -0.1836 -0.2155
  149MPD2    H7 2329   4.208   4.492  10.459 -1.8848  0.0885  1.6458
  150TMC2    C1 2330   1.384   4.464  12.142  0.2748 -0.2820  0.1115
  150TMC2    C2 2331   1.366   4.597  12.176 -0.2694 -0.1067  0.1656
  150TMC2    C3 2332   1.448   4.641  12.274 -0.6796  0.0208 -0.7081
  150TMC2    C4 2333   1.476   4.382  12.206 -0.8165 -0.3519 -0.0313
  150TMC2    C5 2334   1.549   4.432  12.311 -0.0206  0.1787  0.0169
  150TMC2    C6 2335   1.537   4.562  12.351  0.5061 -0.4503 -0.3705
  150TMC2     C 2336   1.278   4.414  12.064 -0.0133 -0.2025 -0.0740
  150TMC2     O 2337   1.172   4.469  12.083  0.0705  0.5867  0.3592
  150TMC2     H 2338   1.286   4.660  12.138  0.1661  1.2304  1.5047
  150TMC2    H1 2339   1.494   4.282  12.171 -2.4823 -1.2453  1.6787
  150TMC2    H2 2340   1.597   4.619  12.420  1.4675  0.5343 -2.0341
  150TMC2    C7 2341   1.677   4.368  12.351 -0.6714 -0.0676 -0.0077
  150TMC2    C8 2342   1.468   0.043  12.276 -0.5982 -0.2674  0.7426
  150TMC2    O1 2343   1.754   4.437  12.414 -0.2010 -0.2323 -0.4637
  150TMC2    O2 2344   1.521   0.096  12.374  0.7079  0.2289  0.2465
  150TMC2    O5 2345   1.450   0.104  12.156 -0.4413 -0.4448  0.1751
  150TMC2    H5 2346   1.434   0.049  12.077 -0.6433 -1.7073  1.1115
  151MPD2     C 2347   1.075   4.061  11.741 -0.5935  0.4254 -0.1932
  151MPD2    C1 2348   1.015   4.159  11.812  0.0740 -0.4219  0.5171
  151MPD2    C2 2349   1.089   4.240  11.902 -0.2249  0.8526  0.1788
  151MPD2    C3 2350   1.225   4.227  11.917 -0.6320  0.0053 -0.6914
  151MPD2    C4 2351   1.285   4.127  11.837 -0.2956  0.0048 -0.6183
  151MPD2    C5 2352   1.210   4.043  11.751 -0.4428 -0.0015  0.3640
  151MPD2     H 2353   1.030   4.320  11.945 -0.9579  0.6462 -0.4545
  151MPD2    H1 2354   1.392   4.128  11.821 -0.0781  0.2670  0.8761
  151MPD2    H2 2355   1.014   3.994  11.681  0.6071  1.0370 -2.1043
  151MPD2    H3 2356   1.258   3.967  11.690 -0.7279 -0.8672  1.2144
  151MPD2     N 2357   1.313   4.307  11.991  0.3715 -0.0441  0.3185
  151MPD2    H5 2358   1.409   4.278  12.003  0.1103 -0.9134  0.2705
  151MPD2    N1 2359   0.876   4.173  11.790 -0.0346 -0.0875  0.5256
  151MPD2    H7 2360   0.832   4.111  11.723 -3.0468  1.1352  1.3786
  152TMC2    C1 2361   1.019   4.173  12.552 -0.4887  0.1106 -0.0243
  152TMC2    C2 2362   1.083   4.054  12.569  0.3341 -0.0972  0.5459
  152TMC2    C3 2363   1.219   4.058  12.533  0.1919 -0.0928  0.1275
  152TMC2    C4 2364   1.081   4.293  12.509 -0.2489 -0.1852  0.4038
  152TMC2    C5 2365   1.223   4.287  12.490  0.4301  0.3188 -0.2241
  152TMC2    C6 2366   1.292   4.165  12.506  0.1906  0.2111  0.2451
  152TMC2     C 2367   0.876   4.173  12.556  0.1866  0.0803  0.7870
  152TMC2     O 2368   0.827   4.279  12.514  0.2530  0.2364  0.4851
  152TMC2     H 2369   1.033   3.964  12.603 -0.8960  0.4031  0.0659
  152TMC2    H1 2370   1.033   4.389  12.515  0.4751  0.1657  0.5822
  152TMC2    H2 2371   1.399   4.158  12.490 -0.3722 -2.3061 -2.3738
  152TMC2    C7 2372   1.282   4.412  12.523 -1.1274 -0.2048 -0.2102
  152TMC2    C8 2373   1.301   3.946  12.572  0.2327 -0.2774  0.2665
  152TMC2    O1 2374   1.238   4.511  12.472  0.1112  0.3128 -0.2799
  152TMC2    O2 2375   1.398   3.977  12.637  0.3980 -0.7277  0.1187
  152TMC2    O5 2376   1.218   3.837  12.602  0.5879 -0.6024 -0.2952
  152TMC2    H5 2377   1.139   3.821  12.546 -1.0969  1.1080  1.5648
  153MPD2     C 2378   0.623   3.969  12.737  0.2876  0.0681  0.1018
  153MPD2    C1 2379   0.674   4.060  12.645 -0.0783 -0.6506 -0.3259
  153MPD2    C2 2380   0.590   4.129  12.557 -0.2843  0.0044 -0.2598
  153MPD2    C3 2381   0.458   4.102  12.565  0.5080 -0.3587  0.1874
  153MPD2    C4 2382   0.405   4.024  12.667 -0.1068  0.7533 -0.1013
  153MPD2    C5 2383   0.485   3.954  12.752  0.1838 -0.6735  0.4154
  153MPD2     H 2384   0.621   4.187  12.470  0.9234 -0.1175  0.0819
  153MPD2    H1 2385   0.297   4.011  12.677  0.3345 -2.2192  0.7703
  153MPD2    H2 2386   0.691   3.915  12.802 -0.1997  0.2402  0.7541
  153MPD2    H3 2387   0.450   3.898  12.837 -0.1448 -0.0350  0.7030
  153MPD2     N 2388   0.371   4.170  12.471  0.7255  0.2647 -0.2555
  153MPD2    H5 2389   0.419   4.245  12.421  2.9231 -1.7388 -1.1582
  153MPD2    N1 2390   0.814   4.073  12.630  0.1452 -0.1961 -0.2818
  153MPD2    H7 2391   0.875   4.016  12.687 -0.5279 -0.2723  0.3683
  154TMC2    C1 2392   2.626   3.863   0.660  0.0188  0.2340 -0.2740
  154TMC2    C2 2393   2.718   3.889   0.755 -0.5336  0.0619  0.3183
  154TMC2    C3 2394   2.848   3.857   0.736  0.3332  0.2723  0.4434
  154TMC2    C4 2395   2.659   3.795   0.539  0.2015 -0.4656 -0.2435
  154TMC2    C5 2396   2.787   3.759   0.528  0.6624  0.0361 -0.0258
  154TMC2    C6 2397   2.885   3.788   0.625  0.5136  0.3056  0.3134
  154TMC2     C 2398   2.490   3.903   0.683 -0.3160 -0.0544  0.7212
  154TMC2     O 2399   2.469   3.981   0.776 -0.7794 -0.9550  0.7143
  154TMC2     H 2400   2.685   3.935   0.848 -1.3860 -0.5378  0.3201
  154TMC2    H1 2401   2.591   3.772   0.458  0.0599  2.0891 -0.8706
  154TMC2    H2 2402   2.991   3.780   0.608  0.3633  1.1413 -0.9446
  154TMC2    C7 2403   2.825   3.675   0.418  0.8411 -0.6669  0.1310
  154TMC2    C8 2404   2.944   3.876   0.847 -0.2096 -0.0812  0.5142
  154TMC2    O1 2405   2.750   3.677   0.324  0.0520 -0.7422  0.4157
  154TMC2    O2 2406   3.047   3.812   0.872 -0.0071 -0.9021 -0.2944
  154TMC2    O5 2407   2.917   4.002   0.896  0.0411  0.3247  0.3951
  154TMC2    H5 2408   2.842   4.044   0.849  1.6522  2.6762 -0.0475
  155MPD2     C 2409   2.188   3.764   0.502  0.3188 -0.0181 -0.0805
  155MPD2    C1 2410   2.261   3.838   0.590  0.2861  0.0556 -0.2152
  155MPD2    C2 2411   2.185   3.933   0.668  0.0577  0.1297  0.0766
  155MPD2    C3 2412   2.048   3.933   0.667  0.4914 -0.2779  0.2360
  155MPD2    C4 2413   1.982   3.846   0.584 -0.1789 -0.5723 -0.4754
  155MPD2    C5 2414   2.054   3.763   0.504 -0.4393  0.6983  0.6798
  155MPD2     H 2415   2.237   4.008   0.727 -2.1313  1.3296  0.4507
  155MPD2    H1 2416   1.874   3.849   0.576 -0.4210 -3.1231  1.5617
  155MPD2    H2 2417   2.238   3.693   0.437  0.4461 -1.7336  1.8896
  155MPD2    H3 2418   2.004   3.693   0.438 -0.3833  1.6891 -0.4248
  155MPD2     N 2419   1.991   4.021   0.759  0.4699 -0.0466 -0.2892
  155MPD2    H5 2420   2.058   4.073   0.815  1.3147 -0.9200 -0.4851
  155MPD2    N1 2421   2.400   3.842   0.595  0.5041  0.2570  0.0961
  155MPD2    H7 2422   2.442   3.767   0.541 -1.3579  0.4048 -1.5109
  156TMC2    C1 2423   1.127   1.758  11.449 -0.1300 -0.1075  0.1984
  156TMC2    C2 2424   1.193   1.714  11.337  0.7031  0.3760 -0.0625
  156TMC2    C3 2425   1.175   1.773  11.216  0.4470 -0.5819  0.0857
  156TMC2    C4 2426   1.029   1.858  11.434  0.1869  0.0677 -0.2439
  156TMC2    C5 2427   1.010   1.904  11.310  1.1230  0.2009  0.5366
  156TMC2    C6 2428   1.076   1.867  11.196 -0.1167  0.2948  1.2819
  156TMC2     C 2429   1.180   1.743  11.584  0.3134 -1.1256 -0.2175
  156TMC2     O 2430   1.106   1.758  11.678  0.6544  0.1247 -0.2338
  156TMC2     H 2431   1.260   1.629  11.347 -0.7921 -0.8141 -0.1134
  156TMC2    H1 2432   0.985   1.898  11.524  0.7865  1.9800 -0.8164
  156TMC2    H2 2433   1.062   1.909  11.097  2.0284  0.8970  1.2192
  156TMC2    C7 2434   0.898   1.990  11.300 -0.0755  0.1331 -0.0541
  156TMC2    C8 2435   1.268   1.777  11.116 -0.3460  0.6839  0.3346
  156TMC2    O1 2436   0.893   2.049  11.194 -0.2601  0.2168 -0.3511
  156TMC2    O2 2437   1.280   1.877  11.042 -0.1734 -0.2932 -0.6738
  156TMC2    O5 2438   1.291   1.653  11.088  0.5140 -0.1595 -0.3437
  156TMC2    H5 2439   1.227   1.599  11.138  1.6061 -0.4561  0.7302
  157MPD2     C 2440   1.509   1.614  11.664  0.0461  0.1036  0.1167
  157MPD2    C1 2441   1.394   1.678  11.693 -0.1734 -0.1031 -0.0727
  157MPD2    C2 2442   1.378   1.730  11.823  0.4875  0.5480  0.2290
  157MPD2    C3 2443   1.476   1.724  11.919 -0.7849 -0.2786 -0.1214
  157MPD2    C4 2444   1.583   1.644  11.894 -0.3859  0.4467 -0.4948
  157MPD2    C5 2445   1.599   1.593  11.770 -0.6711 -0.3510  0.1510
  157MPD2     H 2446   1.296   1.797  11.847 -0.8883 -1.0218 -0.0623
  157MPD2    H1 2447   1.663   1.630  11.967  0.6766  0.4750 -1.6481
  157MPD2    H2 2448   1.542   1.567  11.572 -1.1037  0.2019 -0.3364
  157MPD2    H3 2449   1.681   1.528  11.741 -1.2904 -0.6061 -1.0477
  157MPD2     N 2450   1.472   1.808  12.027  0.3582 -0.1652 -0.0746
  157MPD2    H5 2451   1.391   1.868  12.036  0.3584  0.0484 -1.4422
  157MPD2    N1 2452   1.308   1.689  11.586  0.7358 -0.4161  0.3349
  157MPD2    H7 2453   1.344   1.646  11.500  0.9807  0.5519 -0.0460
  158TMC2    C1 2454   1.246   0.609  13.319 -0.0225  0.1318  0.7513
  158TMC2    C2 2455   1.320   0.694  13.239 -0.1357 -0.0643  0.4121
  158TMC2    C3 2456   1.257   0.803  13.181 -0.0587 -0.7261  0.4117
  158TMC2    C4 2457   1.113   0.632  13.354  0.1889  0.0345  0.0684
  158TMC2    C5 2458   1.061   0.753  13.303 -0.5982 -0.1123 -0.0242
  158TMC2    C6 2459   1.129   0.833  13.211 -0.5585  0.5122 -0.2151
  158TMC2     C 2460   1.313   0.510  13.401 -0.6565 -0.1110 -0.9028
  158TMC2     O 2461   1.435   0.533  13.414  0.0221 -0.2706 -0.4250
  158TMC2     H 2462   1.425   0.675  13.222 -0.0245  1.5080 -0.6375
  158TMC2    H1 2463   1.071   0.568  13.431  1.4491  0.4802  1.1381
  158TMC2    H2 2464   1.076   0.898  13.142 -0.5025 -0.7755 -1.4528
  158TMC2    C7 2465   0.914   0.767  13.290 -0.1102  0.2313  0.1104
  158TMC2    C8 2466   1.343   0.913  13.137  0.2234  0.0961 -0.3048
  158TMC2    O1 2467   0.864   0.860  13.229 -0.3197 -0.7243  0.1003
  158TMC2    O2 2468   1.291   1.010  13.083  0.4370 -0.0529 -0.0204
  158TMC2    O5 2469   1.439   0.917  13.234 -0.3829 -0.0663  0.7825
  158TMC2    H5 2470   1.466   0.826  13.260  1.4807 -0.0781 -1.1859
  159MPD2     C 2471   1.372   0.147  13.751  0.0829  0.1354  0.7400
  159MPD2    C1 2472   1.239   0.171  13.733  0.3714 -0.0200 -0.0270
  159MPD2    C2 2473   1.198   0.257  13.632  0.4707  0.4849  0.2607
  159MPD2    C3 2474   1.289   0.319  13.551 -0.1410 -0.2027  0.4683
  159MPD2    C4 2475   1.423   0.295  13.573 -0.1833  1.0992 -0.4230
  159MPD2    C5 2476   1.459   0.208  13.673  0.1559 -0.4562  0.4675
  159MPD2     H 2477   1.092   0.274  13.617  0.6624  0.8341 -0.6572
  159MPD2    H1 2478   1.496   0.341  13.508  0.9125  0.0551  0.0706
  159MPD2    H2 2479   1.407   0.077  13.826  0.8600  0.3173  0.5399
  159MPD2    H3 2480   1.563   0.189  13.700  0.5943  1.3319  0.0954
  159MPD2     N 2481   1.236   0.415  13.456  0.0193 -0.1580 -0.8079
  159MPD2    H5 2482   1.138   0.417  13.430 -0.0043  1.9481 -0.5754
  159MPD2    N1 2483   1.150   0.101  13.819  0.4467 -0.4384  0.3755
  159MPD2    H7 2484   1.203   0.054  13.892  0.4880 -2.9206 -1.2480
  160TMC2    C1 2485   1.178   4.386   1.123  0.0611  0.4830 -0.1078
  160TMC2    C2 2486   1.248   4.430   1.226  0.1394  0.6356 -0.1296
  160TMC2    C3 2487   1.277   4.343   1.324 -0.1021 -0.2865  0.2212
  160TMC2    C4 2488   1.141   4.255   1.111 -0.4865 -0.2418 -0.7203
  160TMC2    C5 2489   1.166   4.165   1.215 -1.1137 -0.2731  0.0325
  160TMC2    C6 2490   1.235   4.209   1.324  0.0905 -0.7048  0.6655
  160TMC2     C 2491   1.181   4.472   1.012  0.6810 -0.6980  0.1119
  160TMC2     O 2492   1.243   4.577   1.035  0.2602 -0.2213 -0.0622
  160TMC2     H 2493   1.273   4.534   1.245  1.1135  0.1413  1.3401
  160TMC2    H1 2494   1.094   4.222   1.019  0.0970 -0.6205 -0.8816
  160TMC2    H2 2495   1.254   4.143   1.408 -0.1294 -0.8171  0.6250
  160TMC2    C7 2496   1.166   4.024   1.185 -0.7715  0.2219 -0.2974
  160TMC2    C8 2497   1.350   4.388   1.437 -0.2093 -0.1889  0.8019
  160TMC2    O1 2498   1.095   3.991   1.090 -0.1586 -0.3862 -0.4332
  160TMC2    O2 2499   1.361   4.321   1.534  0.1318 -0.0912 -0.0011
  160TMC2    O5 2500   1.451   4.462   1.382  0.1166 -0.1799  0.4116
  160TMC2    H5 2501   1.419   4.490   1.294  1.0775 -0.8784 -0.1585
  161MPD2     C 2502   1.149   4.612   0.746 -0.2677  0.0406  0.2084
  161MPD2    C1 2503   1.099   4.490   0.764 -0.3717 -0.4002  0.1995
  161MPD2    C2 2504   1.038   4.419   0.662 -0.2963  0.1336 -0.0482
  161MPD2    C3 2505   1.019   4.475   0.542  0.1861 -0.6085 -0.4603
  161MPD2    C4 2506   1.069   4.606   0.523 -0.3267  0.1709  0.1391
  161MPD2    C5 2507   1.130   4.671   0.624  0.5915 -0.1898 -0.2083
  161MPD2     H 2508   1.004   4.319   0.687  0.0310  0.4987  1.9263
  161MPD2    H1 2509   1.067   4.654   0.426 -0.9511  0.2075  0.1666
  161MPD2    H2 2510   1.195   4.671   0.825  2.2307 -1.9224  0.2098
  161MPD2    H3 2511   1.159   0.036   0.608  0.2190 -0.1911 -0.9204
  161MPD2     N 2512   0.977   4.405   0.426  0.4647  1.0055 -0.0018
  161MPD2    H5 2513   0.969   4.459   0.340 -1.8058  1.8298  0.7253
  161MPD2    N1 2514   1.115   4.421   0.895  0.2417  0.1296  0.5900
  161MPD2    H7 2515   1.073   4.330   0.911 -0.3675  0.1119 -1.1130
  162TMC2    C1 2516   3.792   0.242   0.788  0.5438 -0.2096 -0.4279
  162TMC2    C2 2517   3.712   0.354   0.790 -0.0168 -1.0459 -0.9538
  162TMC2    C3 2518   3.772   0.461   0.856  0.1877 -0.3413  0.6556
  162TMC2    C4 2519   3.923   0.230   0.828  0.1098 -0.0761 -0.2879
  162TMC2    C5 2520   3.978   0.342   0.892  0.5611 -0.0823 -0.1541
  162TMC2    C6 2521   3.900   0.450   0.910  0.3927 -0.2008 -0.6184
  162TMC2     C 2522   3.742   0.130   0.705  0.0134 -0.7807 -0.0926
  162TMC2     O 2523   3.647   0.152   0.630 -0.2038  0.4779  0.1084
  162TMC2     H 2524   3.623   0.351   0.727  0.0911  0.1548 -1.1678
  162TMC2    H1 2525   3.992   0.156   0.790  0.4161  0.2860 -0.4277
  162TMC2    H2 2526   3.944   0.534   0.963 -1.9913  1.7039 -1.6622
  162TMC2    C7 2527   4.122   0.373   0.885 -0.3101 -0.5215  0.6676
  162TMC2    C8 2528   3.698   0.581   0.877 -0.0776 -0.1414 -0.5556
  162TMC2    O1 2529   4.137   0.488   0.842  0.5389 -0.0568 -0.1817
  162TMC2    O2 2530   3.729   0.668   0.962  0.2912 -0.3933 -0.0467
  162TMC2    O5 2531   3.629   0.610   0.761  0.1361 -0.2018 -0.6328
  162TMC2    H5 2532   3.631   0.537   0.695 -0.9874 -1.7300  1.0124
  163MPD2     C 2533   3.852   4.425   0.468  0.2123  0.1578 -0.1308
  163MPD2    C1 2534   3.747   4.515   0.434  0.4216  0.7207  0.2375
  163MPD2    C2 2535   3.734   4.626   0.514  0.2323  0.3426 -0.7581
  163MPD2    C3 2536   3.811   4.640   0.631  0.5987  0.5283  0.1542
  163MPD2    C4 2537   3.909   4.552   0.661  0.1987 -0.0918  0.3844
  163MPD2    C5 2538   3.934   4.444   0.579 -0.5676 -0.1093 -0.7125
  163MPD2     H 2539   3.662   4.704   0.491 -2.3296 -1.9108 -0.2590
  163MPD2    H1 2540   3.969   4.554   0.751  2.4292  2.4648 -1.1678
  163MPD2    H2 2541   3.861   4.338   0.404  0.0536  0.4008 -0.4851
  163MPD2    H3 2542   4.002   4.365   0.608 -0.6843 -0.1127 -0.4475
  163MPD2     N 2543   3.800   0.007   0.729 -0.5692  0.4280  0.9098
  163MPD2    H5 2544   3.856   4.733   0.813 -0.3085  1.8929  0.9312
  163MPD2    N1 2545   3.689   4.497   0.306  0.5844  0.0860 -0.2072
  163MPD2    H7 2546   3.733   4.422   0.253 -0.9170 -0.6799 -0.3735
  164TMC2    C1 2547   4.580   4.582  11.309  0.6385  0.2505  0.6607
  164TMC2    C2 2548   4.671   4.556  11.211 -0.5405  0.5315  0.3800
  164TMC2    C3 2549   4.664   4.638  11.103  0.8965  0.6420 -0.1573
  164TMC2    C4 2550   4.482   4.674  11.300 -0.8296  0.1262  0.7284
  164TMC2    C5 2551   4.473   0.009  11.186 -0.1900  0.0920 -0.9845
  164TMC2    C6 2552   4.567   4.735  11.088 -0.8365 -0.0756 -0.6172
  164TMC2     C 2553   4.560   4.488  11.413  0.6828  0.6465  0.7227
  164TMC2     O 2554   4.522   4.531  11.522 -0.6963 -0.6641  0.7042
  164TMC2     H 2555   0.008   4.478  11.223 -2.2367 -1.5531 -2.6325
  164TMC2    H1 2556   4.423   4.681  11.390 -1.0237  0.1781  0.5962
  164TMC2    H2 2557   4.547   0.059  11.001 -0.8697  1.0468  0.1908
  164TMC2    C7 2558   4.347   0.066  11.167 -0.0623 -0.6103  0.1078
  164TMC2    C8 2559   0.014   4.618  10.988 -0.1812 -0.0462 -0.1045
  164TMC2    O1 2560   4.301   0.062  11.053  0.2987 -0.5272  0.0461
  164TMC2    O2 2561   0.045   4.702  10.901  0.5625 -0.3443  0.1340
  164TMC2    O5 2562   4.719   4.495  10.944  0.1938  0.4187  0.2562
  164TMC2    H5 2563   4.655   4.453  11.005 -2.1330  0.5635 -2.0769
  165TMC2    C1 2564   2.118   1.961   2.073 -0.1884  0.1396 -0.1412
  165TMC2    C2 2565   2.233   2.026   2.105 -0.6622 -0.8525 -0.0514
  165TMC2    C3 2566   2.232   2.155   2.152  0.2095 -0.8691  0.0061
  165TMC2    C4 2567   2.001   2.031   2.083 -0.4523 -0.4672  0.6326
  165TMC2    C5 2568   1.998   2.165   2.115 -0.1528 -0.2042 -0.6302
  165TMC2    C6 2569   2.117   2.230   2.136 -0.1346 -0.6403 -0.3599
  165TMC2     C 2570   2.136   1.866   1.965  0.6158  0.2793  0.1818
  165TMC2     O 2571   2.243   1.859   1.905 -0.3987  0.2937  0.6662
  165TMC2     H 2572   2.325   1.968   2.104 -0.6777 -0.8116 -3.1280
  165TMC2    H1 2573   1.908   1.981   2.058 -0.6345  0.1358  0.1090
  165TMC2    H2 2574   2.117   2.335   2.164  3.0468 -0.6306 -0.4847
  165TMC2    C7 2575   1.901   2.236   2.036  0.5745  0.1421  0.1757
  165TMC2    C8 2576   2.355   2.224   2.172  0.6464 -0.4394  0.2558
  165TMC2    O1 2577   1.865   2.191   1.927 -0.0527  0.6613  0.4123
  165TMC2    O2 2578   2.462   2.197   2.113 -0.3094 -0.2378  0.0748
  165TMC2    O5 2579   2.346   2.304   2.274  0.0136 -0.3037 -0.5890
  165TMC2    H5 2580   2.256   2.307   2.313 -0.7249 -2.2569 -2.1641
  166MPD2     C 2581   1.939   1.504   1.663  0.1579 -0.5315  0.1927
  166MPD2    C1 2582   2.065   1.564   1.656 -0.6311  0.2934 -0.1567
  166MPD2    C2 2583   2.098   1.650   1.757  0.4050 -0.3445  0.0851
  166MPD2    C3 2584   2.008   1.688   1.854  0.0480  0.3867  0.0315
  166MPD2    C4 2585   1.880   1.632   1.849 -0.5626  0.0178 -0.4804
  166MPD2    C5 2586   1.850   1.537   1.758 -0.0724  0.3408 -0.3952
  166MPD2     H 2587   2.198   1.693   1.759  0.0918  0.3343  0.7993
  166MPD2    H1 2588   1.803   1.653   1.923  1.2398 -2.9865  2.2303
  166MPD2    H2 2589   1.908   1.430   1.591 -1.8076  1.0900 -0.6177
  166MPD2    H3 2590   1.750   1.494   1.759 -0.1428  0.4970 -0.6696
  166MPD2     N 2591   2.032   1.783   1.954  0.0235  0.1788  0.3515
  166MPD2    H5 2592   1.958   1.801   2.022  0.4192  0.3314  0.7414
  166MPD2    N1 2593   2.156   1.526   1.554  0.1851 -0.2632 -0.8212
  166MPD2    H7 2594   2.116   1.448   1.502 -0.3572  0.5403 -1.5998
  167TMC2    C1 2595   3.671   0.348  12.961 -0.2597  0.4903  0.2604
  167TMC2    C2 2596   3.631   0.395  13.082  0.0661 -0.2887 -0.0377
  167TMC2    C3 2597   3.572   0.309  13.167 -0.6974 -0.0545 -0.4242
  167TMC2    C4 2598   3.637   0.225  12.917  1.0487 -0.0724 -0.0892
  167TMC2    C5 2599   3.562   0.143  13.000  0.1965 -0.3808  0.0667
  167TMC2    C6 2600   3.539   0.183  13.134 -0.7755  0.1830 -0.1005
  167TMC2     C 2601   3.719   0.445  12.869  0.1105 -0.1935 -0.0059
  167TMC2     O 2602   3.757   0.556  12.915  0.5030 -0.3010 -0.0307
  167TMC2     H 2603   3.647   0.498  13.113 -1.9128  0.1996 -0.6290
  167TMC2    H1 2604   3.676   0.185  12.824  0.3063  2.0756 -1.3433
  167TMC2    H2 2605   3.462   0.138  13.196 -1.0918 -0.6228 -1.0763
  167TMC2    C7 2606   3.565   0.001  12.980 -0.5346  0.8123  0.6115
  167TMC2    C8 2607   3.509   0.368  13.285 -0.0049  0.3970  0.0046
  167TMC2    O1 2608   3.552   4.677  13.083 -0.1709  0.1906  0.3413
  167TMC2    O2 2609   3.409   0.320  13.337  0.5776 -0.6365 -0.1086
  167TMC2    O5 2610   3.610   0.411  13.366  0.6849 -0.1749 -0.2839
  167TMC2    H5 2611   3.685   0.461  13.326  0.7649 -0.0392  0.0321
  168MPD2     C 2612   3.805   0.599  12.614  0.2170 -0.0840 -0.1259
  168MPD2    C1 2613   3.740   0.483  12.618 -0.4412  0.3257  0.2844
  168MPD2    C2 2614   3.716   0.408  12.502 -0.0001  0.0351 -0.2249
  168MPD2    C3 2615   3.756   0.459  12.379 -0.2673 -0.0720 -0.2625
  168MPD2    C4 2616   3.816   0.578  12.374  0.2929 -0.5991 -0.3192
  168MPD2    C5 2617   3.837   0.646  12.492  0.7857  0.1693 -0.5159
  168MPD2     H 2618   3.665   0.313  12.496 -0.7465  0.4154  0.1407
  168MPD2    H1 2619   3.858   0.616  12.282 -0.7182 -0.6941 -0.8131
  168MPD2    H2 2620   3.846   0.656  12.697 -0.0633  1.3175 -0.9549
  168MPD2    H3 2621   3.885   0.744  12.489 -0.5794  0.8352 -0.6874
  168MPD2     N 2622   3.745   0.391  12.256 -0.0169 -0.6540  0.0641
  168MPD2    H5 2623   3.770   0.450  12.178 -0.4752 -0.8962 -0.2670
  168MPD2    N1 2624   3.696   0.418  12.737  0.9096 -0.3697  0.1566
  168MPD2    H7 2625   3.639   0.334  12.729 -2.2303  1.6327  1.5864
  169MPD1     C 2626   0.796   3.794   9.041 -0.7715 -0.4990 -0.0493
  169MPD1    C1 2627   0.776   3.758   9.177 -0.3363 -0.2778  0.4663
  169MPD1    C2 2628   0.835   3.835   9.274 -1.0477 -0.2473  0.6487
  169MPD1    C3 2629   0.907   3.948   9.242 -0.4527  0.0708 -0.1495
  169MPD1    C4 2630   0.918   3.980   9.108 -0.2871 -0.2674  0.3801
  169MPD1    C5 2631   0.869   3.900   9.007  0.2650 -0.6748 -0.0929
  169MPD1     H 2632   0.818   3.807   9.377  3.1448  0.5863  1.5730
  169MPD1    H1 2633   0.975   4.063   9.066 -0.6527  0.6939  1.8040
  169MPD1    H2 2634   0.743   3.739   8.965 -1.4008  2.5613 -1.8465
  169MPD1    H3 2635   0.893   3.929   8.905  0.1037 -0.9921 -0.2229
  169MPD1     N 2636   0.950   4.033   9.342 -0.1531  0.3925  0.1313
  169MPD1    H5 2637   0.956   4.002   9.439  2.7491 -0.5230 -0.3345
  169MPD1    N1 2638   0.675   3.668   9.207 -0.0795  0.2185 -0.0234
  169MPD1    H6 2639   0.683   3.615   9.294 -0.0003 -0.9003 -0.7168
  169MPD1    H7 2640   0.680   3.598   9.134  1.2169 -0.2970  0.5746
  170MPD1     C 2641   0.984   2.665  13.198  0.2838 -0.3656 -1.0892
  170MPD1    C1 2642   0.929   2.718  13.323 -0.5239 -0.4681 -0.3001
  170MPD1    C2 2643   0.789   2.692  13.354 -0.1364 -0.3613  0.1506
  170MPD1    C3 2644   0.715   2.610  13.270 -0.2171 -0.2100  0.1501
  170MPD1    C4 2645   0.773   2.556  13.158 -1.5217  0.0501 -0.3796
  170MPD1    C5 2646   0.900   2.594  13.116 -0.5315 -0.3869 -0.2805
  170MPD1     H 2647   0.743   2.742  13.438 -0.5403 -1.0903  0.3638
  170MPD1    H1 2648   0.721   2.483  13.097  0.4822 -2.2936  0.7202
  170MPD1    H2 2649   1.089   2.676  13.173  0.4845 -0.2391 -0.1904
  170MPD1    H3 2650   0.942   2.548  13.027 -0.3660 -0.8807  0.0536
  170MPD1     N 2651   0.584   2.582  13.315 -0.1703 -0.2214 -0.0835
  170MPD1    H5 2652   0.563   2.572  13.414  0.6345 -1.1503 -0.0058
  170MPD1    N1 2653   1.004   2.804  13.406 -0.2359  0.4355 -0.0264
  170MPD1    H6 2654   1.103   2.806  13.384  0.3893  3.9381  3.0837
  170MPD1    H7 2655   0.991   2.785  13.505 -0.8755 -2.7224 -0.7256
  171MPD1     C 2656   3.122   3.429  14.984 -0.5985 -0.2437  0.0816
  171MPD1    C1 2657   3.152   3.299  14.943  0.0021 -0.4367 -0.1983
  171MPD1    C2 2658   3.170   3.206  15.047  0.5313 -0.6722  0.0814
  171MPD1    C3 2659   3.176   3.248  15.177 -0.2000 -0.0794 -0.3716
  171MPD1    C4 2660   3.139   3.378  15.207  0.2966  0.2906 -0.3835
  171MPD1    C5 2661   3.119   3.473  15.116  0.6820  0.7362  0.5104
  171MPD1     H 2662   3.184   3.099  15.045 -2.0677 -1.0108 -1.3039
  171MPD1    H1 2663   3.141   3.394  15.314  1.2628 -1.6780 -0.1204
  171MPD1    H2 2664   3.104   3.504  14.908  0.4060 -0.5110 -0.4190
  171MPD1    H3 2665   3.082   3.570  15.148 -0.0221  0.3877  0.7400
  171MPD1     N 2666   3.210   3.159  15.279  0.1418  0.1160 -0.2498
  171MPD1    H5 2667   3.181   3.182  15.374 -3.8070  1.1515 -1.6875
  171MPD1    N1 2668   3.150   3.255  14.807  0.4885  0.6129  0.1890
  171MPD1    H6 2669   3.225   3.187  14.793  1.8791  1.6822  2.4506
  171MPD1    H7 2670   3.169   3.337  14.750  2.3068 -0.6508 -1.0280
  172MPD1     C 2671   3.119   1.856   0.048  0.1657  0.4134  0.1323
  172MPD1    C1 2672   3.119   1.889   0.180  0.2293  0.2590 -0.2357
  172MPD1    C2 2673   3.150   2.027   0.208  0.0513  0.3566  0.2247
  172MPD1    C3 2674   3.177   2.119   0.105 -0.3373 -0.2699 -0.0468
  172MPD1    C4 2675   3.176   2.073  17.726 -0.0210 -0.0867 -0.5702
  172MPD1    C5 2676   3.134   1.948  17.697 -0.0777  0.3647 -0.1287
  172MPD1     H 2677   3.167   2.052   0.312  1.1077 -2.2946  0.6793
  172MPD1    H1 2678   3.199   2.145  17.648  1.9228 -0.7280 -0.5902
  172MPD1    H2 2679   3.101   1.755   0.012  0.7597  0.4815 -0.3379
  172MPD1    H3 2680   3.123   1.908  17.596 -0.5989 -2.0721  0.8937
  172MPD1     N 2681   3.201   2.253   0.124  0.1781  0.2805  0.1231
  172MPD1    H5 2682   3.234   2.299   0.040  0.5589 -1.5492 -0.7438
  172MPD1    N1 2683   3.133   1.795   0.281  0.2443 -0.2277  0.4023
  172MPD1    H6 2684   3.075   1.713   0.265  1.5454 -1.5766  2.7271
  172MPD1    H7 2685   3.122   1.837   0.373 -0.4393 -0.4878  0.4394
  173MPD1     C 2686   4.528   2.744  13.670  0.2959 -0.6450  0.1687
  173MPD1    C1 2687   4.404   2.696  13.697 -0.7277  0.0289  0.1267
  173MPD1    C2 2688   4.400   2.583  13.777 -0.4938 -0.0796  0.6891
  173MPD1    C3 2689   4.504   2.547  13.859  0.2275 -0.0250  0.4974
  173MPD1    C4 2690   4.633   2.601  13.839  0.1738  0.8539 -0.2062
  173MPD1    C5 2691   4.640   2.699  13.745 -0.5985 -0.0793  0.1222
  173MPD1     H 2692   4.304   2.542  13.805 -0.7944  0.5977  0.6437
  173MPD1    H1 2693   4.722   2.568  13.891 -3.1525 -1.7299  3.7875
  173MPD1    H2 2694   4.545   2.821  13.596  4.2108 -2.4570 -0.7919
  173MPD1    H3 2695   4.732   2.747  13.715 -1.2337  0.3910 -1.0475
  173MPD1     N 2696   4.474   2.455  13.961 -0.3213 -0.3143  0.3495
  173MPD1    H5 2697   4.382   2.412  13.959 -0.6401  0.3375  1.0141
  173MPD1    N1 2698   4.288   2.737  13.622  0.0198 -0.1897  0.8706
  173MPD1    H6 2699   4.298   2.836  13.600  0.8904 -0.4680  0.0335
  173MPD1    H7 2700   4.205   2.723  13.679  0.2361  1.9875  1.7521
  174MPD1     C 2701   0.360   2.176  14.691 -0.2656  0.4863  0.2405
  174MPD1    C1 2702   0.241   2.230  14.738  0.0930 -0.2441 -0.5078
  174MPD1    C2 2703   0.128   2.236  14.656 -0.0549  0.7896  0.6748
  174MPD1    C3 2704   0.140   2.202  14.526  0.0185 -0.2741  0.2618
  174MPD1    C4 2705   0.265   2.165  14.475  0.6930  0.4566  0.1794
  174MPD1    C5 2706   0.372   2.156  14.558 -0.6152 -0.1974 -0.0987
  174MPD1     H 2707   0.034   2.266  14.702 -0.4574 -1.5159  1.3664
  174MPD1    H1 2708   0.280   2.148  14.369  1.0766  2.5758 -0.1011
  174MPD1    H2 2709   0.443   2.163  14.759  0.7757 -0.1446 -1.1458
  174MPD1    H3 2710   0.466   2.111  14.527  0.0208  0.1084  1.3923
  174MPD1     N 2711   0.034   2.211  14.432 -0.4923 -0.2636  0.6340
  174MPD1    H5 2712   0.056   2.178  14.339 -0.2137  1.4282  0.0884
  174MPD1    N1 2713   0.230   2.256  14.876  0.1101  0.3345 -0.1157
  174MPD1    H6 2714   0.312   2.292  14.925  1.0928 -0.4669 -1.1833
  174MPD1    H7 2715   0.159   2.324  14.904  1.9645  2.6988 -1.1087
  175MPD1     C 2716   2.466   3.083  15.649 -0.8515  0.0192 -0.0000
  175MPD1    C1 2717   2.336   3.068  15.704 -0.1937  0.1562 -0.3858
  175MPD1    C2 2718   2.317   3.040  15.837 -0.7082  0.1661  0.6836
  175MPD1    C3 2719   2.426   2.997  15.913 -0.2179 -0.4896  0.1298
  175MPD1    C4 2720   2.553   3.001  15.861  0.2220  0.9464 -0.0010
  175MPD1    C5 2721   2.576   3.048  15.729 -0.1716  0.1619 -0.3488
  175MPD1     H 2722   2.218   3.045  15.881  0.3285  1.5271  2.8592
  175MPD1    H1 2723   2.638   2.967  15.919 -1.3165 -1.0615  1.0531
  175MPD1    H2 2724   2.474   3.129  15.551 -2.0836 -0.0011 -0.1112
  175MPD1    H3 2725   2.670   3.061  15.676 -0.2765  0.2232 -0.5219
  175MPD1     N 2726   2.420   2.947  16.050  0.5517  0.0372  0.3699
  175MPD1    H5 2727   2.500   2.904  16.094  0.8206  0.0123 -0.1393
  175MPD1    N1 2728   2.229   3.109  15.629  0.1452  0.6795 -0.0714
  175MPD1    H6 2729   2.236   3.093  15.529 -1.4744 -1.5236  0.1458
  175MPD1    H7 2730   2.132   3.094  15.657 -0.1159 -1.0769 -1.9165
  176MPD1     C 2731   4.261   3.839  16.568  0.1226  0.5419 -0.8211
  176MPD1    C1 2732   4.228   3.889  16.692 -0.4232 -0.0507 -0.1517
  176MPD1    C2 2733   4.232   4.023  16.712  0.2400  0.0263  0.0230
  176MPD1    C3 2734   4.266   4.109  16.608 -0.3742 -0.0530 -0.1912
  176MPD1    C4 2735   4.301   4.062  16.483 -0.1842  0.4251  0.5088
  176MPD1    C5 2736   4.297   3.927  16.464  0.4778 -0.2749  0.0154
  176MPD1     H 2737   4.206   4.064  16.809  3.9222 -2.9795  2.2661
  176MPD1    H1 2738   4.311   4.133  16.402 -0.8726 -0.4719 -0.3655
  176MPD1    H2 2739   4.262   3.731  16.559  2.6849  0.5233 -0.2728
  176MPD1    H3 2740   4.319   3.883  16.367  1.1635 -0.5327  0.2878
  176MPD1     N 2741   4.259   4.246  16.642 -0.2076 -0.1423 -0.5124
  176MPD1    H5 2742   4.236   4.266  16.739 -2.5683  0.1046 -1.1216
  176MPD1    N1 2743   4.198   3.807  16.801 -0.3221  0.1908  0.4643
  176MPD1    H6 2744   4.163   3.869  16.874 -2.0359 -0.6340  0.3318
  176MPD1    H7 2745   4.133   3.732  16.777  1.6434 -1.8432  1.4885
  177MPD1     C 2746   2.613   0.132  10.461  0.1465  0.4156 -0.4071
  177MPD1    C1 2747   2.667   0.239  10.395  0.5133  0.6684 -0.4775
  177MPD1    C2 2748   2.625   0.264  10.267  0.4545 -0.4337  0.3283
  177MPD1    C3 2749   2.517   0.200  10.218 -0.0496 -0.0198 -0.4038
  177MPD1    C4 2750   2.464   0.090  10.284  0.3336  0.6953 -0.0618
  177MPD1    C5 2751   2.516   0.060  10.403  0.3139 -0.2031 -0.3825
  177MPD1     H 2752   2.674   0.333  10.199 -1.1310 -0.2562 -0.6233
  177MPD1    H1 2753   2.380   0.031  10.250  1.3630 -0.6062 -0.3333
  177MPD1    H2 2754   2.656   0.100  10.555 -1.7229 -1.0988 -0.0812
  177MPD1    H3 2755   2.473   4.713  10.455  0.4020 -1.2999 -2.0945
  177MPD1     N 2756   2.473   0.227  10.087 -0.4612  0.1881  0.1321
  177MPD1    H5 2757   2.513   0.307  10.040  0.6148  0.2779  1.1983
  177MPD1    N1 2758   2.789   0.290  10.445  0.1536 -0.1063 -0.2195
  177MPD1    H6 2759   2.809   0.383  10.408 -0.2887 -0.1338 -0.5245
  177MPD1    H7 2760   2.786   0.295  10.546 -0.8609  1.2098 -0.3206
  178MPD1     C 2761   4.699   1.350   0.400  0.2486 -0.3169 -0.2591
  178MPD1    C1 2762   4.607   1.299   0.313  0.3485 -0.4997  0.3920
  178MPD1    C2 2763   4.647   1.249   0.191  0.3052  0.2996  0.0370
  178MPD1    C3 2764   0.044   1.246   0.162  0.7651  0.2763  0.2075
  178MPD1    C4 2765   0.133   1.306   0.245  0.2874 -0.3113 -0.2264
  178MPD1    C5 2766   0.088   1.366   0.360  0.0835 -0.1916 -0.7496
  178MPD1     H 2767   4.574   1.203   0.126  1.6390 -1.2315 -0.3637
  178MPD1    H1 2768   0.239   1.309   0.226  0.7539 -1.6482  2.1687
  178MPD1    H2 2769   4.678   1.380   0.502 -0.9258  2.3820 -1.2833
  178MPD1    H3 2770   0.162   1.409   0.426  0.7270 -3.9157  0.9751
  178MPD1     N 2771   0.099   1.173   0.054 -0.2266 -0.8943  0.0885
  178MPD1    H5 2772   0.200   1.164   0.053 -0.1585 -0.2783  0.8329
  178MPD1    N1 2773   4.477   1.278   0.365 -0.0480 -0.3929  0.1799
  178MPD1    H6 2774   4.398   1.280   0.301  0.4301  1.1116 -0.3585
  178MPD1    H7 2775   4.469   1.359   0.426 -0.3355  0.6579 -1.2640
  179MPD1     C 2776   3.815   0.302  16.361 -0.2781 -0.1381  0.2159
  179MPD1    C1 2777   3.904   0.221  16.428  0.1814 -0.0737 -0.4805
  179MPD1    C2 2778   3.937   0.099  16.376 -0.2338 -0.0030  0.1510
  179MPD1    C3 2779   3.897   0.058  16.252 -0.6259  0.2029 -0.2067
  179MPD1    C4 2780   3.827   0.154  16.173 -1.1898 -0.6452 -0.4159
  179MPD1    C5 2781   3.795   0.281  16.228 -0.3700 -0.3949 -0.5043
  179MPD1     H 2782   3.994   0.034  16.441  0.1529  0.7229  0.5382
  179MPD1    H1 2783   3.794   0.133  16.072 -1.9312 -1.1799 -0.0606
  179MPD1    H2 2784   3.770   0.389  16.408  1.6993 -0.5298  2.7938
  179MPD1    H3 2785   3.746   0.349  16.160  0.5798  0.9508  0.1575
  179MPD1     N 2786   3.930   4.677  16.186 -0.0933 -0.6371 -0.0527
  179MPD1    H5 2787   3.895   4.667  16.091 -0.3448 -0.6205  0.0370
  179MPD1    N1 2788   3.924   0.247  16.563 -0.0348  0.0700 -0.2485
  179MPD1    H6 2789   3.848   0.208  16.618 -0.4089  0.6625 -0.3472
  179MPD1    H7 2790   3.925   0.345  16.589 -3.2679 -0.7938  3.1190
  180MPD1     C 2791   1.032   1.251  14.324  0.4331 -0.6474  0.2899
  180MPD1    C1 2792   0.963   1.340  14.236 -0.1448  0.4021  0.6061
  180MPD1    C2 2793   0.823   1.329  14.235 -0.7739 -0.1282 -0.2731
  180MPD1    C3 2794   0.758   1.227  14.296 -0.2176 -0.7056 -0.3895
  180MPD1    C4 2795   0.829   1.133  14.370 -0.5651 -0.2158 -0.5110
  180MPD1    C5 2796   0.964   1.150  14.386 -0.0484 -0.7726 -0.2826
  180MPD1     H 2797   0.770   1.395  14.167  1.4491  2.0717  0.1226
  180MPD1    H1 2798   0.782   1.042  14.404  0.1095  0.3386  1.8906
  180MPD1    H2 2799   1.140   1.254  14.334  0.2820  3.1480  1.0855
  180MPD1    H3 2800   1.005   1.060  14.431 -0.1565 -1.5686 -1.7834
  180MPD1     N 2801   0.618   1.219  14.269  0.0736  0.2543  0.1075
  180MPD1    H5 2802   0.576   1.276  14.197 -1.3944  1.0358  1.5902
  180MPD1    N1 2803   1.020   1.450  14.177  0.2497 -0.4554  0.4248
  180MPD1    H6 2804   1.118   1.440  14.152  0.8554  3.6075  1.3079
  180MPD1    H7 2805   0.977   1.475  14.088  3.3594  0.4406 -0.8014
  181MPD1     C 2806   0.781   2.751   9.369 -0.4233 -0.5315 -0.5017
  181MPD1    C1 2807   0.784   2.888   9.370  0.7953 -0.4929 -0.3985
  181MPD1    C2 2808   0.862   2.958   9.464  0.4742 -0.2410 -0.0473
  181MPD1    C3 2809   0.931   2.886   9.568 -0.2740 -0.2281  0.5012
  181MPD1    C4 2810   0.931   2.750   9.569  0.6602 -0.1598 -0.0839
  181MPD1    C5 2811   0.861   2.685   9.464 -0.9040  0.0829 -0.2930
  181MPD1     H 2812   0.864   3.066   9.455  0.5078 -0.2488 -0.1319
  181MPD1    H1 2813   0.985   2.684   9.636  1.6928  0.0682 -0.7013
  181MPD1    H2 2814   0.718   2.694   9.302  1.5118 -3.3041  0.0499
  181MPD1    H3 2815   0.846   2.577   9.465 -1.7927  0.2017 -1.3433
  181MPD1     N 2816   1.004   2.946   9.671 -0.4572 -0.0266 -0.3309
  181MPD1    H5 2817   1.048   2.890   9.743  1.3701  1.6133 -0.1907
  181MPD1    N1 2818   0.741   2.963   9.253  0.5078  0.1192 -0.3936
  181MPD1    H6 2819   0.662   2.918   9.207  2.0910 -0.5090 -2.4390
  181MPD1    H7 2820   0.708   3.056   9.276 -0.5620 -0.2481 -0.4418
  182MPD1     C 2821   2.443   2.445   0.952 -0.0590  0.2118  0.0550
  182MPD1    C1 2822   2.470   2.371   0.836 -0.2324 -0.1730  0.0307
  182MPD1    C2 2823   2.359   2.307   0.774  0.3218  0.7490 -0.2038
  182MPD1    C3 2824   2.229   2.339   0.816 -0.5881  0.4227 -0.1339
  182MPD1    C4 2825   2.211   2.422   0.920 -0.2709  0.0998 -0.0143
  182MPD1    C5 2826   2.318   2.472   0.986  0.3985  0.2174 -0.2427
  182MPD1     H 2827   2.369   2.236   0.693  1.4395 -0.5878  1.1168
  182MPD1    H1 2828   2.107   2.440   0.945  0.7760  1.9196  2.9194
  182MPD1    H2 2829   2.518   2.496   1.011  0.8669  0.5377 -1.4042
  182MPD1    H3 2830   2.303   2.540   1.069  2.7586  0.4068  0.0086
  182MPD1     N 2831   2.113   2.274   0.765 -0.6153 -0.3523  0.0516
  182MPD1    H5 2832   2.026   2.304   0.808  0.8272  0.9760  2.0438
  182MPD1    N1 2833   2.603   2.347   0.803 -0.1899  0.0824  0.8765
  182MPD1    H6 2834   2.663   2.403   0.863 -1.0852  0.0658  1.7748
  182MPD1    H7 2835   2.629   2.357   0.705 -2.4616 -2.9918 -0.0214
  183MPD1     C 2836   2.672   1.518  10.130  0.1323 -0.2244 -0.1892
  183MPD1    C1 2837   2.714   1.598  10.227  0.8456  0.4289  0.6413
  183MPD1    C2 2838   2.702   1.732  10.196  0.7249  0.6697 -0.2958
  183MPD1    C3 2839   2.649   1.790  10.088 -0.1086 -0.1331  0.2154
  183MPD1    C4 2840   2.620   1.706   9.988  0.1844 -0.8690 -0.0133
  183MPD1    C5 2841   2.633   1.571  10.009 -0.0001 -0.2069  0.2942
  183MPD1     H 2842   2.737   1.807  10.266  0.8464 -0.4269  0.8152
  183MPD1    H1 2843   2.570   1.739   9.898  0.9706 -1.7542 -0.7842
  183MPD1    H2 2844   2.682   1.411  10.129 -0.7654 -0.3112  0.9166
  183MPD1    H3 2845   2.590   1.507   9.932  0.3172 -1.2229  0.9674
  183MPD1     N 2846   2.642   1.932  10.078  0.1672 -0.4293 -0.3321
  183MPD1    H5 2847   2.662   1.983  10.164 -0.1764 -0.2261 -0.3726
  183MPD1    N1 2848   2.798   1.552  10.327  0.5280 -0.0007 -0.4543
  183MPD1    H6 2849   2.753   1.466  10.356  0.3996  0.4548  0.6949
  183MPD1    H7 2850   2.807   1.616  10.406 -1.3862 -1.9907  1.3604
  184MPD1     C 2851   1.351   0.994   9.974  0.8474  0.0128  0.4988
  184MPD1    C1 2852   1.312   1.020   9.845  0.5322  0.0539  0.0433
  184MPD1    C2 2853   1.380   0.958   9.744  0.0337 -0.0308  0.0791
  184MPD1    C3 2854   1.476   0.866   9.773 -0.1487  0.4086  0.0239
  184MPD1    C4 2855   1.520   0.838   9.904 -0.6687 -0.2565 -0.2186
  184MPD1    C5 2856   1.459   0.913  10.001 -0.8190 -0.1908 -0.5240
  184MPD1     H 2857   1.368   0.984   9.640 -2.5727 -1.4390  0.0351
  184MPD1    H1 2858   1.597   0.772   9.941 -1.3798 -0.2459  1.2782
  184MPD1    H2 2859   1.308   1.034  10.065 -0.7981 -1.5110  0.4039
  184MPD1    H3 2860   1.489   0.890  10.102 -0.6399 -0.1081 -0.5597
  184MPD1     N 2861   1.563   0.810   9.677  0.1242 -0.0393 -0.8389
  184MPD1    H5 2862   1.637   0.752   9.715  0.7086  1.0417 -0.3327
  184MPD1    N1 2863   1.221   1.122   9.826 -0.2775 -0.5564  0.2928
  184MPD1    H6 2864   1.172   1.114   9.737  1.2752 -0.0890 -0.5874
  184MPD1    H7 2865   1.146   1.124   9.896  0.3168  1.3085  0.8616
  185MPD1     C 2866   1.776   0.759   8.625  0.9100  0.1297  0.0325
  185MPD1    C1 2867   1.729   0.857   8.707 -0.0064 -0.0982  0.5884
  185MPD1    C2 2868   1.719   0.825   8.841  0.4309 -0.1447  0.0047
  185MPD1    C3 2869   1.761   0.706   8.889 -0.2027  0.3039  0.1216
  185MPD1    C4 2870   1.819   0.616   8.803  0.0164  0.4360 -0.1829
  185MPD1    C5 2871   1.821   0.633   8.668 -0.4532 -0.4083  0.4113
  185MPD1     H 2872   1.675   0.891   8.916  2.7001 -0.4438  1.5823
  185MPD1    H1 2873   1.859   0.525   8.846 -1.2702  1.1268  2.4940
  185MPD1    H2 2874   1.776   0.795   8.523  1.9646  2.3846  0.8107
  185MPD1    H3 2875   1.872   0.563   8.603  2.1402  1.1956  0.7520
  185MPD1     N 2876   1.750   0.661   9.021  0.5095 -0.5996  0.0498
  185MPD1    H5 2877   1.789   0.569   9.038  1.2202 -0.2460  0.3113
  185MPD1    N1 2878   1.673   0.974   8.654  0.6433  0.4426 -0.0195
  185MPD1    H6 2879   1.678   1.059   8.710 -0.3145  0.1116  0.5777
  185MPD1    H7 2880   1.698   1.000   8.559  2.3641 -0.7043  0.1129
  186MPD1     C 2881   0.175   3.654  15.834  0.3188  0.1933  0.4826
  186MPD1    C1 2882   0.295   3.712  15.880  0.0567  0.4147 -0.6214
  186MPD1    C2 2883   0.285   3.833  15.945  0.3190 -0.4732  0.2578
  186MPD1    C3 2884   0.170   3.906  15.951  0.0260 -0.4721  0.1279
  186MPD1    C4 2885   0.059   3.853  15.888  0.2709  0.1562  0.2678
  186MPD1    C5 2886   0.061   3.733  15.828  0.7606  0.2763  0.4740
  186MPD1     H 2887   0.376   3.865  15.994  0.9182 -0.5955 -0.7730
  186MPD1    H1 2888   4.711   3.918  15.871 -0.7520 -1.2495  0.0948
  186MPD1    H2 2889   0.179   3.571  15.765  3.5477  0.3097  0.5270
  186MPD1    H3 2890   4.715   3.692  15.773  1.0034  3.1072 -1.9421
  186MPD1     N 2891   0.160   4.027  16.022 -0.4194 -0.0351 -0.2301
  186MPD1    H5 2892   0.067   4.065  16.033 -0.1917  0.5133 -0.2147
  186MPD1    N1 2893   0.413   3.633  15.887  0.6920  0.0500  0.2366
  186MPD1    H6 2894   0.487   3.702  15.879 -0.7489  1.4707 -0.8504
  186MPD1    H7 2895   0.423   3.568  15.810 -1.1666  1.5391 -1.2757
  187MPD1     C 2896   0.262   0.769  16.580 -0.1376  0.2046 -0.3181
  187MPD1    C1 2897   0.134   0.753  16.518 -0.0395 -0.1707 -0.1282
  187MPD1    C2 2898   0.022   0.817  16.574  0.0493  0.0368  0.1269
  187MPD1    C3 2899   0.042   0.914  16.671 -0.0776 -0.4260 -0.2675
  187MPD1    C4 2900   0.167   0.927  16.730  0.9123 -1.0581  0.7806
  187MPD1    C5 2901   0.275   0.855  16.684 -0.0536  0.5654 -0.6671
  187MPD1     H 2902   4.659   0.789  16.545  0.8606 -2.3039 -0.4598
  187MPD1    H1 2903   0.185   0.991  16.816 -1.4940  0.5040  0.1096
  187MPD1    H2 2904   0.351   0.713  16.553 -0.5074 -0.0804 -0.9377
  187MPD1    H3 2905   0.370   0.852  16.736  1.9535  0.1816 -4.3082
  187MPD1     N 2906   4.679   0.996  16.732 -0.1148  0.5766 -0.2759
  187MPD1    H5 2907   4.708   1.064  16.802  1.0264  1.9094 -2.0449
  187MPD1    N1 2908   0.118   0.666  16.414  0.4857  0.1696 -0.1037
  187MPD1    H6 2909   0.194   0.664  16.346  0.9221  1.2387  0.3535
  187MPD1    H7 2910   0.028   0.675  16.368 -0.0634 -0.2774  0.8772
  188MPD1     C 2911   3.362   1.304   9.721 -0.4002  0.2462  0.4838
  188MPD1    C1 2912   3.377   1.191   9.800  0.4323 -0.1599  0.8739
  188MPD1    C2 2913   3.437   1.076   9.753 -0.3956 -0.5762 -0.0952
  188MPD1    C3 2914   3.490   1.081   9.620 -0.5574 -0.3055  0.1763
  188MPD1    C4 2915   3.491   1.197   9.550  0.0124 -0.6034 -0.1352
  188MPD1    C5 2916   3.427   1.306   9.601  0.1819  0.1556  0.9119
  188MPD1     H 2917   3.447   0.994   9.823  1.9925  0.9523  1.3698
  188MPD1    H1 2918   3.528   1.197   9.448  1.0647  0.2332  0.2487
  188MPD1    H2 2919   3.306   1.392   9.751  0.4969  0.3438  1.8767
  188MPD1    H3 2920   3.438   1.393   9.537 -0.4803 -1.0446 -0.8223
  188MPD1     N 2921   3.535   0.956   9.576  0.1454 -0.5605  0.7973
  188MPD1    H5 2922   3.530   0.884   9.648 -0.6207 -0.2265  1.0806
  188MPD1    N1 2923   3.350   1.195   9.941  0.2294  0.4455  0.0590
  188MPD1    H6 2924   3.276   1.256   9.975  0.7445  1.0321  0.1284
  188MPD1    H7 2925   3.345   1.101   9.977  1.2104 -0.1611 -1.4058
  189MPD1     C 2926   0.966   2.101   1.068 -0.5278  0.2540 -0.2625
  189MPD1    C1 2927   0.858   2.019   1.049 -0.5033 -0.3620 -0.5497
  189MPD1    C2 2928   0.745   2.062   0.980  0.1378  1.2028  0.1154
  189MPD1    C3 2929   0.748   2.187   0.916 -1.1304  0.3023  0.1619
  189MPD1    C4 2930   0.857   2.271   0.944 -0.3761  0.3297 -0.9754
  189MPD1    C5 2931   0.956   2.231   1.034 -0.5088  0.8658 -0.4301
  189MPD1     H 2932   0.652   2.006   0.979 -0.7958  2.7657 -1.5885
  189MPD1    H1 2933   0.871   2.371   0.903 -2.0942 -0.0005 -2.3724
  189MPD1    H2 2934   1.043   2.068   1.136 -1.4941 -1.8981 -0.2257
  189MPD1    H3 2935   1.023   2.307   1.074  1.9049 -0.4096 -2.0311
  189MPD1     N 2936   0.641   2.211   0.826 -0.3130  0.1033 -0.0179
  189MPD1    H5 2937   0.566   2.144   0.811 -0.5128  0.2246  0.4351
  189MPD1    N1 2938   0.849   1.906   1.131  0.7094 -0.7010 -0.2502
  189MPD1    H6 2939   0.940   1.860   1.138 -0.3704 -2.9747 -1.2914
  189MPD1    H7 2940   0.788   1.831   1.099 -1.2721 -0.0116  1.9179
  190MPD1     C 2941   4.631   1.013  15.245 -0.2844  0.3058 -0.3276
  190MPD1    C1 2942   4.600   0.885  15.218  0.3862 -0.3933 -0.0373
  190MPD1    C2 2943   4.680   0.786  15.271 -0.2121 -0.5127 -0.1593
  190MPD1    C3 2944   0.055   0.816  15.338 -0.1577  0.7296 -0.7390
  190MPD1    C4 2945   0.093   0.947  15.355 -0.4572  0.3486 -0.1374
  190MPD1    C5 2946   0.007   1.043  15.308 -0.6350 -0.2077  0.7490
  190MPD1     H 2947   4.645   0.685  15.258 -0.1027 -0.6261  0.4387
  190MPD1    H1 2948   0.185   0.976  15.403  0.3990  0.3810 -1.7904
  190MPD1    H2 2949   4.561   1.093  15.221  1.6313  2.9141  2.8148
  190MPD1    H3 2950   0.037   1.145  15.331 -0.1388  0.2863 -2.1335
  190MPD1     N 2951   0.130   0.706  15.381  0.6635 -0.1050 -0.5242
  190MPD1    H5 2952   0.081   0.617  15.378 -0.5036  0.5960 -2.1494
  190MPD1    N1 2953   4.483   0.851  15.152 -0.0120  0.1104  0.2394
  190MPD1    H6 2954   4.473   0.925  15.082 -2.2749 -1.2633 -0.8781
  190MPD1    H7 2955   4.488   0.764  15.099 -0.5634  0.1585  0.1071
  191MPD1     C 2956   4.118   2.286  12.657 -0.4575 -0.3164 -0.0208
  191MPD1    C1 2957   4.196   2.383  12.588 -0.5036 -0.7354 -0.2658
  191MPD1    C2 2958   4.135   2.485  12.511  0.2101 -0.6158 -0.5970
  191MPD1    C3 2959   3.994   2.497  12.521  0.4039 -0.5015  0.1617
  191MPD1    C4 2960   3.924   2.403  12.599  0.5915 -0.5013  0.2447
  191MPD1    C5 2961   3.985   2.300  12.659 -0.3573  0.1427 -0.0186
  191MPD1     H 2962   4.196   2.556  12.456  0.8366 -0.3321  0.4556
  191MPD1    H1 2963   3.821   2.418  12.629 -0.5083 -0.2900 -3.6186
  191MPD1    H2 2964   4.165   2.201  12.705 -0.8431 -0.7149 -0.3456
  191MPD1    H3 2965   3.926   2.233  12.719 -0.0541 -1.2225 -1.2295
  191MPD1     N 2966   3.932   2.599  12.451  0.3527  0.3021  0.0640
  191MPD1    H5 2967   3.998   2.674  12.434 -1.3809  1.6923 -0.4294
  191MPD1    N1 2968   4.334   2.367  12.586 -0.0387  0.3557  0.2434
  191MPD1    H6 2969   4.361   2.327  12.676  1.4459  2.8889  0.9006
  191MPD1    H7 2970   4.387   2.453  12.584 -2.7236  2.0010 -0.0106
  192MPD1     C 2971   3.084   3.126  12.510 -0.0781 -0.0616  0.3028
  192MPD1    C1 2972   3.201   3.194  12.480  0.5923 -0.2317 -0.1574
  192MPD1    C2 2973   3.310   3.125  12.431  0.3240 -0.8232 -0.0699
  192MPD1    C3 2974   3.304   2.990  12.410  0.6501  0.7132 -0.0805
  192MPD1    C4 2975   3.187   2.923  12.440  0.3415  0.2734 -0.3467
  192MPD1    C5 2976   3.077   2.993  12.476 -0.2726 -0.0243  0.4103
  192MPD1     H 2977   3.399   3.182  12.407 -0.7359 -0.0593 -2.1506
  192MPD1    H1 2978   3.181   2.815  12.429  0.0064  0.1717  0.8210
  192MPD1    H2 2979   2.994   3.173  12.545 -0.9184 -1.3636 -0.1162
  192MPD1    H3 2980   2.985   2.936  12.482 -0.3894  0.1193 -0.0512
  192MPD1     N 2981   3.418   2.920  12.355 -0.1326  0.1208  1.0472
  192MPD1    H5 2982   3.423   2.820  12.371  2.6562  0.0727 -0.2528
  192MPD1    N1 2983   3.202   3.335  12.478  0.4135 -0.5507 -0.2880
  192MPD1    H6 2984   3.117   3.378  12.514  0.8481  0.5864 -0.6110
  192MPD1    H7 2985   3.274   3.375  12.538 -0.5482  0.1141  0.4223
  193MPD1     C 2986   2.699   2.716  16.646 -0.3789  0.5333  0.8285
  193MPD1    C1 2987   2.774   2.710  16.531 -0.7753 -0.4277 -0.6153
  193MPD1    C2 2988   2.878   2.797  16.517  0.5550 -0.1708  0.3147
  193MPD1    C3 2989   2.894   2.905  16.600 -0.7612  0.2981 -0.2193
  193MPD1    C4 2990   2.815   2.909  16.712  0.2667  0.1546 -0.2206
  193MPD1    C5 2991   2.720   2.817  16.733 -0.5704  0.0768 -0.2410
  193MPD1     H 2992   2.932   2.785  16.424 -0.6770  0.3683 -0.4567
  193MPD1    H1 2993   2.815   3.000  16.772 -0.0296 -0.6301  0.9698
  193MPD1    H2 2994   2.625   2.640  16.670  0.3806  0.0760  1.7259
  193MPD1    H3 2995   2.676   2.818  16.832 -1.6805 -0.6285 -0.7390
  193MPD1     N 2996   2.987   3.013  16.583  0.6597 -0.3440 -0.0053
  193MPD1    H5 2997   3.018   3.076  16.656  0.1461 -1.0175  0.7987
  193MPD1    N1 2998   2.755   2.603  16.442  0.0287  0.5363 -0.8101
  193MPD1    H6 2999   2.659   2.570  16.431  0.2210  0.0832 -1.1377
  193MPD1    H7 3000   2.775   2.639  16.349 -0.3444 -2.2067 -1.9624
  194MPD1     C 3001   0.184   3.892  17.274  0.2300 -0.3825 -0.1987
  194MPD1    C1 3002   0.221   3.897  17.405 -0.0720 -0.0774 -0.0715
  194MPD1    C2 3003   0.346   3.943  17.439  0.3537 -0.3867 -0.1453
  194MPD1    C3 3004   0.440   3.979  17.341 -0.1019  0.4627  0.2142
  194MPD1    C4 3005   0.401   3.976  17.206  0.6911  1.0622 -0.6485
  194MPD1    C5 3006   0.272   3.934  17.174 -0.1373 -0.2635  0.8834
  194MPD1     H 3007   0.377   3.936  17.543  0.4268 -1.7376 -0.2671
  194MPD1    H1 3008   0.473   4.012  17.133  1.6779 -0.0419 -0.2144
  194MPD1    H2 3009   0.099   3.838  17.234 -0.5293 -0.9393  2.1391
  194MPD1    H3 3010   0.249   3.904  17.072  0.4189  1.4292  0.2657
  194MPD1     N 3011   0.570   4.026  17.373 -0.1502  0.5972  0.1626
  194MPD1    H5 3012   0.627   4.053  17.293 -0.7140  1.7315  0.1425
  194MPD1    N1 3013   0.134   3.851  17.505 -0.2488 -0.1855 -0.4608
  194MPD1    H6 3014   0.040   3.846  17.469  0.1329 -1.4663 -1.2683
  194MPD1    H7 3015   0.135   3.915  17.585  0.4532 -1.0246  0.1980
  195MPD1     C 3016   4.526   1.187  17.308 -0.6227  0.6031  0.5915
  195MPD1    C1 3017   4.406   1.244  17.318 -0.9388 -0.0600 -0.2884
  195MPD1    C2 3018   4.290   1.173  17.324 -0.4136  0.5397 -0.0160
  195MPD1    C3 3019   4.288   1.034  17.313  0.6145 -0.3941 -0.6018
  195MPD1    C4 3020   4.412   0.980  17.285  0.2175 -0.2404 -0.1079
  195MPD1    C5 3021   4.528   1.056  17.286  0.3661 -0.4139  0.4111
  195MPD1     H 3022   4.198   1.229  17.336 -0.8955 -0.5411  1.3604
  195MPD1    H1 3023   4.428   0.874  17.265 -0.1580 -0.1734 -0.7680
  195MPD1    H2 3024   4.616   1.248  17.304  0.1374 -0.6124 -0.7332
  195MPD1    H3 3025   4.624   1.009  17.268  0.2704  0.2809 -1.9389
  195MPD1     N 3026   4.171   0.955  17.329 -0.4094  0.5177  0.6293
  195MPD1    H5 3027   4.088   1.001  17.363  0.2925  0.5552  2.2983
  195MPD1    N1 3028   4.405   1.380  17.351  0.6298  0.0024 -0.6020
  195MPD1    H6 3029   4.316   1.426  17.334  0.3056 -1.1990 -2.1500
  195MPD1    H7 3030   4.472   1.436  17.299 -0.6443  1.2618 -0.8969
  196MPD1     C 3031   2.695   0.942   0.228  0.3637  0.4825 -0.6094
  196MPD1    C1 3032   2.806   1.021   0.206 -0.0419 -0.0739 -0.0039
  196MPD1    C2 3033   2.826   1.120   0.300 -0.6864 -0.1733  0.5222
  196MPD1    C3 3034   2.734   1.152   0.399 -0.2060  0.4860  0.2163
  196MPD1    C4 3035   2.618   1.075   0.410 -0.1394  0.4288 -0.3171
  196MPD1    C5 3036   2.604   0.966   0.330 -0.0021  0.1919 -0.0625
  196MPD1     H 3037   2.920   1.173   0.294  0.1091 -1.6962 -0.4935
  196MPD1    H1 3038   2.564   1.089   0.503 -4.0061 -0.7208 -2.3911
  196MPD1    H2 3039   2.685   0.850   0.171  0.1576 -0.7965  1.5111
  196MPD1    H3 3040   2.519   0.900   0.337 -0.9229  1.2323 -1.4198
  196MPD1     N 3041   2.756   1.248   0.507  0.3449  0.4320  0.5662
  196MPD1    H5 3042   2.675   1.258   0.568  0.8682  1.7904  1.0307
  196MPD1    N1 3043   2.906   0.985   0.116 -0.6146  0.1341  0.0518
  196MPD1    H6 3044   2.960   1.065   0.083 -1.0503  0.6173  0.4972
  196MPD1    H7 3045   2.854   0.950   0.035  0.1764  2.0491 -1.2951
  197MPD1     C 3046   2.177   3.414  17.404  0.0767 -0.4151  0.2262
  197MPD1    C1 3047   2.185   3.550  17.401 -0.0640 -0.1797  0.8002
  197MPD1    C2 3048   2.247   3.605  17.294 -0.0571 -1.0951 -0.7260
  197MPD1    C3 3049   2.318   3.534  17.202  0.5394  0.4103 -0.6816
  197MPD1    C4 3050   2.307   3.395  17.206  0.4442 -0.3649  0.7396
  197MPD1    C5 3051   2.236   3.333  17.305  0.1627  0.4519 -0.1133
  197MPD1     H 3052   2.250   3.713  17.291 -0.1006 -1.1099 -1.3994
  197MPD1    H1 3053   2.358   3.327  17.139  0.0932 -0.3829  0.4874
  197MPD1    H2 3054   2.115   3.354  17.469  3.3493 -1.9044  1.9795
  197MPD1    H3 3055   2.212   3.228  17.304  1.0072  0.2540  0.7330
  197MPD1     N 3056   2.390   3.595  17.091  0.1266 -0.0074 -0.6101
  197MPD1    H5 3057   2.427   3.535  17.017  0.1037 -0.4311 -0.2767
  197MPD1    N1 3058   2.095   3.627  17.482  0.2881 -0.3089 -0.2236
  197MPD1    H6 3059   2.134   3.720  17.499  1.4592 -1.0170  0.9225
  197MPD1    H7 3060   2.076   3.587  17.574 -0.0417  0.2093 -0.0615
  198MPD1     C 3061   4.149   2.967  15.407 -0.3607 -0.4287  0.4879
  198MPD1    C1 3062   4.113   2.847  15.349 -0.3495  0.6569 -0.3837
  198MPD1    C2 3063   4.159   2.725  15.399 -0.1651 -1.0715  0.4680
  198MPD1    C3 3064   4.240   2.734  15.515  0.2291  0.0390 -0.2186
  198MPD1    C4 3065   4.283   2.849  15.570  0.4526 -0.3620 -0.4887
  198MPD1    C5 3066   4.228   2.966  15.518 -0.3152  0.2599  0.1785
  198MPD1     H 3067   4.128   2.630  15.358  1.2288 -0.6453 -1.5478
  198MPD1    H1 3068   4.359   2.854  15.647  0.6190 -0.0642 -0.6716
  198MPD1    H2 3069   4.117   3.067  15.380 -0.3151 -0.6485 -0.3761
  198MPD1    H3 3070   4.267   3.058  15.559  2.9967 -0.2450 -1.9020
  198MPD1     N 3071   4.276   2.615  15.582 -0.5393  0.2342 -0.5098
  198MPD1    H5 3072   4.252   2.525  15.543  0.0507 -0.8855  1.6656
  198MPD1    N1 3073   4.033   2.857  15.231  1.1671 -0.6109  0.2380
  198MPD1    H6 3074   3.964   2.783  15.224  0.8002 -0.2983  0.5865
  198MPD1    H7 3075   3.999   2.946  15.196 -2.3225 -0.7075  3.3102
  199MPD1     C 3076   0.813   3.102  10.612  0.1532  0.7181  0.0968
  199MPD1    C1 3077   0.742   3.017  10.530 -0.2894  0.4650  0.4021
  199MPD1    C2 3078   0.720   3.060  10.400 -0.1699  0.1995 -0.1240
  199MPD1    C3 3079   0.776   3.179  10.349  0.0256  0.2438 -0.5813
  199MPD1    C4 3080   0.856   3.255  10.431 -0.0392  0.2020 -0.0530
  199MPD1    C5 3081   0.878   3.210  10.560 -0.1919  0.5769 -0.5237
  199MPD1     H 3082   0.671   2.990  10.333 -2.8656  1.0747  0.9493
  199MPD1    H1 3083   0.914   3.340  10.399 -1.4246  0.9102 -0.6799
  199MPD1    H2 3084   0.845   3.081  10.713  1.5163  2.3941  0.0172
  199MPD1    H3 3085   0.948   3.264  10.621 -0.6252  1.1776 -0.5604
  199MPD1     N 3086   0.761   3.218  10.215  0.4337  0.5764  0.2935
  199MPD1    H5 3087   0.813   3.302  10.193  0.9336  0.2965  0.4155
  199MPD1    N1 3088   0.672   2.908  10.580 -0.1272 -0.4304 -0.0750
  199MPD1    H6 3089   0.710   2.871  10.667 -2.5479  1.6628  1.9018
  199MPD1    H7 3090   0.652   2.835  10.513 -1.0315  0.6386 -0.9709
  200MPD1     C 3091   0.485   2.942  14.900 -1.0312 -0.4667 -0.1064
  200MPD1    C1 3092   0.521   2.943  14.761 -0.3611 -0.4863  0.5181
  200MPD1    C2 3093   0.601   3.044  14.714  0.5023 -0.0214  0.7088
  200MPD1    C3 3094   0.657   3.139  14.802  0.0190  0.7880  0.5063
  200MPD1    C4 3095   0.623   3.131  14.934 -0.3500 -0.1821 -0.2026
  200MPD1    C5 3096   0.532   3.041  14.980  0.3689 -0.3486  0.7392
  200MPD1     H 3097   0.634   3.056  14.612  1.5803  0.1087  1.0700
  200MPD1    H1 3098   0.679   3.185  15.010 -1.5479  2.0820 -0.9052
  200MPD1    H2 3099   0.420   2.865  14.940  1.0927 -1.5319  1.3188
  200MPD1    H3 3100   0.513   3.035  15.086 -1.3933 -0.6445  0.4045
  200MPD1     N 3101   0.754   3.222  14.747 -0.1720  0.5657  0.4561
  200MPD1    H5 3102   0.773   3.197  14.651  0.2149  3.5005 -0.2315
  200MPD1    N1 3103   0.455   2.846  14.677  0.3141 -0.1529 -0.3512
  200MPD1    H6 3104   0.502   2.825  14.589 -2.5441 -1.2157 -1.5972
  200MPD1    H7 3105   0.447   2.763  14.735 -2.6154 -0.8671 -1.8087
  201MPD1     C 3106   3.219   2.723  13.513 -0.3469 -0.8632 -0.1500
  201MPD1    C1 3107   3.335   2.653  13.503  0.2374  0.2688  0.1937
  201MPD1    C2 3108   3.320   2.512  13.474  0.3758  0.9253  1.0763
  201MPD1    C3 3109   3.195   2.456  13.452  0.1986 -0.3840  0.2832
  201MPD1    C4 3110   3.080   2.537  13.445 -0.9794  0.3503 -0.4750
  201MPD1    C5 3111   3.094   2.664  13.493  0.4829 -0.2240 -0.3199
  201MPD1     H 3112   3.409   2.450  13.466  0.7074  1.2321  2.4418
  201MPD1    H1 3113   2.983   2.500  13.416  0.7622 -4.1930 -0.4837
  201MPD1    H2 3114   3.215   2.830  13.530 -3.4346 -0.6486 -2.2058
  201MPD1    H3 3115   3.000   2.715  13.510  1.3871  1.5733 -0.7327
  201MPD1     N 3116   3.184   2.320  13.432  0.6948 -0.3178  0.3190
  201MPD1    H5 3117   3.271   2.268  13.441  0.4480 -0.9410 -0.8693
  201MPD1    N1 3118   3.465   2.706  13.504 -0.5464 -0.5000 -0.1092
  201MPD1    H6 3119   3.464   2.793  13.557  3.3445 -0.0327 -0.7907
  201MPD1    H7 3120   3.524   2.644  13.560 -0.5627 -1.8299 -1.5771
  202MPD1     C 3121   3.430   2.059   9.678 -0.4664  0.4710  0.9169
  202MPD1    C1 3122   3.376   2.154   9.765 -0.2121 -0.0387  0.2921
  202MPD1    C2 3123   3.395   2.133   9.896  0.5570 -0.5060 -0.6419
  202MPD1    C3 3124   3.478   2.039   9.950 -0.0417 -0.1764 -0.4688
  202MPD1    C4 3125   3.545   1.952   9.864 -0.1085 -0.5673  0.3775
  202MPD1    C5 3126   3.521   1.962   9.726  0.1256  0.4590  0.2417
  202MPD1     H 3127   3.329   2.183   9.965 -1.3365 -1.8062 -1.4951
  202MPD1    H1 3128   3.592   1.864   9.906  0.0813 -1.4180 -1.6247
  202MPD1    H2 3129   3.398   2.058   9.574 -0.2256 -0.5145  0.8444
  202MPD1    H3 3130   3.572   1.894   9.659  0.8382  0.4111  0.8283
  202MPD1     N 3131   3.512   2.018  10.090 -0.1075 -0.6451  0.3063
  202MPD1    H5 3132   3.589   1.958  10.118  0.2452 -0.8755 -1.1675
  202MPD1    N1 3133   3.258   2.215   9.725  0.7922 -0.0928  0.3776
  202MPD1    H6 3134   3.267   2.250   9.629  0.0284 -0.3072  0.2251
  202MPD1    H7 3135   3.233   2.295   9.782 -1.0697 -0.4383  0.0320
  203MPD1     C 3136   1.824   3.234  12.762  0.1935 -0.1925  0.0580
  203MPD1    C1 3137   1.774   3.154  12.866  0.2208 -0.1515  0.5660
  203MPD1    C2 3138   1.780   3.014  12.847 -0.4591 -0.1581 -0.1834
  203MPD1    C3 3139   1.843   2.964  12.739  0.1487 -0.1783 -0.6023
  203MPD1    C4 3140   1.909   3.048  12.654 -0.1436  0.5553  1.1245
  203MPD1    C5 3141   1.892   3.183  12.657 -0.0203  0.0067  0.4335
  203MPD1     H 3142   1.733   2.945  12.917  0.6271  0.6407  1.3484
  203MPD1    H1 3143   1.971   3.002  12.577 -1.4749 -2.1840  1.7047
  203MPD1    H2 3144   1.812   3.342  12.769  2.8503  0.0658  0.5565
  203MPD1    H3 3145   1.937   3.256  12.591 -1.7831  0.5034 -0.2266
  203MPD1     N 3146   1.849   2.820  12.716  0.0361 -0.0867  0.4523
  203MPD1    H5 3147   1.817   2.755  12.788 -1.1063  0.4691  0.4458
  203MPD1    N1 3148   1.693   3.208  12.971  0.2521  0.4547 -0.0995
  203MPD1    H6 3149   1.712   3.154  13.055 -0.3056  0.9951  0.3625
  203MPD1    H7 3150   1.716   3.306  12.984 -2.1374  0.9727  0.1682
  204MPD1     C 3151   1.430   3.739   0.286 -0.1025  0.4527 -0.0569
  204MPD1    C1 3152   1.301   3.683   0.302  0.5390 -0.6827  0.6654
  204MPD1    C2 3153   1.236   3.615   0.199 -0.4194  0.3525  0.5203
  204MPD1    C3 3154   1.296   3.592   0.079  0.7087 -0.2603 -0.0464
  204MPD1    C4 3155   1.414   3.668   0.056  0.0584 -0.4489 -0.2274
  204MPD1    C5 3156   1.478   3.738   0.155 -0.3271 -0.2548  0.4256
  204MPD1     H 3157   1.141   3.576   0.232 -0.7132 -0.7934 -1.6575
  204MPD1    H1 3158   1.463   3.668  17.709 -1.8442 -0.1740 -1.1965
  204MPD1    H2 3159   1.497   3.782   0.359  0.7542  0.5315 -0.8860
  204MPD1    H3 3160   1.570   3.791   0.134 -0.8887 -0.4803 -2.6654
  204MPD1     N 3161   1.230   3.508  17.731  0.3448 -0.4489 -0.5853
  204MPD1    H5 3162   1.150   3.454   0.013 -0.0105  0.6456  0.3315
  204MPD1    N1 3163   1.242   3.674   0.433  0.0291 -0.4164 -0.2633
  204MPD1    H6 3164   1.270   3.740   0.505  0.4909  1.3091 -2.0061
  204MPD1    H7 3165   1.142   3.660   0.435  0.0286 -0.1782  1.0427
  205MPD1     C 3166   1.935   1.878   0.329  0.2834  0.3393 -0.4112
  205MPD1    C1 3167   1.940   2.016   0.311 -0.4483  0.5757  0.1045
  205MPD1    C2 3168   1.823   2.095   0.307 -0.6478 -0.0383  0.1970
  205MPD1    C3 3169   1.695   2.041   0.328 -0.1187  0.8508 -0.1982
  205MPD1    C4 3170   1.691   1.903   0.339  0.1450  0.0122  0.4513
  205MPD1    C5 3171   1.809   1.827   0.344 -0.3868  0.1441  0.2505
  205MPD1     H 3172   1.846   2.200   0.291 -0.5726 -0.2767 -1.2707
  205MPD1    H1 3173   1.600   1.846   0.356 -0.0060  0.7316  2.0583
  205MPD1    H2 3174   2.021   1.814   0.339  0.1843  0.3588  0.5654
  205MPD1    H3 3175   1.807   1.721   0.367  0.3020  0.4277  1.6262
  205MPD1     N 3176   1.570   2.106   0.322  0.4431  1.1168 -0.0499
  205MPD1    H5 3177   1.488   2.046   0.327 -0.3355  2.0981 -1.0806
  205MPD1    N1 3178   2.058   2.081   0.288  0.3727 -0.5206  0.2890
  205MPD1    H6 3179   2.055   2.178   0.320  1.3640 -0.3392 -0.1609
  205MPD1    H7 3180   2.141   2.032   0.319 -0.7240 -1.6693  1.4079
  206MPD1     C 3181   1.579   0.065  16.433 -0.1315 -0.0093  0.2835
  206MPD1    C1 3182   1.475   0.146  16.467 -0.3437  0.1328  0.2153
  206MPD1    C2 3183   1.410   0.221  16.366  0.6618 -0.9070 -0.2719
  206MPD1    C3 3184   1.444   0.204  16.236 -0.3021 -0.2640 -0.5405
  206MPD1    C4 3185   1.554   0.133  16.200  0.2047  0.1701 -0.3196
  206MPD1    C5 3186   1.622   0.068  16.302  0.0998 -0.0513 -0.1092
  206MPD1     H 3187   1.338   0.296  16.396  0.7606 -0.5872 -0.8351
  206MPD1    H1 3188   1.585   0.134  16.096 -0.8280 -1.9624 -0.6436
  206MPD1    H2 3189   1.635   0.007  16.506  0.8291 -0.2796 -0.6735
  206MPD1    H3 3190   1.702   0.002  16.273  2.1691  1.6839  1.5877
  206MPD1     N 3191   1.377   0.269  16.128  0.1048  0.7580 -0.3766
  206MPD1    H5 3192   1.421   0.267  16.036 -0.6426  0.6486 -0.7260
  206MPD1    N1 3193   1.463   0.176  16.602  0.5503  0.1441 -0.2671
  206MPD1    H6 3194   1.490   0.104  16.668 -0.5479 -0.2449 -0.2318
  206MPD1    H7 3195   1.365   0.202  16.611  0.4332 -1.1093  2.0490
  207MPD1     C 3196   3.886   3.069   8.975  0.3732 -0.0474 -0.0014
  207MPD1    C1 3197   3.956   3.188   8.977 -0.2628  0.5103  0.0457
  207MPD1    C2 3198   4.011   3.236   9.093 -0.0966 -0.1091  0.6112
  207MPD1    C3 3199   4.019   3.159   9.208  0.1653  0.1376  0.6375
  207MPD1    C4 3200   3.959   3.033   9.204 -0.2582 -0.6677  0.7057
  207MPD1    C5 3201   3.895   2.994   9.090 -0.1669 -1.0282  1.1773
  207MPD1     H 3202   4.053   3.336   9.090  2.5251 -1.1965  0.9381
  207MPD1    H1 3203   3.955   2.973   9.294 -2.7253 -1.3917  0.1184
  207MPD1    H2 3204   3.835   3.038   8.884 -0.9517  1.3658  0.2603
  207MPD1    H3 3205   3.827   2.909   9.091  0.7027 -1.7554 -1.3610
  207MPD1     N 3206   4.065   3.212   9.333  0.4065 -0.7354 -0.0008
  207MPD1    H5 3207   4.064   3.149   9.412  0.5381  0.7605  1.2023
  207MPD1    N1 3208   3.941   3.263   8.864  0.3622  0.3620  0.3876
  207MPD1    H6 3209   3.919   3.216   8.776 -1.8143 -2.7559  2.5890
  207MPD1    H7 3210   4.013   3.333   8.847  3.7468 -3.5690 -1.3981
  208MPD1     C 3211   1.359   0.721  17.575 -0.5123  0.1094  0.1455
  208MPD1    C1 3212   1.251   0.805  17.573  0.1649 -0.1874  0.0661
  208MPD1    C2 3213   1.250   0.918  17.655  0.6038  0.3330  0.4328
  208MPD1    C3 3214   1.351   0.932   0.005 -0.3798  0.2073 -0.3940
  208MPD1    C4 3215   1.441   0.827   0.023 -0.5776 -0.9812 -0.7257
  208MPD1    C5 3216   1.449   0.730  17.680  0.4892  0.1512 -0.3151
  208MPD1     H 3217   1.163   0.983  17.654  0.0578 -0.4022  0.8895
  208MPD1    H1 3218   1.538   0.829   0.072  0.9493  1.2487 -3.8004
  208MPD1    H2 3219   1.387   0.646  17.502  1.3732  0.2040  0.7621
  208MPD1    H3 3220   1.537   0.667  17.673  0.0877 -0.2698 -1.5584
  208MPD1     N 3221   1.326   1.034   0.104  0.0304 -0.1984 -0.5353
  208MPD1    H5 3222   1.257   1.103   0.077 -1.7646 -2.1499 -0.9753
  208MPD1    N1 3223   1.156   0.799  17.468  0.3412  0.9701 -0.1142
  208MPD1    H6 3224   1.059   0.823  17.488  0.1855  1.1013 -0.9909
  208MPD1    H7 3225   1.159   0.711  17.417  2.2647  0.9687  0.0103
  209MPD1     C 3226   4.084   2.600  11.165  0.1112 -0.6417 -0.5069
  209MPD1    C1 3227   4.213   2.558  11.141 -0.6174 -0.2391  0.3958
  209MPD1    C2 3228   4.267   2.572  11.010 -0.2170  0.5533 -0.0740
  209MPD1    C3 3229   4.200   2.641  10.913 -0.2395 -0.3378 -0.3101
  209MPD1    C4 3230   4.072   2.682  10.939 -0.7255  0.4327 -0.0110
  209MPD1    C5 3231   4.014   2.660  11.060  0.0866 -0.7248  0.5988
  209MPD1     H 3232   4.370   2.540  10.999 -0.2700  0.1605  0.5624
  209MPD1    H1 3233   4.005   2.739  10.876  1.5955  2.5915 -0.5340
  209MPD1    H2 3234   4.040   2.596  11.264 -0.7019  0.7201 -0.8185
  209MPD1    H3 3235   3.913   2.689  11.086 -0.3884 -2.9307  1.2219
  209MPD1     N 3236   4.263   2.666  10.787  0.1443 -0.0779  0.4011
  209MPD1    H5 3237   4.361   2.645  10.772  0.6181  1.7560  0.8701
  209MPD1    N1 3238   4.282   2.478  11.236 -0.4279 -0.4455 -0.5000
  209MPD1    H6 3239   4.249   2.514  11.326  0.6093  0.0665 -0.3210
  209MPD1    H7 3240   4.383   2.489  11.227 -0.8581  3.3114 -0.7460
  210MPD1     C 3241   0.048   3.429  10.494  1.3181 -0.8915  0.0681
  210MPD1    C1 3242   0.025   3.361  10.611  0.2100  0.1072 -0.5014
  210MPD1    C2 3243   4.719   3.232  10.596  0.2411  0.3142 -0.3869
  210MPD1    C3 3244   4.690   3.169  10.475 -0.0410 -1.1476  0.1167
  210MPD1    C4 3245   0.004   3.237  10.370 -0.0262 -0.5536  0.3816
  210MPD1    C5 3246   0.041   3.366  10.375  0.1623  0.6396 -0.2092
  210MPD1     H 3247   4.692   3.176  10.685  0.0833  1.0717  0.0481
  210MPD1    H1 3248   0.003   3.189  10.272  1.6228 -0.1372  0.1730
  210MPD1    H2 3249   0.076   3.532  10.509 -1.5506 -0.1588  0.4041
  210MPD1    H3 3250   0.073   3.419  10.286  0.1004  1.4887  0.2769
  210MPD1     N 3251   4.626   3.044  10.447 -0.2890 -0.1194  0.3125
  210MPD1    H5 3252   4.619   3.012  10.351  2.8081 -1.8146  0.6513
  210MPD1    N1 3253   0.042   3.417  10.739  0.4639 -0.1605  0.4587
  210MPD1    H6 3254   0.064   3.347  10.810  0.5953 -0.0975  0.4811
  210MPD1    H7 3255   0.114   3.489  10.746 -1.1505  1.1048  4.0785
  211MPD1     C 3256   2.162   1.586  16.787 -0.3660 -0.3313  0.7362
  211MPD1    C1 3257   2.050   1.566  16.863 -0.2748 -0.3408  0.1989
  211MPD1    C2 3258   1.948   1.664  16.864  0.7324 -0.7113  0.4375
  211MPD1    C3 3259   1.961   1.787  16.798  0.7038  0.1646 -0.7452
  211MPD1    C4 3260   2.073   1.805  16.723  0.0145 -0.0606 -0.2353
  211MPD1    C5 3261   2.174   1.706  16.718 -0.2665  0.3512 -0.2141
  211MPD1     H 3262   1.855   1.643  16.916  1.8514 -3.1709  1.4263
  211MPD1    H1 3263   2.096   1.895  16.666 -0.4926 -0.4612 -1.0730
  211MPD1    H2 3264   2.244   1.515  16.776  0.3676  0.8685 -1.4383
  211MPD1    H3 3265   2.269   1.728  16.670  1.6799 -0.0994  3.4494
  211MPD1     N 3266   1.850   1.876  16.806  0.2068 -0.0302  0.2385
  211MPD1    H5 3267   1.781   1.845  16.872  1.5016 -0.5454  1.3451
  211MPD1    N1 3268   2.022   1.441  16.923  0.1780  0.1352  0.2298
  211MPD1    H6 3269   1.970   1.449  17.010  0.0106 -1.1587  0.2601
  211MPD1    H7 3270   2.107   1.386  16.939  0.3141  0.1727 -0.3713
  212MPD1     C 3271   0.982   0.420  16.645 -0.3002 -0.4445  0.1769
  212MPD1    C1 3272   1.047   0.317  16.701 -0.3585 -0.2099 -1.0984
  212MPD1    C2 3273   0.969   0.210  16.746  0.4389 -0.0766  0.0328
  212MPD1    C3 3274   0.828   0.218  16.764 -0.2146 -0.6872  0.2852
  212MPD1    C4 3275   0.769   0.327  16.698 -0.1539  0.0237  0.3006
  212MPD1    C5 3276   0.844   0.428  16.653 -0.3606  0.2273  0.0991
  212MPD1     H 3277   1.022   0.123  16.783 -0.3303 -0.1182  1.0132
  212MPD1    H1 3278   0.661   0.327  16.689 -0.1400  1.2111  0.0868
  212MPD1    H2 3279   1.034   0.508  16.610 -0.1395 -0.3053  0.7708
  212MPD1    H3 3280   0.798   0.522  16.624 -1.3337 -0.8489 -1.8366
  212MPD1     N 3281   0.746   0.121  16.827 -0.0573 -0.5827 -0.1243
  212MPD1    H5 3282   0.645   0.132  16.825  0.0687  0.2086 -1.3196
  212MPD1    N1 3283   1.184   0.302  16.696  0.5768  0.9112 -0.6367
  212MPD1    H6 3284   1.219   0.249  16.776  1.6144 -0.0096 -1.7135
  212MPD1    H7 3285   1.242   0.384  16.683  1.5192  0.2402 -0.6599
  213MPD1     C 3286   3.777   0.810  15.757  0.0093 -0.7405 -0.4710
  213MPD1    C1 3287   3.707   0.728  15.672  0.6438  0.4606  0.8402
  213MPD1    C2 3288   3.639   0.795  15.569 -0.6739 -0.4012 -0.1226
  213MPD1    C3 3289   3.674   0.920  15.534 -0.0119 -1.0185 -0.0720
  213MPD1    C4 3290   3.763   0.993  15.613  0.4502  0.0226 -0.1886
  213MPD1    C5 3291   3.812   0.941  15.729  0.1206  0.4939  0.6552
  213MPD1     H 3292   3.549   0.757  15.523  1.0285 -2.3157 -1.8759
  213MPD1    H1 3293   3.786   1.095  15.584 -0.8584 -0.0058 -1.3413
  213MPD1    H2 3294   3.834   0.759  15.835 -0.2849 -0.0776  0.1747
  213MPD1    H3 3295   3.883   0.989  15.796 -1.4750  0.5572  2.2790
  213MPD1     N 3296   3.592   0.978  15.434  0.3526 -0.1849 -0.1464
  213MPD1    H5 3297   3.525   0.915  15.390  0.6859  0.1189 -1.0840
  213MPD1    N1 3298   3.664   0.604  15.722  0.4059 -0.9652  0.3408
  213MPD1    H6 3299   3.639   0.549  15.641 -0.4277  0.0514 -0.0864
  213MPD1    H7 3300   3.735   0.559  15.780  0.7864 -2.1354 -1.0500
  214MPD1     C 3301   2.943   0.805  14.716  0.2351 -0.0498 -0.7505
  214MPD1    C1 3302   2.918   0.826  14.849 -0.9351  0.0384 -0.1500
  214MPD1    C2 3303   3.007   0.897  14.931 -0.3675 -0.3338 -0.5712
  214MPD1    C3 3304   3.119   0.953  14.873 -0.9163  0.0549 -0.1781
  214MPD1    C4 3305   3.135   0.939  14.733  0.0282 -0.3879  0.6942
  214MPD1    C5 3306   3.056   0.859  14.662  0.2295 -0.1655  0.6443
  214MPD1     H 3307   2.975   0.918  15.033  1.6236  1.2754 -0.2527
  214MPD1    H1 3308   3.212   0.992  14.677  0.4459 -0.3112  1.3369
  214MPD1    H2 3309   2.873   0.751  14.653  0.9205 -1.3414 -0.4144
  214MPD1    H3 3310   3.061   0.845  14.554  0.5964 -1.8707  0.8847
  214MPD1     N 3311   3.209   1.029  14.951 -0.0239 -0.8252  0.0257
  214MPD1    H5 3312   3.293   1.052  14.899  1.0697 -0.8028  1.7851
  214MPD1    N1 3313   2.791   0.782  14.896  0.2786 -0.0052  0.8383
  214MPD1    H6 3314   2.765   0.701  14.839 -3.8546  0.0803  2.6341
  214MPD1    H7 3315   2.803   0.741  14.988  1.5883 -1.2640  0.1216
  215MPD1     C 3316   2.420   2.193  11.141  0.7618 -0.1390  0.7634
  215MPD1    C1 3317   2.526   2.113  11.108  0.5428  0.1039 -0.6689
  215MPD1    C2 3318   2.638   2.186  11.070  0.4032 -0.5946  0.1723
  215MPD1    C3 3319   2.644   2.321  11.058  0.3764  0.1025 -0.1386
  215MPD1    C4 3320   2.533   2.393  11.087 -0.1806  0.8733  0.1344
  215MPD1    C5 3321   2.420   2.326  11.131 -0.4394 -0.7197  0.4520
  215MPD1     H 3322   2.723   2.122  11.046  1.6115  1.1561 -0.1800
  215MPD1    H1 3323   2.532   2.500  11.073  1.3514  1.1431  2.1179
  215MPD1    H2 3324   2.330   2.143  11.176 -0.6858  1.7303 -0.2594
  215MPD1    H3 3325   2.329   2.382  11.152 -0.9656 -1.5015  0.2367
  215MPD1     N 3326   2.764   2.387  11.015  0.0793 -0.6224  0.5628
  215MPD1    H5 3327   2.829   2.325  10.968  0.6870 -2.3652  3.6797
  215MPD1    N1 3328   2.520   1.971  11.115  0.0361  0.5401 -0.2753
  215MPD1    H6 3329   2.427   1.937  11.090 -1.5359  2.0133  3.4920
  215MPD1    H7 3330   2.593   1.926  11.061 -0.3100 -0.2497 -0.0786
  216MPD1     C 3331   0.766   3.667  17.205 -0.6011  0.2825 -0.3985
  216MPD1    C1 3332   0.639   3.681  17.260  0.7071 -0.4518  0.0801
  216MPD1    C2 3333   0.623   3.664  17.400 -0.7408  0.6354 -0.0167
  216MPD1    C3 3334   0.736   3.657  17.484  0.3394 -0.4808 -0.0250
  216MPD1    C4 3335   0.862   3.655  17.428  0.4558 -0.7671 -0.4778
  216MPD1    C5 3336   0.874   3.656  17.289  0.0234  0.2818 -0.0473
  216MPD1     H 3337   0.526   3.676  17.447 -1.1115 -4.7759  0.6469
  216MPD1    H1 3338   0.958   3.638  17.474 -0.2192  1.9544  1.9535
  216MPD1    H2 3339   0.780   3.654  17.098  0.0838 -1.7612 -0.0760
  216MPD1    H3 3340   0.975   3.643  17.252  0.0036  0.6325 -0.2264
  216MPD1     N 3341   0.714   3.639  17.624  0.0829  0.3961  0.1678
  216MPD1    H5 3342   0.618   3.659  17.648  0.1494 -0.0269  0.7780
  216MPD1    N1 3343   0.528   3.672  17.175 -0.0790  0.6684 -0.4108
  216MPD1    H6 3344   0.527   3.737  17.097 -0.2749  0.1721 -0.8290
  216MPD1    H7 3345   0.442   3.702  17.221  1.2357  1.5707  1.4554
  217MPD1     C 3346   2.256   1.404   8.673  0.2995  0.3170  0.8238
  217MPD1    C1 3347   2.290   1.312   8.766 -0.4015  0.3249  0.0730
  217MPD1    C2 3348   2.212   1.300   8.876  0.1403 -0.4574  0.0471
  217MPD1    C3 3349   2.097   1.378   8.897 -0.3034  0.4307 -0.1662
  217MPD1    C4 3350   2.057   1.459   8.793  0.1031  0.6609  0.2582
  217MPD1    C5 3351   2.147   1.481   8.689 -0.2643 -0.2498  0.8181
  217MPD1     H 3352   2.249   1.224   8.943 -0.6423 -0.4705  0.4636
  217MPD1    H1 3353   1.967   1.520   8.807 -0.9242 -0.7198 -0.3661
  217MPD1    H2 3354   2.325   1.423   8.592 -1.3480  0.0804 -0.6336
  217MPD1    H3 3355   2.134   1.550   8.606  0.7852 -0.7399  0.2507
  217MPD1     N 3356   2.025   1.394   9.014  0.0517  0.0110  0.6802
  217MPD1    H5 3357   1.953   1.466   9.020  0.4851  0.2878  2.5700
  217MPD1    N1 3358   2.413   1.238   8.758  0.3837  0.5946  0.8132
  217MPD1    H6 3359   2.417   1.152   8.813 -0.7099  0.3099  0.4537
  217MPD1    H7 3360   2.449   1.220   8.665 -0.1511 -0.1185  0.7420
  218MPD1     C 3361   2.898   2.063  12.581 -0.4400 -0.3270 -0.5901
  218MPD1    C1 3362   2.989   1.963  12.537  0.7531 -0.6310  0.1135
  218MPD1    C2 3363   3.111   2.008  12.502  0.4905 -0.6616 -0.5645
  218MPD1    C3 3364   3.152   2.138  12.486 -0.0237  0.8015  0.1855
  218MPD1    C4 3365   3.057   2.230  12.529 -0.2787 -0.6105  0.4473
  218MPD1    C5 3366   2.936   2.187  12.575 -0.3904  0.2657 -0.0494
  218MPD1     H 3367   3.188   1.936  12.478  2.1606  0.5754  1.1739
  218MPD1    H1 3368   3.074   2.337  12.532  0.5389 -0.6909 -1.1242
  218MPD1    H2 3369   2.794   2.046  12.607  0.0914 -1.1211  1.0495
  218MPD1    H3 3370   2.864   2.258  12.613 -0.6149  0.9726 -1.8026
  218MPD1     N 3371   3.285   2.167  12.457 -0.3280 -0.0839 -0.4319
  218MPD1    H5 3372   3.342   2.084  12.447  1.4700  0.7218  3.0482
  218MPD1    N1 3373   2.966   1.831  12.575  0.6417 -0.5496 -0.5370
  218MPD1    H6 3374   2.867   1.808  12.588  0.2102  0.6518 -1.7126
  218MPD1    H7 3375   3.008   1.761  12.514 -1.0416 -1.2575 -0.9045
  219MPD1     C 3376   3.759   2.765  11.821 -0.1628  0.3498  0.1553
  219MPD1    C1 3377   3.856   2.675  11.863  0.8715 -0.2225  0.6239
  219MPD1    C2 3378   3.821   2.589  11.959  0.3666  0.0745 -0.0392
  219MPD1    C3 3379   3.688   2.578  12.005  0.2202  0.4954 -0.3256
  219MPD1    C4 3380   3.593   2.655  11.958  0.2533 -0.8653 -0.4915
  219MPD1    C5 3381   3.627   2.747  11.863 -0.6247 -0.6010  0.8083
  219MPD1     H 3382   3.897   2.528  12.007  0.2497  0.1897  0.2955
  219MPD1    H1 3383   3.493   2.644  11.998  0.6113  1.1459  0.9529
  219MPD1    H2 3384   3.778   2.850  11.756  0.8568  0.8570  1.1163
  219MPD1    H3 3385   3.547   2.814  11.831  2.7157  2.2429 -1.5368
  219MPD1     N 3386   3.644   2.488  12.108  0.5113 -0.0421  0.0249
  219MPD1    H5 3387   3.549   2.486  12.146  0.7592  0.2675  0.6620
  219MPD1    N1 3388   3.992   2.700  11.832 -0.4701 -0.0533 -0.0686
  219MPD1    H6 3389   4.053   2.619  11.840  1.0870  1.1672  0.2709
  219MPD1    H7 3390   4.001   2.740  11.739  1.1120 -0.1981  0.0287
  220MPD1     C 3391   2.516   3.184   9.368  0.2113  0.2311 -0.0889
  220MPD1    C1 3392   2.615   3.189   9.461  0.4533 -0.0033 -0.5490
  220MPD1    C2 3393   2.595   3.134   9.584 -0.2358 -0.4382 -0.3396
  220MPD1    C3 3394   2.469   3.069   9.613  0.1354  0.0384 -0.8627
  220MPD1    C4 3395   2.369   3.082   9.524 -0.4241 -0.4178  0.0746
  220MPD1    C5 3396   2.390   3.147   9.409 -0.5238  0.2105  0.3007
  220MPD1     H 3397   2.667   3.132   9.665  0.2229  0.1387 -0.7330
  220MPD1    H1 3398   2.266   3.059   9.546  0.0296  0.6044  3.2746
  220MPD1    H2 3399   2.528   3.219   9.266  1.3380  1.3140  0.4143
  220MPD1    H3 3400   2.308   3.145   9.338 -1.0049 -2.4688  0.9085
  220MPD1     N 3401   2.457   3.003   9.735 -0.1913 -0.4958 -0.1495
  220MPD1    H5 3402   2.541   3.006   9.792 -1.0790  2.1715  1.0159
  220MPD1    N1 3403   2.740   3.229   9.426 -0.0504  0.1349  1.2455
  220MPD1    H6 3404   2.792   3.253   9.510  1.0480  0.5606  0.4391
  220MPD1    H7 3405   2.741   3.297   9.351 -0.9674 -2.1639 -0.8260
  221MPD1     C 3406   0.998   0.956  16.584  0.2281  0.3467 -0.3778
  221MPD1    C1 3407   1.101   0.890  16.640 -0.8630  0.5734 -0.4064
  221MPD1    C2 3408   1.232   0.935  16.625 -0.4909 -0.3029  0.4023
  221MPD1    C3 3409   1.256   1.066  16.573  0.6282  0.1898  0.2827
  221MPD1    C4 3410   1.148   1.130  16.515 -0.0369 -0.1074 -1.1831
  221MPD1    C5 3411   1.027   1.077  16.522  0.2743  0.7093  1.1834
  221MPD1     H 3412   1.311   0.870  16.660  1.4915  2.1010  0.4515
  221MPD1    H1 3413   1.151   1.231  16.476 -0.2404  0.3386 -0.0599
  221MPD1    H2 3414   0.898   0.916  16.581  0.5219 -0.2562 -2.3834
  221MPD1    H3 3415   0.951   1.142  16.481  0.0786  0.5722  1.3309
  221MPD1     N 3416   1.383   1.128  16.563  0.0551  0.4666 -0.4854
  221MPD1    H5 3417   1.389   1.221  16.524 -0.0801  0.4124 -0.6352
  221MPD1    N1 3418   1.085   0.753  16.674  0.1285 -0.6783 -0.0904
  221MPD1    H6 3419   1.158   0.719  16.737 -0.3878  0.0452  0.8983
  221MPD1    H7 3420   0.998   0.740  16.726 -0.4776  1.7705 -0.4887
  222MPD1     C 3421   0.520   4.382  17.414  0.6943 -0.1516  0.8240
  222MPD1    C1 3422   0.392   4.414  17.393 -0.3862  0.3092 -0.1444
  222MPD1    C2 3423   0.350   4.530  17.450  0.0895 -1.2663  0.2747
  222MPD1    C3 3424   0.432   4.624  17.514 -1.4441 -0.0697 -0.4749
  222MPD1    C4 3425   0.566   4.602  17.506  0.3233 -0.5173  0.1750
  222MPD1    C5 3426   0.600   4.474  17.461 -0.4764  0.5463  0.0053
  222MPD1     H 3427   0.243   4.547  17.454  1.1178  4.8445  1.3664
  222MPD1    H1 3428   0.648   4.664  17.540 -0.9683  1.7090 -0.8139
  222MPD1    H2 3429   0.570   4.293  17.378 -0.7119 -0.0499 -1.4163
  222MPD1    H3 3430   0.704   4.447  17.469 -0.7559 -0.8590 -1.1533
  222MPD1     N 3431   0.393   0.009  17.573  0.1756 -0.1822  0.0440
  222MPD1    H5 3432   0.466   0.079  17.586 -0.9037  0.9707 -0.0254
  222MPD1    N1 3433   0.297   4.313  17.360  0.0082  0.4312 -0.5596
  222MPD1    H6 3434   0.214   4.347  17.313 -1.0954  0.7314  1.6062
  222MPD1    H7 3435   0.330   4.239  17.298 -0.4170  0.2589 -0.5790
  223MPD1     C 3436   4.320   0.225   0.297  0.2104 -0.8922  0.2373
  223MPD1    C1 3437   4.382   0.116   0.254  0.3275  0.7892 -0.3547
  223MPD1    C2 3438   4.480   0.138   0.161 -0.1467 -0.2781  0.0205
  223MPD1    C3 3439   4.529   0.263   0.131 -0.2624 -0.0627 -0.2037
  223MPD1    C4 3440   4.476   0.371   0.186 -0.5045 -0.5242  0.4895
  223MPD1    C5 3441   4.352   0.351   0.261 -0.0995  0.3896  0.0895
  223MPD1     H 3442   4.537   0.050   0.132  1.7099  0.2387  2.1211
  223MPD1    H1 3443   4.509   0.473   0.168  0.4366 -0.9353 -0.1014
  223MPD1    H2 3444   4.231   0.221   0.359 -1.5085  0.5762 -2.1597
  223MPD1    H3 3445   4.298   0.438   0.296 -0.4889 -0.8001  2.4528
  223MPD1     N 3446   4.650   0.266   0.065  0.8862  0.5185  0.1611
  223MPD1    H5 3447   4.678   0.179   0.022 -4.1636 -1.5366  0.9575
  223MPD1    N1 3448   4.325   4.723   0.272 -0.2947  0.2187  1.0567
  223MPD1    H6 3449   4.389   4.647   0.249 -2.1535 -1.5270  1.6477
  223MPD1    H7 3450   4.301   4.705   0.369  2.1407 -1.2472  1.3862
  224MPD1     C 3451   2.197   2.146   9.048  0.0889 -0.0012  0.3546
  224MPD1    C1 3452   2.136   2.265   9.061  0.0930  1.0450  1.0330
  224MPD1    C2 3453   2.094   2.295   9.189 -0.1704 -0.7692  0.3342
  224MPD1    C3 3454   2.107   2.204   9.297 -0.3111  0.1990  0.3643
  224MPD1    C4 3455   2.177   2.083   9.273  0.0121  0.4531 -0.5565
  224MPD1    C5 3456   2.224   2.063   9.151  0.8601  0.7246  0.6493
  224MPD1     H 3457   2.051   2.391   9.213  0.6285 -0.0306 -1.1622
  224MPD1    H1 3458   2.207   2.010   9.347 -1.6860 -0.7052 -1.0207
  224MPD1    H2 3459   2.248   2.122   8.956 -1.0528 -0.9483 -0.0368
  224MPD1    H3 3460   2.290   1.980   9.128 -0.0754 -0.0397  0.7232
  224MPD1     N 3461   2.062   2.228   9.434  0.4342 -0.1156 -0.0205
  224MPD1    H5 3462   2.082   2.161   9.507  0.5886 -1.2301 -1.0840
  224MPD1    N1 3463   2.117   2.353   8.951  0.0175  0.2722  0.5089
  224MPD1    H6 3464   2.070   2.307   8.873 -0.9950 -1.1133  1.9414
  224MPD1    H7 3465   2.063   2.435   8.978  0.0438  0.8264 -1.1183
  225MPD1     C 3466   3.555   3.548  12.082 -0.0660  0.3185  0.1718
  225MPD1    C1 3467   3.493   3.483  11.975  0.3617  0.6792  0.4277
  225MPD1    C2 3468   3.386   3.402  12.003  0.5303  0.2693  0.2709
  225MPD1    C3 3469   3.339   3.386  12.138  0.3634  0.0171 -0.1660
  225MPD1    C4 3470   3.405   3.451  12.237 -0.4436  0.0304  0.0595
  225MPD1    C5 3471   3.511   3.529  12.212 -0.2119 -0.0266  0.1004
  225MPD1     H 3472   3.338   3.358  11.916  0.4208  2.1112 -0.5990
  225MPD1    H1 3473   3.394   3.421  12.340 -1.6307 -0.1275 -0.1151
  225MPD1    H2 3474   3.641   3.608  12.056 -0.1700  1.6447  2.8787
  225MPD1    H3 3475   3.565   3.577  12.292  2.0250 -2.5764  0.1218
  225MPD1     N 3476   3.223   3.312  12.178  0.3582  0.0115 -0.1041
  225MPD1    H5 3477   3.193   3.327  12.274 -0.3852  0.4366 -0.4049
  225MPD1    N1 3478   3.540   3.486  11.842  0.4171 -0.8661  0.5765
  225MPD1    H6 3479   3.593   3.569  11.816  1.6192 -1.1679  2.0639
  225MPD1    H7 3480   3.474   3.470  11.765  0.3839  0.0427  0.4182
  226MPD1     C 3481   1.178   3.330   9.403 -0.0605 -0.6105 -0.3696
  226MPD1    C1 3482   1.215   3.344   9.532  0.0709  0.0190  0.6390
  226MPD1    C2 3483   1.325   3.267   9.578  0.1440  0.5503 -0.3811
  226MPD1    C3 3484   1.378   3.167   9.504  0.6116 -0.6390 -0.1548
  226MPD1    C4 3485   1.331   3.143   9.374 -0.7176  0.4872  0.0768
  226MPD1    C5 3486   1.236   3.231   9.321  0.5641  0.5319 -0.3022
  226MPD1     H 3487   1.372   3.284   9.673 -1.7941  3.0767  0.1296
  226MPD1    H1 3488   1.375   3.075   9.302 -0.7297  1.2809 -0.6822
  226MPD1    H2 3489   1.102   3.391   9.357  1.8477  0.5273 -1.9785
  226MPD1    H3 3490   1.212   3.219   9.216 -2.2010  1.3456  0.2141
  226MPD1     N 3491   1.490   3.099   9.565  0.0129 -0.0434  0.3687
  226MPD1    H5 3492   1.519   3.127   9.658 -1.4443 -0.6990  1.0180
  226MPD1    N1 3493   1.179   3.466   9.592  0.1622  0.6073  0.0972
  226MPD1    H6 3494   1.088   3.493   9.555 -0.1715 -0.3339  0.2200
  226MPD1    H7 3495   1.174   3.463   9.694  2.0343  1.7577  0.2159
  227MPD1     C 3496   1.637   3.073  10.389 -0.0105  0.3576  0.0114
  227MPD1    C1 3497   1.588   3.171  10.304 -0.3339  0.0947  0.4657
  227MPD1    C2 3498   1.619   3.151  10.171  0.2449 -0.0511 -0.3841
  227MPD1    C3 3499   1.718   3.066  10.127  0.1833  1.4017 -0.0761
  227MPD1    C4 3500   1.772   2.975  10.218 -0.2192  0.0655 -0.1306
  227MPD1    C5 3501   1.739   2.987  10.349 -0.0426 -0.0045  0.2326
  227MPD1     H 3502   1.570   3.227  10.111 -0.7513 -0.9849 -0.7340
  227MPD1    H1 3503   1.849   2.901  10.202 -2.1355 -1.5857 -1.8418
  227MPD1    H2 3504   1.609   3.076  10.494  0.3520  1.6330  0.0749
  227MPD1    H3 3505   1.778   2.913  10.418 -1.7934 -1.5023 -0.3815
  227MPD1     N 3506   1.746   3.065   9.991 -0.2467  0.0672  0.6086
  227MPD1    H5 3507   1.689   3.122   9.930  0.4365  0.7230  0.5956
  227MPD1    N1 3508   1.478   3.249  10.341  0.0238 -0.3382  0.1885
  227MPD1    H6 3509   1.464   3.328  10.279 -1.7103 -1.1228 -0.4055
  227MPD1    H7 3510   1.489   3.292  10.433 -0.5650  1.2473 -0.4860
  228MPD1     C 3511   4.576   1.333  13.079  0.6468  0.5382  0.1621
  228MPD1    C1 3512   4.465   1.359  13.003 -0.6996  0.1847 -0.2874
  228MPD1    C2 3513   4.354   1.278  13.013  1.1298  0.1694  0.4617
  228MPD1    C3 3514   4.356   1.164  13.094 -0.8095 -1.2752 -0.0273
  228MPD1    C4 3515   4.477   1.138  13.160 -0.4225  0.0927  0.2754
  228MPD1    C5 3516   4.578   1.226  13.162 -0.1475  0.0498 -0.0889
  228MPD1     H 3517   4.266   1.300  12.954  1.7682  0.0428 -0.5414
  228MPD1    H1 3518   4.485   1.058  13.234 -0.4470  0.7145  0.9514
  228MPD1    H2 3519   4.660   1.400  13.088 -0.4682  1.8650  0.8514
  228MPD1    H3 3520   4.661   1.209  13.230  1.8525  0.2026 -2.5116
  228MPD1     N 3521   4.245   1.076  13.100 -0.4781  0.1858 -0.1211
  228MPD1    H5 3522   4.192   1.079  13.013 -1.9938 -1.3845  0.7532
  228MPD1    N1 3523   4.464   1.472  12.919 -0.2297  0.1663  0.3559
  228MPD1    H6 3524   4.429   1.440  12.830  2.4094 -1.1060 -0.2117
  228MPD1    H7 3525   4.561   1.503  12.909  0.2242 -1.7929 -1.2128
  229MPD1     C 3526   0.022   4.711  14.322 -0.3996  0.0253  0.2645
  229MPD1    C1 3527   4.655   4.664  14.400 -0.0073  0.3142 -0.1997
  229MPD1    C2 3528   4.680   4.567  14.497  0.3524  0.2354 -0.2030
  229MPD1    C3 3529   0.071   4.515  14.509  0.5851 -0.1886  0.1610
  229MPD1    C4 3530   0.170   4.559  14.426  0.4898 -0.0170 -1.1074
  229MPD1    C5 3531   0.145   4.662  14.341 -0.3570  0.3897  0.4995
  229MPD1     H 3532   4.594   4.526  14.548  0.6402  1.8043  1.5443
  229MPD1    H1 3533   0.269   4.518  14.416 -0.4925 -2.4239 -0.9527
  229MPD1    H2 3534   0.002   0.049  14.247  1.9737 -0.7191 -1.0850
  229MPD1    H3 3535   0.220   4.685  14.267 -0.3104  1.3518  0.8490
  229MPD1     N 3536   0.095   4.399  14.593 -0.2472  0.2932  1.1340
  229MPD1    H5 3537   0.192   4.367  14.590 -0.4896 -0.2858 -0.2466
  229MPD1    N1 3538   4.524   4.704  14.360 -0.0209 -0.3126  0.0456
  229MPD1    H6 3539   4.524   0.061  14.323 -0.7110 -0.8422 -1.2864
  229MPD1    H7 3540   4.446   4.692  14.425 -0.1387  0.3052  0.0201
  230MPD1     C 3541   4.625   3.865  15.558  0.0002 -0.3885  0.0782
  230MPD1    C1 3542   4.636   3.783  15.447 -0.0421  0.1793 -0.4664
  230MPD1    C2 3543   4.690   3.837  15.330 -0.1438  0.3710 -0.1730
  230MPD1    C3 3544   4.692   3.974  15.307  0.2632  0.0064  0.2042
  230MPD1    C4 3545   4.661   4.060  15.410 -0.1660  0.6671 -0.4871
  230MPD1    C5 3546   4.626   4.001  15.533 -0.2388  0.7390 -0.5751
  230MPD1     H 3547   4.720   3.766  15.254 -0.2376 -1.4416  1.4822
  230MPD1    H1 3548   4.660   4.168  15.405 -1.4077  0.8108  2.6893
  230MPD1    H2 3549   4.591   3.828  15.654 -1.7217 -0.8816 -0.7101
  230MPD1    H3 3550   4.592   4.065  15.614 -0.1879 -0.7393  0.6228
  230MPD1     N 3551   0.000   4.012  15.182 -0.0859 -0.0491 -0.4153
  230MPD1    H5 3552   0.026   3.937  15.119  0.9568  0.2802 -0.3751
  230MPD1    N1 3553   4.622   3.649  15.474 -0.1488  0.2403 -0.3604
  230MPD1    H6 3554   4.611   3.591  15.392  1.6833  0.3710 -0.6845
  230MPD1    H7 3555   4.549   3.631  15.544  2.0691 -3.0670  1.0669
  231MPD1     C 3556   3.137   1.413  15.286  1.1510 -0.1817 -0.0554
  231MPD1    C1 3557   3.076   1.427  15.165 -0.5970 -0.1025  0.4305
  231MPD1    C2 3558   3.138   1.508  15.078  0.8405  0.3050 -0.6246
  231MPD1    C3 3559   3.261   1.569  15.099 -0.5179  0.3605 -0.3370
  231MPD1    C4 3560   3.319   1.558  15.221 -0.3392  0.1497 -0.2355
  231MPD1    C5 3561   3.259   1.478  15.314 -0.1626 -0.0695 -0.3526
  231MPD1     H 3562   3.084   1.529  14.986 -0.9175 -0.8017  0.1755
  231MPD1    H1 3563   3.409   1.606  15.258 -0.1668 -0.5965  0.3022
  231MPD1    H2 3564   3.086   1.364  15.368 -1.3891 -1.4396 -2.3951
  231MPD1    H3 3565   3.303   1.477  15.413 -0.6390 -0.5833 -0.1495
  231MPD1     N 3566   3.320   1.646  14.996  0.8047 -0.0002  0.4116
  231MPD1    H5 3567   3.260   1.664  14.917  0.3145 -2.6819  0.1749
  231MPD1    N1 3568   2.951   1.382  15.140  0.2147 -0.1542  0.0561
  231MPD1    H6 3569   2.937   1.355  15.043  1.2379 -0.2132 -0.0823
  231MPD1    H7 3570   2.930   1.294  15.187 -1.8425  1.1176  1.5119
  232MPD1     C 3571   0.193   4.018   0.080 -0.3517  1.0699 -0.2370
  232MPD1    C1 3572   0.078   4.032  17.747 -0.6084  0.2717 -0.3866
  232MPD1    C2 3573   4.712   3.937   0.004 -0.4660  0.8385  0.3689
  232MPD1    C3 3574   4.735   3.816   0.065 -0.0006  0.3653  0.2891
  232MPD1    C4 3575   0.117   3.800   0.133  0.2439  0.5926 -0.6724
  232MPD1    C5 3576   0.207   3.900   0.144 -0.3587  0.4607  0.5450
  232MPD1     H 3577   4.617   3.957  17.706 -1.0882 -0.1352  1.2113
  232MPD1    H1 3578   0.139   3.714   0.196  0.4736  0.2084 -1.2852
  232MPD1    H2 3579   0.272   4.092   0.080 -0.5635  1.2971 -0.3448
  232MPD1    H3 3580   0.293   3.887   0.209  0.2041  0.4812 -0.1956
  232MPD1     N 3581   4.643   3.710   0.076  0.3047  0.1257 -0.7002
  232MPD1    H5 3582   4.677   3.631   0.130  1.3979  0.4951 -0.8388
  232MPD1    N1 3583   0.068   4.159  17.681 -0.2645 -0.1560  0.4682
  232MPD1    H6 3584   0.160   4.202  17.691  0.3466 -1.2606 -0.5110
  232MPD1    H7 3585   0.046   4.160  17.582 -1.4932  0.5332  0.7466
  233MPD1     C 3586   0.502   2.276   0.015 -0.1176 -0.6936  0.3352
  233MPD1    C1 3587   0.441   2.197   0.113  0.0542 -0.1811 -0.0415
  233MPD1    C2 3588   0.517   2.152   0.222  0.1595 -0.3760 -0.4927
  233MPD1    C3 3589   0.649   2.184   0.231 -0.1969  0.3524  0.6318
  233MPD1    C4 3590   0.710   2.261   0.138  0.4743  0.9096 -0.0939
  233MPD1    C5 3591   0.636   2.295   0.026  0.2902 -0.0681 -0.4481
  233MPD1     H 3592   0.472   2.098   0.304  0.4963 -0.0514 -0.0931
  233MPD1    H1 3593   0.817   2.281   0.136  0.5929  0.2826  0.0553
  233MPD1    H2 3594   0.448   2.316  17.680  0.3834 -2.2450 -0.7347
  233MPD1    H3 3595   0.685   2.332  17.686  2.3788 -0.4544  0.5176
  233MPD1     N 3596   0.726   2.148   0.346  0.3841 -0.6717 -0.4426
  233MPD1    H5 3597   0.823   2.171   0.329  0.1885 -0.4821 -1.2923
  233MPD1    N1 3598   0.305   2.162   0.095  0.4492  0.0153 -0.3113
  233MPD1    H6 3599   0.247   2.234   0.052  0.0794  0.3832  0.7977
  233MPD1    H7 3600   0.266   2.133   0.184  0.6808  1.7023  0.3304
  234MPD1     C 3601   2.654   1.318  10.986 -1.0069 -0.0417 -0.3677
  234MPD1    C1 3602   2.729   1.411  10.921 -0.1827 -0.6231 -0.0235
  234MPD1    C2 3603   2.692   1.458  10.798 -0.1498  0.5463 -0.0478
  234MPD1    C3 3604   2.595   1.381  10.723 -0.7330 -0.1011 -0.0650
  234MPD1    C4 3605   2.526   1.282  10.791 -0.8527  0.0894 -0.6563
  234MPD1    C5 3606   2.553   1.252  10.920 -0.4154 -0.4624  0.0932
  234MPD1     H 3607   2.751   1.539  10.757  0.0436  0.5491  0.2411
  234MPD1    H1 3608   2.443   1.226  10.749 -0.0420 -1.5907 -0.0183
  234MPD1    H2 3609   2.684   1.296  11.087 -0.1459 -0.7751 -0.7872
  234MPD1    H3 3610   2.497   1.171  10.966 -2.4879  1.2354  0.5882
  234MPD1     N 3611   2.560   1.429  10.598 -0.1549  0.2538 -0.3707
  234MPD1    H5 3612   2.609   1.515  10.574 -3.1667  1.5242 -2.0625
  234MPD1    N1 3613   2.817   1.487  11.004  0.3087  0.4791 -0.5282
  234MPD1    H6 3614   2.886   1.541  10.952  0.8671  1.1909  0.9603
  234MPD1    H7 3615   2.872   1.425  11.063 -0.0267 -0.7519 -1.4964
  235MPD1     C 3616   3.738   3.360   9.695 -0.3129 -0.1598  0.1781
  235MPD1    C1 3617   3.780   3.445   9.592 -0.9589  1.0514 -0.0926
  235MPD1    C2 3618   3.855   3.553   9.632 -0.1574 -0.4851 -0.2733
  235MPD1    C3 3619   3.907   3.577   9.755  0.3779  0.4011 -0.4507
  235MPD1    C4 3620   3.874   3.481   9.848 -0.2653 -0.2044  0.5133
  235MPD1    C5 3621   3.795   3.375   9.820 -0.0518  0.1119  0.3052
  235MPD1     H 3622   3.888   3.624   9.556  1.1490 -2.8185 -1.8829
  235MPD1    H1 3623   3.907   3.500   9.950  1.1842 -0.3998  0.0830
  235MPD1    H2 3624   3.672   3.276   9.677 -0.9930 -0.3063  3.2810
  235MPD1    H3 3625   3.763   3.305   9.897 -1.8643 -0.5557 -1.0405
  235MPD1     N 3626   3.981   3.697   9.791  0.2816 -0.1833 -0.3481
  235MPD1    H5 3627   3.990   3.763   9.715  0.6394 -1.7605 -1.6681
  235MPD1    N1 3628   3.713   3.438   9.475  0.3683 -0.4185 -0.1754
  235MPD1    H6 3629   3.759   3.489   9.400  1.2103 -1.0394 -0.0712
  235MPD1    H7 3630   3.705   3.338   9.460 -1.1502  0.0252 -2.3719
  236MPD1     C 3631   3.292   0.578   9.645 -0.1672 -0.4605 -0.1242
  236MPD1    C1 3632   3.395   0.596   9.736 -0.8028 -0.1483  0.3291
  236MPD1    C2 3633   3.468   0.492   9.763 -0.6933 -0.0901 -0.5655
  236MPD1    C3 3634   3.441   0.365   9.720 -0.1728 -1.0419 -0.0419
  236MPD1    C4 3635   3.329   0.343   9.636 -0.2635 -0.3740 -0.4781
  236MPD1    C5 3636   3.259   0.455   9.600 -0.2041 -0.4312  0.0021
  236MPD1     H 3637   3.559   0.501   9.822 -0.0231  1.4811 -1.8565
  236MPD1    H1 3638   3.310   0.249   9.584  0.9547 -1.7743  1.5807
  236MPD1    H2 3639   3.246   0.665   9.600 -0.9293 -0.9861 -0.3678
  236MPD1    H3 3640   3.176   0.449   9.531  0.4423 -0.0965 -0.7945
  236MPD1     N 3641   3.517   0.253   9.747 -0.0433 -0.1863 -0.4622
  236MPD1    H5 3642   3.493   0.173   9.690 -1.6050 -1.3358  1.7960
  236MPD1    N1 3643   3.433   0.729   9.767 -0.1949  0.3490 -0.4475
  236MPD1    H6 3644   3.346   0.782   9.777 -0.8784 -1.2869  2.2016
  236MPD1    H7 3645   3.488   0.734   9.852 -0.9151 -0.7020  0.0780
  237MPD1     C 3646   3.831   2.867  14.827 -0.1613 -0.2117 -0.2142
  237MPD1    C1 3647   3.764   2.981  14.815  0.0776 -0.1580 -0.3193
  237MPD1    C2 3648   3.627   2.972  14.831  0.0850 -0.4327 -0.1608
  237MPD1    C3 3649   3.568   2.850  14.860 -0.0060 -0.6857 -0.1574
  237MPD1    C4 3650   3.643   2.733  14.856  0.2088  0.1719  0.4891
  237MPD1    C5 3651   3.776   2.745  14.849  0.5873 -0.0724 -0.4026
  237MPD1     H 3652   3.567   3.060  14.811 -0.7502 -0.5555  1.7977
  237MPD1    H1 3653   3.605   2.633  14.874  0.1228  0.1681  0.2822
  237MPD1    H2 3654   3.938   2.862  14.808 -0.0920 -1.2130  0.3829
  237MPD1    H3 3655   3.849   2.665  14.840  1.3245  0.5504  0.0621
  237MPD1     N 3656   3.428   2.833  14.882  0.1807 -0.1459  0.2087
  237MPD1    H5 3657   3.395   2.750  14.930 -2.8024  0.2724 -1.0736
  237MPD1    N1 3658   3.830   3.103  14.824  0.3756 -0.2295 -0.4204
  237MPD1    H6 3659   3.776   3.181  14.789  0.7448  1.0757  1.9108
  237MPD1    H7 3660   3.921   3.098  14.778  0.5919  1.4071 -0.1900
  238MPD1     C 3661   0.510   0.623  15.061 -0.0316 -0.1970  0.1382
  238MPD1    C1 3662   0.575   0.732  15.013 -0.7622  0.4874 -0.2195
  238MPD1    C2 3663   0.495   0.829  14.961 -0.2431 -0.5061  0.2780
  238MPD1    C3 3664   0.354   0.827  14.969 -0.4424 -0.1595  1.0158
  238MPD1    C4 3665   0.297   0.719  15.021 -1.1147  0.0791  0.0871
  238MPD1    C5 3666   0.375   0.612  15.062  0.0914 -0.4999  0.3461
  238MPD1     H 3667   0.550   0.921  14.941 -1.3233  0.2476  0.8205
  238MPD1    H1 3668   0.190   0.710  15.036 -0.5136 -4.2843  1.5276
  238MPD1    H2 3669   0.561   0.531  15.086  1.6043  0.8514  0.6656
  238MPD1    H3 3670   0.336   0.516  15.092 -0.1263 -1.0041 -1.5260
  238MPD1     N 3671   0.271   0.938  14.938 -0.6216  0.2427  0.1256
  238MPD1    H5 3672   0.174   0.924  14.964 -0.4904 -1.6910 -0.4958
  238MPD1    N1 3673   0.719   0.735  15.003  0.0994  0.2318  0.2604
  238MPD1    H6 3674   0.776   0.816  14.982  2.9705 -1.9912 -0.5882
  238MPD1    H7 3675   0.768   0.663  15.056 -1.2868 -0.9711 -0.0653
  239MPD1     C 3676   0.632   2.457  14.995  0.2590  1.0442  0.4065
  239MPD1    C1 3677   0.510   2.529  15.019 -0.2531  0.4173 -0.2547
  239MPD1    C2 3678   0.419   2.555  14.914  0.2836 -0.5079 -0.6645
  239MPD1    C3 3679   0.459   2.515  14.784  0.4266 -0.0986  0.2888
  239MPD1    C4 3680   0.581   2.453  14.759  0.6151 -0.0786 -0.6491
  239MPD1    C5 3681   0.659   2.426  14.865 -0.0370  0.0997  1.0009
  239MPD1     H 3682   0.330   2.613  14.935  2.0596  1.5195  1.2248
  239MPD1    H1 3683   0.607   2.428  14.657 -2.0074 -3.8532 -0.3824
  239MPD1    H2 3684   0.706   2.438  15.072 -2.2693  0.0203  2.5607
  239MPD1    H3 3685   0.756   2.380  14.847 -0.9299 -1.4779  0.3217
  239MPD1     N 3686   0.378   2.547  14.674  0.2782 -0.6228  0.0050
  239MPD1    H5 3687   0.414   2.535  14.580 -0.7795 -1.0613 -0.3460
  239MPD1    N1 3688   0.469   2.562  15.151 -0.2363 -0.1149  0.0741
  239MPD1    H6 3689   0.545   2.579  15.216 -0.9710 -1.8052  1.3849
  239MPD1    H7 3690   0.413   2.647  15.154 -0.3312 -0.1843  0.2552
  240MPD1     C 3691   0.022   2.139  13.735  0.0199  0.7423  0.0847
  240MPD1    C1 3692   4.622   2.133  13.756  0.1814 -1.0224  0.4329
  240MPD1    C2 3693   4.581   2.062  13.866 -0.3966  0.2825  0.3329
  240MPD1    C3 3694   4.668   2.023  13.963  0.4274 -0.3170 -0.6060
  240MPD1    C4 3695   0.065   2.037  13.946 -0.6539  0.3569 -0.2252
  240MPD1    C5 3696   0.110   2.096  13.833  0.1238  0.6241 -0.1329
  240MPD1     H 3697   4.477   2.036  13.883 -2.0068  3.2070 -5.1436
  240MPD1    H1 3698   0.140   1.997  14.014 -2.2152 -1.3584  0.4864
  240MPD1    H2 3699   0.061   2.169  13.638  0.5720 -1.2096 -0.3113
  240MPD1    H3 3700   0.216   2.079  13.814 -0.1163 -0.4297 -0.5811
  240MPD1     N 3701   4.615   1.974  14.082 -0.3688  0.1125  0.6444
  240MPD1    H5 3702   4.514   1.961  14.075 -0.1350 -1.0868 -0.5107
  240MPD1    N1 3703   4.533   2.171  13.655 -0.7200  0.4725  1.3833
  240MPD1    H6 3704   4.439   2.199  13.685 -1.7079 -1.2399 -0.1222
  240MPD1    H7 3705   4.565   2.248  13.597 -1.1306 -1.5778 -1.5228
  241MPD1     C 3706   4.715   1.534  15.098  0.4544 -0.2047 -0.3866
  241MPD1    C1 3707   0.071   1.574  15.008 -0.2706 -0.4316  0.8803
  241MPD1    C2 3708   0.041   1.653  14.900 -0.7079  0.4687  0.5705
  241MPD1    C3 3709   4.645   1.671  14.871  0.1741 -0.3502  0.1142
  241MPD1    C4 3710   4.552   1.620  14.958  0.3792  0.3772  0.3573
  241MPD1    C5 3711   4.588   1.556  15.072  0.5806 -1.0956  0.2966
  241MPD1     H 3712   0.120   1.693  14.838  0.3362  0.7557  2.0936
  241MPD1    H1 3713   4.445   1.639  14.952  0.0250 -1.8206 -0.3682
  241MPD1    H2 3714   4.721   1.483  15.194 -1.1047  0.1737 -0.0839
  241MPD1    H3 3715   4.512   1.537  15.146 -0.2074 -0.9784 -0.4753
  241MPD1     N 3716   4.591   1.730  14.755  0.6333 -0.2499  0.5166
  241MPD1    H5 3717   4.491   1.738  14.739  0.5827 -0.9027  0.5221
  241MPD1    N1 3718   0.208   1.549  15.033 -0.1839 -0.2986 -0.4704
  241MPD1    H6 3719   0.265   1.563  14.949  0.0451 -2.5348 -0.6780
  241MPD1    H7 3720   0.241   1.459  15.067 -4.4630 -1.1964  1.2445
  242MPD1     C 3721   4.130   1.209  15.787 -0.4935 -1.0806 -0.1745
  242MPD1    C1 3722   4.158   1.124  15.891  0.6900 -0.2757  0.1453
  242MPD1    C2 3723   4.186   0.999  15.861  0.0184 -0.9801  0.3485
  242MPD1    C3 3724   4.173   0.947  15.735 -0.3332 -0.6913  0.0833
  242MPD1    C4 3725   4.135   1.027  15.633  0.3841  0.1774 -0.4176
  242MPD1    C5 3726   4.123   1.160  15.658  0.3256 -0.2027  0.4988
  242MPD1     H 3727   4.200   0.924  15.939 -0.7098 -0.0711  1.3433
  242MPD1    H1 3728   4.117   0.989  15.533  0.5906  1.2472 -0.8587
  242MPD1    H2 3729   4.116   1.316  15.795 -0.9490 -1.2357  1.0398
  242MPD1    H3 3730   4.087   1.223  15.578 -0.0057  0.0689  0.8597
  242MPD1     N 3731   4.189   0.815  15.706  0.3077 -0.1026 -0.7087
  242MPD1    H5 3732   4.164   0.804  15.608 -0.0301  0.1592 -0.6513
  242MPD1    N1 3733   4.170   1.172  16.024  0.0023 -0.0522 -0.3331
  242MPD1    H6 3734   4.089   1.228  16.050  1.4368  1.5008  0.7321
  242MPD1    H7 3735   4.174   1.096  16.092  0.5439  0.2471 -0.0364
  243MPD1     C 3736   0.214   3.131  17.594  0.1053  1.3111  0.0546
  243MPD1    C1 3737   0.254   3.113  17.461 -0.0529  0.4555  0.7431
  243MPD1    C2 3738   0.372   3.046  17.440  0.2149 -0.6522  0.2273
  243MPD1    C3 3739   0.442   2.984  17.550 -0.1388 -0.2835  0.1453
  243MPD1    C4 3740   0.391   2.995  17.681  0.1622 -0.1172 -0.0531
  243MPD1    C5 3741   0.271   3.068  17.700  0.6696 -0.1027  1.0028
  243MPD1     H 3742   0.412   3.047  17.339 -0.2876 -1.5917  0.0153
  243MPD1    H1 3743   0.435   2.948   0.019  1.2749  1.8344  0.4448
  243MPD1    H2 3744   0.122   3.183  17.619 -0.7647 -0.1685 -0.0841
  243MPD1    H3 3745   0.224   3.087   0.047 -0.4057 -0.5338  0.5636
  243MPD1     N 3746   0.571   2.942  17.520 -0.7920 -0.1984  0.5512
  243MPD1    H5 3747   0.590   2.940  17.420 -2.1566 -0.4802  0.3033
  243MPD1    N1 3748   0.184   3.176  17.353 -0.1771 -0.3666  0.2756
  243MPD1    H6 3749   0.196   3.126  17.266 -1.3590 -2.5137  1.3393
  243MPD1    H7 3750   0.083   3.179  17.369 -0.4923  1.3146 -2.1291
  244MPD1     C 3751   1.254   2.124  17.602  0.0187  0.6199  0.9610
  244MPD1    C1 3752   1.343   2.227  17.578  0.3386  0.2977  0.0881
  244MPD1    C2 3753   1.287   2.352  17.571  0.2605  0.8429 -0.5395
  244MPD1    C3 3754   1.155   2.385  17.593  1.2714  0.2183 -0.8323
  244MPD1    C4 3755   1.075   2.282  17.631  0.5759  0.5912 -0.8261
  244MPD1    C5 3756   1.129   2.156  17.635  0.4740  0.3204 -0.4262
  244MPD1     H 3757   1.351   2.437  17.550 -1.6182  2.1392 -0.9795
  244MPD1    H1 3758   0.968   2.290  17.643  0.4792  0.0400 -1.3015
  244MPD1    H2 3759   1.288   2.022  17.613  1.9708  0.9114 -2.1818
  244MPD1    H3 3760   1.052   2.084  17.660  0.8505 -0.1251 -0.5462
  244MPD1     N 3761   1.101   2.520  17.583  0.3011 -0.2218 -0.2192
  244MPD1    H5 3762   1.164   2.592  17.549 -3.0999  2.8824  0.0734
  244MPD1    N1 3763   1.474   2.184  17.529  0.2049 -0.2954  0.1034
  244MPD1    H6 3764   1.540   2.262  17.537 -2.2454  1.9915 -1.5631
  244MPD1    H7 3765   1.517   2.107  17.579  0.0367  0.0550  0.7870
  245MPD1     C 3766   2.990   3.734  13.155  0.2284  0.2139 -0.0364
  245MPD1    C1 3767   2.879   3.810  13.188  0.1777 -0.2405  0.0916
  245MPD1    C2 3768   2.899   3.929  13.251  0.8711 -0.0785 -0.5689
  245MPD1    C3 3769   3.025   3.971  13.293  0.3581  0.2729 -0.3250
  245MPD1    C4 3770   3.132   3.886  13.269  0.0551 -0.2633  0.0281
  245MPD1    C5 3771   3.103   3.761  13.211  0.1703 -0.1329 -0.3129
  245MPD1     H 3772   2.816   3.999  13.250 -0.5047 -1.7536 -2.1255
  245MPD1    H1 3773   3.233   3.910  13.298 -0.3982  0.1671  1.2345
  245MPD1    H2 3774   2.982   3.635  13.111  1.0670  0.2756 -0.3260
  245MPD1    H3 3775   3.190   3.697  13.200 -0.6315 -1.1331 -0.7899
  245MPD1     N 3776   3.029   4.093  13.366  0.1113 -0.3623  0.1327
  245MPD1    H5 3777   2.943   4.144  13.381  0.5531  0.5627 -0.4476
  245MPD1    N1 3778   2.760   3.765  13.124 -0.1384 -0.3816  0.0367
  245MPD1    H6 3779   2.674   3.804  13.162 -0.0476  1.1139 -1.2917
  245MPD1    H7 3780   2.761   3.664  13.133  0.9907 -0.3715  0.0228
  246MPD1     C 3781   2.743   2.558   9.665  0.0444 -0.2770 -0.4890
  246MPD1    C1 3782   2.768   2.444   9.586  0.1343 -0.1582  0.0752
  246MPD1    C2 3783   2.842   2.342   9.643 -0.5806  0.0204 -0.3823
  246MPD1    C3 3784   2.874   2.341   9.773  0.5558  0.1259 -0.8364
  246MPD1    C4 3785   2.844   2.451   9.847 -0.3067 -0.6773  0.6828
  246MPD1    C5 3786   2.775   2.560   9.797  0.4019 -0.3913  0.1082
  246MPD1     H 3787   2.873   2.259   9.580  0.4707  0.5986 -0.6267
  246MPD1    H1 3788   2.860   2.446   9.954  0.9891  0.5279  0.5485
  246MPD1    H2 3789   2.689   2.646   9.634  1.7460  0.6916 -0.7153
  246MPD1    H3 3790   2.730   2.640   9.855 -0.7818  0.8952 -2.5358
  246MPD1     N 3791   2.925   2.218   9.822 -0.6568  0.0504 -0.4203
  246MPD1    H5 3792   2.929   2.140   9.756  0.9642  0.9625 -1.3957
  246MPD1    N1 3793   2.720   2.430   9.455 -0.0543  0.3573 -0.8056
  246MPD1    H6 3794   2.740   2.354   9.392 -2.4961  0.3949 -1.6328
  246MPD1    H7 3795   2.662   2.501   9.410  0.2975  1.2891  0.1984
  247MPD1     C 3796   2.228   3.383  16.265 -0.5033 -0.4444  0.5945
  247MPD1    C1 3797   2.358   3.340  16.291  0.1757  0.6224  0.0795
  247MPD1    C2 3798   2.450   3.363  16.194  0.6283  0.1626 -0.1239
  247MPD1    C3 3799   2.412   3.413  16.070  0.0440 -0.2313 -0.0673
  247MPD1    C4 3800   2.281   3.450  16.048  0.9493  0.6194 -0.4145
  247MPD1    C5 3801   2.189   3.422  16.144  0.3786 -0.0862 -0.6877
  247MPD1     H 3802   2.555   3.345  16.212  0.6012  0.4817  0.3301
  247MPD1    H1 3803   2.255   3.494  15.952 -0.5253 -0.4678 -0.5285
  247MPD1    H2 3804   2.160   3.389  16.349 -2.8570 -2.2009 -1.1978
  247MPD1    H3 3805   2.082   3.439  16.135  0.5675  1.1104 -0.5920
  247MPD1     N 3806   2.503   3.414  15.958  0.0770 -0.5434  0.2542
  247MPD1    H5 3807   2.458   3.439  15.871 -2.7313 -1.2765  1.4917
  247MPD1    N1 3808   2.392   3.309  16.425  1.1828  0.0738  0.5078
  247MPD1    H6 3809   2.395   3.396  16.477 -0.7718 -0.0920  0.9113
  247MPD1    H7 3810   2.486   3.272  16.435  1.8723  1.5445 -0.5240
  248MPD1     C 3811   3.141   3.369   0.167  0.0254  0.6115  0.2117
  248MPD1    C1 3812   3.159   3.348   0.304 -0.6662  0.3236  0.2309
  248MPD1    C2 3813   3.088   3.430   0.389  0.7747  0.6042  0.3379
  248MPD1    C3 3814   3.002   3.529   0.342 -0.1268 -0.5984 -0.4764
  248MPD1    C4 3815   2.984   3.542   0.208  0.6722  0.2200 -0.0270
  248MPD1    C5 3816   3.047   3.450   0.123 -0.6177 -0.0295 -0.3202
  248MPD1     H 3817   3.095   3.404   0.494  1.2269 -2.9005 -0.5639
  248MPD1    H1 3818   2.908   3.608   0.169 -0.2541 -0.5646  0.4334
  248MPD1    H2 3819   3.197   3.322   0.087 -0.3949  0.7548 -0.1629
  248MPD1    H3 3820   3.039   3.453   0.015 -0.6047 -0.9055 -0.3433
  248MPD1     N 3821   2.931   3.595   0.444  0.2775 -0.3739  0.1735
  248MPD1    H5 3822   2.963   3.584   0.540  0.1597  1.2550  0.4000
  248MPD1    N1 3823   3.251   3.247   0.345 -0.3459 -0.1558  0.4029
  248MPD1    H6 3824   3.251   3.223   0.443 -2.7220  0.3939  0.5412
  248MPD1    H7 3825   3.261   3.166   0.283 -3.1374  1.7755 -2.5633
  249MPD1     C 3826   4.448   2.364  10.223  0.0842  0.2624  0.5407
  249MPD1    C1 3827   4.529   2.457  10.283  0.1171  0.2978 -0.9561
  249MPD1    C2 3828   4.540   2.580  10.222 -0.2451 -0.7176 -0.2379
  249MPD1    C3 3829   4.460   2.611  10.110 -0.2622 -0.5267 -0.3449
  249MPD1    C4 3830   4.363   2.525  10.068  0.2599  0.3294  0.1207
  249MPD1    C5 3831   4.365   2.406  10.126  0.8795 -0.2132 -0.0053
  249MPD1     H 3832   4.613   2.650  10.260  1.1390 -1.4488 -1.5406
  249MPD1    H1 3833   4.276   2.544  10.005 -0.2909  2.2228  1.4860
  249MPD1    H2 3834   4.451   2.261  10.259  0.9476  0.7485  1.8606
  249MPD1    H3 3835   4.292   2.331  10.097  0.2787  0.4915 -0.3187
  249MPD1     N 3836   4.472   2.742  10.048  0.5456 -0.0497  0.1543
  249MPD1    H5 3837   4.528   2.811  10.097  0.9626 -1.4578  1.6745
  249MPD1    N1 3838   4.633   2.420  10.372 -0.4145  0.4600  0.2067
  249MPD1    H6 3839   4.608   2.342  10.432  0.2770 -0.8471 -1.2194
  249MPD1    H7 3840   4.668   2.492  10.435  3.1099 -0.1077 -1.1006
  250MPD2     C 3841   1.565   3.160  12.555 -0.0991 -0.2827 -0.0840
  250MPD2    C1 3842   1.445   3.192  12.616 -0.2049 -0.3296 -0.1043
  250MPD2    C2 3843   1.353   3.095  12.633 -0.3562 -0.0117 -0.1579
  250MPD2    C3 3844   1.375   2.967  12.581  0.3831  0.2170 -0.4737
  250MPD2    C4 3845   1.485   2.942  12.511  0.0020  0.6083 -0.2659
  250MPD2    C5 3846   1.583   3.037  12.496  0.3169 -0.2824 -0.4620
  250MPD2     H 3847   1.254   3.116  12.672  1.1877  2.2030  2.5255
  250MPD2    H1 3848   1.503   2.845  12.465 -2.5458 -0.8578  1.8242
  250MPD2    H2 3849   1.639   3.237  12.539  1.2103 -1.2166  1.5625
  250MPD2    H3 3850   1.679   3.004  12.458  0.9471  0.6945  0.2898
  250MPD2     N 3851   1.280   2.858  12.581  0.3816 -0.0089  0.2569
  250MPD2    H5 3852   1.311   2.767  12.547 -0.7069 -0.2669 -0.0396
  250MPD2    N1 3853   1.438   3.331  12.666  0.0151  0.4168  0.1127
  250MPD2    H7 3854   1.517   3.392  12.648  0.7657 -0.2959  1.0450
  251TMC3    C1 3855   1.343   3.526  12.744  0.2670 -0.3444  1.0016
  251TMC3    C2 3856   1.290   3.580  12.854 -0.1208 -0.1315 -0.5333
  251TMC3    C3 3857   1.339   3.699  12.901  0.0215 -0.0365 -0.6014
  251TMC3    C4 3858   1.445   3.594  12.683 -0.2265 -0.3667  1.1566
  251TMC3    C5 3859   1.506   3.709  12.733  0.2025 -0.1944  0.2693
  251TMC3    C6 3860   1.453   3.765  12.847 -0.1616 -0.0994  0.1434
  251TMC3     C 3861   1.327   3.386  12.724 -0.0235  0.1334 -0.2324
  251TMC3     O 3862   1.224   3.332  12.766  0.1330 -0.0511  0.4813
  251TMC3     H 3863   1.213   3.527  12.909 -0.2681 -1.0252 -1.5844
  251TMC3    H1 3864   1.489   3.561  12.589 -0.6320  1.3533  0.3627
  251TMC3    H2 3865   1.490   3.857  12.891  0.2799  0.0026 -0.4405
  251TMC3    C7 3866   1.649   3.704  12.709 -0.2501 -0.0309 -0.6952
  251TMC3    C8 3867   1.238   3.789  12.951 -0.7741 -0.0476 -1.3593
  251TMC3    O1 3868   1.706   3.596  12.686 -0.7193  0.0040  0.3109
  251TMC3    O2 3869   1.132   3.739  12.997  0.1185  0.0691  0.1961
  252TMC3    C1 3870   1.057   4.214   9.445  0.5971  0.3430  0.4953
  252TMC3    C2 3871   1.167   4.295   9.428  1.1311 -0.2216 -0.4056
  252TMC3    C3 3872   1.232   4.340   9.543 -0.6966  0.8206  0.5194
  252TMC3    C4 3873   1.005   4.188   9.566  0.0428  0.2872 -0.8664
  252TMC3    C5 3874   1.067   4.243   9.675  0.3561 -0.3028  0.1703
  252TMC3    C6 3875   1.173   4.324   9.666  1.0721 -0.6181 -0.5327
  252TMC3     C 3876   1.000   4.161   9.319  0.6098 -0.2640  0.3618
  252TMC3     O 3877   1.032   4.221   9.216 -0.2125 -0.4003  0.2694
  252TMC3     H 3878   1.212   4.291   9.330  0.1075  0.7606 -0.9208
  252TMC3    H1 3879   0.919   4.122   9.571  0.4433 -0.2396 -0.8447
  252TMC3    H2 3880   1.226   4.363   9.751  0.3182  0.5011 -0.5776
  252TMC3    C7 3881   1.042   4.183   9.812  0.1011  0.4506 -0.2358
  252TMC3    C8 3882   1.374   4.371   9.540  0.4896 -0.0973 -0.2267
  252TMC3    O1 3883   1.060   4.257   9.907  0.2793  0.2848  0.2978
  252TMC3    O2 3884   1.421   4.404   9.433  0.1743 -0.1280 -0.0601
  253MPD2     C 3885   2.800   3.014  15.269 -0.3909 -0.6802  0.6037
  253MPD2    C1 3886   2.668   2.965  15.246  0.0451 -0.1831  0.1691
  253MPD2    C2 3887   2.615   2.875  15.331 -0.3079  0.3623 -0.1426
  253MPD2    C3 3888   2.682   2.835  15.447 -0.4169 -0.2873 -0.1673
  253MPD2    C4 3889   2.811   2.884  15.477  0.2365 -0.1798 -0.3402
  253MPD2    C5 3890   2.866   2.965  15.376  0.3700  1.0929  0.3727
  253MPD2     H 3891   2.519   2.830  15.311  0.3397 -0.8752 -0.4782
  253MPD2    H1 3892   2.873   2.863  15.563 -1.0566  0.0084  0.6473
  253MPD2    H2 3893   2.846   3.089  15.206  0.3184 -0.2044  1.6949
  253MPD2    H3 3894   2.967   3.001  15.397 -0.1312  1.6716  1.7937
  253MPD2     N 3895   2.610   2.758  15.545  0.4019  1.0947 -0.1381
  253MPD2    H5 3896   2.663   2.725  15.625 -0.3416 -2.5791 -1.1479
  253MPD2    N1 3897   2.594   3.006  15.135  0.4106 -0.2213  0.3057
  253MPD2    H7 3898   2.509   2.954  15.114  0.1673 -1.0801  3.3337
  254TMC3    C1 3899   2.438   2.669  15.674  0.2418  0.2371 -0.1733
  254TMC3    C2 3900   2.310   2.693  15.724  0.1640 -0.2006 -0.6875
  254TMC3    C3 3901   2.282   2.641  15.850 -0.6305 -0.0284 -0.6435
  254TMC3    C4 3902   2.537   2.598  15.742 -0.7866 -0.0659  0.3585
  254TMC3    C5 3903   2.497   2.548  15.867  0.3627 -0.0827 -1.1702
  254TMC3    C6 3904   2.379   2.575  15.925 -0.6653 -0.5799  0.0403
  254TMC3     C 3905   2.470   2.741  15.548 -0.1863 -1.4051  0.1761
  254TMC3     O 3906   2.372   2.788  15.486 -0.1944 -1.2101  0.6576
  254TMC3     H 3907   2.235   2.743  15.663 -0.6149 -0.1992  0.2670
  254TMC3    H1 3908   2.629   2.571  15.691 -1.2070 -0.7039 -0.0536
  254TMC3    H2 3909   2.357   2.551  16.028  1.3930 -0.5441  0.4868
  254TMC3    C7 3910   2.568   2.443  15.925  0.3283 -0.2596 -0.4386
  254TMC3    C8 3911   2.156   2.674  15.916 -0.3080 -0.0219 -0.0581
  254TMC3    O1 3912   2.492   2.359  15.974 -0.5915  0.2207  0.5878
  254TMC3    O2 3913   2.128   2.600  16.011 -0.4776  0.0590  0.0025
  255MPD2     C 3914   4.540   0.449  10.545  0.2330 -0.4773  0.1029
  255MPD2    C1 3915   4.642   0.514  10.601  0.6391  0.7059  0.1832
  255MPD2    C2 3916   4.712   0.455  10.706 -0.4933  0.3477 -0.0265
  255MPD2    C3 3917   4.688   0.323  10.748  0.1701  0.1140 -0.4104
  255MPD2    C4 3918   4.590   0.253  10.682 -0.0246 -0.0140  0.2325
  255MPD2    C5 3919   4.522   0.317  10.578 -0.1635  0.1402  0.9783
  255MPD2     H 3920   0.055   0.505  10.759 -0.2565 -0.4176  0.3233
  255MPD2    H1 3921   4.567   0.151  10.709  1.8068 -0.5010 -0.0362
  255MPD2    H2 3922   4.484   0.490  10.461  0.9620  1.0558  0.3594
  255MPD2    H3 3923   4.444   0.263  10.527  0.4573 -1.6633  1.9079
  255MPD2     N 3924   0.043   0.256  10.839 -0.3509  0.1139  0.3047
  255MPD2    H5 3925   0.016   0.162  10.863 -0.3529  0.0539  0.0702
  255MPD2    N1 3926   4.691   0.625  10.531  0.0211  0.5895  0.1394
  255MPD2    H7 3927   4.658   0.657  10.440  1.1945 -1.8130 -1.1229
  256TMC3    C1 3928   0.101   0.797  10.464 -0.3731 -0.5741 -0.4198
  256TMC3    C2 3929   0.231   0.836  10.457 -0.3421 -1.0330  0.2837
  256TMC3    C3 3930   0.281   0.913  10.353 -0.0273 -0.1607 -0.2033
  256TMC3    C4 3931   0.007   0.848  10.373  0.3567 -1.0231  0.4238
  256TMC3    C5 3932   0.062   0.927  10.270  0.8287  0.7904  0.3116
  256TMC3    C6 3933   0.193   0.962  10.257 -0.5132 -0.1386  0.0053
  256TMC3     C 3934   0.071   0.694  10.560 -0.0906 -0.6938 -0.3818
  256TMC3     O 3935   0.142   0.690  10.655  0.3395  0.1335  0.3928
  256TMC3     H 3936   0.298   0.797  10.532  0.7987  0.6102  0.1316
  256TMC3    H1 3937   4.638   0.843  10.391  0.2480 -1.3438 -0.3054
  256TMC3    H2 3938   0.218   1.019  10.168 -2.6497 -0.3789 -0.7494
  256TMC3    C7 3939   4.705   1.012  10.199  0.0230 -0.4196 -0.5783
  256TMC3    C8 3940   0.423   0.906  10.313  0.5300  0.5475  0.9386
  256TMC3    O1 3941   4.733   1.033  10.081 -0.1363 -0.6127 -0.2198
  256TMC3    O2 3942   0.478   0.806  10.354  0.1511  0.4834  0.3738
  257MPD2     C 3943   4.310   2.887  13.207  0.2216 -0.3780 -0.1811
  257MPD2    C1 3944   4.424   2.931  13.146  0.2245  0.0229 -0.1279
  257MPD2    C2 3945   4.540   2.854  13.175  0.6558 -0.1673 -0.1160
  257MPD2    C3 3946   4.536   2.744  13.263 -0.2848 -0.3140  0.2164
  257MPD2    C4 3947   4.411   2.708  13.315  1.1776  0.1909 -0.3091
  257MPD2    C5 3948   4.300   2.778  13.284  0.1612 -0.7242  0.2965
  257MPD2     H 3949   4.635   2.879  13.129 -0.1659  0.7891 -1.3003
  257MPD2    H1 3950   4.407   2.627  13.387  0.4664  0.4972 -0.0071
  257MPD2    H2 3951   4.218   2.932  13.173  0.7092  1.2777  0.6975
  257MPD2    H3 3952   4.207   2.748  13.329  0.8904 -3.2320  0.1366
  257MPD2     N 3953   4.649   2.674  13.306  0.2481  0.3316  0.3969
  257MPD2    H5 3954   4.638   2.613  13.386 -0.3152  0.4167  0.3828
  257MPD2    N1 3955   4.423   3.045  13.058 -0.1267 -0.0707  0.2142
  257MPD2    H7 3956   4.335   3.096  13.060 -1.2449 -1.8330 -2.3088
  258TMC3    C1 3957   0.141   2.598  13.319 -0.3380 -0.6866 -0.2632
  258TMC3    C2 3958   0.252   2.574  13.248  0.4666 -0.6163  0.2731
  258TMC3    C3 3959   0.359   2.512  13.307  0.7237  1.3415 -1.1212
  258TMC3    C4 3960   0.139   2.574  13.455 -0.2159  0.8915  0.2299
  258TMC3    C5 3961   0.250   2.517  13.514 -0.3891  0.3665 -0.6671
  258TMC3    C6 3962   0.358   2.497  13.442  0.9141 -0.4295 -0.2830
  258TMC3     C 3963   0.040   2.679  13.246  0.0864  0.1568  0.5312
  258TMC3     O 3964   0.073   2.714  13.133 -0.3816  0.6058  0.4562
  258TMC3     H 3965   0.265   2.586  13.141  0.3819 -0.5211  0.2734
  258TMC3    H1 3966   0.049   2.606  13.507 -0.1053  0.9910  0.3583
  258TMC3    H2 3967   0.441   2.446  13.490  1.2240  0.6676  0.3293
  258TMC3    C7 3968   0.234   2.483  13.648  0.3630  0.9510  0.0236
  258TMC3    C8 3969   0.484   2.533  13.236  0.2787  0.1701  0.2950
  258TMC3    O1 3970   0.118   2.467  13.687 -0.0219  0.3095 -0.3559
  258TMC3    O2 3971   0.477   2.523  13.113 -0.5901  0.7585 -0.0049
  259MPD2     C 3972   3.322   4.418   0.393  0.3390  0.9993  0.5186
  259MPD2    C1 3973   3.398   4.320   0.460 -0.1731 -0.3735  0.1122
  259MPD2    C2 3974   3.396   4.195   0.419 -0.9933  0.2727 -0.0972
  259MPD2    C3 3975   3.340   4.157   0.296  0.5282  0.7002  0.4075
  259MPD2    C4 3976   3.262   4.251   0.228 -0.4412  0.4183 -0.4599
  259MPD2    C5 3977   3.260   4.380   0.277  0.0616 -0.0111  0.9689
  259MPD2     H 3978   3.448   4.119   0.475 -0.2948  0.8731  0.0707
  259MPD2    H1 3979   3.205   4.231   0.138 -2.3667 -1.0470  1.0851
  259MPD2    H2 3980   3.318   4.518   0.433 -0.8173  1.8689 -1.7572
  259MPD2    H3 3981   3.196   4.452   0.229 -1.2854 -0.8158  1.5323
  259MPD2     N 3982   3.351   4.020   0.263 -0.3326  0.1948 -0.1058
  259MPD2    H5 3983   3.413   3.966   0.322  2.4030  1.8723 -1.4509
  259MPD2    N1 3984   3.467   4.364   0.571  0.1926  0.2349  0.2242
  259MPD2    H7 3985   3.452   4.456   0.612  0.0800 -0.0267  0.7728
  260TMC3    C1 3986   3.326   3.815   0.156  0.3950  0.3506  0.0163
  260TMC3    C2 3987   3.327   3.750   0.040  0.2426  0.1616  0.1246
  260TMC3    C3 3988   3.342   3.612   0.044 -0.0531  0.0679 -0.0071
  260TMC3    C4 3989   3.353   3.748   0.271  0.0152 -0.0483 -0.0656
  260TMC3    C5 3990   3.377   3.613   0.282  0.5108  0.0840  0.1310
  260TMC3    C6 3991   3.379   3.550   0.159  0.2815 -0.9078 -0.1325
  260TMC3     C 3992   3.302   3.959   0.151  0.1055 -0.2066 -0.1669
  260TMC3     O 3993   3.248   4.008   0.052 -0.2970  0.4777  0.1299
  260TMC3     H 3994   3.319   3.803  17.695 -0.5874  1.6169  1.0151
  260TMC3    H1 3995   3.353   3.810   0.360 -0.6180 -0.6256  0.3287
  260TMC3    H2 3996   3.375   3.442   0.156 -0.0404 -0.8804 -0.6031
  260TMC3    C7 3997   3.471   3.574   0.382  0.5939  0.1971 -0.7527
  260TMC3    C8 3998   3.418   3.557  17.674  0.1987 -0.2481  0.1127
  260TMC3    O1 3999   3.531   3.659   0.441 -0.4001  0.0965 -0.0127
  260TMC3    O2 4000   3.386   3.592  17.562 -0.5376  0.1786 -0.0706
  261MPD2     C 4001   0.464   2.730  12.481 -0.1856  0.9280  0.0382
  261MPD2    C1 4002   0.566   2.777  12.399 -0.5909  0.8946  0.1088
  261MPD2    C2 4003   0.536   2.866  12.295 -0.3146  0.0172 -0.3258
  261MPD2    C3 4004   0.408   2.910  12.278 -0.0619 -0.3374  0.5647
  261MPD2    C4 4005   0.302   2.860  12.361 -0.2983 -0.3216 -0.8394
  261MPD2    C5 4006   0.338   2.775  12.459  0.6947 -0.3607  0.4802
  261MPD2     H 4007   0.614   2.912  12.235 -0.7156 -0.1875 -1.0141
  261MPD2    H1 4008   0.196   2.881  12.353 -0.3165  0.3060  1.0039
  261MPD2    H2 4009   0.475   2.657  12.560 -3.6506  1.6087  1.1307
  261MPD2    H3 4010   0.257   2.743  12.523  2.6600 -0.7597  2.7490
  261MPD2     N 4011   0.386   2.997  12.167 -0.3976  0.3809 -0.0316
  261MPD2    H5 4012   0.470   3.024  12.116  0.6816 -2.7977  0.0847
  261MPD2    N1 4013   0.700   2.736  12.423 -0.5669  0.0283 -0.0150
  261MPD2    H7 4014   0.773   2.785  12.373 -0.3052 -2.1435 -1.7903
  262TMC3    C1 4015   0.267   3.156  12.038  1.2756  0.1132  0.3875
  262TMC3    C2 4016   0.244   3.288  12.051 -0.0404 -0.0838 -0.9016
  262TMC3    C3 4017   0.257   3.363  11.933 -0.1121 -0.5721 -0.0355
  262TMC3    C4 4018   0.291   3.084  11.925  0.6298  1.1015  0.2380
  262TMC3    C5 4019   0.317   3.159  11.815  0.2932  0.1026  0.2180
  262TMC3    C6 4020   0.299   3.296  11.818 -0.3170  0.4889 -0.5134
  262TMC3     C 4021   0.270   3.077  12.154  0.1995 -0.9625  0.1107
  262TMC3     O 4022   0.189   3.109  12.238  0.1069  0.4406  0.0669
  262TMC3     H 4023   0.193   3.318  12.142 -0.2490 -0.8101 -0.7733
  262TMC3    H1 4024   0.309   2.977  11.929 -2.7081  0.4242 -2.7451
  262TMC3    H2 4025   0.321   3.367  11.739  0.4230 -0.5185 -1.2096
  262TMC3    C7 4026   0.432   3.106  11.740 -0.2145 -0.4461  0.5364
  262TMC3    C8 4027   0.267   3.509  11.928 -0.1758  0.1037 -0.0338
  262TMC3    O1 4028   0.480   3.003  11.785 -0.5596 -0.4842  0.1761
  262TMC3    O2 4029   0.319   3.558  11.830 -0.0796  0.3815  0.2334
  263MPD2     C 4030   1.113   2.182  11.541 -0.4379  0.1914 -0.7911
  263MPD2    C1 4031   1.226   2.163  11.470 -0.0525  0.2138 -0.2366
  263MPD2    C2 4032   1.230   2.215  11.340 -0.0959  0.3610  0.3645
  263MPD2    C3 4033   1.119   2.286  11.289 -0.2114  0.2502  0.5553
  263MPD2    C4 4034   1.007   2.316  11.376  0.5453  0.2481 -0.3246
  263MPD2    C5 4035   1.008   2.256  11.499  0.1625  0.0943 -0.0958
  263MPD2     H 4036   1.318   2.206  11.277  0.2370  2.6596  0.4895
  263MPD2    H1 4037   0.918   2.363  11.336  0.6265  1.5420  1.0241
  263MPD2    H2 4038   1.111   2.153  11.646 -0.5423 -1.3138 -1.2151
  263MPD2    H3 4039   0.926   2.272  11.568  0.5310 -1.5711  0.7433
  263MPD2     N 4040   1.125   2.335  11.156  0.0339  0.8230 -0.7574
  263MPD2    H5 4041   1.210   2.313  11.106  1.1950  3.1729  0.2065
  263MPD2    N1 4042   1.342   2.106  11.533  0.2271 -0.0936  0.4681
  263MPD2    H7 4043   1.329   2.081  11.630 -0.0516 -0.4882  0.3289
  264TMC3    C1 4044   1.090   2.460  10.969 -0.0086 -0.0618  0.8567
  264TMC3    C2 4045   1.145   2.585  10.981 -0.1931 -0.3808 -0.1455
  264TMC3    C3 4046   1.225   2.630  10.881 -0.9216  0.9178 -0.1136
  264TMC3    C4 4047   1.079   2.388  10.853  1.2375 -0.4987  0.5679
  264TMC3    C5 4048   1.145   2.448  10.737  0.6719 -0.0272  0.0930
  264TMC3    C6 4049   1.211   2.573  10.757  0.3909 -0.0205  0.0850
  264TMC3     C 4050   1.032   2.409  11.092 -0.6094  0.3977 -0.5211
  264TMC3     O 4051   0.918   2.443  11.124 -0.5259 -0.0310  0.3957
  264TMC3     H 4052   1.118   2.643  11.068 -1.7899 -0.2443 -0.7410
  264TMC3    H1 4053   1.021   2.297  10.862 -0.3305  0.7840  3.4715
  264TMC3    H2 4054   1.260   2.623  10.674  0.1318 -0.4620 -0.3335
  264TMC3    C7 4055   1.198   2.371  10.627  0.2375  0.1811  0.3453
  264TMC3    C8 4056   1.282   2.761  10.903  0.5236 -0.1548  0.7018
  264TMC3    O1 4057   1.296   2.415  10.575  0.2131 -0.4355  0.1414
  264TMC3    O2 4058   1.297   2.842  10.809 -0.4393 -0.3714 -0.1755
  265MPD2     C 4059   3.476   2.331  15.471  0.0869 -0.3029  0.5008
  265MPD2    C1 4060   3.487   2.428  15.367 -0.1651  0.8190 -0.8285
  265MPD2    C2 4061   3.574   2.396  15.263  0.0256 -0.9203 -0.1363
  265MPD2    C3 4062   3.637   2.276  15.254  0.1056  0.4176  0.2609
  265MPD2    C4 4063   3.619   2.187  15.358 -0.1848  0.2367 -0.3895
  265MPD2    C5 4064   3.541   2.214  15.467 -0.4711 -0.0774  0.0080
  265MPD2     H 4065   3.581   2.466  15.181  2.7042 -4.0607 -2.5269
  265MPD2    H1 4066   3.679   2.097  15.361  0.3648  0.6215  0.1789
  265MPD2    H2 4067   3.417   2.344  15.561  0.2388  0.5108  0.4807
  265MPD2    H3 4068   3.525   2.144  15.548  0.0829 -0.3900 -0.1508
  265MPD2     N 4069   3.739   2.236  15.155  0.7364 -0.0046 -0.8391
  265MPD2    H5 4070   3.785   2.148  15.178  0.9350  0.1390 -0.6825
  265MPD2    N1 4071   3.418   2.557  15.370  0.3072  0.4062  0.2703
  265MPD2    H7 4072   3.449   2.622  15.299  1.5683 -0.2562  0.2166
  266TMC3    C1 4073   3.331   2.746  15.479 -0.0773  0.2701  0.7235
  266TMC3    C2 4074   3.287   2.794  15.599  0.2844  0.2185  0.1437
  266TMC3    C3 4075   3.251   2.927  15.612  0.0026  0.5226  0.3465
  266TMC3    C4 4076   3.327   2.829  15.369  0.3992  0.1629 -0.1785
  266TMC3    C5 4077   3.291   2.965  15.388  0.4120  0.3426  0.8348
  266TMC3    C6 4078   3.259   3.017  15.510 -0.0827  0.5827  0.0922
  266TMC3     C 4079   3.341   2.603  15.476  0.3019  0.1556  0.2944
  266TMC3     O 4080   3.307   2.538  15.569 -0.2917  0.0068 -0.5054
  266TMC3     H 4081   3.263   2.730  15.682 -2.4418  1.3279  0.2002
  266TMC3    H1 4082   3.361   2.790  15.274  1.5520  0.8040 -0.0259
  266TMC3    H2 4083   3.235   3.122  15.517 -1.7547  0.0850  1.8259
  266TMC3    C7 4084   3.289   3.045  15.264  0.1213  0.5412 -0.3826
  266TMC3    C8 4085   3.237   2.972  15.751  0.0227  0.2851 -0.7857
  266TMC3    O1 4086   3.366   3.014  15.175  0.3354  0.1246 -0.3484
  266TMC3    O2 4087   3.191   2.892  15.830 -0.5637 -0.2801  0.5441
  267MPD2     C 4088   0.912   3.806   0.911 -0.8000  0.7108 -0.2036
  267MPD2    C1 4089   0.987   3.821   0.796 -0.2747 -0.0638  0.4453
  267MPD2    C2 4090   0.959   3.737   0.686  0.1410  0.2031  0.0997
  267MPD2    C3 4091   0.844   3.665   0.674  0.5166 -0.2801 -0.2993
  267MPD2    C4 4092   0.767   3.660   0.788 -0.9643 -0.1739  0.2749
  267MPD2    C5 4093   0.808   3.719   0.905 -0.1899 -0.1215  0.2556
  267MPD2     H 4094   1.029   3.744   0.604  0.1380 -0.1756  0.0619
  267MPD2    H1 4095   0.668   3.617   0.795 -1.3615  0.8364  0.9513
  267MPD2    H2 4096   0.921   3.858   1.005  0.0243  0.0250  0.0859
  267MPD2    H3 4097   0.739   3.712   0.988  0.1824 -1.6286  0.4428
  267MPD2     N 4098   0.783   3.613   0.559 -0.6961 -0.7273  0.9057
  267MPD2    H5 4099   0.689   3.576   0.568 -0.1667 -1.9600  1.3159
  267MPD2    N1 4100   1.097   3.915   0.804  0.1116 -0.0429  0.2621
  267MPD2    H7 4101   1.111   3.978   0.883 -0.8552  0.0414  0.3635
  268TMC3    C1 4102   1.246   4.075   0.728 -0.8736  0.2655 -0.0135
  268TMC3    C2 4103   1.261   4.169   0.631  0.3905 -0.1894 -0.0978
  268TMC3    C3 4104   1.342   4.279   0.650  0.2107  0.6890 -0.7535
  268TMC3    C4 4105   1.306   4.094   0.843 -0.2078 -0.6795 -0.0427
  268TMC3    C5 4106   1.393   4.201   0.860 -0.5592 -0.1401 -0.7474
  268TMC3    C6 4107   1.405   4.304   0.767 -0.6763 -0.6473 -0.0321
  268TMC3     C 4108   1.162   3.959   0.695  0.0801 -0.3266  0.0298
  268TMC3     O 4109   1.157   3.920   0.578  0.7411  0.3557  0.3637
  268TMC3     H 4110   1.210   4.152   0.537  0.7923 -1.9986  0.0294
  268TMC3    H1 4111   1.304   4.021   0.922  0.3803 -0.5696  0.0757
  268TMC3    H2 4112   1.461   4.395   0.784 -1.0502 -0.5325  0.5714
  268TMC3    C7 4113   1.462   4.223   0.986  0.5691  0.5566  0.5068
  268TMC3    C8 4114   1.362   4.375   0.544 -0.3213 -0.0125 -0.4153
  268TMC3    O1 4115   1.479   4.338   1.020  0.0519 -0.0520 -0.1832
  268TMC3    O2 4116   1.372   4.495   0.573  0.1713 -0.6051  0.0135
  269MPD2     C 4117   1.851   3.077  15.452 -0.0866  1.3025 -0.2963
  269MPD2    C1 4118   1.713   3.088  15.468  0.5820  0.1177 -0.0730
  269MPD2    C2 4119   1.654   3.210  15.441 -0.2708 -0.1094 -0.0988
  269MPD2    C3 4120   1.728   3.310  15.386 -0.2891 -0.1036 -0.1485
  269MPD2    C4 4121   1.860   3.303  15.373 -0.3262  0.2277 -0.0565
  269MPD2    C5 4122   1.914   3.182  15.398 -0.5930  0.0336  0.1931
  269MPD2     H 4123   1.548   3.228  15.455 -0.3293  0.0190 -0.7151
  269MPD2    H1 4124   1.925   3.386  15.348  0.5624 -0.5620 -0.3683
  269MPD2    H2 4125   1.902   2.982  15.455 -2.7480 -0.0784  1.1670
  269MPD2    H3 4126   2.020   3.189  15.378 -0.5562  1.2748  0.7614
  269MPD2     N 4127   1.669   3.434  15.350 -0.5072 -0.2697  0.2164
  269MPD2    H5 4128   1.579   3.465  15.385 -0.2937 -2.6908  2.9636
  269MPD2    N1 4129   1.646   2.968  15.511  0.4925  0.4368 -0.4598
  269MPD2    H7 4130   1.706   2.886  15.510  0.1716  0.1945  0.4957
  270TMC3    C1 4131   1.489   2.812  15.532 -0.7748  0.0297  0.1091
  270TMC3    C2 4132   1.369   2.772  15.467  0.0423  0.5125  0.3086
  270TMC3    C3 4133   1.360   2.632  15.454  0.2802 -0.4303 -0.0223
  270TMC3    C4 4134   1.593   2.729  15.566  0.0169  0.0104 -0.3565
  270TMC3    C5 4135   1.577   2.596  15.548 -0.2556  0.3769  0.0382
  270TMC3    C6 4136   1.461   2.556  15.496 -0.4661 -0.2118 -0.0827
  270TMC3     C 4137   1.511   2.949  15.521  0.6543  0.2493 -0.4230
  270TMC3     O 4138   1.422   3.029  15.505 -0.0423  0.1363 -0.2252
  270TMC3     H 4139   1.299   2.838  15.416  0.3929  1.1825  0.6947
  270TMC3    H1 4140   1.690   2.759  15.604 -0.6683 -0.5042  1.8154
  270TMC3    H2 4141   1.444   2.449  15.489  1.1075 -0.2949 -2.3756
  270TMC3    C7 4142   1.698   2.528  15.510 -0.8559 -0.0985  0.2957
  270TMC3    C8 4143   1.267   2.575  15.358 -0.7690 -0.3551  0.1892
  270TMC3    O1 4144   1.799   2.566  15.565 -0.2914 -0.5610 -0.0547
  270TMC3    O2 4145   1.217   2.463  15.376  0.7155  0.0623 -0.0303
  271MPD2     C 4146   0.716   3.065  13.738  0.0365  0.4351 -0.2732
  271MPD2    C1 4147   0.706   3.054  13.876  1.0411 -0.6059 -0.1465
  271MPD2    C2 4148   0.585   3.079  13.941 -0.3349 -0.0195  0.2082
  271MPD2    C3 4149   0.481   3.105  13.849 -0.0587  0.5369  0.4734
  271MPD2    C4 4150   0.495   3.124  13.719  0.0078  0.2955  0.1996
  271MPD2    C5 4151   0.619   3.114  13.660 -0.1326  0.2858  0.0499
  271MPD2     H 4152   0.567   3.064  14.046  0.6826  2.3571  0.7372
  271MPD2    H1 4153   0.411   3.142  13.651 -1.3872 -0.1725  1.8030
  271MPD2    H2 4154   0.810   3.044  13.688  0.3978  0.7535  0.2798
  271MPD2    H3 4155   0.638   3.129  13.555 -0.6012 -2.0675 -0.3887
  271MPD2     N 4156   0.346   3.123  13.888 -0.6933  0.7581  0.3172
  271MPD2    H5 4157   0.274   3.150  13.822 -0.7192 -0.4542 -0.1514
  271MPD2    N1 4158   0.804   2.998  13.952  0.3505 -0.1192  0.0227
  271MPD2    H7 4159   0.797   3.001  14.053 -0.7547  0.3147 -0.0652
  272TMC3    C1 4160   0.983   2.865  14.019  0.4518 -0.3872  0.3023
  272TMC3    C2 4161   1.121   2.863  14.022  0.4954 -0.5702  0.4025
  272TMC3    C3 4162   1.178   2.798  14.125  0.1453 -0.6991 -0.0193
  272TMC3    C4 4163   0.905   2.794  14.109  0.2673 -0.1578  0.5480
  272TMC3    C5 4164   0.971   2.727  14.202  0.3675 -0.1050 -0.2724
  272TMC3    C6 4165   1.105   2.726  14.217 -0.2464  0.4345 -0.1701
  272TMC3     C 4166   0.916   2.925  13.910  0.3490  0.1688 -0.8430
  272TMC3     O 4167   0.957   2.904  13.798 -0.7246  0.0145 -0.2598
  272TMC3     H 4168   1.183   2.923  13.956  2.2206  0.4746  2.9530
  272TMC3    H1 4169   0.799   2.783  14.086  0.3523  0.1848 -0.0041
  272TMC3    H2 4170   1.152   2.668  14.296 -0.0892  0.0497 -0.5446
  272TMC3    C7 4171   0.904   2.712  14.328 -0.5058  0.0929 -0.4405
  272TMC3    C8 4172   1.319   2.775  14.107  0.1170 -0.5797  0.5058
  272TMC3    O1 4173   0.782   2.703  14.321  0.1340 -0.1083  0.4259
  272TMC3    O2 4174   1.383   2.827  14.017  0.0555 -0.0509  0.7037
  273MPD2     C 4175   1.920   0.258  11.662  0.1747 -0.3297  0.3115
  273MPD2    C1 4176   2.016   0.354  11.685  0.3430  0.3655  0.1821
  273MPD2    C2 4177   2.018   0.473  11.619  0.4571  0.8296 -0.6185
  273MPD2    C3 4178   1.926   0.491  11.512  0.7714  0.3713 -0.0313
  273MPD2    C4 4179   1.847   0.392  11.474 -0.2741 -0.6304 -0.5654
  273MPD2    C5 4180   1.832   0.282  11.553  0.4715  0.0189 -0.0918
  273MPD2     H 4181   2.090   0.549  11.645  2.2139 -1.7859  2.1345
  273MPD2    H1 4182   1.781   0.415  11.391 -1.3332  1.8852  0.9656
  273MPD2    H2 4183   1.916   0.160  11.710  1.6179  0.6567  2.4673
  273MPD2    H3 4184   1.761   0.209  11.516  0.8972  0.0331 -0.9509
  273MPD2     N 4185   1.918   0.615  11.442  0.0184  0.2359 -0.4382
  273MPD2    H5 4186   1.853   0.614  11.364 -0.4247  2.7372 -0.1105
  273MPD2    N1 4187   2.111   0.324  11.780 -0.0466  0.0973  0.2410
  273MPD2    H7 4188   2.101   0.243  11.840 -1.8487  1.2994  1.5603
  274TMC3    C1 4189   1.954   0.843  11.391  0.1120  0.4202 -0.2656
  274TMC3    C2 4190   1.831   0.865  11.327  0.1311  0.2396  0.0473
  274TMC3    C3 4191   1.794   0.991  11.281  0.2000  0.4655  0.5466
  274TMC3    C4 4192   2.037   0.947  11.407 -0.0542 -0.1561 -0.1276
  274TMC3    C5 4193   1.999   1.069  11.364 -0.5729  0.2847 -0.0047
  274TMC3    C6 4194   1.878   1.094  11.310 -0.6926 -0.0193 -0.6878
  274TMC3     C 4195   1.983   0.732  11.481  0.1406  0.6366  0.3665
  274TMC3     O 4196   2.045   0.764  11.584  0.1430  0.2238  0.2479
  274TMC3     H 4197   1.761   0.783  11.313 -0.8758  0.9668  0.8810
  274TMC3    H1 4198   2.133   0.931  11.454  0.1667 -0.5028 -0.6977
  274TMC3    H2 4199   1.859   1.187  11.259  1.3373 -0.3335 -1.9950
  274TMC3    C7 4200   2.076   1.172  11.428  1.3325  0.0873 -0.6385
  274TMC3    C8 4201   1.686   1.026  11.194  0.6030 -0.1351  0.1511
  274TMC3    O1 4202   2.193   1.136  11.456 -0.0281 -0.1632 -0.2910
  274TMC3    O2 4203   1.666   1.144  11.162 -0.0339  0.0650  0.0576
  275MPD2     C 4204   1.879   4.204  13.959  0.3916  0.6462 -0.0439
  275MPD2    C1 4205   1.893   4.108  14.057 -0.6625  0.1560  0.1739
  275MPD2    C2 4206   1.777   4.046  14.100 -0.0796  0.5235 -0.0587
  275MPD2    C3 4207   1.655   4.090  14.060  0.8032  0.3619 -0.1344
  275MPD2    C4 4208   1.643   4.185  13.960  0.3902 -0.2920 -0.6812
  275MPD2    C5 4209   1.753   4.241  13.905  0.9655  0.5663  0.1690
  275MPD2     H 4210   1.778   3.964  14.171  1.9819  0.0490 -0.6352
  275MPD2    H1 4211   1.547   4.218  13.921 -0.4403 -2.1589 -0.2121
  275MPD2    H2 4212   1.963   4.252  13.911  1.0487  0.6901  1.1529
  275MPD2    H3 4213   1.745   4.312  13.824 -0.4509 -1.0642 -1.1316
  275MPD2     N 4214   1.530   4.050  14.118  0.2930 -0.7718  0.2069
  275MPD2    H5 4215   1.445   4.064  14.064  0.2686 -0.2888  0.3705
  275MPD2    N1 4216   2.019   4.078  14.118  0.1195 -0.3084 -0.4543
  275MPD2    H7 4217   2.021   4.010  14.193 -0.8942 -0.2648 -0.3826
  276TMC3    C1 4218   2.245   4.088  14.160  0.4241 -0.0167 -0.2794
  276TMC3    C2 4219   2.264   3.951  14.150  0.3167 -0.2001  0.1039
  276TMC3    C3 4220   2.301   3.875  14.264  0.4289  0.3696  0.2215
  276TMC3    C4 4221   2.263   4.145  14.289 -0.4727  0.0551  0.1226
  276TMC3    C5 4222   2.301   4.070  14.395  0.5364  0.0649  0.1647
  276TMC3    C6 4223   2.323   3.932  14.389 -0.7371  0.9118  0.6113
  276TMC3     C 4224   2.137   4.136  14.081  0.2475 -0.0618 -0.3859
  276TMC3     O 4225   2.161   4.234  14.012  0.6713  0.0280  0.4112
  276TMC3     H 4226   2.236   3.906  14.055  2.1782 -1.2312  0.0408
  276TMC3    H1 4227   2.245   4.252  14.296 -0.6506  0.1989 -2.3909
  276TMC3    H2 4228   2.337   3.881  14.484  1.8293 -1.2430 -0.9301
  276TMC3    C7 4229   2.347   4.145  14.516  0.2092 -0.2527 -0.5166
  276TMC3    C8 4230   2.294   3.734  14.240  0.1147 -0.3744  0.9004
  276TMC3    O1 4231   2.428   4.091  14.594 -0.0128  0.7616  0.1506
  276TMC3    O2 4232   2.254   3.698  14.131 -0.0204  0.4688 -0.0223
  277MPD2     C 4233   4.262   2.596  12.918  1.0160 -0.2082  0.5519
  277MPD2    C1 4234   4.132   2.577  12.948 -0.4139 -0.5733 -0.1393
  277MPD2    C2 4235   4.100   2.524  13.071  0.3336  0.1224  0.5388
  277MPD2    C3 4236   4.195   2.482  13.161  0.7070 -0.3787  0.6701
  277MPD2    C4 4237   4.321   2.480  13.119  0.4934  0.3182 -0.3350
  277MPD2    C5 4238   4.352   2.536  13.006 -0.1586 -0.2238  0.4200
  277MPD2     H 4239   3.994   2.532  13.095  0.2801 -1.0076  0.6633
  277MPD2    H1 4240   4.400   2.435  13.177 -0.5570 -0.8499  0.1881
  277MPD2    H2 4241   4.301   2.646  12.831  3.8277 -0.8336  1.4599
  277MPD2    H3 4242   4.457   2.555  12.985 -0.4538  2.3211  1.2889
  277MPD2     N 4243   4.148   2.440  13.290  0.9180  0.4398 -0.3020
  277MPD2    H5 4244   4.053   2.458  13.321  1.1003 -1.3930  1.3779
  277MPD2    N1 4245   4.036   2.639  12.865  0.0731 -0.0028  0.4745
  277MPD2    H7 4246   4.071   2.700  12.792 -0.5056  1.4069  1.3763
  278TMC3    C1 4247   4.167   2.346  13.498 -0.5318 -0.4206 -0.1613
  278TMC3    C2 4248   4.143   2.217  13.540  0.0550  0.3573 -0.5041
  278TMC3    C3 4249   4.050   2.198  13.644 -0.2483 -0.3193 -0.6343
  278TMC3    C4 4250   4.106   2.454  13.560 -0.4810 -0.3542  0.4173
  278TMC3    C5 4251   4.020   2.435  13.659 -0.0237  0.6988 -0.1082
  278TMC3    C6 4252   3.991   2.307  13.699  0.2556 -0.1511 -0.1948
  278TMC3     C 4253   4.221   2.357  13.372  0.3014 -0.4262 -0.1954
  278TMC3     O 4254   4.317   2.283  13.350 -0.0430 -0.3271 -0.4954
  278TMC3     H 4255   4.184   2.134  13.483 -0.0872 -0.1691  0.1538
  278TMC3    H1 4256   4.127   2.553  13.523  0.3863 -1.2520 -1.5007
  278TMC3    H2 4257   3.920   2.287  13.778  0.1894  1.1105  0.0639
  278TMC3    C7 4258   3.971   2.545  13.734  0.1614  0.6456 -0.3966
  278TMC3    C8 4259   3.985   2.069  13.648 -0.1045 -1.0485  0.3769
  278TMC3    O1 4260   4.054   2.641  13.742 -0.7250  0.5602 -0.1248
  278TMC3    O2 4261   4.050   1.970  13.611  0.1868  0.2557 -0.1836
  279MPD2     C 4262   3.509   2.712  17.562 -0.6459  0.3562  0.2781
  279MPD2    C1 4263   3.415   2.748  17.664  0.0275  0.5702 -0.3024
  279MPD2    C2 4264   3.287   2.796  17.637  0.1704  0.0231 -0.0905
  279MPD2    C3 4265   3.249   2.813  17.510  0.2483  0.5907 -0.0810
  279MPD2    C4 4266   3.336   2.782  17.409 -0.1146 -0.0495 -1.0281
  279MPD2    C5 4267   3.466   2.732  17.431  0.0959 -1.2908 -0.2932
  279MPD2     H 4268   3.216   2.809  17.719  1.1585 -0.9438  0.9085
  279MPD2    H1 4269   3.308   2.799  17.306 -2.2015 -1.2725 -0.6647
  279MPD2    H2 4270   3.611   2.678  17.575  0.6800  4.0241 -0.5066
  279MPD2    H3 4271   3.527   2.722  17.342  2.9546  1.3020  1.3923
  279MPD2     N 4272   3.121   2.857  17.467 -0.2328  0.6831 -0.5125
  279MPD2    H5 4273   3.108   2.842  17.367  2.4221  0.0255 -0.7594
  279MPD2    N1 4274   3.432   2.709   0.052 -0.5304 -0.1600 -0.9282
  279MPD2    H7 4275   3.361   2.743   0.116  0.3966 -0.1519  0.0767
  280TMC3    C1 4276   3.451   2.580   0.237 -0.7077 -0.1801  0.1649
  280TMC3    C2 4277   3.378   2.459   0.215  0.9615 -0.0802  0.1077
  280TMC3    C3 4278   3.244   2.453   0.245 -0.0863  0.2123 -0.4318
  280TMC3    C4 4279   3.376   2.684   0.296  0.4768  0.4051 -0.1516
  280TMC3    C5 4280   3.245   2.669   0.322  0.1150 -0.0716 -0.2723
  280TMC3    C6 4281   3.172   2.560   0.289 -0.1549 -0.9633 -0.0711
  280TMC3     C 4282   3.510   2.622   0.113  0.0727 -0.1888  0.1832
  280TMC3     O 4283   3.601   2.551   0.070 -0.7742  0.0677 -0.5563
  280TMC3     H 4284   3.439   2.380   0.174  0.3741 -1.0368  1.0691
  280TMC3    H1 4285   3.430   2.765   0.342 -2.5713  2.1334  0.3502
  280TMC3    H2 4286   3.064   2.567   0.296 -0.1939 -1.8354  0.2497
  280TMC3    C7 4287   3.181   2.787   0.377 -0.3962  0.2907 -0.4934
  280TMC3    C8 4288   3.186   2.315   0.244  0.2203  0.1740 -0.3547
  280TMC3    O1 4289   3.249   2.874   0.423  0.0204 -0.0100 -0.1081
  280TMC3    O2 4290   3.119   2.277   0.338  0.1566 -0.0320 -0.0183
  281TMC3    C1 4291   1.794   3.423  13.491 -0.0622  0.6792  0.1816
  281TMC3    C2 4292   1.841   3.493  13.384  0.2558  0.5931 -0.2686
  281TMC3    C3 4293   1.859   3.425  13.261  0.0521 -0.9713  0.1413
  281TMC3    C4 4294   1.751   3.293  13.478 -0.4516 -0.7806 -0.4489
  281TMC3    C5 4295   1.764   3.233  13.354 -0.1172  0.1205  0.0869
  281TMC3    C6 4296   1.835   3.294  13.247 -0.2019 -0.2527  0.1037
  281TMC3     C 4297   1.721   3.505  13.587 -0.5101 -0.4962  0.1771
  281TMC3     O 4298   1.701   3.450  13.695  0.2524  0.0462  0.0804
  281TMC3     H 4299   1.867   3.595  13.408  2.0714 -0.1889  1.1256
  281TMC3    H1 4300   1.696   3.247  13.560 -2.2188  1.1438 -0.5475
  281TMC3    H2 4301   1.832   3.250  13.148  0.8216 -0.8592  0.3427
  281TMC3    C7 4302   1.725   3.096  13.349  0.5788  0.0571  0.5764
  281TMC3    C8 4303   1.863   3.502  13.144 -0.0724 -0.2499  0.4955
  281TMC3    O1 4304   1.705   3.059  13.230  0.3117 -0.1817 -0.0326
  281TMC3    O2 4305   1.845   3.445  13.036  0.1364  0.0703  0.5774
  282MPD2     C 4306   3.715   4.508  14.755 -0.0498 -0.3321  0.5604
  282MPD2    C1 4307   3.591   4.538  14.810 -0.1312  0.7032 -0.4180
  282MPD2    C2 4308   3.477   4.543  14.733  0.0663 -0.0877 -0.3846
  282MPD2    C3 4309   3.487   4.502  14.604 -0.3016  0.1341 -0.1231
  282MPD2    C4 4310   3.607   4.456  14.554  0.1842 -0.4156  0.2622
  282MPD2    C5 4311   3.719   4.456  14.631  0.0925 -0.0809 -0.9045
  282MPD2     H 4312   3.383   4.559  14.784 -0.2764 -1.3593 -0.6288
  282MPD2    H1 4313   3.610   4.424  14.451  1.1859  0.8731 -0.1023
  282MPD2    H2 4314   3.807   4.508  14.813  0.8280 -1.0644 -0.7993
  282MPD2    H3 4315   3.811   4.425  14.583 -0.0872 -0.7149 -0.8313
  282MPD2     N 4316   3.373   4.516  14.521  0.3434  0.3006 -0.1982
  282MPD2    H5 4317   3.284   4.550  14.555 -0.5068 -1.4581 -0.6808
  282MPD2    N1 4318   3.570   4.568  14.950  0.0167  0.4084  0.9077
  282MPD2    H7 4319   3.481   4.607  14.979 -0.6038  0.9223 -1.6466
  283TMC3    C1 4320   3.615   4.598  15.173  0.1760 -0.0602  0.4399
  283TMC3    C2 4321   3.699   4.663  15.260  0.9547 -0.5780 -0.0813
  283TMC3    C3 4322   3.657   4.694  15.381  0.2048  0.7745  0.1653
  283TMC3    C4 4323   3.482   4.568  15.203 -0.4807  0.9128  0.6508
  283TMC3    C5 4324   3.446   4.594  15.330  0.7320 -0.1220  0.1219
  283TMC3    C6 4325   3.533   4.653  15.419  0.2251  0.3977  0.3813
  283TMC3     C 4326   3.670   4.558  15.047  0.0334  0.3825  0.8289
  283TMC3     O 4327   3.789   4.530  15.040 -0.8050 -0.0952 -0.5665
  283TMC3     H 4328   3.799   4.697  15.236  0.2304  0.5555 -1.4677
  283TMC3    H1 4329   3.417   4.511  15.138  1.1625  2.4692 -2.3492
  283TMC3    H2 4330   3.505   4.664  15.523  0.6080 -0.8552  0.6131
  283TMC3    C7 4331   3.317   4.550  15.387  0.4738  0.1136  0.3687
  283TMC3    C8 4332   3.721   0.065  15.457 -0.1132 -0.5243 -0.4575
  283TMC3    O1 4333   3.280   4.601  15.492 -0.2818  0.5272  0.5049
  283TMC3    O2 4334   3.671   0.094  15.564 -0.2437 -0.5126  0.6979
  284MPD2     C 4335   1.747   3.240  11.835 -0.2914  0.1833 -0.2332
  284MPD2    C1 4336   1.833   3.263  11.729 -0.5251 -0.2423  0.0879
  284MPD2    C2 4337   1.829   3.192  11.612 -0.1345  0.0833  0.5491
  284MPD2    C3 4338   1.737   3.091  11.599 -0.4131 -0.0996  0.1378
  284MPD2    C4 4339   1.661   3.057  11.710 -0.3081  0.4541 -0.8796
  284MPD2    C5 4340   1.663   3.131  11.828  0.4587  0.0515  0.2455
  284MPD2     H 4341   1.895   3.201  11.527 -0.4006 -1.3795  0.1851
  284MPD2    H1 4342   1.597   2.971  11.696 -2.2303  1.6724  0.5641
  284MPD2    H2 4343   1.752   3.294  11.929 -0.7016 -0.4480  0.1569
  284MPD2    H3 4344   1.599   3.117  11.914  0.7995 -1.2878  0.2774
  284MPD2     N 4345   1.726   3.018  11.478 -0.2117 -0.4654 -0.5460
  284MPD2    H5 4346   1.690   2.923  11.485 -1.0392 -0.3621 -3.5944
  284MPD2    N1 4347   1.925   3.361  11.724 -0.1416  0.4424 -0.3127
  284MPD2    H7 4348   1.977   3.367  11.637  0.1543 -1.9263 -0.3182
  285TMC3    C1 4349   2.023   3.574  11.775 -0.5099  0.5559  0.7677
  285TMC3    C2 4350   2.111   3.570  11.666  0.3839 -0.1373 -0.1791
  285TMC3    C3 4351   2.188   3.682  11.651  0.4830  0.2151 -0.4540
  285TMC3    C4 4352   2.009   3.689  11.852 -0.7467  0.2157 -0.1014
  285TMC3    C5 4353   2.094   3.790  11.830 -0.3912  0.6996  0.3393
  285TMC3    C6 4354   2.193   3.784  11.740 -0.5565  0.3521 -0.4495
  285TMC3     C 4355   1.940   3.458  11.818 -0.4767  0.7515 -0.7215
  285TMC3     O 4356   1.891   3.476  11.927  0.4869 -0.5086 -0.0886
  285TMC3     H 4357   2.119   3.480  11.605  0.8524  0.0952 -0.4525
  285TMC3    H1 4358   1.923   3.703  11.917 -0.7233  1.7775 -0.3973
  285TMC3    H2 4359   2.256   3.872  11.728 -1.7609  1.2780  0.0752
  285TMC3    C7 4360   2.060   3.927  11.840 -0.4464 -0.3629 -0.4387
  285TMC3    C8 4361   2.220   3.730  11.516 -0.1235 -0.0922  0.5145
  285TMC3    O1 4362   2.145   4.006  11.881  0.1004 -0.4060  0.0933
  285TMC3    O2 4363   2.262   3.844  11.519 -0.5056  0.9150 -0.5080
  286MPD2     C 4364   1.777   2.072   1.158 -0.1053  0.4420 -0.3978
  286MPD2    C1 4365   1.865   2.168   1.204  0.6952 -0.2967  0.0247
  286MPD2    C2 4366   1.998   2.165   1.159  0.0952  0.1515  0.2822
  286MPD2    C3 4367   2.047   2.053   1.090 -0.1023 -0.2247  0.3830
  286MPD2    C4 4368   1.954   1.954   1.054 -0.6391 -0.1879 -0.4237
  286MPD2    C5 4369   1.823   1.963   1.089  0.4115 -0.4136  0.6927
  286MPD2     H 4370   2.061   2.245   1.195 -0.0989  0.4024  0.0609
  286MPD2    H1 4371   1.987   1.862   1.009 -2.1405 -0.4437 -1.0063
  286MPD2    H2 4372   1.677   2.070   1.199  0.0276  4.2159  0.1524
  286MPD2    H3 4373   1.759   1.877   1.072  1.0528 -0.6323 -0.6669
  286MPD2     N 4374   2.186   2.034   1.069 -0.0671 -0.5845  0.1784
  286MPD2    H5 4375   2.220   1.965   1.004  0.2310 -0.6211  0.3738
  286MPD2    N1 4376   1.827   2.291   1.274 -0.4900 -0.3769  0.0146
  286MPD2    H7 4377   1.892   2.369   1.280 -0.4098 -0.2551 -2.6950
  287TMC3    C1 4378   2.411   2.114   1.077  0.2895 -0.5358  0.9548
  287TMC3    C2 4379   2.434   2.037   0.967 -0.4183 -0.2451  0.0848
  287TMC3    C3 4380   2.557   2.014   0.920  0.1320  0.2880  0.2523
  287TMC3    C4 4381   2.519   2.182   1.133 -0.1595 -0.9971  0.0637
  287TMC3    C5 4382   2.647   2.154   1.087  0.0835  0.9367  0.0584
  287TMC3    C6 4383   2.666   2.072   0.981  0.6730  0.2323  0.0415
  287TMC3     C 4384   2.282   2.122   1.132  0.4867 -0.0450  0.6721
  287TMC3     O 4385   2.276   2.175   1.244  0.1432  0.3220 -0.4357
  287TMC3     H 4386   2.349   1.997   0.914  0.1777  0.0501 -1.1000
  287TMC3    H1 4387   2.497   2.240   1.222 -1.2146 -1.6313  0.2159
  287TMC3    H2 4388   2.765   2.037   0.953  0.5421  2.4683 -3.0601
  287TMC3    C7 4389   2.755   2.213   1.166 -0.3090  0.4780  0.8863
  287TMC3    C8 4390   2.557   1.919   0.812  0.1755  0.0649  1.0007
  287TMC3    O1 4391   2.722   2.324   1.205  0.5178  0.2444  0.3466
  287TMC3    O2 4392   2.459   1.850   0.790  0.1896  0.1007  0.5756
  288TMC3    C1 4393   4.550   2.227  14.351  0.6203 -0.1888  0.1134
  288TMC3    C2 4394   4.417   2.228  14.386 -0.0744  0.3998 -0.0277
  288TMC3    C3 4395   4.335   2.285  14.297 -0.0520  0.6091 -0.3392
  288TMC3    C4 4396   4.598   2.255  14.222 -0.8960 -0.0541  0.1078
  288TMC3    C5 4397   4.508   2.311  14.132 -1.1229 -0.4940  0.3203
  288TMC3    C6 4398   4.368   2.320  14.167 -0.0909 -0.3396 -0.5138
  288TMC3     C 4399   4.643   2.236  14.466 -0.7020  0.4659  0.2241
  288TMC3     O 4400   4.594   2.288  14.568  0.0861 -0.2316  0.5491
  288TMC3     H 4401   4.381   2.216  14.488  0.6225  1.4760  0.3367
  288TMC3    H1 4402   4.704   2.271  14.206 -1.4041  3.0213 -0.1364
  288TMC3    H2 4403   4.293   2.364  14.102 -0.4695  1.8354  1.4503
  288TMC3    C7 4404   4.569   2.410  14.050 -0.1597 -0.8041 -0.3242
  288TMC3    C8 4405   4.203   2.321  14.335 -0.5875  0.7469  0.7006
  288TMC3    O1 4406   4.685   2.448  14.072  0.4088  0.3879 -0.4552
  288TMC3    O2 4407   4.154   2.408  14.267  0.8052 -0.2821  0.0549
  289MPD2     C 4408   4.144   1.388  14.515 -0.5130  0.7298 -0.6173
  289MPD2    C1 4409   4.158   1.484  14.416  0.5352  0.2364 -0.7397
  289MPD2    C2 4410   4.056   1.513  14.326 -0.5427 -0.2121 -0.3046
  289MPD2    C3 4411   3.936   1.448  14.341 -0.1730 -0.4974 -0.1922
  289MPD2    C4 4412   3.922   1.356  14.436 -0.1294 -0.5062 -0.0608
  289MPD2    C5 4413   4.025   1.316  14.518 -0.5013 -0.3314  0.0212
  289MPD2     H 4414   4.074   1.576  14.239  0.3672 -0.6615 -0.4376
  289MPD2    H1 4415   3.827   1.304  14.436  1.4921 -3.4398  4.0282
  289MPD2    H2 4416   4.228   1.364  14.580 -1.6387 -1.4426  0.0492
  289MPD2    H3 4417   4.016   1.244  14.598 -0.2026 -0.8795 -0.4425
  289MPD2     N 4418   3.833   1.472  14.245  0.4850  0.1862 -0.3469
  289MPD2    H5 4419   3.760   1.402  14.243 -0.7584  1.5106 -1.0219
  289MPD2    N1 4420   4.276   1.565  14.424  0.0699  0.0660  0.1421
  289MPD2    H7 4421   4.351   1.527  14.481 -0.4784 -0.3389  0.5901
  290TMC3    C1 4422   3.701   1.584  14.090  0.2672 -0.1254 -0.2296
  290TMC3    C2 4423   3.656   1.703  14.043  0.7244  0.6977  0.6285
  290TMC3    C3 4424   3.563   1.711  13.948 -0.0706 -0.0093  0.3140
  290TMC3    C4 4425   3.646   1.469  14.046 -0.2863  1.2582 -0.2680
  290TMC3    C5 4426   3.542   1.476  13.961 -0.6613  0.0236  0.4833
  290TMC3    C6 4427   3.502   1.596  13.903  0.6135  0.3173 -0.2034
  290TMC3     C 4428   3.827   1.590  14.169 -1.0639  0.1643  0.1554
  290TMC3     O 4429   3.893   1.694  14.180 -0.7839  0.6364 -0.2076
  290TMC3     H 4430   3.695   1.790  14.095  1.3717  0.7042  0.1325
  290TMC3    H1 4431   3.690   1.373  14.072  0.6660  1.6384 -0.5132
  290TMC3    H2 4432   3.417   1.604  13.836 -0.3392 -1.4285  0.7899
  290TMC3    C7 4433   3.509   1.361  13.889  0.9578 -0.3888  0.3642
  290TMC3    C8 4434   3.476   1.824  13.943 -0.0104  0.0468 -0.1843
  290TMC3    O1 4435   3.462   1.374  13.779  0.9271 -0.4473 -0.1670
  290TMC3    O2 4436   3.357   1.790  13.945  0.3682  0.0540  0.4608
  291MPD2     C 4437   3.515   1.215   0.084  0.4723  0.4665  0.2035
  291MPD2    C1 4438   3.496   1.082   0.091 -0.1874  0.1815 -0.8863
  291MPD2    C2 4439   3.569   0.994   0.009  0.6569  0.5465  0.2867
  291MPD2    C3 4440   3.668   1.048  17.677 -0.0795  0.4802 -0.8613
  291MPD2    C4 4441   3.685   1.183  17.665  0.1724 -1.0437 -0.0000
  291MPD2    C5 4442   3.605   1.264  17.749 -0.4949  0.6847  0.8858
  291MPD2     H 4443   3.555   0.887   0.018 -0.2890  0.7653  1.4005
  291MPD2    H1 4444   3.751   1.232  17.595 -0.7319  1.0392  0.6056
  291MPD2    H2 4445   3.457   1.286   0.143  1.8678  1.0132  0.9264
  291MPD2    H3 4446   3.629   1.370  17.741 -0.3653  0.5944  0.0918
  291MPD2     N 4447   3.755   0.974  17.592 -0.0878  0.2040  0.6535
  291MPD2    H5 4448   3.815   1.025  17.529 -1.5681  1.0386 -0.0766
  291MPD2    N1 4449   3.398   1.022   0.178  0.2250  0.5441  0.2248
  291MPD2    H7 4450   3.380   0.923   0.180  1.5397  0.3141  0.6313
  292TMC3    C1 4451   3.210   1.007   0.321  0.6758 -0.3966 -0.0125
  292TMC3    C2 4452   3.153   1.058   0.430 -0.4530  0.7384 -0.1989
  292TMC3    C3 4453   3.073   0.974   0.509  0.2678  0.3391  0.3088
  292TMC3    C4 4454   3.188   0.881   0.275  0.5943  0.3968 -0.9840
  292TMC3    C5 4455   3.104   0.803   0.352  0.1491 -0.0616 -0.2376
  292TMC3    C6 4456   3.032   0.853   0.455 -0.1202  0.3770 -0.4344
  292TMC3     C 4457   3.302   1.094   0.243  0.8084  1.0655  0.1251
  292TMC3     O 4458   3.299   1.209   0.281 -0.1632  0.6670 -0.7935
  292TMC3     H 4459   3.179   1.157   0.465  1.0852  1.0594 -2.2515
  292TMC3    H1 4460   3.240   0.837   0.191  1.0415  0.8621 -0.9480
  292TMC3    H2 4461   2.952   0.797   0.504  1.3442 -1.7490 -0.4884
  292TMC3    C7 4462   3.076   0.671   0.306  0.1095  0.3472  0.1799
  292TMC3    C8 4463   3.023   1.027   0.632  0.3538  0.2735  0.0451
  292TMC3    O1 4464   3.110   0.634   0.193 -0.2264  0.1432 -0.1968
  292TMC3    O2 4465   3.084   1.121   0.678  0.5598  0.8455  0.2592
  293MPD2     C 4466   0.271   3.159  12.554 -0.5374  0.2100 -0.4849
  293MPD2    C1 4467   0.147   3.120  12.593 -0.5904 -0.7305  0.2465
  293MPD2    C2 4468   0.119   3.087  12.725  0.2535 -0.2027  0.4217
  293MPD2    C3 4469   0.217   3.095  12.820 -0.0868 -0.6686 -0.2719
  293MPD2    C4 4470   0.346   3.134  12.779 -0.3153  0.1094  0.8462
  293MPD2    C5 4471   0.371   3.165  12.647 -0.1110  0.0550 -0.0387
  293MPD2     H 4472   0.019   3.064  12.762 -0.9505  1.6081 -1.7394
  293MPD2    H1 4473   0.430   3.156  12.843  0.6843  1.1739 -0.8416
  293MPD2    H2 4474   0.289   3.186  12.451 -1.9853  0.9093 -0.5598
  293MPD2    H3 4475   0.467   3.202  12.613  0.3056 -1.6518 -0.6925
  293MPD2     N 4476   0.184   3.052  12.949 -1.0667  0.5702  0.3033
  293MPD2    H5 4477   0.086   3.038  12.974 -0.7527 -1.7429  0.2618
  293MPD2    N1 4478   0.050   3.108  12.489 -0.3406 -0.0551 -0.4002
  293MPD2    H7 4479   0.075   3.139  12.396  1.1538 -1.0073 -0.3303
  294TMC3    C1 4480   4.593   3.055  12.374  0.3764  0.2643  0.3821
  294TMC3    C2 4481   4.488   2.962  12.360 -0.0797  0.1395 -0.5256
  294TMC3    C3 4482   4.431   2.934  12.236  0.8705  0.4812  0.1245
  294TMC3    C4 4483   4.641   3.115  12.261  0.1205 -0.6099 -0.3619
  294TMC3    C5 4484   4.581   3.083  12.140 -0.1499  0.3236  0.5490
  294TMC3    C6 4485   4.476   2.991  12.122 -0.3698  0.0088  0.0445
  294TMC3     C 4486   4.660   3.058  12.500 -0.3739 -0.1859  0.1256
  294TMC3     O 4487   4.600   3.023  12.601  0.6153  0.7647  0.5202
  294TMC3     H 4488   4.440   2.923  12.449 -2.5968  0.9577 -1.5435
  294TMC3    H1 4489   4.714   3.195  12.266 -2.3777  1.5611  1.0262
  294TMC3    H2 4490   4.416   2.992  12.032 -0.3434 -1.9731  0.0116
  294TMC3    C7 4491   4.593   3.193  12.040  0.1398  1.2149 -0.1803
  294TMC3    C8 4492   4.343   2.823  12.225 -0.1743 -0.1635  0.0909
  294TMC3    O1 4493   4.594   3.302  12.091  0.2938  0.5237 -0.0415
  294TMC3    O2 4494   4.276   2.802  12.326 -0.4812 -0.4673 -0.0560
  295MPD2     C 4495   1.091   1.057   0.867 -0.1169 -0.5528  0.5339
  295MPD2    C1 4496   1.122   0.997   0.746 -0.1580 -0.7887  0.1308
  295MPD2    C2 4497   1.244   0.926   0.728 -0.0553 -0.2630 -0.0757
  295MPD2    C3 4498   1.335   0.922   0.833  0.5260  0.1308 -0.0419
  295MPD2    C4 4499   1.301   0.978   0.951 -0.5026  0.6838  0.1645
  295MPD2    C5 4500   1.183   1.044   0.969  0.4206  0.3694 -0.2178
  295MPD2     H 4501   1.262   0.879   0.633 -1.6582  0.7480 -0.8869
  295MPD2    H1 4502   1.361   0.968   1.041  0.6504  0.7164 -0.6063
  295MPD2    H2 4503   0.993   1.100   0.882 -0.7643 -1.6883 -0.4388
  295MPD2    H3 4504   1.157   1.086   1.066  1.1230  0.3710 -0.0256
  295MPD2     N 4505   1.452   0.851   0.809 -0.8227  0.1057 -0.6144
  295MPD2    H5 4506   1.458   0.795   0.724 -2.6747 -1.2228  0.1092
  295MPD2    N1 4507   1.045   1.005   0.629 -0.2565 -0.8215  0.2555
  295MPD2    H7 4508   1.079   0.952   0.549  0.7303  0.0072  0.1366
  296TMC3    C1 4509   1.674   0.776   0.810 -0.3742  0.1699  0.4292
  296TMC3    C2 4510   1.805   0.813   0.827 -0.2657 -0.0394 -0.0765
  296TMC3    C3 4511   1.895   0.750   0.749  0.5057  0.1542 -0.1566
  296TMC3    C4 4512   1.633   0.678   0.723 -0.2762  0.2792 -0.4393
  296TMC3    C5 4513   1.730   0.606   0.655 -0.1125  0.9139 -0.6439
  296TMC3    C6 4514   1.861   0.645   0.662 -0.2127 -0.6720  0.2466
  296TMC3     C 4515   1.571   0.851   0.879  0.7116  0.4379 -0.1480
  296TMC3     O 4516   1.593   0.913   0.983 -0.0384 -0.1407 -0.2311
  296TMC3     H 4517   1.834   0.894   0.893  0.9295 -0.7204  0.2230
  296TMC3    H1 4518   1.535   0.633   0.730 -0.5431  0.8871 -0.3223
  296TMC3    H2 4519   1.937   0.578   0.624 -0.6547 -1.3845  0.6253
  296TMC3    C7 4520   1.691   0.485   0.581  0.2093  0.2127 -0.2172
  296TMC3    C8 4521   2.028   0.807   0.731  0.2180 -0.0872 -0.2718
  296TMC3    O1 4522   1.778   0.405   0.575 -0.1441  0.1035 -0.4201
  296TMC3    O2 4523   2.092   0.770   0.636  0.2651 -0.2454  0.9043
  297MPD2     C 4524   2.723   3.272  16.583 -0.5190  0.4332 -0.2633
  297MPD2    C1 4525   2.719   3.206  16.465  0.1797  0.2325 -0.3006
  297MPD2    C2 4526   2.767   3.267  16.349  0.5489  0.2456  0.6136
  297MPD2    C3 4527   2.844   3.390  16.371 -0.1673 -0.0402 -0.0653
  297MPD2    C4 4528   2.866   3.436  16.500  0.4331 -0.2219 -0.4249
  297MPD2    C5 4529   2.803   3.385  16.606 -0.3091 -0.2429 -0.4782
  297MPD2     H 4530   2.773   3.226  16.249  1.5815 -1.4829  1.3953
  297MPD2    H1 4531   2.919   3.528  16.520  0.3314 -0.0517 -0.9348
  297MPD2    H2 4532   2.664   3.233  16.665  0.0672  1.1375  0.4994
  297MPD2    H3 4533   2.816   3.436  16.701 -1.0516 -1.1075  0.0882
  297MPD2     N 4534   2.884   3.465  16.257  0.2265  0.8617 -0.4771
  297MPD2    H5 4535   2.847   3.428  16.170  1.9199  1.2650 -1.3635
  297MPD2    N1 4536   2.644   3.087  16.449  0.2423 -0.3013 -0.4676
  297MPD2    H7 4537   2.653   3.052  16.354  1.0961 -1.7498  0.1453
  298TMC3    C1 4538   2.475   2.927  16.467 -0.2280 -0.0353  0.3938
  298TMC3    C2 4539   2.465   2.946  16.328  0.6874 -0.2195 -0.6524
  298TMC3    C3 4540   2.342   2.927  16.269 -0.2878 -0.3322  0.8133
  298TMC3    C4 4541   2.368   2.895  16.540  0.8547  0.4791  0.3807
  298TMC3    C5 4542   2.248   2.890  16.478  0.7559 -0.5074  0.5451
  298TMC3    C6 4543   2.233   2.898  16.341 -0.5052 -0.2185  0.5935
  298TMC3     C 4544   2.557   3.033  16.533  0.8706  0.2548  0.4766
  298TMC3     O 4545   2.513   3.068  16.641 -0.1298 -0.6203 -0.1614
  298TMC3     H 4546   2.552   2.966  16.266  1.5177 -0.6345  0.3750
  298TMC3    H1 4547   2.361   2.898  16.648 -2.0017 -1.3472  0.2691
  298TMC3    H2 4548   2.138   2.900  16.288  0.3942 -3.2066 -1.1513
  298TMC3    C7 4549   2.145   2.965  16.545  0.2875 -0.2136 -0.1783
  298TMC3    C8 4550   2.311   2.955  16.133 -0.0647  0.5771  0.1525
  298TMC3    O1 4551   2.156   2.983  16.667 -0.4727 -0.0210 -0.1164
  298TMC3    O2 4552   2.198   2.975  16.094 -0.6606 -0.4149  0.2066
  299MPD2     C 4553   2.404   3.000  10.488  0.7344  0.2740 -0.1849
  299MPD2    C1 4554   2.489   3.048  10.394 -0.5938 -0.5982  0.1645
  299MPD2    C2 4555   2.437   3.106  10.274  0.2820 -0.0583  0.0612
  299MPD2    C3 4556   2.304   3.098  10.254 -0.4633  0.5014 -0.7895
  299MPD2    C4 4557   2.218   3.040  10.345  0.2770 -0.2847 -0.0098
  299MPD2    C5 4558   2.271   2.997  10.466 -0.0235  0.1712  0.0050
  299MPD2     H 4559   2.498   3.159  10.202  1.3804  0.0815  1.0944
  299MPD2    H1 4560   2.111   3.033  10.326  0.1455 -2.7538  1.7550
  299MPD2    H2 4561   2.442   2.957  10.580  0.7787 -0.2205 -0.4343
  299MPD2    H3 4562   2.199   2.967  10.541 -0.3507  2.5406  0.6496
  299MPD2     N 4563   2.236   3.137  10.138  0.1523  0.2115 -0.0415
  299MPD2    H5 4564   2.136   3.125  10.134 -0.1056  2.4365 -0.1648
  299MPD2    N1 4565   2.629   3.041  10.418  0.9770  0.3659  0.4973
  299MPD2    H7 4566   2.657   2.991  10.502 -0.1256 -1.3947 -0.1947
  300TMC3    C1 4567   2.199   3.205   9.909  0.4572  0.3724  0.2432
  300TMC3    C2 4568   2.260   3.259   9.795 -0.1340  0.1613  0.1187
  300TMC3    C3 4569   2.187   3.339   9.719  0.0884  0.1281  0.2195
  300TMC3    C4 4570   2.069   3.239   9.942 -0.1599 -0.4367  0.7297
  300TMC3    C5 4571   2.003   3.319   9.851 -0.1704  0.0102 -0.3051
  300TMC3    C6 4572   2.051   3.364   9.735 -0.5553 -0.4832  0.2054
  300TMC3     C 4573   2.291   3.179  10.018  0.1380  0.2553  0.4166
  300TMC3     O 4574   2.406   3.224   9.992  0.3987  0.1866 -0.2170
  300TMC3     H 4575   2.361   3.232   9.768 -0.0724 -0.1491  0.6408
  300TMC3    H1 4576   2.016   3.216  10.034  0.0163 -1.7468  0.4987
  300TMC3    H2 4577   1.995   3.426   9.666 -0.4529  0.3631  0.8834
  300TMC3    C7 4578   1.879   3.380   9.896  0.1034  1.0026  0.6534
  300TMC3    C8 4579   2.254   3.424   9.621 -0.0576 -0.1829  0.2752
  300TMC3    O1 4580   1.794   3.391   9.808 -0.1242  0.2592 -0.7123
  300TMC3    O2 4581   2.192   3.460   9.520  0.1469  0.0377  0.3348
  301MPD2     C 4582   0.559   0.197   0.108 -0.3618  0.1112  0.0858
  301MPD2    C1 4583   0.485   0.097   0.162  0.7898  0.1898  0.6390
  301MPD2    C2 4584   0.516   4.700   0.161  0.3519 -0.2187 -0.4051
  301MPD2    C3 4585   0.636   4.658   0.103 -0.0062 -0.4126  0.1530
  301MPD2    C4 4586   0.714   0.023   0.053  0.4385  0.0818  0.5587
  301MPD2    C5 4587   0.670   0.151   0.045  0.2263  0.2241 -0.3541
  301MPD2     H 4588   0.456   4.627   0.214  0.2648  0.8219  0.9423
  301MPD2    H1 4589   0.809   0.003   0.003  0.2213 -2.0418  1.0144
  301MPD2    H2 4590   0.528   0.301   0.109  2.6686  0.9903  2.3176
  301MPD2    H3 4591   0.719   0.222  17.729 -2.0392  1.7376 -0.4048
  301MPD2     N 4592   0.687   4.528   0.111  0.3223 -0.0076 -0.8396
  301MPD2    H5 4593   0.777   4.498   0.076  0.5517  0.7326 -0.8687
  301MPD2    N1 4594   0.376   0.133   0.245 -0.5856  0.6325 -0.3707
  301MPD2    H7 4595   0.319   0.060   0.286  0.3350  0.4639  0.6164
  302TMC3    C1 4596   0.667   4.321   0.214 -0.6920  0.1636  0.7010
  302TMC3    C2 4597   0.799   4.340   0.243  0.6881  0.3686 -0.7349
  302TMC3    C3 4598   0.857   4.238   0.322  0.3810  0.1126 -0.0138
  302TMC3    C4 4599   0.588   4.220   0.254  0.3805 -0.9154 -0.1083
  302TMC3    C5 4600   0.654   4.121   0.330  0.0034 -0.1912  0.4334
  302TMC3    C6 4601   0.788   4.123   0.352 -0.3741  0.0260  0.2904
  302TMC3     C 4602   0.603   4.426   0.137 -0.6109 -0.2789  0.4308
  302TMC3     O 4603   0.481   4.419   0.128 -0.1107 -0.1336 -0.7252
  302TMC3     H 4604   0.864   4.424   0.219  1.9643 -0.2973  0.3866
  302TMC3    H1 4605   0.487   4.200   0.220  0.6419 -0.6559 -1.0379
  302TMC3    H2 4606   0.830   4.051   0.421  0.9693  0.8796  0.3578
  302TMC3    C7 4607   0.581   4.022   0.408 -0.0619  0.2317 -0.0418
  302TMC3    C8 4608   0.949   4.269   0.422  0.2722  0.5894  0.3923
  302TMC3    O1 4609   0.640   3.929   0.456 -0.1993  0.1393 -0.0485
  302TMC3    O2 4610   0.964   4.189   0.514  0.0406 -0.3427 -0.0313
  303MPD2     C 4611   0.545   2.586  10.384 -0.9562  0.1195 -0.3100
  303MPD2    C1 4612   0.489   2.462  10.370  0.1584  0.3852 -0.2439
  303MPD2    C2 4613   0.468   2.413  10.243 -0.1367 -0.3525  1.0268
  303MPD2    C3 4614   0.501   2.481  10.125  0.4718  0.1179 -0.3937
  303MPD2    C4 4615   0.563   2.601  10.141 -0.4522 -0.5696 -0.1265
  303MPD2    C5 4616   0.585   2.648  10.265  0.1775  0.2419  0.2210
  303MPD2     H 4617   0.422   2.315  10.232 -0.3373 -0.2955  1.3570
  303MPD2    H1 4618   0.593   2.660  10.056 -0.5158  0.9485  0.9180
  303MPD2    H2 4619   0.572   2.630  10.479  1.2533 -1.4178 -0.2250
  303MPD2    H3 4620   0.635   2.743  10.276 -2.2427  1.6873 -1.1705
  303MPD2     N 4621   0.485   2.430   9.995 -0.7550 -0.6949  0.4735
  303MPD2    H5 4622   0.517   2.490   9.920 -0.2303 -0.0207  1.2331
  303MPD2    N1 4623   0.442   2.405  10.492 -0.1118 -0.3956  0.5217
  303MPD2    H7 4624   0.460   2.460  10.576 -1.6946  1.3092 -0.2480
  304TMC3    C1 4625   0.375   2.237  10.635 -0.3088 -0.3975 -0.3752
  304TMC3    C2 4626   0.271   2.311  10.682 -0.6115  0.0032 -0.7399
  304TMC3    C3 4627   0.172   2.251  10.757  0.5067 -0.6406  0.2002
  304TMC3    C4 4628   0.387   2.104  10.674  0.4682  0.0342 -0.4482
  304TMC3    C5 4629   0.295   2.049  10.761  0.5538 -0.0044  0.0324
  304TMC3    C6 4630   0.188   2.124  10.798 -0.1363 -0.0759  0.6075
  304TMC3     C 4631   0.417   2.271  10.501 -0.4460  0.0619  0.0136
  304TMC3     O 4632   0.453   2.176  10.426  0.6145 -0.0068 -0.4497
  304TMC3     H 4633   0.256   2.413  10.648  1.1550  0.2415 -0.7880
  304TMC3    H1 4634   0.464   2.038  10.635  2.2970  0.8767  1.7619
  304TMC3    H2 4635   0.118   2.081  10.869 -0.2032 -4.6424 -2.2479
  304TMC3    C7 4636   0.244   1.918  10.739 -0.0732 -0.0064 -0.3062
  304TMC3    C8 4637   0.048   2.287  10.700 -0.1799 -0.4825  0.0590
  304TMC3    O1 4638   0.122   1.912  10.724 -0.7735  0.9263  0.0862
  304TMC3    O2 4639   0.013   2.404  10.703  0.1017  0.1351  0.9777
  305MPD2     C 4640   3.692   0.338  14.261 -0.6879  0.5628  0.2254
  305MPD2    C1 4641   3.729   0.209  14.274  0.1721  0.1867 -0.3861
  305MPD2    C2 4642   3.731   0.124  14.164 -0.0097 -0.3882 -0.0081
  305MPD2    C3 4643   3.709   0.172  14.040 -0.5478 -0.4572 -0.4276
  305MPD2    C4 4644   3.668   0.304  14.022 -0.3069  0.9367  0.0612
  305MPD2    C5 4645   3.660   0.385  14.135  0.5535 -0.3743 -0.5405
  305MPD2     H 4646   3.768   0.022  14.171 -1.1794 -0.8502 -0.6931
  305MPD2    H1 4647   3.677   0.361  13.930 -0.4277  2.3242  0.9014
  305MPD2    H2 4648   3.700   0.409  14.344 -1.3901  3.5307 -2.2481
  305MPD2    H3 4649   3.648   0.492  14.119 -2.5293 -0.1979  2.6765
  305MPD2     N 4650   3.720   0.101  13.920  0.3976  0.1394 -0.6152
  305MPD2    H5 4651   3.723   0.152  13.833  1.9362 -0.2052 -0.7553
  305MPD2    N1 4652   3.769   0.173  14.405  0.0030  0.5277 -0.5040
  305MPD2    H7 4653   3.763   0.245  14.477 -1.8564 -0.2172  0.0897
  306TMC3    C1 4654   3.896   0.098  14.579 -0.2241  0.0846 -0.6331
  306TMC3    C2 4655   3.957   4.736  14.649 -0.1464 -0.6258 -0.0310
  306TMC3    C3 4656   4.028   0.032  14.758  0.0652 -0.6547  0.1611
  306TMC3    C4 4657   3.925   0.232  14.600 -0.4811 -0.2502 -0.3945
  306TMC3    C5 4658   4.015   0.258  14.702 -0.0482 -0.1385 -0.5830
  306TMC3    C6 4659   4.065   0.159  14.776 -0.0956  0.9948  0.0453
  306TMC3     C 4660   3.844   0.064  14.448  0.4717  0.4130 -0.3136
  306TMC3     O 4661   3.849   4.692  14.397  0.1012  0.3306  0.0734
  306TMC3     H 4662   3.934   4.637  14.613 -0.3543 -1.4960  2.4985
  306TMC3    H1 4663   3.907   0.311  14.529 -0.7507 -1.3392 -1.5304
  306TMC3    H2 4664   4.124   0.174  14.866 -0.1563 -0.9963  0.4149
  306TMC3    C7 4665   4.023   0.399  14.740 -0.2625 -0.3581  1.0300
  306TMC3    C8 4666   4.091   4.663  14.834  0.5873 -0.7266  0.3978
  306TMC3    O1 4667   3.988   0.485  14.659 -0.6461  0.5691 -0.0994
  306TMC3    O2 4668   4.140   4.568  14.774 -0.5997 -0.0776 -0.2030
  307MPD2     C 4669   1.636   2.357   0.970 -0.3040 -0.7405 -0.2168
  307MPD2    C1 4670   1.611   2.491   0.948 -0.0323  0.3155 -0.4019
  307MPD2    C2 4671   1.493   2.540   1.005  0.0249  0.3274 -0.7846
  307MPD2    C3 4672   1.417   2.461   1.080  0.3541  0.2837  0.1346
  307MPD2    C4 4673   1.434   2.325   1.090  0.1557  0.3668  0.1855
  307MPD2    C5 4674   1.547   2.271   1.026 -0.4070  0.9298  0.6796
  307MPD2     H 4675   1.467   2.644   0.997  0.8123  0.6933  1.3850
  307MPD2    H1 4676   1.361   2.257   1.132 -1.0529  0.6847 -1.4062
  307MPD2    H2 4677   1.727   2.314   0.929  1.8726  0.1113  3.6413
  307MPD2    H3 4678   1.574   2.168   1.007 -0.6934  1.1289 -0.7972
  307MPD2     N 4679   1.308   2.521   1.150  0.6026 -0.3527  0.0309
  307MPD2    H5 4680   1.290   2.619   1.131 -1.0819 -0.5890  0.4680
  307MPD2    N1 4681   1.686   2.576   0.862  0.3474  0.1752 -0.0764
  307MPD2    H7 4682   1.655   2.671   0.846  0.6179  0.3121  0.2097
  308TMC3    C1 4683   0.874   2.546   1.331  0.2393  0.1803 -0.0250
  308TMC3    C2 4684   0.872   2.682   1.301 -0.0452 -0.2262  0.4081
  308TMC3    C3 4685   0.980   2.739   1.240  0.0049  0.4465 -0.0960
  308TMC3    C4 4686   0.991   2.474   1.314  0.3754 -0.1341  0.3000
  308TMC3    C5 4687   1.089   2.535   1.240  0.1633  0.0919 -0.5022
  308TMC3    C6 4688   1.090   2.671   1.200  0.2341  0.2399 -0.0745
  308TMC3     C 4689   0.765   2.466   1.279  0.4806 -0.3112 -0.1895
  308TMC3     O 4690   0.747   2.354   1.318 -0.5040  0.8547 -0.3859
  308TMC3     H 4691   0.776   2.732   1.301  0.5534  0.9342  4.1108
  308TMC3    H1 4692   0.990   2.369   1.339 -2.9053 -0.8973 -3.0942
  308TMC3    H2 4693   1.171   2.719   1.146  0.2078 -1.6846 -1.8475
  308TMC3    C7 4694   1.205   2.455   1.219 -0.4675 -0.0339 -0.2589
  308TMC3    C8 4695   0.946   2.853   1.158  0.8063  0.1947  0.0835
  308TMC3    O1 4696   1.192   2.338   1.262 -0.4714 -0.0224  0.2145
  308TMC3    O2 4697   0.872   2.825   1.064  0.3829 -0.3556 -0.2027
  309MPD2     C 4698   0.573   2.624  17.395 -0.3356 -0.0018 -0.2242
  309MPD2    C1 4699   0.493   2.673  17.297 -0.3022  0.5711 -0.7023
  309MPD2    C2 4700   0.355   2.681  17.318  0.0277  0.0220  0.2315
  309MPD2    C3 4701   0.300   2.654  17.439  0.2928  0.1130  0.1224
  309MPD2    C4 4702   0.382   2.598  17.536 -0.3339  0.4520 -0.3532
  309MPD2    C5 4703   0.518   2.585  17.516 -0.1025  0.0492  0.0707
  309MPD2     H 4704   0.310   2.736  17.236  0.7558 -1.1951 -0.9805
  309MPD2    H1 4705   0.348   2.593  17.639 -1.0992 -0.2121 -0.6418
  309MPD2    H2 4706   0.681   2.619  17.386 -0.4494 -1.2903 -0.9049
  309MPD2    H3 4707   0.582   2.561  17.600 -0.1309 -0.0069  0.0765
  309MPD2     N 4708   0.173   2.689  17.485  0.1147  0.2654 -0.4193
  309MPD2    H5 4709   0.148   2.673  17.582 -1.9763 -2.2956 -1.3852
  309MPD2    N1 4710   0.536   2.702  17.165 -0.4019 -0.2753 -0.1043
  309MPD2    H7 4711   0.462   2.723  17.099 -0.4027 -0.1248 -0.0558
  310TMC3    C1 4712   0.673   2.703  16.976  0.7927 -0.1647  0.0366
  310TMC3    C2 4713   0.589   2.778  16.906  0.1855 -0.8557  0.2987
  310TMC3    C3 4714   0.627   2.810  16.773 -0.1410  0.1880  0.4139
  310TMC3    C4 4715   0.797   2.677  16.928 -0.0982 -0.0938 -0.1448
  310TMC3    C5 4716   0.840   2.720  16.803 -0.1569  0.2160  0.2622
  310TMC3    C6 4717   0.751   2.786  16.716 -0.4423 -0.6729  0.0257
  310TMC3     C 4718   0.665   2.695  17.120  0.1241 -0.4789 -0.1587
  310TMC3     O 4719   0.765   2.656  17.183  0.6295  0.1820 -0.0654
  310TMC3     H 4720   0.498   2.814  16.953  1.3059  0.1944  1.6347
  310TMC3    H1 4721   0.866   2.619  16.988  1.8682  1.8847 -0.4972
  310TMC3    H2 4722   0.784   2.808  16.615 -2.0585 -2.1243 -0.7998
  310TMC3    C7 4723   0.972   2.663  16.766  0.0368 -0.5563  0.3152
  310TMC3    C8 4724   0.529   2.872  16.690 -0.5392 -0.0497  0.1381
  310TMC3    O1 4725   1.006   2.560  16.825  0.3446 -0.1474 -0.0610
  310TMC3    O2 4726   0.577   2.906  16.578 -0.1481 -0.0838  0.4326
  311MPD2     C 4727   2.685   4.260  12.667  0.3301  0.6061  0.2445
  311MPD2    C1 4728   2.701   4.360  12.765  0.1308 -0.4226  0.0286
  311MPD2    C2 4729   2.599   4.408  12.848  0.2152  0.0405 -0.3398
  311MPD2    C3 4730   2.480   4.334  12.828  0.5864 -0.3322 -0.0503
  311MPD2    C4 4731   2.455   4.244  12.727 -0.0182  0.3370  0.3257
  311MPD2    C5 4732   2.561   4.208  12.649  0.0756 -0.2367 -0.0091
  311MPD2     H 4733   2.616   4.486  12.922 -0.0495 -2.1289  2.0024
  311MPD2    H1 4734   2.364   4.192  12.700  1.8100 -2.0051 -1.3329
  311MPD2    H2 4735   2.765   4.221  12.606 -0.2927  0.8911 -0.7519
  311MPD2    H3 4736   2.544   4.139  12.567 -4.3416  3.0815 -1.8355
  311MPD2     N 4737   2.366   4.360  12.915  0.0937 -0.1582  0.1824
  311MPD2    H5 4738   2.374   4.441  12.975  3.8783  0.6907 -1.5085
  311MPD2    N1 4739   2.826   4.413  12.795 -0.1050  0.3508  0.1893
  311MPD2    H7 4740   2.828   4.459  12.885  3.6070 -0.7394  0.6733
  312TMC3    C1 4741   2.146   4.377  12.979 -0.6741 -0.8298  0.7814
  312TMC3    C2 4742   2.019   4.355  12.930  0.1124  0.3904  0.1010
  312TMC3    C3 4743   1.919   4.432  12.986 -0.0472  0.0784  0.2143
  312TMC3    C4 4744   2.173   4.456  13.084 -0.1203  0.3931  1.1917
  312TMC3    C5 4745   2.070   4.528  13.134 -0.0792 -0.3520 -0.0149
  312TMC3    C6 4746   1.944   4.519  13.084  1.1984  0.6198 -0.5900
  312TMC3     C 4747   2.249   4.293  12.924  0.7380  0.0506  0.2309
  312TMC3     O 4748   2.210   4.192  12.867  0.5290  0.6226 -0.7913
  312TMC3     H 4749   2.001   4.302  12.837 -0.9112 -0.8126  0.9884
  312TMC3    H1 4750   2.273   4.458  13.125 -0.7515  1.4098  2.6939
  312TMC3    H2 4751   1.861   4.567  13.136  1.1860  0.5178 -0.5168
  312TMC3    C7 4752   2.066   4.564  13.273  0.9180  1.0970 -0.8771
  312TMC3    C8 4753   1.796   4.432  12.909 -1.0460  0.1162  0.3319
  312TMC3    O1 4754   1.982   4.644  13.310 -0.0031 -0.0819 -0.5464
  312TMC3    O2 4755   1.775   4.329  12.849  0.3417 -0.5727  0.1923
  313MPD2     C 4756   1.679   3.579  11.531  0.0783 -0.6018  0.5547
  313MPD2    C1 4757   1.624   3.674  11.441 -0.6077  0.0692  0.8246
  313MPD2    C2 4758   1.514   3.633  11.370 -0.1688  0.4651  0.2536
  313MPD2    C3 4759   1.449   3.520  11.386  0.2794 -0.5918  0.0009
  313MPD2    C4 4760   1.493   3.436  11.484  0.2292 -0.2274 -0.1150
  313MPD2    C5 4761   1.616   3.461  11.549  0.2791  0.0267  0.4792
  313MPD2     H 4762   1.475   3.702  11.295  0.3223  2.1058  1.5160
  313MPD2    H1 4763   1.442   3.341  11.493  2.7749 -1.8001 -2.4060
  313MPD2    H2 4764   1.762   3.606  11.596  0.4437  0.8561 -0.5291
  313MPD2    H3 4765   1.649   3.389  11.622  1.6479  0.9259  0.7552
  313MPD2     N 4766   1.339   3.498  11.298  0.0126  0.2877  0.3236
  313MPD2    H5 4767   1.326   3.566  11.225 -0.8333 -1.0596 -0.7944
  313MPD2    N1 4768   1.683   3.799  11.410 -0.0668  0.2367  0.6442
  313MPD2    H7 4769   1.631   3.865  11.353  1.0680 -0.3425 -1.0716
  314TMC3    C1 4770   1.851   3.965  11.399  0.6447  0.0285 -0.8686
  314TMC3    C2 4771   1.975   3.989  11.355  0.2588  0.1266  0.0307
  314TMC3    C3 4772   1.988   4.089  11.271 -0.8000  0.2223 -0.4574
  314TMC3    C4 4773   1.741   4.044  11.369 -0.4928  0.0973 -0.6979
  314TMC3    C5 4774   1.764   4.142  11.287  0.8877 -0.4130  0.5170
  314TMC3    C6 4775   1.883   4.176  11.238 -0.0063  0.8440 -0.4179
  314TMC3     C 4776   1.818   3.829  11.436  0.5929  0.1872  0.1951
  314TMC3     O 4777   1.903   3.766  11.500 -0.2178 -0.0659 -0.2651
  314TMC3     H 4778   2.057   3.922  11.377  1.0490  0.5783 -1.5766
  314TMC3    H1 4779   1.636   4.032  11.394  0.4851  0.0047  3.3508
  314TMC3    H2 4780   1.894   4.273  11.190  0.1802  1.0643  0.0694
  314TMC3    C7 4781   1.656   4.171  11.190 -0.5633  0.0980  0.0983
  314TMC3    C8 4782   2.122   4.139  11.253 -0.1829 -0.5690  0.3857
  314TMC3    O1 4783   1.542   4.168  11.231 -0.2525  0.1438 -0.0152
  314TMC3    O2 4784   2.129   4.247  11.189  0.0807 -0.8738 -0.0132
  315MPD2     C 4785   2.333   2.237   0.015  0.5684 -0.2285 -0.4480
  315MPD2    C1 4786   2.386   2.284   0.132 -0.5790  0.2674 -0.7990
  315MPD2    C2 4787   2.377   2.417   0.162  0.4046 -0.1976 -0.2704
  315MPD2    C3 4788   2.323   2.504   0.075  0.6827  0.0837 -0.6035
  315MPD2    C4 4789   2.269   2.455  17.705  0.4607  0.1047  0.9732
  315MPD2    C5 4790   2.273   2.326  17.682 -0.5168 -0.3386  1.1430
  315MPD2     H 4791   2.422   2.454   0.253  0.0983 -0.5670  0.0350
  315MPD2    H1 4792   2.221   2.518  17.632  0.3387  0.1413  1.0867
  315MPD2    H2 4793   2.335   2.134  17.731 -1.0394 -0.2664 -0.4682
  315MPD2    H3 4794   2.245   2.289  17.584  3.2312 -2.7282  0.9697
  315MPD2     N 4795   2.337   2.645   0.108 -0.0242 -0.0790 -0.6431
  315MPD2    H5 4796   2.379   2.673   0.196 -0.9483  3.9508 -1.4737
  315MPD2    N1 4797   2.449   2.205   0.229  0.4349  0.3861  0.1573
  315MPD2    H7 4798   2.491   2.254   0.307  0.3812  1.8211 -0.7075
  316TMC3    C1 4799   2.297   2.877   0.083  0.6927 -0.1629  0.0005
  316TMC3    C2 4800   2.396   2.902   0.179  0.5734  0.3129  0.2569
  316TMC3    C3 4801   2.405   3.026   0.232 -0.7533 -0.4837 -0.0809
  316TMC3    C4 4802   2.211   2.978   0.042 -0.4823  0.0580 -0.1748
  316TMC3    C5 4803   2.236   3.109   0.086  0.8147  0.2222 -0.3776
  316TMC3    C6 4804   2.331   3.134   0.183  0.8162 -0.1756 -0.2616
  316TMC3     C 4805   2.265   2.740   0.048 -0.6610 -0.0232  0.1613
  316TMC3     O 4806   2.194   2.736  17.695 -0.7570 -0.1825  0.3025
  316TMC3     H 4807   2.462   2.823   0.212 -1.2453 -0.7937  1.2890
  316TMC3    H1 4808   2.117   2.952  17.745 -0.8680  1.1632 -0.0237
  316TMC3    H2 4809   2.348   3.236   0.216 -0.3475 -0.5286  1.4002
  316TMC3    C7 4810   2.138   3.214   0.070 -0.2819  0.9741  0.2530
  316TMC3    C8 4811   2.508   3.048   0.331  0.0798  0.4613  0.3887
  316TMC3    O1 4812   2.139   3.291   0.163 -0.4522 -0.4630 -0.3409
  316TMC3    O2 4813   2.498   3.159   0.386  0.5419  0.4760 -0.0913
  317MPD2     C 4814   3.387   1.741  13.016 -0.4573  0.6320  0.3425
  317MPD2    C1 4815   3.427   1.611  12.983  0.1178  0.3228  0.0134
  317MPD2    C2 4816   3.517   1.540  13.061  0.6351 -0.7373  0.4808
  317MPD2    C3 4817   3.586   1.603  13.165 -0.8910 -0.1947  0.4118
  317MPD2    C4 4818   3.549   1.731  13.200 -0.5572  0.3180  0.6644
  317MPD2    C5 4819   3.445   1.797  13.131 -0.6955 -0.5867 -0.0826
  317MPD2     H 4820   3.548   1.439  13.039  2.2375 -0.1202 -0.0881
  317MPD2    H1 4821   3.592   1.781  13.286 -0.6066 -0.1036  0.9342
  317MPD2    H2 4822   3.326   1.802  12.950 -0.6777  0.5435  0.4635
  317MPD2    H3 4823   3.413   1.896  13.161  1.2313 -0.0845  0.3095
  317MPD2     N 4824   3.687   1.530  13.229  0.5213  0.3119 -0.2821
  317MPD2    H5 4825   3.691   1.434  13.198  1.5651  0.9654 -2.2286
  317MPD2    N1 4826   3.380   1.537  12.869  0.7505  0.9240  0.4549
  317MPD2    H7 4827   3.416   1.442  12.864 -1.0319  0.3612 -1.4180
  318TMC3    C1 4828   3.877   1.465  13.335 -0.0266 -0.4459 -0.3540
  318TMC3    C2 4829   3.823   1.346  13.374  0.5742 -0.3582  0.0850
  318TMC3    C3 4830   3.907   1.235  13.394 -0.2314  0.7137  0.1447
  318TMC3    C4 4831   4.012   1.482  13.331  0.4008 -0.1705 -0.5440
  318TMC3    C5 4832   4.094   1.377  13.365  0.2892  0.6374 -0.0029
  318TMC3    C6 4833   4.043   1.251  13.395 -0.0596 -0.3001 -0.7195
  318TMC3     C 4834   3.791   1.574  13.303 -0.5980 -0.1083 -0.2511
  318TMC3     O 4835   3.838   1.691  13.309 -1.0366 -0.1973  0.0624
  318TMC3     H 4836   3.716   1.338  13.393  0.6197 -2.5463 -0.6277
  318TMC3    H1 4837   4.056   1.574  13.295  1.5360 -0.7176 -0.5829
  318TMC3    H2 4838   4.097   1.161  13.420 -0.1779 -0.1363  0.1075
  318TMC3    C7 4839   4.230   1.403  13.366 -0.1438  0.2732  0.0247
  318TMC3    C8 4840   3.848   1.102  13.414 -1.0801 -0.2496  1.2269
  318TMC3    O1 4841   4.263   1.518  13.339  0.4738  0.3957  0.0862
  318TMC3    O2 4842   3.904   1.015  13.479  0.6323 -0.1462 -0.4844
  319MPD2     C 4843   0.027   2.669  16.296 -0.1661 -0.6351 -0.2485
  319MPD2    C1 4844   4.708   2.558  16.360 -0.4011 -0.1505 -0.6520
  319MPD2    C2 4845   4.572   2.538  16.358  0.1159 -0.2049 -0.0399
  319MPD2    C3 4846   4.488   2.623  16.291 -0.2792  0.4953  0.0642
  319MPD2    C4 4847   4.543   2.729  16.230  0.2914 -0.4015 -0.0637
  319MPD2    C5 4848   4.676   2.754  16.235  0.5907 -0.0884 -0.2607
  319MPD2     H 4849   4.532   2.444  16.394  1.2672  0.5939  3.3883
  319MPD2    H1 4850   4.475   2.796  16.180 -0.0246 -0.4849  0.2545
  319MPD2    H2 4851   0.129   2.702  16.307 -0.6684  0.9344 -0.3477
  319MPD2    H3 4852   4.715   2.848  16.199  0.8259  0.4885  1.4937
  319MPD2     N 4853   4.357   2.597  16.261  0.7797 -0.1610 -0.6810
  319MPD2    H5 4854   4.316   2.653  16.187 -1.3160  0.6247  1.0735
  319MPD2    N1 4855   0.048   2.470  16.429 -0.9543  1.1358  0.5508
  319MPD2    H7 4856   4.736   2.400  16.483 -0.5113  0.3676 -0.0258
  320TMC3    C1 4857   4.151   2.468  16.238 -0.4897 -0.1210 -0.2469
  320TMC3    C2 4858   4.108   2.560  16.147  0.0158  0.0676 -0.0946
  320TMC3    C3 4859   4.021   2.511  16.055  0.5057 -0.7416  0.7565
  320TMC3    C4 4860   4.115   2.331  16.242 -0.6643  0.0837  0.1427
  320TMC3    C5 4861   4.036   2.289  16.137 -0.0286  0.1146 -0.1836
  320TMC3    C6 4862   3.983   2.377  16.050  0.6350  0.8887 -0.0250
  320TMC3     C 4863   4.282   2.493  16.309  0.0892  0.3611 -0.3055
  320TMC3     O 4864   4.310   2.426  16.406  0.1573 -0.2790 -0.5178
  320TMC3     H 4865   4.124   2.666  16.161  1.3992 -0.1315 -0.1163
  320TMC3    H1 4866   4.176   2.260  16.296 -0.2893  0.3706  0.0926
  320TMC3    H2 4867   3.909   2.341  15.979  1.0346 -1.0905  0.5555
  320TMC3    C7 4868   4.076   2.167  16.070  0.1840  0.8737  0.5291
  320TMC3    C8 4869   3.978   2.596  15.945 -0.1023 -0.2876 -0.1188
  320TMC3    O1 4870   4.064   2.164  15.949  0.5569  0.1365 -0.2118
  320TMC3    O2 4871   3.977   2.720  15.963 -0.2543  0.1439  0.0009
  321TMC3    C1 4872   0.217   2.363  16.540  0.3232  0.2412 -0.7837
  321TMC3    C2 4873   0.319   2.274  16.503 -0.5942 -0.6861  0.4700
  321TMC3    C3 4874   0.309   2.152  16.559 -0.2724  0.7454 -0.3061
  321TMC3    C4 4875   0.123   2.339  16.636  0.3979  0.6226  0.3079
  321TMC3    C5 4876   0.119   2.207  16.683 -0.5034  0.3951 -0.0567
  321TMC3    C6 4877   0.207   2.117  16.641  0.3685 -0.4536  0.1139
  321TMC3     C 4878   0.184   2.459  16.433  0.3721  0.3075  0.3127
  321TMC3     O 4879   0.274   2.509  16.364  0.2898 -0.1093  0.2326
  321TMC3     H 4880   0.405   2.301  16.443 -0.7739 -0.0580  0.4912
  321TMC3    H1 4881   0.054   2.418  16.665 -1.4116 -1.2267  1.0717
  321TMC3    H2 4882   0.191   2.015  16.673 -0.6414 -0.6230 -0.9298
  321TMC3    C7 4883   0.090   2.194  16.827  0.8672 -0.2112 -0.4775
  321TMC3    C8 4884   0.437   2.099  16.602 -0.3964 -0.8711  0.1074
  321TMC3    O1 4885   0.169   2.113  16.871 -0.2661  0.5505  0.3313
  321TMC3    O2 4886   0.537   2.124  16.536  0.0451  0.6441 -0.6821
  322MPD2     C 4887   3.434   3.833  13.486  0.7276  0.1244  0.0990
  322MPD2    C1 4888   3.441   3.819  13.624 -0.4893 -0.0659 -0.3784
  322MPD2    C2 4889   3.436   3.688  13.672  0.1917  0.4830 -0.2676
  322MPD2    C3 4890   3.448   3.579  13.590  0.2190  0.5217  0.5043
  322MPD2    C4 4891   3.442   3.597  13.453  0.6586 -0.1986 -0.0717
  322MPD2    C5 4892   3.424   3.720  13.400 -0.0703  0.4084  0.2508
  322MPD2     H 4893   3.446   3.655  13.775 -0.5701  1.0333 -0.0221
  322MPD2    H1 4894   3.449   3.514  13.384  0.9679 -0.7365  0.5998
  322MPD2    H2 4895   3.431   3.934  13.446  0.2599 -0.3434 -1.0212
  322MPD2    H3 4896   3.405   3.730  13.294  1.5779 -0.5060 -0.1349
  322MPD2     N 4897   3.479   3.456  13.663 -0.2430 -0.3460 -0.2971
  322MPD2    H5 4898   3.465   3.449  13.763 -3.2578 -1.2543 -0.7696
  322MPD2    N1 4899   3.466   3.929  13.711  0.4849 -0.2207  0.0572
  322MPD2    H7 4900   3.483   4.009  13.652 -0.6764  0.9809  1.3493
  323TMC3    C1 4901   3.532   4.049  13.899  0.5785  0.3774  0.8145
  323TMC3    C2 4902   3.623   4.116  13.821  0.3979 -0.1609 -0.4035
  323TMC3    C3 4903   3.707   4.206  13.876  0.0021 -0.1468  0.0445
  323TMC3    C4 4904   3.528   4.064  14.035 -0.6427 -0.1359 -0.4713
  323TMC3    C5 4905   3.625   4.143  14.091 -0.3817 -0.5466  0.1611
  323TMC3    C6 4906   3.708   4.222  14.015  0.3163  0.3520  0.4381
  323TMC3     C 4907   3.484   3.924  13.846 -0.4926  0.9748 -0.4010
  323TMC3     O 4908   3.452   3.839  13.924 -0.4851 -0.2722  0.3398
  323TMC3     H 4909   3.634   4.097  13.714 -3.0725 -0.0256 -0.7898
  323TMC3    H1 4910   3.453   4.004  14.086  0.7921 -0.2126  1.5300
  323TMC3    H2 4911   3.788   4.278  14.064  0.1798  1.2193 -0.3426
  323TMC3    C7 4912   3.671   4.099  14.226 -0.2658 -0.0578  0.7539
  323TMC3    C8 4913   3.815   4.268  13.795  0.6660 -0.7531  0.2886
  323TMC3    O1 4914   3.628   3.989  14.263  0.5329  0.0808  0.4845
  323TMC3    O2 4915   3.897   4.331  13.861 -0.6393 -0.1748 -0.5710
  324MPD2     C 4916   0.630   0.100  14.501 -0.5483  0.2138 -0.4346
  324MPD2    C1 4917   0.640   0.210  14.417  0.1455  0.8178  0.0310
  324MPD2    C2 4918   0.526   0.280  14.370 -0.4695  0.2599  0.0166
  324MPD2    C3 4919   0.402   0.236  14.407 -0.3211  0.6541  0.6070
  324MPD2    C4 4920   0.398   0.122  14.489 -0.2885 -0.1278  0.3448
  324MPD2    C5 4921   0.507   0.059  14.534 -0.5702 -0.3702 -0.3172
  324MPD2     H 4922   0.539   0.366  14.305 -0.9406 -0.9850 -1.7281
  324MPD2    H1 4923   0.309   0.076  14.531  0.8292 -2.5776  0.0253
  324MPD2    H2 4924   0.713   0.052  14.553  1.3504  2.8292 -1.0835
  324MPD2    H3 4925   0.501   4.714  14.604  2.0014 -0.2667  0.0563
  324MPD2     N 4926   0.277   0.299  14.377 -0.0217 -0.7251 -0.1568
  324MPD2    H5 4927   0.195   0.264  14.425  0.0543 -2.4421 -1.2951
  324MPD2    N1 4928   0.768   0.264  14.371  0.0310  0.5604 -0.4301
  324MPD2    H7 4929   0.765   0.341  14.305 -1.5032  1.0738  0.2408
  325TMC3    C1 4930   0.136   0.441  14.251  0.4444 -0.7421  0.3994
  325TMC3    C2 4931   0.019   0.393  14.303  0.2323  1.2790 -0.1915
  325TMC3    C3 4932   4.639   0.449  14.260  0.7904  0.1364 -0.0439
  325TMC3    C4 4933   0.137   0.557  14.176 -0.4530  0.1159 -0.1470
  325TMC3    C5 4934   0.021   0.612  14.136  0.5619  0.3334 -0.1732
  325TMC3    C6 4935   4.642   0.561  14.181  0.1927 -0.3058  0.0872
  325TMC3     C 4936   0.270   0.392  14.276  0.6764  0.3641  0.4986
  325TMC3     O 4937   0.358   0.443  14.210  0.0840 -0.2798  0.4764
  325TMC3     H 4938   0.015   0.306  14.368  1.8100 -0.3341 -2.2617
  325TMC3    H1 4939   0.228   0.596  14.133 -0.1182  0.6121  1.0111
  325TMC3    H2 4940   4.554   0.608  14.140  0.3915 -0.4656 -0.5316
  325TMC3    C7 4941   0.041   0.749  14.105 -0.3548 -0.2082 -0.2540
  325TMC3    C8 4942   4.512   0.405  14.327 -0.7759  0.0260 -0.3741
  325TMC3    O1 4943   0.151   0.808  14.131  0.1817 -0.0180  0.5719
  325TMC3    O2 4944   4.502   0.285  14.354  0.2766  0.2474  0.0409
  326MPD2     C 4945   1.658   1.773  10.771 -0.2721 -0.4177 -0.3903
  326MPD2    C1 4946   1.624   1.672  10.853  0.2866 -0.9747 -0.0410
  326MPD2    C2 4947   1.713   1.624  10.946 -0.2945  0.2551 -0.5016
  326MPD2    C3 4948   1.840   1.684  10.963 -0.1504 -0.0114  0.3846
  326MPD2    C4 4949   1.872   1.788  10.876  0.0670 -0.6684  0.0862
  326MPD2    C5 4950   1.785   1.834  10.779  0.0256 -0.7922 -0.3516
  326MPD2     H 4951   1.682   1.544  11.012 -1.1313  1.0660  0.0766
  326MPD2    H1 4952   1.974   1.826  10.874 -0.0352 -0.5690 -2.8674
  326MPD2    H2 4953   1.597   1.803  10.686 -0.8923 -0.9885 -0.1502
  326MPD2    H3 4954   1.823   1.910  10.710  0.1356 -0.4511  0.0881
  326MPD2     N 4955   1.948   1.642  11.047 -0.0146 -0.7707 -0.0816
  326MPD2    H5 4956   2.035   1.690  11.025 -0.7120  0.4491 -0.1370
  326MPD2    N1 4957   1.498   1.609  10.847 -0.2003 -0.1776  0.5463
  326MPD2    H7 4958   1.473   1.544  10.920 -1.0608  0.0555  0.4521
  327TMC3    C1 4959   1.284   1.572  10.768  0.0921  0.6724  0.0613
  327TMC3    C2 4960   1.170   1.623  10.709  0.4977  0.0567 -0.0381
  327TMC3    C3 4961   1.060   1.541  10.706 -0.3713 -0.2252 -0.1264
  327TMC3    C4 4962   1.285   1.444  10.807 -0.6124 -0.3814  0.1992
  327TMC3    C5 4963   1.172   1.366  10.799 -0.0847  0.1347  0.6830
  327TMC3    C6 4964   1.055   1.408  10.749 -0.4027  0.1291  0.5679
  327TMC3     C 4965   1.394   1.655  10.770 -0.1559  0.1558 -0.7856
  327TMC3     O 4966   1.386   1.747  10.690  0.2684  0.4297 -0.3930
  327TMC3     H 4967   1.160   1.726  10.677 -0.2042 -0.3791 -1.2171
  327TMC3    H1 4968   1.373   1.401  10.854  0.3472  0.7400 -0.5865
  327TMC3    H2 4969   0.968   1.344  10.737  0.5703 -0.5159 -3.1781
  327TMC3    C7 4970   1.182   1.221  10.819 -0.1034 -0.5414  0.1013
  327TMC3    C8 4971   0.946   1.616  10.666  0.0437  0.0421 -0.1600
  327TMC3    O1 4972   1.084   1.148  10.789  0.8187  0.6110 -0.4983
  327TMC3    O2 4973   0.932   1.734  10.698  0.4837 -0.6381  0.3554
  328MPD2     C 4974   4.476   0.347  16.509 -0.5383  0.7168  0.4962
  328MPD2    C1 4975   4.341   0.316  16.500  0.2931 -0.4771  0.5490
  328MPD2    C2 4976   4.254   0.416  16.519  0.0979 -0.5807 -1.1016
  328MPD2    C3 4977   4.293   0.548  16.533  0.5523  0.7743 -0.8724
  328MPD2    C4 4978   4.428   0.574  16.548 -0.4323 -0.3662  0.6715
  328MPD2    C5 4979   4.518   0.475  16.526 -1.0228 -0.3493  0.8443
  328MPD2     H 4980   4.149   0.390  16.506 -0.1611  0.1183 -0.4425
  328MPD2    H1 4981   4.468   0.674  16.560 -0.4444 -0.1234 -1.2945
  328MPD2    H2 4982   4.550   0.271  16.486 -0.8912  0.9587 -1.4879
  328MPD2    H3 4983   4.622   0.507  16.523 -0.1975 -3.0257  1.1852
  328MPD2     N 4984   4.198   0.656  16.540 -0.0791  0.1662  0.8526
  328MPD2    H5 4985   4.235   0.751  16.542 -0.4137  0.2773  1.7306
  328MPD2    N1 4986   4.280   0.190  16.506  0.2384 -0.6085  0.4311
  328MPD2    H7 4987   4.181   0.179  16.526  0.7012 -0.6539  2.6771
  329TMC3    C1 4988   4.284   4.708  16.580 -0.0171 -0.3584 -0.3183
  329TMC3    C2 4989   4.168   4.728  16.655  0.4463 -0.9951  0.1976
  329TMC3    C3 4990   4.127   4.626  16.734 -0.0768 -0.4540  0.2412
  329TMC3    C4 4991   4.339   4.581  16.565  0.3981  0.4951 -0.3357
  329TMC3    C5 4992   4.269   4.478  16.622  0.6325 -0.5023 -0.3560
  329TMC3    C6 4993   4.166   4.498  16.709 -0.3432 -0.3178  0.2413
  329TMC3     C 4994   4.351   0.076  16.511 -0.4525 -0.1585  0.5203
  329TMC3     O 4995   4.469   0.057  16.484  0.3746  0.0991 -0.4755
  329TMC3     H 4996   4.126   0.088  16.674  0.4230 -0.4699 -2.5484
  329TMC3    H1 4997   4.415   4.560  16.491  0.0456  0.2947 -0.6389
  329TMC3    H2 4998   4.109   4.419  16.755 -0.2909 -0.3393  0.2689
  329TMC3    C7 4999   4.295   4.345  16.566 -0.4140 -0.0300  0.2019
  329TMC3    C8 5000   4.015   4.647  16.823  0.0605  0.2555 -0.0035
  329TMC3    O1 5001   4.359   4.336  16.465 -0.3337 -0.0545 -0.1814
  329TMC3    O2 5002   3.935   4.556  16.849 -0.3929 -0.2330  0.3851
  330TMC3    C1 5003   2.365   0.260   9.677 -0.6729 -0.5352 -0.3171
  330TMC3    C2 5004   2.237   0.291   9.656  0.0696  0.1421 -0.1296
  330TMC3    C3 5005   2.148   0.294   9.758 -0.1495  0.2912 -0.3661
  330TMC3    C4 5006   2.413   0.248   9.811 -0.9880 -0.0335  1.0066
  330TMC3    C5 5007   2.320   0.251   9.914  0.0298 -0.2458  0.6101
  330TMC3    C6 5008   2.184   0.268   9.887 -0.2859 -0.9848  0.3170
  330TMC3     C 5009   2.464   0.298   9.572  0.1488 -0.3809 -0.1168
  330TMC3     O 5010   2.578   0.263   9.580  0.0081 -0.6888 -0.1770
  330TMC3     H 5011   2.188   0.285   9.560  1.0273  1.5012 -0.7066
  330TMC3    H1 5012   2.518   0.228   9.828 -0.9115  0.7816  1.5018
  330TMC3    H2 5013   2.123   0.273   9.975 -1.4958 -0.6936 -0.5396
  330TMC3    C7 5014   2.356   0.183  10.035  0.9447  0.0654 -0.3757
  330TMC3    C8 5015   2.008   0.312   9.722  0.6017  0.0532 -0.1652
  330TMC3    O1 5016   2.278   0.100  10.076 -0.9728 -0.0788  0.0585
  330TMC3    O2 5017   1.980   0.361   9.612 -0.5299 -0.0481  0.2706
  331MPD2     C 5018   4.394   0.058  12.790  0.4230 -0.1813  0.4336
  331MPD2    C1 5019   4.529   0.077  12.785 -0.2399  0.1949 -0.1315
  331MPD2    C2 5020   4.603   4.728  12.711 -0.2561 -0.4135  0.5024
  331MPD2    C3 5021   4.551   4.627  12.638 -0.0478  0.4155  0.5985
  331MPD2    C4 5022   4.413   4.607  12.641 -0.2403 -0.1604 -0.1145
  331MPD2    C5 5023   4.334   4.692  12.724  0.1288 -0.1138  0.4040
  331MPD2     H 5024   4.707   0.018  12.695 -0.6770  0.4761 -0.7293
  331MPD2    H1 5025   4.355   4.543  12.577 -0.0833 -0.2833 -0.1348
  331MPD2    H2 5026   4.323   0.124  12.839 -0.3798  0.8843 -2.1550
  331MPD2    H3 5027   4.228   4.669  12.717 -0.1162  1.5421 -1.4409
  331MPD2     N 5028   4.639   4.557  12.556  0.8663 -0.5930 -0.1833
  331MPD2    H5 5029   4.735   4.590  12.563 -0.0414  1.2979  3.3135
  331MPD2    N1 5030   4.591   0.184  12.856  0.5416  0.3930  0.3009
  331MPD2    H7 5031   4.519   0.244  12.893 -0.3350 -1.3297  1.4073
  332TMC3    C1 5032   4.714   4.411  12.387 -0.1899  0.3251 -1.1818
  332TMC3    C2 5033   0.041   4.506  12.322  0.7580 -0.1721 -0.4766
  332TMC3    C3 5034   0.176   4.495  12.311 -0.7165 -0.9514 -0.3013
  332TMC3    C4 5035   0.038   4.296  12.428 -0.1559  0.7106  0.4733
  332TMC3    C5 5036   0.171   4.286  12.410  0.5497  0.6753 -0.1941
  332TMC3    C6 5037   0.246   4.388  12.354 -0.4830  0.3963 -0.4336
  332TMC3     C 5038   4.608   4.459  12.469  0.5188  0.3095 -1.2224
  332TMC3     O 5039   4.503   4.398  12.466  0.0416  0.3379 -0.0782
  332TMC3     H 5040   4.724   4.595  12.293  2.5883  1.4019  0.8522
  332TMC3    H1 5041   4.715   4.226  12.483  0.3214  0.5628  0.8097
  332TMC3    H2 5042   0.353   4.383  12.342 -0.3047  1.2259  0.7815
  332TMC3    C7 5043   0.230   4.170  12.473 -0.5007  0.2129 -0.0666
  332TMC3    C8 5044   0.243   4.589  12.230  0.4301  0.3925 -0.1035
  332TMC3    O1 5045   0.155   4.089  12.517 -0.1226 -0.2148 -0.5168
  332TMC3    O2 5046   0.363   4.579  12.219 -0.2794 -0.1092 -0.3119
  333MPD2     C 5047   0.218   4.617  11.460 -0.5962  0.4956 -0.1556
  333MPD2    C1 5048   0.246   4.517  11.366 -0.6498  0.1684  0.2945
  333MPD2    C2 5049   0.225   4.386  11.406 -0.0361 -0.6140  1.0099
  333MPD2    C3 5050   0.182   4.357  11.538 -0.1389 -0.3496  0.1575
  333MPD2    C4 5051   0.155   4.460  11.624 -0.3441  0.6162  0.2330
  333MPD2    C5 5052   0.161   4.587  11.581 -0.5327  0.4283 -0.6332
  333MPD2     H 5053   0.248   4.310  11.332 -2.2674  0.0966 -0.4081
  333MPD2    H1 5054   0.128   4.454  11.729 -2.2429 -0.3828 -0.3152
  333MPD2    H2 5055   0.229   4.722  11.435  0.7173  0.2105 -0.7729
  333MPD2    H3 5056   0.119   4.657  11.652 -0.1549 -1.6511  1.6298
  333MPD2     N 5057   0.161   4.220  11.562 -0.6802 -0.0680 -0.3166
  333MPD2    H5 5058   0.188   4.157  11.487 -0.8309  0.4900 -0.8431
  333MPD2    N1 5059   0.292   4.563  11.245  0.5012 -0.0820  0.2808
  333MPD2    H7 5060   0.299   4.664  11.234  1.6564 -0.3626 -1.6549
  334TMC3    C1 5061   0.426   4.580  11.058 -0.2194  0.9235  0.6170
  334TMC3    C2 5062   0.454   4.533  10.940 -0.3555 -0.1430 -0.2881
  334TMC3    C3 5063   0.533   4.593  10.847  0.5217 -0.4216  0.0872
  334TMC3    C4 5064   0.495   4.686  11.108  0.8069  0.8125 -0.2373
  334TMC3    C5 5065   0.587   4.737  11.022 -0.2916 -0.2712  0.9421
  334TMC3    C6 5066   0.606   4.700  10.896 -0.1438  0.0744 -0.2540
  334TMC3     C 5067   0.349   4.487  11.147  0.7619 -0.5835  0.1164
  334TMC3     O 5068   0.320   4.373  11.113 -0.3164  0.3333  0.3249
  334TMC3     H 5069   0.429   4.428  10.935 -2.5923  0.3674  0.3018
  334TMC3    H1 5070   0.495   4.715  11.212  0.8567  1.8736 -0.5324
  334TMC3    H2 5071   0.661   0.027  10.828 -2.5692 -0.7122 -2.9690
  334TMC3    C7 5072   0.620   0.134  11.049  0.3941  0.1942  0.1322
  334TMC3    C8 5073   0.585   4.524  10.736  0.5587 -0.3709  0.1393
  334TMC3    O1 5074   0.722   0.176  11.001 -0.8236  1.0142  0.3383
  334TMC3    O2 5075   0.522   4.425  10.707 -0.1101  0.2793 -0.0230
  335TMC3    C1 5076   0.102   1.029  17.610 -0.3264  0.1422  1.1653
  335TMC3    C2 5077   0.033   0.922  17.557 -0.0993  0.6570  0.7201
  335TMC3    C3 5078   0.090   0.868  17.452 -1.0238 -0.2300 -0.1121
  335TMC3    C4 5079   0.203   1.088  17.543 -0.1023 -0.1057  0.4220
  335TMC3    C5 5080   0.262   1.018  17.441  0.5143  0.6807  0.5663
  335TMC3    C6 5081   0.201   0.908  17.389  0.1619 -0.3312  0.0637
  335TMC3     C 5082   0.023   1.116  17.699  0.1139  1.0478 -0.0186
  335TMC3     O 5083   4.644   1.118  17.676 -0.6043 -0.6446  0.2654
  335TMC3     H 5084   4.675   0.893  17.600 -1.5150  1.0898 -2.1322
  335TMC3    H1 5085   0.250   1.179  17.579  1.2602 -0.3627 -0.7150
  335TMC3    H2 5086   0.260   0.856  17.315  1.5798  2.2647 -0.6178
  335TMC3    C7 5087   0.394   1.057  17.388 -0.4975  0.1641 -0.0104
  335TMC3    C8 5088   0.009   0.769  17.379  0.0701  0.2967 -0.0481
  335TMC3    O1 5089   0.415   1.068  17.267 -0.2845  0.5432  0.7259
  335TMC3    O2 5090   4.654   0.718  17.438 -0.2298 -0.2572  0.3170
  336MPD2     C 5091   4.408   3.963  16.086  0.2898 -0.1655 -1.0213
  336MPD2    C1 5092   4.272   3.944  16.071  0.8722  0.1099  0.3500
  336MPD2    C2 5093   4.226   3.811  16.076 -0.6413  0.3202 -0.1746
  336MPD2    C3 5094   4.311   3.701  16.099 -0.3176  0.3227 -0.3793
  336MPD2    C4 5095   4.448   3.723  16.118  0.0351  0.5390  0.1223
  336MPD2    C5 5096   4.482   3.853  16.114  0.7213  0.7825  0.7334
  336MPD2     H 5097   4.119   3.797  16.067 -0.5225  0.1487 -1.2293
  336MPD2    H1 5098   4.520   3.644  16.136 -1.6672 -0.7663  1.1914
  336MPD2    H2 5099   4.453   4.062  16.086 -0.7805  0.3229  1.5034
  336MPD2    H3 5100   4.589   3.870  16.117  1.0199 -1.1934  1.5686
  336MPD2     N 5101   4.272   3.566  16.082  0.3907 -0.8589 -0.5684
  336MPD2    H5 5102   4.346   3.501  16.107  2.5936  1.6257 -0.6929
  336MPD2    N1 5103   4.185   4.051  16.037  0.7296 -0.2239 -0.2934
  336MPD2    H7 5104   4.085   4.032  16.032  0.3574  2.2645 -2.2626
  337TMC3    C1 5105   4.109   4.270  16.064 -0.2018 -0.7170 -1.1372
  337TMC3    C2 5106   4.012   4.249  15.966 -0.3652 -1.1373  0.2989
  337TMC3    C3 5107   3.902   4.333  15.974  0.4747 -0.8669  0.2465
  337TMC3    C4 5108   4.116   4.381  16.149 -0.0907 -0.4313 -0.2637
  337TMC3    C5 5109   4.014   4.470  16.133 -0.3177  0.1176  0.0978
  337TMC3    C6 5110   3.902   4.445  16.059 -0.6497  0.4020 -0.2489
  337TMC3     C 5111   4.218   4.180  16.063 -0.0886 -0.0790  0.1232
  337TMC3     O 5112   4.320   4.231  16.107  0.3257  0.1038  0.1202
  337TMC3     H 5113   4.023   4.164  15.900  2.4818 -0.3641 -0.2085
  337TMC3    H1 5114   4.198   4.398  16.217  1.6138 -3.1065 -1.6662
  337TMC3    H2 5115   3.818   4.513  16.049 -0.4497  0.5018 -1.2566
  337TMC3    C7 5116   4.013   4.576  16.232  0.0131 -0.2036  0.8093
  337TMC3    C8 5117   3.776   4.296  15.904 -0.5195  0.1608  0.0143
  337TMC3    O1 5118   4.081   4.581  16.334 -0.5908  0.4735  0.6828
  337TMC3    O2 5119   3.672   4.302  15.969  0.5252 -0.4744  0.3639
  338MPD2     C 5120   0.506   3.390   0.938  0.5068 -0.0861  0.4313
  338MPD2    C1 5121   0.385   3.383   0.876 -0.7636 -0.5551  0.9877
  338MPD2    C2 5122   0.303   3.493   0.893 -0.6683 -0.2334  0.3258
  338MPD2    C3 5123   0.339   3.602   0.967  0.0370 -0.1323 -0.6572
  338MPD2    C4 5124   0.468   3.613   1.015  0.4301 -0.1716 -0.2037
  338MPD2    C5 5125   0.545   3.501   1.009 -0.9451  0.0763  0.2992
  338MPD2     H 5126   0.205   3.493   0.847 -0.4736 -0.6147 -0.0884
  338MPD2    H1 5127   0.505   3.703   1.062  0.3513  0.1073 -0.6874
  338MPD2    H2 5128   0.577   3.309   0.929 -0.5910 -1.3619  3.1249
  338MPD2    H3 5129   0.650   3.501   1.037 -1.5493 -0.4106  2.5814
  338MPD2     N 5130   0.248   3.710   0.979 -0.1990 -0.7370 -0.9376
  338MPD2    H5 5131   0.157   3.696   0.938 -0.0661 -1.2927 -1.0400
  338MPD2    N1 5132   0.348   3.271   0.797 -0.4415  0.4703 -0.7354
  338MPD2    H7 5133   0.262   3.286   0.746 -0.1682  0.5092 -1.1855
  339TMC3    C1 5134   0.144   3.901   1.022 -0.4204  0.0909 -0.2258
  339TMC3    C2 5135   0.069   3.964   1.123 -0.8430  0.3260 -0.7926
  339TMC3    C3 5136   4.677   3.987   1.113  0.9306 -0.1649 -0.3771
  339TMC3    C4 5137   0.073   3.859   0.912  0.3063  0.4626  0.2869
  339TMC3    C5 5138   4.670   3.871   0.914 -0.7969  0.2601  0.3142
  339TMC3    C6 5139   4.596   3.922   1.018 -0.2983 -0.3943 -0.1586
  339TMC3     C 5140   0.262   3.825   1.057  0.6839  1.4244 -0.3944
  339TMC3     O 5141   0.354   3.870   1.125 -0.1974 -0.2462 -0.0964
  339TMC3     H 5142   0.123   4.014   1.203 -1.0117  1.9942 -1.7374
  339TMC3    H1 5143   0.124   3.846   0.816 -1.9613  1.6600 -1.0646
  339TMC3    H2 5144   4.491   3.943   1.006 -0.0480  0.2330 -1.2394
  339TMC3    C7 5145   4.603   3.795   0.809  0.2124 -0.1155  0.8004
  339TMC3    C8 5146   4.606   4.050   1.220 -0.5893 -0.2952  0.0501
  339TMC3    O1 5147   4.675   3.748   0.721  0.0120  0.0955  0.6472
  339TMC3    O2 5148   4.663   4.128   1.288  0.4558 -0.3515  0.1063
  340MPD2     C 5149   4.320   1.345  10.167 -0.0035 -0.1083  0.0899
  340MPD2    C1 5150   4.401   1.292  10.074  0.1158 -0.4938 -0.3673
  340MPD2    C2 5151   4.496   1.190  10.104  0.0701 -0.6565 -0.0338
  340MPD2    C3 5152   4.512   1.153  10.232 -0.3176  0.2091  0.3668
  340MPD2    C4 5153   4.433   1.210  10.328  0.2209 -0.0444  0.0691
  340MPD2    C5 5154   4.340   1.307  10.295 -0.7604 -0.3539  0.3538
  340MPD2     H 5155   4.543   1.135  10.023  1.2387 -0.5878  0.6131
  340MPD2    H1 5156   4.430   1.168  10.427  0.0629 -0.4900 -0.1265
  340MPD2    H2 5157   4.247   1.422  10.144  0.5926  1.0950  2.1875
  340MPD2    H3 5158   4.267   1.319  10.374  0.0604 -2.0622  1.3687
  340MPD2     N 5159   4.605   1.064  10.276 -0.4760 -0.2775 -0.1148
  340MPD2    H5 5160   4.609   1.039  10.375 -0.1664  0.7997  0.1543
  340MPD2    N1 5161   4.378   1.331   9.945 -0.2558 -0.1014 -0.2749
  340MPD2    H7 5162   4.451   1.313   9.877  0.1867 -1.5314  0.5789
  341TMC3    C1 5163   4.271   1.374   9.756  0.5461  0.0119 -0.2906
  341TMC3    C2 5164   4.192   1.289   9.684  0.1615  0.5642  0.2991
  341TMC3    C3 5165   4.243   1.231   9.571 -0.5189 -0.1702  0.4486
  341TMC3    C4 5166   4.396   1.409   9.711 -0.3308 -0.3399  0.5261
  341TMC3    C5 5167   4.441   1.345   9.602  0.2466 -0.0296  0.6516
  341TMC3    C6 5168   4.361   1.265   9.520 -1.0924  0.3356 -0.2637
  341TMC3     C 5169   4.256   1.370   9.895 -0.1223  0.7456 -0.0704
  341TMC3     O 5170   4.144   1.352   9.935 -0.2904 -0.3703  1.2919
  341TMC3     H 5171   4.100   1.254   9.731 -0.3587 -0.7346 -1.6563
  341TMC3    H1 5172   4.464   1.471   9.768 -1.1739 -0.7622  1.9916
  341TMC3    H2 5173   4.414   1.217   9.438  2.4546  0.3940  1.9737
  341TMC3    C7 5174   4.575   1.323   9.602 -0.6236 -0.5725  0.1282
  341TMC3    C8 5175   4.203   1.090   9.547 -0.8066  0.3055  0.1766
  341TMC3    O1 5176   4.617   1.299   9.715 -0.4931  0.2739  0.3659
  341TMC3    O2 5177   4.149   1.033   9.636  0.2520  0.2008 -0.7804
  342MPD2     C 5178   2.456   4.084  17.687 -0.0814  0.3344 -0.4073
  342MPD2    C1 5179   2.569   4.088  17.600  0.1647  0.2881 -1.0620
  342MPD2    C2 5180   2.649   4.206  17.603  0.0825  0.4910  0.0905
  342MPD2    C3 5181   2.620   4.319  17.674  0.7580 -0.6482 -0.2792
  342MPD2    C4 5182   2.513   4.312   0.016 -0.4306  0.8922 -0.2249
  342MPD2    C5 5183   2.441   4.193   0.021 -0.6783  0.3529  0.1327
  342MPD2     H 5184   2.734   4.209  17.535 -0.5117 -1.2947 -0.7148
  342MPD2    H1 5185   2.499   4.394   0.086 -2.0761  0.3808  0.0539
  342MPD2    H2 5186   2.388   4.000  17.694 -0.0122  0.3249  0.1438
  342MPD2    H3 5187   2.365   4.182   0.097 -1.4564 -0.2883 -0.7283
  342MPD2     N 5188   2.691   4.439  17.666 -0.9528  0.0306  0.0731
  342MPD2    H5 5189   2.658   4.520  17.718  1.1279  0.1203  1.2611
  342MPD2    N1 5190   2.602   3.982  17.512  0.8175 -0.1833 -0.1424
  342MPD2    H7 5191   2.678   4.001  17.447 -1.0019  2.2037 -1.5690
  343TMC3    C1 5192   2.587   3.760  17.423 -0.3111  0.0004 -0.0015
  343TMC3    C2 5193   2.670   3.792  17.322 -0.1267 -0.1444 -0.1310
  343TMC3    C3 5194   2.733   3.691  17.251 -0.4235  0.5364 -0.0985
  343TMC3    C4 5195   2.571   3.632  17.459 -0.1693  0.1574 -0.0737
  343TMC3    C5 5196   2.617   3.531  17.375  0.1908 -0.6617  0.1432
  343TMC3    C6 5197   2.698   3.560  17.265  0.8375  0.1606  0.6195
  343TMC3     C 5198   2.532   3.862  17.503  0.1080  0.8314 -0.0157
  343TMC3     O 5199   2.442   3.822  17.572  0.2456  1.0875 -0.3461
  343TMC3     H 5200   2.690   3.894  17.291 -2.9834  0.5897  0.3958
  343TMC3    H1 5201   2.503   3.609  17.540  1.0285 -1.2340  0.5320
  343TMC3    H2 5202   2.739   3.483  17.201 -0.8334 -1.0766  1.0388
  343TMC3    C7 5203   2.608   3.388  17.411 -0.3742 -0.4272  0.2359
  343TMC3    C8 5204   2.825   3.743  17.156 -0.5747  0.1631 -0.1158
  343TMC3    O1 5205   2.621   3.307  17.320 -0.3300 -0.1359  0.1638
  343TMC3    O2 5206   2.844   3.861  17.158 -0.6664 -0.5635 -0.0259
  344MPD2     C 5207   3.555   3.018  10.258 -0.4573 -0.4099  0.5890
  344MPD2    C1 5208   3.449   3.099  10.228 -0.3607  0.3488 -0.2822
  344MPD2    C2 5209   3.480   3.226  10.175 -0.0304  0.5519  0.7877
  344MPD2    C3 5210   3.615   3.262  10.174  0.3122  0.0655  0.7926
  344MPD2    C4 5211   3.716   3.172  10.185 -0.3331  0.0555 -0.4420
  344MPD2    C5 5212   3.684   3.052  10.238  0.3548  0.0057  0.1331
  344MPD2     H 5213   3.408   3.304  10.157 -1.3161 -1.0706 -1.1036
  344MPD2    H1 5214   3.819   3.198  10.161  0.0748 -0.6062  0.5617
  344MPD2    H2 5215   3.536   2.921  10.301 -1.6397 -0.4169  0.0587
  344MPD2    H3 5216   3.753   2.973  10.265  1.2242  0.4414 -0.8222
  344MPD2     N 5217   3.660   3.393  10.155 -0.6760 -0.2297 -0.2919
  344MPD2    H5 5218   3.756   3.405  10.185  0.1957 -0.9661 -2.7923
  344MPD2    N1 5219   3.322   3.060  10.263  0.2290 -0.6962 -0.1113
  344MPD2    H7 5220   3.327   2.970  10.309 -1.9275 -1.1534 -0.7911
  345TMC3    C1 5221   3.670   3.614  10.086  0.1683  0.0758  0.3355
  345TMC3    C2 5222   3.751   3.649  10.190  0.8210 -0.1897  0.7565
  345TMC3    C3 5223   3.797   3.780  10.194  0.5276  0.2262 -1.1665
  345TMC3    C4 5224   3.642   3.693   9.981 -0.0904  0.2075  0.9725
  345TMC3    C5 5225   3.697   3.815   9.983  0.2337  0.3118  0.3007
  345TMC3    C6 5226   3.767   3.868  10.091  0.7343 -0.1761 -0.1606
  345TMC3     C 5227   3.591   3.493  10.100  0.2967 -0.4915 -0.1964
  345TMC3     O 5228   3.485   3.487  10.040  0.1211  0.4223 -0.3567
  345TMC3     H 5229   3.762   3.584  10.276  2.2086 -1.0050 -0.0385
  345TMC3    H1 5230   3.591   3.650   9.896  0.5233 -0.9297  1.1820
  345TMC3    H2 5231   3.813   3.966  10.095  0.9107 -0.2509 -0.3537
  345TMC3    C7 5232   3.712   3.896   9.865  0.1228 -0.0302  0.6548
  345TMC3    C8 5233   3.881   3.827  10.300 -1.0943 -0.0216 -0.0674
  345TMC3    O1 5234   3.740   4.016   9.871 -0.1093 -0.3021 -0.1685
  345TMC3    O2 5235   3.924   3.941  10.290 -0.2358  0.3850  0.0108
  346MPD2     C 5236   4.316   1.036  14.538 -0.2797  0.4421 -0.5292
  346MPD2    C1 5237   4.319   1.093  14.413 -0.3144 -0.8225  0.2184
  346MPD2    C2 5238   4.441   1.136  14.364  0.8132  0.5122  0.5593
  346MPD2    C3 5239   4.555   1.117  14.430 -0.0933  0.6849  0.1858
  346MPD2    C4 5240   4.550   1.072  14.566 -0.2952  0.4111  0.7712
  346MPD2    C5 5241   4.429   1.038  14.616  0.4628  0.0066 -0.4124
  346MPD2     H 5242   4.446   1.193  14.273  0.9589  1.2423  1.0238
  346MPD2    H1 5243   4.638   1.072  14.629  1.1563  2.3730 -1.2431
  346MPD2    H2 5244   4.224   1.016  14.592 -0.7609 -1.4729 -2.0583
  346MPD2    H3 5245   4.422   1.017  14.722  2.1346  0.0552 -0.2828
  346MPD2     N 5246   4.672   1.165  14.378  0.0238  0.0913  0.0516
  346MPD2    H5 5247   4.651   1.228  14.301 -2.4190  1.2151  1.6319
  346MPD2    N1 5248   4.209   1.087  14.324  0.5153  0.0769 -0.0494
  346MPD2    H7 5249   4.226   1.134  14.236 -0.7295  0.3462 -0.1443
  347TMC3    C1 5250   0.167   1.174  14.331 -0.5915 -0.3859 -0.6083
  347TMC3    C2 5251   0.139   1.217  14.206  0.0083  0.5036 -0.4532
  347TMC3    C3 5252   0.240   1.215  14.115 -0.0904 -0.4127  0.5220
  347TMC3    C4 5253   0.289   1.139  14.370  0.8105  0.2478  0.5410
  347TMC3    C5 5254   0.395   1.144  14.277  0.1862 -0.3163 -0.3512
  347TMC3    C6 5255   0.374   1.193  14.149  0.4297  0.4011  0.1104
  347TMC3     C 5256   0.058   1.127  14.416  0.2798 -0.7804  0.5271
  347TMC3     O 5257   0.091   1.054  14.511 -0.1261 -0.4344 -0.0424
  347TMC3     H 5258   0.038   1.242  14.176  0.1191  0.8438 -0.5355
  347TMC3    H1 5259   0.309   1.099  14.468 -0.4520 -0.0495  0.6733
  347TMC3    H2 5260   0.459   1.201  14.083 -0.6962 -1.0942 -1.5332
  347TMC3    C7 5261   0.533   1.130  14.328 -0.0270  0.0229 -1.1739
  347TMC3    C8 5262   0.214   1.267  13.981 -0.3050 -0.2748 -0.3562
  347TMC3    O1 5263   0.545   1.085  14.442 -0.1072  0.0088 -0.7599
  347TMC3    O2 5264   0.310   1.323  13.928  0.0920  0.0754  0.4321
  348MPD2     C 5265   2.195   4.536  11.916 -0.0519  0.1980  0.1975
  348MPD2    C1 5266   2.312   4.600  11.886  0.2487 -0.5717  0.0170
  348MPD2    C2 5267   2.326   4.685  11.777 -0.1502 -0.5095 -0.6190
  348MPD2    C3 5268   2.222   4.693  11.690  0.1569 -0.4258  0.4974
  348MPD2    C4 5269   2.107   4.622  11.719  0.2459  0.8876  0.0364
  348MPD2    C5 5270   2.091   4.554  11.830 -0.9997  0.5839 -0.6149
  348MPD2     H 5271   2.417   0.005  11.761 -0.2952  0.1371  0.8054
  348MPD2    H1 5272   2.030   4.609  11.643 -1.2209  0.6809  1.5656
  348MPD2    H2 5273   2.171   4.466  11.995 -3.1254  0.5791 -0.3905
  348MPD2    H3 5274   2.003   4.490  11.839 -0.4690  0.0679  0.8615
  348MPD2     N 5275   2.232   0.050  11.588  0.5111  0.3018 -0.1061
  348MPD2    H5 5276   2.314   0.108  11.581  1.1206 -1.1410 -5.1977
  348MPD2    N1 5277   2.421   4.595  11.977  0.0555 -0.1957 -0.7127
  348MPD2    H7 5278   2.511   4.626  11.944  0.5434 -0.4689  0.3464
  349TMC3    C1 5279   2.551   4.552  12.156  0.3800  0.0612 -0.4058
  349TMC3    C2 5280   2.612   4.434  12.191  0.0653 -0.5707  0.0776
  349TMC3    C3 5281   2.748   4.429  12.165  0.2015 -0.6655 -0.9982
  349TMC3    C4 5282   2.622   4.657  12.097  0.2466 -0.4100  0.1648
  349TMC3    C5 5283   2.755   4.639  12.065  0.4875 -0.6232  0.2228
  349TMC3    C6 5284   2.818   4.526  12.101 -0.3688  0.3084 -0.3624
  349TMC3     C 5285   2.423   4.534  12.099 -0.0829  0.1079 -0.3839
  349TMC3     O 5286   2.331   4.487  12.166 -0.5386 -0.1033  0.2992
  349TMC3     H 5287   2.545   4.350  12.204  0.2407 -0.6670  0.3430
  349TMC3    H1 5288   2.575   0.015  12.080 -1.9353 -1.5992 -0.5690
  349TMC3    H2 5289   2.923   4.507  12.083 -0.0856 -0.0065  1.5553
  349TMC3    C7 5290   2.768   4.674  11.922  0.3649  0.2888 -0.1546
  349TMC3    C8 5291   2.815   4.324  12.240 -0.2069 -1.0110 -0.3670
  349TMC3    O1 5292   2.656   4.701  11.874  0.4031  0.2750 -0.2725
  349TMC3    O2 5293   2.930   4.345  12.272 -0.3986  0.1069  0.1945
  350MPD2     C 5294   1.128   3.492  10.322  0.1506 -0.5309 -0.4184
  350MPD2    C1 5295   1.159   3.358  10.337 -0.0096 -0.3192 -0.1837
  350MPD2    C2 5296   1.180   3.322  10.469 -0.3127  0.2088 -0.2363
  350MPD2    C3 5297   1.191   3.411  10.572  0.0624 -0.1741 -0.7828
  350MPD2    C4 5298   1.161   3.550  10.543  0.1883 -0.2973  0.0562
  350MPD2    C5 5299   1.122   3.592  10.419  0.0729 -0.1536  0.6575
  350MPD2     H 5300   1.192   3.217  10.496  1.1958  0.7013  0.9689
  350MPD2    H1 5301   1.155   3.624  10.623  0.4391 -1.3380  1.0255
  350MPD2    H2 5302   1.122   3.523  10.218 -2.8710  2.0651  0.5172
  350MPD2    H3 5303   1.083   3.687  10.386  1.4314 -0.2723 -1.2960
  350MPD2     N 5304   1.215   3.360  10.699  0.7985  0.9243  0.4982
  350MPD2    H5 5305   1.208   3.260  10.715 -0.8985  0.5181 -2.7385
  350MPD2    N1 5306   1.170   3.266  10.235 -0.2921  0.0405 -0.1594
  350MPD2    H7 5307   1.201   3.171  10.253 -1.4420 -0.3716 -0.3049
  351TMC3    C1 5308   1.121   3.164  10.024  0.0144 -0.8984  0.0764
  351TMC3    C2 5309   1.234   3.085  10.041  0.1267  0.5746  0.1518
  351TMC3    C3 5310   1.269   3.024   9.925  0.5695 -0.1509  0.5422
  351TMC3    C4 5311   1.053   3.176   9.905  0.1546  0.5148  0.0247
  351TMC3    C5 5312   1.104   3.109   9.799  0.1129  0.6546 -0.8323
  351TMC3    C6 5313   1.206   3.030   9.808 -0.7015 -0.4950  0.5615
  351TMC3     C 5314   1.110   3.282  10.115  0.1480 -0.5315 -0.0403
  351TMC3     O 5315   1.031   3.370  10.080 -0.7381 -0.1374 -0.2560
  351TMC3     H 5316   1.290   3.084  10.134 -0.1818 -3.4494  0.2895
  351TMC3    H1 5317   0.954   3.219   9.902 -1.1491 -2.4126  0.8288
  351TMC3    H2 5318   1.249   2.984   9.720 -2.2042 -1.6926  0.4441
  351TMC3    C7 5319   1.007   3.082   9.695  1.0653  0.0796 -0.2902
  351TMC3    C8 5320   1.376   2.930   9.925 -0.6543 -0.6821 -0.1387
  351TMC3    O1 5321   0.924   3.168   9.666 -0.1606 -0.8350  0.0100
  351TMC3    O2 5322   1.429   2.901   9.825 -0.5150 -0.5972  0.8024
  352MPD2     C 5323   4.414   0.900   0.257 -0.0218 -0.1522  0.6753
  352MPD2    C1 5324   4.422   0.848   0.385 -0.1795 -0.4120  0.1701
  352MPD2    C2 5325   4.518   0.751   0.416  0.0629 -0.3518  0.6895
  352MPD2    C3 5326   4.605   0.708   0.316 -0.1099 -0.8918 -0.1196
  352MPD2    C4 5327   4.608   0.777   0.190 -0.6496  0.1179 -0.4088
  352MPD2    C5 5328   4.517   0.882   0.166  0.0548  0.4487  1.0080
  352MPD2     H 5329   4.522   0.712   0.517  0.6499 -0.1167  0.7593
  352MPD2    H1 5330   4.678   0.755   0.110  1.4603 -0.8501  1.7497
  352MPD2    H2 5331   4.333   0.968   0.232  0.6053  0.6489  0.8448
  352MPD2    H3 5332   4.520   0.938   0.074 -1.7057 -0.2762  0.5184
  352MPD2     N 5333   4.700   0.602   0.342  0.0767 -0.5242 -0.8098
  352MPD2    H5 5334   0.010   0.562   0.262 -0.5440 -0.4341 -1.2320
  352MPD2    N1 5335   4.323   0.890   0.487  0.2211  0.0428 -0.1363
  352MPD2    H7 5336   4.245   0.932   0.438 -1.3566 -1.0727  1.3855
  353TMC3    C1 5337   0.018   0.385   0.412  0.2795  0.1216  0.6682
  353TMC3    C2 5338   0.134   0.384   0.341 -0.0377  0.3758  0.3105
  353TMC3    C3 5339   0.199   0.261   0.343  0.6315  0.7956  0.1348
  353TMC3    C4 5340   4.699   0.271   0.461  0.7676  0.4958  0.7682
  353TMC3    C5 5341   0.031   0.158   0.466  0.0197 -0.3335  0.6672
  353TMC3    C6 5342   0.152   0.147   0.407 -0.1643  0.2260  0.2940
  353TMC3     C 5343   4.697   0.517   0.449  0.1403 -0.5096 -0.2425
  353TMC3     O 5344   4.623   0.517   0.546  0.2184 -0.0853  0.2516
  353TMC3     H 5345   0.175   0.473   0.293 -2.2174 -0.1737 -2.5880
  353TMC3    H1 5346   4.611   0.286   0.521  1.0085 -0.6534  1.4030
  353TMC3    H2 5347   0.209   0.054   0.405 -0.7157 -0.0948 -0.7811
  353TMC3    C7 5348   4.712   0.031   0.504  0.9563 -0.8535  0.1903
  353TMC3    C8 5349   0.322   0.260   0.259  0.5250  0.2824  0.2062
  353TMC3    O1 5350   0.045   4.667   0.499  0.9776  0.4454  0.4646
  353TMC3    O2 5351   0.353   0.370   0.206 -0.5796 -0.3380 -0.0147
  354TMC3    C1 5352   2.148   1.582  13.266 -0.2711 -0.4980 -0.2257
  354TMC3    C2 5353   2.125   1.720  13.246  0.2440 -0.1821  0.0221
  354TMC3    C3 5354   2.099   1.765  13.119  0.1186 -0.4807  0.6278
  354TMC3    C4 5355   2.130   1.494  13.168 -0.6733 -0.4863 -0.0422
  354TMC3    C5 5356   2.089   1.546  13.047  0.1159 -0.2458 -0.3646
  354TMC3    C6 5357   2.067   1.678  13.023 -0.0704  0.2543 -0.0044
  354TMC3     C 5358   2.185   1.538  13.402  0.1376 -0.6508 -1.0377
  354TMC3     O 5359   2.189   1.627  13.489  0.4936 -0.3441 -0.0575
  354TMC3     H 5360   2.112   1.777  13.337 -0.7488  1.6707 -1.2803
  354TMC3    H1 5361   2.109   1.390  13.190  1.7087 -0.9862 -0.1792
  354TMC3    H2 5362   2.029   1.711  12.927 -2.4349 -3.5113 -0.3479
  354TMC3    C7 5363   2.024   1.460  12.948 -0.2718  0.9341  0.7849
  354TMC3    C8 5364   2.083   1.910  13.076 -0.1731 -0.4511  0.2753
  354TMC3    O1 5365   1.971   1.363  12.996 -0.0086  0.6046  0.1764
  354TMC3    O2 5366   2.061   1.927  12.956  0.3299 -0.1215 -0.3718
  355MPD2     C 5367   1.923   2.034  11.129 -0.5133  0.3107  0.6092
  355MPD2    C1 5368   1.936   2.169  11.088 -1.1634 -0.0606 -0.4299
  355MPD2    C2 5369   2.012   2.251  11.167 -0.0631  0.4841 -0.8967
  355MPD2    C3 5370   2.078   2.202  11.281 -0.2583  0.5814  0.3682
  355MPD2    C4 5371   2.069   2.071  11.314  0.1589  0.9162  0.2298
  355MPD2    C5 5372   1.992   1.987  11.242  0.4379  0.6387  0.7100
  355MPD2     H 5373   2.004   2.356  11.140  0.0890  0.9254  0.7701
  355MPD2    H1 5374   2.117   2.034  11.404 -2.5340 -3.8326 -0.2962
  355MPD2    H2 5375   1.870   1.959  11.071 -0.5097  0.8212 -0.0602
  355MPD2    H3 5376   1.986   1.888  11.284 -2.8913  1.5191  2.3290
  355MPD2     N 5377   2.172   2.281  11.361 -0.1305 -0.2615 -0.2913
  355MPD2    H5 5378   2.231   2.237  11.432  0.2976  2.1400  0.8460
  355MPD2    N1 5379   1.863   2.209  10.979 -0.7419 -0.5818  0.3540
  355MPD2    H7 5380   1.791   2.144  10.950  0.7182 -2.4423  0.8691
  356TMC3    C1 5381   2.277   2.488  11.435  0.1599  1.0186 -0.1439
  356TMC3    C2 5382   2.346   2.588  11.368 -0.2799 -0.3205 -0.2734
  356TMC3    C3 5383   2.411   2.687  11.439  0.3496 -0.4691 -0.6527
  356TMC3    C4 5384   2.271   2.485  11.572 -0.6969 -0.4676 -0.2188
  356TMC3    C5 5385   2.362   2.572  11.634 -0.1726 -0.1398  0.1617
  356TMC3    C6 5386   2.425   2.676  11.571  0.0211 -0.6366 -0.1662
  356TMC3     C 5387   2.171   2.420  11.354 -0.4458 -0.5656  0.2866
  356TMC3     O 5388   2.130   2.495  11.268  0.1755 -0.0029  0.6310
  356TMC3     H 5389   2.338   2.587  11.260 -2.4956  2.1911 -0.1239
  356TMC3    H1 5390   2.213   2.408  11.622  1.2101 -2.3680 -0.9437
  356TMC3    H2 5391   2.481   2.754  11.622  0.0125 -0.3583 -0.5843
  356TMC3    C7 5392   2.388   2.539  11.774  0.3570 -0.2527  0.2540
  356TMC3    C8 5393   2.480   2.786  11.360  0.1503 -0.2161 -0.4913
  356TMC3    O1 5394   2.322   2.451  11.823 -0.0668 -0.1294  0.1790
  356TMC3    O2 5395   2.491   2.750  11.242  0.3974  0.1861  0.5378
  357MPD2     C 5396   1.482   2.484   0.560  0.5994 -0.4688  0.2183
  357MPD2    C1 5397   1.478   2.352   0.597  0.3835  0.3080  0.1929
  357MPD2    C2 5398   1.349   2.303   0.618 -0.4477  0.6200  0.3924
  357MPD2    C3 5399   1.232   2.372   0.602  0.8522  0.1379 -0.1918
  357MPD2    C4 5400   1.243   2.502   0.557 -0.1779 -0.2569 -0.0545
  357MPD2    C5 5401   1.369   2.555   0.537 -0.0049 -0.2158 -0.3178
  357MPD2     H 5402   1.343   2.197   0.640  1.7953  0.1368 -1.2939
  357MPD2    H1 5403   1.157   2.567   0.555  0.5169  0.6844  0.4942
  357MPD2    H2 5404   1.585   2.517   0.553  0.4971 -0.9521 -3.4632
  357MPD2    H3 5405   1.374   2.663   0.525 -0.3586 -0.3122 -1.3558
  357MPD2     N 5406   1.105   2.309   0.613 -0.1589  0.8043 -0.2422
  357MPD2    H5 5407   1.028   2.363   0.576 -0.8041 -0.4936 -0.7928
  357MPD2    N1 5408   1.597   2.286   0.629 -0.0424 -0.2259 -0.7929
  357MPD2    H7 5409   1.686   2.331   0.612 -0.2755  1.0554  1.4285
  358TMC3    C1 5410   1.738   2.118   0.720  0.4438  0.0149  0.1964
  358TMC3    C2 5411   1.747   1.986   0.768  0.6792  1.1696 -0.3186
  358TMC3    C3 5412   1.866   1.922   0.756  0.1414 -0.3692 -0.1739
  358TMC3    C4 5413   1.850   2.178   0.667  0.1661  0.5553 -0.4177
  358TMC3    C5 5414   1.967   2.107   0.664 -1.0593 -0.7113  0.1759
  358TMC3    C6 5415   1.978   1.977   0.691  0.6343 -0.1537 -0.2163
  358TMC3     C 5416   1.602   2.163   0.691  0.8333  0.2330  0.9702
  358TMC3     O 5417   1.514   2.077   0.694 -0.7125  0.5979  0.5288
  358TMC3     H 5418   1.660   1.945   0.818  1.5825 -0.8535 -0.4226
  358TMC3    H1 5419   1.858   2.281   0.633  0.1101  0.5547 -0.4311
  358TMC3    H2 5420   2.078   1.938   0.703  0.2252 -1.5655 -1.3407
  358TMC3    C7 5421   2.101   2.171   0.672  0.3040  0.1022  0.2995
  358TMC3    C8 5422   1.836   1.782   0.736  0.0851  0.4107 -0.1334
  358TMC3    O1 5423   2.188   2.108   0.616 -0.7927 -0.3053  0.7309
  358TMC3    O2 5424   1.718   1.747   0.749 -0.3013  0.4172  0.0613
  359MPD2     C 5425   2.204   0.695  12.390  0.2110  0.0609 -0.0331
  359MPD2    C1 5426   2.140   0.575  12.358 -0.1952 -0.3500  0.1055
  359MPD2    C2 5427   2.004   0.561  12.397 -0.2161  0.5220  0.5676
  359MPD2    C3 5428   1.935   0.646  12.479  0.2593  0.3043 -0.3918
  359MPD2    C4 5429   2.007   0.757  12.515 -0.2393 -0.0795 -0.0616
  359MPD2    C5 5430   2.134   0.782  12.468  0.3964 -0.4450 -0.1324
  359MPD2     H 5431   1.956   0.468  12.370  0.8279  0.5388 -1.4209
  359MPD2    H1 5432   1.959   0.837  12.570 -0.2780 -0.6465  0.7222
  359MPD2    H2 5433   2.301   0.723  12.349 -0.3817  2.5675  0.2985
  359MPD2    H3 5434   2.177   0.877  12.496  1.1769 -0.4793 -1.2243
  359MPD2     N 5435   1.802   0.633  12.516  0.4182  0.1178  0.0830
  359MPD2    H5 5436   1.768   0.704  12.581 -1.3690  0.5822 -1.3497
  359MPD2    N1 5437   2.202   0.480  12.264 -0.5154 -0.9121  0.0306
  359MPD2    H7 5438   2.149   0.401  12.231 -1.3561  0.0259 -0.8767
  360TMC3    C1 5439   2.362   0.399  12.115  0.4558 -0.0108 -1.2669
  360TMC3    C2 5440   2.495   0.368  12.093  0.2036  0.1539 -0.0682
  360TMC3    C3 5441   2.533   0.341  11.960  0.0959  0.4501 -0.3751
  360TMC3    C4 5442   2.270   0.391  12.013  0.3923  0.1966 -0.6004
  360TMC3    C5 5443   2.315   0.346  11.891 -0.4113 -0.4496 -0.1030
  360TMC3    C6 5444   2.446   0.321  11.860  0.1049  0.3221 -0.8809
  360TMC3     C 5445   2.335   0.487  12.229 -0.4669 -0.3658 -0.3715
  360TMC3     O 5446   2.430   0.555  12.265  0.0013 -0.4342  0.0908
  360TMC3     H 5447   2.566   0.357  12.174 -1.8991 -2.1404  1.4819
  360TMC3    H1 5448   2.166   0.415  12.035  0.3817 -0.9331  0.6298
  360TMC3    H2 5449   2.477   0.303  11.758 -0.4161 -3.3331 -0.3820
  360TMC3    C7 5450   2.233   0.381  11.780  0.4337  0.0948 -0.7197
  360TMC3    C8 5451   2.682   0.330  11.938  0.2800 -0.0153  1.3990
  360TMC3    O1 5452   2.288   0.457  11.696 -0.4682 -0.5444  0.4201
  360TMC3    O2 5453   2.745   0.344  12.043  0.5889 -0.4641 -0.1787
  361MPD2     C 5454   3.804   4.112  16.588  0.2167 -0.6701  0.0178
  361MPD2    C1 5455   3.839   4.201  16.689  0.3821  0.0724  0.4975
  361MPD2    C2 5456   3.858   4.148  16.820  0.8218 -0.4744 -0.1291
  361MPD2    C3 5457   3.855   4.010  16.840 -0.4515  0.5388  1.0702
  361MPD2    C4 5458   3.812   3.924  16.741 -0.1744 -0.1247 -0.2423
  361MPD2    C5 5459   3.792   3.976  16.616 -0.0004 -0.2882  0.1496
  361MPD2     H 5460   3.879   4.214  16.903  0.3446  0.1112 -0.4756
  361MPD2    H1 5461   3.801   3.817  16.754  2.5718 -0.2993  0.6157
  361MPD2    H2 5462   3.789   4.146  16.486  0.9104 -0.3639  0.0236
  361MPD2    H3 5463   3.765   3.901  16.543 -1.6213  1.0926 -0.6861
  361MPD2     N 5464   3.892   3.950  16.958 -0.1975  0.4614 -0.3177
  361MPD2    H5 5465   3.869   3.851  16.962  2.5229 -0.1823 -0.7890
  361MPD2    N1 5466   3.829   4.344  16.670  0.0648 -0.2398 -0.1649
  361MPD2    H7 5467   3.854   4.396  16.753 -0.9065  0.8614 -0.5544
  362TMC3    C1 5468   3.726   4.530  16.592  0.2236  0.0808  0.4942
  362TMC3    C2 5469   3.652   4.534  16.705  0.6226  0.2247 -0.7092
  362TMC3    C3 5470   3.535   4.609  16.701  0.0747  0.4954  0.3693
  362TMC3    C4 5471   3.703   4.616  16.490  0.1718  0.1531 -0.4199
  362TMC3    C5 5472   3.587   4.692  16.490  0.4264  0.0914 -0.0230
  362TMC3    C6 5473   3.500   4.689  16.594 -0.2404 -0.9558  0.3348
  362TMC3     C 5474   3.781   4.402  16.558 -1.1046 -0.0209  0.3663
  362TMC3     O 5475   3.777   4.367  16.441  0.5948 -0.0953  0.3405
  362TMC3     H 5476   3.676   4.474  16.792 -0.6609  0.0301 -0.4777
  362TMC3    H1 5477   3.775   4.619  16.409 -0.2406  4.7456 -0.5997
  362TMC3    H2 5478   3.405   0.001  16.587  1.0059  1.3814  0.2582
  362TMC3    C7 5479   3.530   4.727  16.364 -0.2962  0.1114 -0.7604
  362TMC3    C8 5480   3.436   4.579  16.805  0.2476  0.2791  1.3559
  362TMC3    O1 5481   3.450   0.081  16.362  0.5227 -0.3442 -0.6250
  362TMC3    O2 5482   3.440   4.463  16.831  0.7340  0.1804 -0.6684
  363TMC3    C1 5483   2.617   2.146   9.986 -0.1123  0.0713 -0.4975
  363TMC3    C2 5484   2.671   2.191  10.100  0.0514 -0.3312 -0.8947
  363TMC3    C3 5485   2.655   2.322  10.134 -0.1310 -0.2454  0.0757
  363TMC3    C4 5486   2.541   2.228   9.901  0.5812 -0.0289  0.4256
  363TMC3    C5 5487   2.525   2.357   9.948  0.3356 -0.0247  0.0072
  363TMC3    C6 5488   2.578   2.409  10.063 -0.1999 -0.1243 -0.0860
  363TMC3     C 5489   2.601   2.004   9.970 -0.4849 -0.2162 -0.3063
  363TMC3     O 5490   2.583   1.958   9.855  0.0470  0.1225  0.0724
  363TMC3     H 5491   2.748   2.133  10.150  0.7961  1.4496  0.0283
  363TMC3    H1 5492   2.499   2.193   9.808 -1.8909 -0.3504  1.6686
  363TMC3    H2 5493   2.545   2.504  10.103 -1.5570  0.5004 -2.6406
  363TMC3    C7 5494   2.435   2.444   9.859 -1.1054 -0.0341 -0.5785
  363TMC3    C8 5495   2.695   2.352  10.275  0.4436  0.7780  0.5043
  363TMC3    O1 5496   2.408   2.551   9.906 -0.2698 -0.0785 -0.2718
  363TMC3    O2 5497   2.604   2.370  10.353  0.0568 -0.1624 -0.3640
  364MPD2     C 5498   0.575   1.720  10.312  0.2156  0.4773  0.6535
  364MPD2    C1 5499   0.656   1.802  10.387  0.0680 -0.0745 -0.2667
  364MPD2    C2 5500   0.753   1.750  10.471 -0.2899  0.0108  0.2538
  364MPD2    C3 5501   0.773   1.616  10.488 -0.0061 -0.1651 -0.2009
  364MPD2    C4 5502   0.685   1.535  10.413  0.0382  0.6619 -0.5438
  364MPD2    C5 5503   0.594   1.581  10.326 -0.4873  0.1799  0.3213
  364MPD2     H 5504   0.820   1.817  10.522  2.9777 -3.3562  0.4251
  364MPD2    H1 5505   0.686   1.427  10.421  0.8851  0.7396  0.4118
  364MPD2    H2 5506   0.496   1.766  10.253  2.2014 -1.6055 -3.6480
  364MPD2    H3 5507   0.535   1.505  10.277 -3.7792  3.2253 -0.4234
  364MPD2     N 5508   0.875   1.550  10.566 -0.3570  0.0533  0.1599
  364MPD2    H5 5509   0.882   1.449  10.560 -1.4457 -0.0516  0.5658
  364MPD2    N1 5510   0.645   1.937  10.362  0.1679  0.0136 -0.0816
  364MPD2    H7 5511   0.578   1.964  10.291 -0.5403 -1.9330 -0.1631
  365TMC3    C1 5512   0.769   2.125  10.334 -1.0427 -0.1473 -0.0031
  365TMC3    C2 5513   0.836   2.079  10.226  0.0234 -0.2851  0.2301
  365TMC3    C3 5514   0.931   2.157  10.159  0.1010 -0.5312  0.2646
  365TMC3    C4 5515   0.801   2.245  10.383 -0.0901 -0.2097 -0.8623
  365TMC3    C5 5516   0.868   2.333  10.300  0.6474  0.0308  0.5939
  365TMC3    C6 5517   0.937   2.287  10.192  0.1035 -0.5577 -0.7095
  365TMC3     C 5518   0.727   2.027  10.417  0.2252 -0.2227 -0.2694
  365TMC3     O 5519   0.767   2.045  10.533 -0.0226  0.1814  0.0504
  365TMC3     H 5520   0.805   1.982  10.190 -0.0650  0.4716 -1.7787
  365TMC3    H1 5521   0.746   2.275  10.472  0.3195  0.9714 -1.0139
  365TMC3    H2 5522   1.001   2.348  10.128 -1.4231 -0.7478 -2.4211
  365TMC3    C7 5523   0.909   2.470  10.344  0.7014 -0.1079 -0.2466
  365TMC3    C8 5524   1.041   2.100  10.079  0.0420  0.2541 -0.1730
  365TMC3    O1 5525   0.968   2.535  10.263 -0.2944 -0.2438  0.4046
  365TMC3    O2 5526   1.131   2.166  10.028  0.3417  0.0899 -0.1654
  366MPD2     C 5527   4.439   2.854  14.823 -0.1445 -0.3575 -0.4405
  366MPD2    C1 5528   4.474   2.882  14.956 -0.7479  1.0154  0.1170
  366MPD2    C2 5529   4.600   2.851  15.004 -0.0417  0.0915 -0.2099
  366MPD2    C3 5530   4.695   2.800  14.919 -0.2033 -0.4852 -0.1892
  366MPD2    C4 5531   4.661   2.767  14.792 -0.5541  0.6817 -0.2151
  366MPD2    C5 5532   4.536   2.796  14.748  0.6533  0.2314  0.3512
  366MPD2     H 5533   4.617   2.874  15.108 -1.2653  0.0254  0.0073
  366MPD2    H1 5534   4.730   2.730  14.717 -1.9482  0.0590 -1.1876
  366MPD2    H2 5535   4.340   2.873  14.782  0.3821  0.7777 -1.1716
  366MPD2    H3 5536   4.508   2.786  14.643  1.9414 -0.2422  0.0494
  366MPD2     N 5537   0.088   2.772  14.967 -0.5406  0.0554 -0.1236
  366MPD2    H5 5538   0.141   2.709  14.908  0.1384  1.9435 -1.5492
  366MPD2    N1 5539   4.389   2.960  15.047  0.4122  0.4265 -0.0467
  366MPD2    H7 5540   4.424   2.978  15.140 -1.5512 -0.4047  0.8629
  367TMC3    C1 5541   4.237   3.129  15.109 -0.2607  0.4029 -0.0103
  367TMC3    C2 5542   4.319   3.169  15.205  0.3352 -0.4105  0.0517
  367TMC3    C3 5543   4.293   3.284  15.273 -0.2825  0.8390  0.8221
  367TMC3    C4 5544   4.116   3.192  15.088 -0.2971 -0.4182  0.2556
  367TMC3    C5 5545   4.093   3.312  15.156 -0.6436  0.4793 -0.5552
  367TMC3    C6 5546   4.182   3.359  15.250 -0.6832 -0.6487  0.8898
  367TMC3     C 5547   4.267   3.012  15.023 -0.2279 -0.8940  0.2453
  367TMC3     O 5548   4.192   2.999  14.926 -0.1854  0.1015 -0.2028
  367TMC3     H 5549   4.417   3.127  15.221  0.7009  1.0820  1.7589
  367TMC3    H1 5550   4.043   3.155  15.018 -1.0398  0.5520  0.5117
  367TMC3    H2 5551   4.168   3.454  15.300 -1.0116 -0.3592  0.2445
  367TMC3    C7 5552   3.980   3.401  15.125 -0.5935  0.4423 -0.5665
  367TMC3    C8 5553   4.374   3.298  15.401  0.3600 -0.5361 -0.3188
  367TMC3    O1 5554   3.984   3.510  15.177  0.4588  0.5220  0.0014
  367TMC3    O2 5555   4.436   3.192  15.427  0.5715  1.4655  0.0687
  368MPD2     C 5556   0.182   0.087  13.330  0.3516  0.4461 -0.6252
  368MPD2    C1 5557   0.217   0.188  13.242  0.2263  0.3847  0.4083
  368MPD2    C2 5558   0.324   0.182  13.165  0.5893 -1.0037  0.8668
  368MPD2    C3 5559   0.411   0.075  13.179  0.3618 -0.5656 -0.3669
  368MPD2    C4 5560   0.382   4.711  13.265 -0.0624 -0.6348  0.7693
  368MPD2    C5 5561   0.266   4.717  13.340  0.1778 -0.0192 -0.6611
  368MPD2     H 5562   0.362   0.269  13.113 -0.5237 -1.2626 -0.3960
  368MPD2    H1 5563   0.454   4.631  13.277  0.0133 -0.4740  1.3991
  368MPD2    H2 5564   0.098   0.099  13.398 -1.4622  0.2160 -2.7994
  368MPD2    H3 5565   0.256   4.638  13.414  1.4746  0.4899  0.0565
  368MPD2     N 5566   0.521   0.069  13.104  0.3771  0.2983 -0.0287
  368MPD2    H5 5567   0.601   0.021  13.144 -0.4682 -0.3623  0.8437
  368MPD2    N1 5568   0.120   0.297  13.245  0.1429 -0.5626  0.5185
  368MPD2    H7 5569   0.041   0.274  13.305 -0.5997 -0.3812 -0.4003
  369TMC3    C1 5570   0.050   0.522  13.252 -0.7381  0.6381  0.7230
  369TMC3    C2 5571   0.095   0.652  13.236  0.6115 -0.0092 -0.2715
  369TMC3    C3 5572   0.004   0.749  13.197 -0.3599 -0.0860  0.2315
  369TMC3    C4 5573   4.654   0.499  13.253 -0.1416  0.6508 -0.6208
  369TMC3    C5 5574   4.565   0.600  13.228  0.0360 -0.6134 -0.1874
  369TMC3    C6 5575   4.604   0.726  13.207 -0.7762  0.2158 -0.3128
  369TMC3     C 5576   0.157   0.425  13.226  0.4083 -0.3573 -0.3330
  369TMC3     O 5577   0.261   0.466  13.183  0.0018  0.4730  0.2384
  369TMC3     H 5578   0.201   0.675  13.238  0.2263  1.8360 -0.6181
  369TMC3    H1 5579   4.618   0.397  13.259  0.5571  0.4823  0.6820
  369TMC3    H2 5580   4.531   0.806  13.198 -0.3687  0.7649  1.2832
  369TMC3    C7 5581   4.427   0.576  13.281  0.2468  0.1629  0.2301
  369TMC3    C8 5582   0.048   0.882  13.163 -0.1224  0.1045  1.0374
  369TMC3    O1 5583   4.389   0.460  13.280  0.0555  0.1999  0.2798
  369TMC3    O2 5584   0.155   0.921  13.207 -0.3345  0.1098  0.1396
  370TMC3    C1 5585   0.259   0.479  16.101 -0.1895 -0.0521  0.4130
  370TMC3    C2 5586   0.192   0.398  16.193  0.2700 -0.4739  0.3266
  370TMC3    C3 5587   0.231   0.267  16.215  0.5074 -0.1902  1.0561
  370TMC3    C4 5588   0.355   0.421  16.022 -0.3248  0.1940 -0.3076
  370TMC3    C5 5589   0.388   0.285  16.046  0.2693  0.2223 -0.5304
  370TMC3    C6 5590   0.326   0.204  16.137 -0.2522  0.2683  0.0609
  370TMC3     C 5591   0.240   0.614  16.110  0.7314 -0.2963  0.8743
  370TMC3     O 5592   0.128   0.658  16.131  0.0866 -0.1216  0.5244
  370TMC3     H 5593   0.116   0.440  16.258 -1.5924  0.8573 -2.6798
  370TMC3    H1 5594   0.414   0.483  15.955  2.5988 -1.3849  0.8089
  370TMC3    H2 5595   0.350   0.101  16.162 -1.1610  0.0383 -0.0387
  370TMC3    C7 5596   0.475   0.226  15.947 -0.5160  0.6891  0.0675
  370TMC3    C8 5597   0.172   0.200  16.331  0.0485  0.7376  0.0545
  370TMC3    O1 5598   0.499   0.288  15.843  0.2835 -0.0170 -0.6390
  370TMC3    O2 5599   0.158   0.076  16.328  0.8019  0.1452  0.0745
  371TMC3    C1 5600   1.670   3.653  15.293 -0.3151 -0.0254  0.4446
  371TMC3    C2 5601   1.622   3.688  15.416 -0.0261 -0.3252 -0.0541
  371TMC3    C3 5602   1.607   3.820  15.441 -0.7119 -0.6178  0.0301
  371TMC3    C4 5603   1.694   3.745  15.195  0.0537 -0.1190 -0.1849
  371TMC3    C5 5604   1.680   3.879  15.225  0.1754 -0.5880 -0.3289
  371TMC3    C6 5605   1.642   3.915  15.350 -0.1731  0.5165 -0.2270
  371TMC3     C 5606   1.721   3.522  15.266  0.4932 -0.3735 -0.1505
  371TMC3     O 5607   1.807   3.504  15.178 -0.1855 -0.1522  0.2257
  371TMC3     H 5608   1.612   3.627  15.505  2.1887 -0.4177  0.1313
  371TMC3    H1 5609   1.729   3.720  15.096  1.5013  1.3809 -0.0546
  371TMC3    H2 5610   1.631   4.019  15.380  1.3321  0.2248  1.3014
  371TMC3    C7 5611   1.723   3.987  15.137  0.1656 -0.4182  0.2921
  371TMC3    C8 5612   1.610   3.862  15.581 -0.6413  0.4071  0.4123
  371TMC3    O1 5613   1.682   4.100  15.156  0.1495 -0.4690 -0.6147
  371TMC3    O2 5614   1.718   3.912  15.613  0.1610  0.0542 -0.1026
  372MPD2     C 5615   0.619   0.731  13.310  0.4736 -0.5002  0.3533
  372MPD2    C1 5616   0.708   0.645  13.362  0.2680 -0.3292 -0.4837
  372MPD2    C2 5617   0.673   0.542  13.440  0.0940 -0.5377 -0.4476
  372MPD2    C3 5618   0.543   0.508  13.448  0.2674  0.7189 -0.7967
  372MPD2    C4 5619   0.449   0.597  13.399 -0.2061 -0.0930 -0.5340
  372MPD2    C5 5620   0.487   0.708  13.331  0.0368  0.2012  0.3927
  372MPD2     H 5621   0.750   0.490  13.497  1.1062  0.7964 -0.5920
  372MPD2    H1 5622   0.342   0.576  13.396 -0.0958 -0.7181 -0.0757
  372MPD2    H2 5623   0.648   0.811  13.243 -1.6631  0.4513  0.5481
  372MPD2    H3 5624   0.417   0.773  13.281 -0.4071 -0.5945 -0.0209
  372MPD2     N 5625   0.512   0.384  13.507  0.4884 -0.8291 -0.6267
  372MPD2    H5 5626   0.588   0.319  13.527  0.0968 -0.5151  1.9606
  372MPD2    N1 5627   0.846   0.662  13.349  0.1503  0.0822 -0.1556
  372MPD2    H7 5628   0.898   0.590  13.399 -0.9243 -0.3177  0.3977
  373TMC3    C1 5629   0.393   0.203  13.587  0.1012  0.7415 -0.0016
  373TMC3    C2 5630   0.275   0.163  13.652  0.8836  0.5210  0.3260
  373TMC3    C3 5631   0.276   0.034  13.689  0.1723  0.7238  0.0737
  373TMC3    C4 5632   0.498   0.120  13.558  0.4099 -0.3461 -0.4749
  373TMC3    C5 5633   0.483   4.725  13.590  0.2549 -0.3807  0.4872
  373TMC3    C6 5634   0.381   4.677  13.666 -0.3667  0.4993 -0.3904
  373TMC3     C 5635   0.386   0.333  13.531 -0.1948 -0.3085  0.2479
  373TMC3     O 5636   0.281   0.386  13.506 -0.1098  0.0466 -0.5139
  373TMC3     H 5637   0.196   0.233  13.675  0.7918  0.3092  0.6458
  373TMC3    H1 5638   0.583   0.145  13.495  0.5568  0.7352  0.1480
  373TMC3    H2 5639   0.374   4.574  13.698 -0.4175  0.5972 -0.0865
  373TMC3    C7 5640   0.601   4.637  13.587 -0.3404  0.6985 -0.0799
  373TMC3    C8 5641   0.148   4.725  13.736 -0.4766 -0.0510  0.0149
  373TMC3    O1 5642   0.677   4.639  13.489  0.6989  0.2617  0.6305
  373TMC3    O2 5643   0.055   0.026  13.668 -0.1555  0.2448 -0.1854
  374TMC3    C1 5644   1.636   0.706   9.473  0.2911  0.4281  0.7897
  374TMC3    C2 5645   1.768   0.703   9.508 -0.3393 -0.2770 -0.3388
  374TMC3    C3 5646   1.862   0.693   9.407 -0.0367 -0.1974  0.0432
  374TMC3    C4 5647   1.601   0.690   9.339  0.4598  0.6768  0.2184
  374TMC3    C5 5648   1.697   0.663   9.245  1.1011  0.5984 -0.7780
  374TMC3    C6 5649   1.827   0.659   9.278  0.0234 -0.6108  0.0040
  374TMC3     C 5650   1.548   0.799   9.541  0.1401  0.5908 -0.1452
  374TMC3     O 5651   1.446   0.827   9.480 -0.7569  0.1579  0.3437
  374TMC3     H 5652   1.805   0.753   9.597  0.5724 -0.5985 -0.5471
  374TMC3    H1 5653   1.499   0.695   9.303  0.4463  1.0971  0.3098
  374TMC3    H2 5654   1.906   0.659   9.203  0.5313  0.9278  0.5460
  374TMC3    C7 5655   1.677   0.723   9.117 -0.3053  0.8583 -0.1106
  374TMC3    C8 5656   2.002   0.698   9.448 -0.3893 -0.5691 -0.4184
  374TMC3    O1 5657   1.590   0.809   9.099 -0.1317  0.6140 -0.3167
  374TMC3    O2 5658   2.088   0.704   9.358  0.2409  0.1958 -0.4617
  375MPD2     C 5659   1.729   0.747  17.067  0.8594 -0.0384  0.7183
  375MPD2    C1 5660   1.657   0.792  16.957  0.9767  0.4187  0.1396
  375MPD2    C2 5661   1.705   0.760  16.830  0.1150 -0.6260  0.4708
  375MPD2    C3 5662   1.836   0.710  16.819  0.1963 -0.2146 -0.1703
  375MPD2    C4 5663   1.917   0.686  16.929  0.4223 -0.2125 -0.3851
  375MPD2    C5 5664   1.855   0.701  17.056 -0.4271  0.2162 -0.5910
  375MPD2     H 5665   1.639   0.778  16.746 -1.2939  1.2367  1.9789
  375MPD2    H1 5666   2.020   0.653  16.934  0.3914 -0.1156  0.9270
  375MPD2    H2 5667   1.697   0.778  17.166  3.9445  1.5338  1.2482
  375MPD2    H3 5668   1.915   0.687  17.145 -0.9688 -2.7775 -0.6689
  375MPD2     N 5669   1.899   0.690  16.696 -0.5544  0.5868 -0.0611
  375MPD2    H5 5670   1.996   0.664  16.702 -0.8442  0.0210  2.2176
  375MPD2    N1 5671   1.529   0.851  16.972  0.4531 -0.1071  0.2576
  375MPD2    H7 5672   1.494   0.892  16.886  0.2587 -2.1523 -0.6490
  376TMC3    C1 5673   1.934   0.733  16.468 -0.4291  0.6783 -0.1157
  376TMC3    C2 5674   2.067   0.763  16.498 -0.6663  0.5507  0.5559
  376TMC3    C3 5675   2.149   0.779  16.388 -0.0492  0.2122 -0.0320
  376TMC3    C4 5676   1.879   0.723  16.349  0.6513 -0.0232 -0.4593
  376TMC3    C5 5677   1.960   0.760  16.247 -0.3976  0.4961  0.4416
  376TMC3    C6 5678   2.093   0.792  16.262 -0.3343 -0.1996  1.0636
  376TMC3     C 5679   1.835   0.724  16.578 -0.3637  0.6012 -0.3176
  376TMC3     O 5680   1.720   0.740  16.551 -0.1678  0.3040 -0.1021
  376TMC3     H 5681   2.099   0.795  16.597  0.9677 -3.5261  1.3323
  376TMC3    H1 5682   1.778   0.686  16.338  1.2993 -1.3157 -2.0892
  376TMC3    H2 5683   2.150   0.839  16.183 -1.2860 -1.0826 -0.1427
  376TMC3    C7 5684   1.891   0.809  16.125  0.6698  0.3106 -0.3980
  376TMC3    C8 5685   2.285   0.817  16.400  0.4174  0.2138  0.3023
  376TMC3    O1 5686   1.962   0.870  16.048  0.3039 -0.1768 -0.4787
  376TMC3    O2 5687   2.340   0.844  16.294 -0.0163 -0.3251 -0.0206
  377MPD2     C 5688   4.231   0.705  12.067 -0.4915 -0.0253 -0.0080
  377MPD2    C1 5689   4.276   0.690  12.195  0.7253 -0.5105 -0.1907
  377MPD2    C2 5690   4.227   0.592  12.275 -0.0592  0.2681  0.0023
  377MPD2    C3 5691   4.135   0.498  12.226 -0.0699  0.5938  0.0036
  377MPD2    C4 5692   4.102   0.509  12.098  0.2809  0.3759 -0.4239
  377MPD2    C5 5693   4.145   0.613  12.021 -0.7942  0.2925  0.7452
  377MPD2     H 5694   4.258   0.591  12.379  0.0730  3.1527 -0.0082
  377MPD2    H1 5695   4.045   0.435  12.043  0.0496 -0.1492  0.5124
  377MPD2    H2 5696   4.247   0.794  12.008  0.2715 -0.4629 -0.4483
  377MPD2    H3 5697   4.094   0.633  11.927  1.4464 -0.4511 -0.6073
  377MPD2     N 5698   4.090   0.389  12.296 -0.2558  0.2394 -0.4414
  377MPD2    H5 5699   4.049   0.316  12.239 -1.5703  1.4747 -1.0777
  377MPD2    N1 5700   4.392   0.766  12.231 -0.2824 -0.4720 -0.0498
  377MPD2    H7 5701   4.437   0.805  12.150  0.5662 -0.5530  0.3777
  378TMC3    C1 5702   0.038   0.892  12.237 -0.3352 -0.2657 -0.8221
  378TMC3    C2 5703   4.650   0.843  12.231 -0.1324  0.2469 -0.1578
  378TMC3    C3 5704   4.577   0.847  12.346  0.2208 -1.0500 -0.0164
  378TMC3    C4 5705   0.112   0.911  12.350  0.1884  0.0654 -0.2252
  378TMC3    C5 5706   0.034   0.884  12.464 -0.0433 -0.4700 -0.1916
  378TMC3    C6 5707   4.638   0.875  12.463 -0.4035 -0.2564 -0.3501
  378TMC3     C 5708   0.093   0.926  12.104 -1.2137  0.1231  0.5405
  378TMC3     O 5709   0.028   0.883  12.010  0.4142  0.0662 -0.1064
  378TMC3     H 5710   4.614   0.810  12.134  0.0122  0.7978 -0.3982
  378TMC3    H1 5711   0.219   0.931  12.351  0.6106 -2.0579 -2.2576
  378TMC3    H2 5712   4.582   0.866  12.556  0.4402 -2.7605 -0.0778
  378TMC3    C7 5713   0.097   0.883  12.596 -0.0045  0.4680  0.3852
  378TMC3    C8 5714   4.452   0.779  12.355  0.0090 -0.0880  0.4688
  378TMC3    O1 5715   0.033   0.824  12.682  0.6853  0.4604 -0.0521
  378TMC3    O2 5716   4.404   0.744  12.462  0.3481  0.4006  0.4426
  379MPD2     C 5717   0.044   2.919  16.511 -0.1388 -0.3790  0.0452
  379MPD2    C1 5718   0.166   2.952  16.456 -0.1044  0.0208 -0.1207
  379MPD2    C2 5719   0.284   2.933  16.528 -0.2317 -0.0431  0.1578
  379MPD2    C3 5720   0.279   2.870  16.652 -0.0527  0.5000 -0.0954
  379MPD2    C4 5721   0.161   2.821  16.697  0.1997 -0.7548 -0.1492
  379MPD2    C5 5722   0.046   2.846  16.625 -0.0241 -0.6707 -0.3790
  379MPD2     H 5723   0.383   2.959  16.492 -0.6780  0.5373 -0.6566
  379MPD2    H1 5724   0.157   2.762  16.788 -1.0326  0.4982  0.6193
  379MPD2    H2 5725   4.686   2.931  16.461 -0.2385  2.2877  0.8538
  379MPD2    H3 5726   4.692   2.792  16.649 -1.3501  0.8829 -1.9185
  379MPD2     N 5727   0.399   2.841  16.729 -0.5336  0.0737  0.3520
  379MPD2    H5 5728   0.377   2.791  16.814 -0.5055  0.2461  0.4603
  379MPD2    N1 5729   0.157   3.022  16.331 -0.5121 -0.2974  0.0872
  379MPD2    H7 5730   0.068   3.052  16.292 -1.3679 -1.1557  1.3502
  380TMC3    C1 5731   0.235   3.090  16.119  0.0330  0.0766 -0.2926
  380TMC3    C2 5732   0.314   3.059  16.017  0.5043  1.1408 -0.0915
  380TMC3    C3 5733   0.277   3.109  15.896 -0.4749  0.0212  0.2809
  380TMC3    C4 5734   0.123   3.166  16.109 -0.4762  0.6980 -0.1624
  380TMC3    C5 5735   0.086   3.207  15.982 -0.1283  0.4604 -0.6930
  380TMC3    C6 5736   0.164   3.180  15.875  0.7352  0.5155 -0.3076
  380TMC3     C 5737   0.267   3.036  16.250  0.6634  0.3017  0.0227
  380TMC3     O 5738   0.376   2.990  16.267  0.0276  0.2174  0.2480
  380TMC3     H 5739   0.416   3.027  16.035  0.0549 -0.3086 -0.1428
  380TMC3    H1 5740   0.069   3.190  16.200  1.1835  2.8215  0.2791
  380TMC3    H2 5741   0.132   3.213  15.777  0.8677  0.9254 -0.2141
  380TMC3    C7 5742   4.725   3.316  15.965  0.3004 -0.2771  0.1868
  380TMC3    C8 5743   0.378   3.118  15.792 -0.3514  0.4800  0.8389
  380TMC3    O1 5744   4.707   3.400  16.055 -0.2323 -0.7730  0.0108
  380TMC3    O2 5745   0.373   3.208  15.713 -0.3539  0.1919  0.1552
  381TMC3    C1 5746   0.218   4.222  16.129  0.1922 -0.4657 -0.3369
  381TMC3    C2 5747   0.295   4.336  16.119  0.9426  0.8451 -0.2680
  381TMC3    C3 5748   0.277   4.430  16.213  0.2522 -0.5541  0.2594
  381TMC3    C4 5749   0.127   4.201  16.232  0.2634  0.1808 -0.1079
  381TMC3    C5 5750   0.115   4.294  16.333 -0.0974  0.2514  0.3666
  381TMC3    C6 5751   0.192   4.409  16.322  0.0666  0.8551  0.7695
  381TMC3     C 5752   0.266   4.109  16.052 -0.8189 -0.4813 -0.3320
  381TMC3     O 5753   0.381   4.111  16.011  0.4163 -0.3498  0.0302
  381TMC3     H 5754   0.372   4.349  16.044  1.5293 -1.9059 -0.1375
  381TMC3    H1 5755   0.062   4.114  16.231  0.0984  0.3050 -0.2959
  381TMC3    H2 5756   0.193   4.478  16.406  1.0475 -0.0750  1.5226
  381TMC3    C7 5757   0.059   4.250  16.458 -0.5203  0.0884  0.5188
  381TMC3    C8 5758   0.399   4.490  16.253  0.3167 -0.3900 -0.2120
  381TMC3    O1 5759   0.084   4.132  16.489  0.3994 -0.2424  0.2620
  381TMC3    O2 5760   0.502   4.438  16.207 -0.2641  0.2544  0.4360
  382MPD2     C 5761   4.576   1.840  16.702 -0.4360  0.2872  0.1513
  382MPD2    C1 5762   4.505   1.822  16.821  0.1995 -0.5786  0.0063
  382MPD2    C2 5763   4.479   1.697  16.868 -0.1539 -0.4248 -0.3910
  382MPD2    C3 5764   4.530   1.589  16.796  0.4615  0.3882  0.2071
  382MPD2    C4 5765   4.599   1.610  16.679  0.1868  0.2706 -0.4467
  382MPD2    C5 5766   4.622   1.738  16.630  0.1442  0.4571  0.8963
  382MPD2     H 5767   4.426   1.674  16.960  0.5556 -0.0958  0.1014
  382MPD2    H1 5768   4.643   1.531  16.618  1.1566  1.3014 -1.0743
  382MPD2    H2 5769   4.597   1.937  16.658 -1.8999  0.2511 -0.6376
  382MPD2    H3 5770   4.697   1.744  16.552 -0.7290 -4.4057 -0.2838
  382MPD2     N 5771   4.516   1.452  16.826  0.2808  0.3911  0.0022
  382MPD2    H5 5772   4.551   1.385  16.759  0.5958  0.5976 -0.0429
  382MPD2    N1 5773   4.461   1.930  16.896 -0.1571  0.3021 -0.7147
  382MPD2    H7 5774   4.400   1.902  16.971  0.3496 -0.6755 -0.6742
  383TMC3    C1 5775   4.450   1.257  16.932 -0.8640 -0.7388  0.3412
  383TMC3    C2 5776   4.332   1.208  16.991  0.0554  0.4312 -0.7692
  383TMC3    C3 5777   4.290   1.090  16.946  0.2303 -0.0301 -0.1591
  383TMC3    C4 5778   4.521   1.188  16.838 -0.4302 -0.4925 -0.0766
  383TMC3    C5 5779   4.466   1.073  16.794  0.7149 -0.4696 -0.3485
  383TMC3    C6 5780   4.347   1.023  16.847 -0.2221  0.0139  0.7047
  383TMC3     C 5781   4.458   1.403  16.940  0.1334  0.2983  0.3696
  383TMC3     O 5782   4.398   1.467  17.025 -0.1858 -0.2216 -0.3890
  383TMC3     H 5783   4.279   1.250  17.076  1.0895 -0.1072  0.1349
  383TMC3    H1 5784   4.607   1.233  16.791 -0.4831  0.4853  0.7737
  383TMC3    H2 5785   4.297   0.951  16.784 -0.1129  0.5657 -0.0147
  383TMC3    C7 5786   4.547   0.976  16.715  0.2472  0.3704 -0.0547
  383TMC3    C8 5787   4.160   1.049  16.974 -0.2383 -0.1097  0.0285
  383TMC3    O1 5788   4.485   0.889  16.655  0.3750  0.4817  0.1857
  383TMC3    O2 5789   4.088   1.136  17.026  0.2695  0.1255 -0.3056
  384MPD2     C 5790   0.688   3.827  11.924  0.0400 -0.5743 -0.4505
  384MPD2    C1 5791   0.786   3.810  12.019  0.3687 -0.2141 -0.0546
  384MPD2    C2 5792   0.906   3.759  11.984  0.0797  0.4205  0.6614
  384MPD2    C3 5793   0.926   3.714  11.855  0.4388 -1.1499 -0.2160
  384MPD2    C4 5794   0.827   3.724  11.759 -0.4799  0.0718  0.5438
  384MPD2    C5 5795   0.712   3.776  11.800  0.7000  0.2666 -0.3768
  384MPD2     H 5796   0.981   3.761  12.063 -1.0997 -1.1597  1.7994
  384MPD2    H1 5797   0.836   3.680  11.661  1.3340  1.7499 -0.0418
  384MPD2    H2 5798   0.590   3.868  11.945  1.4258  1.4731  2.0329
  384MPD2    H3 5799   0.639   3.791  11.721 -0.9152  0.0121  1.0595
  384MPD2     N 5800   1.055   3.657  11.833 -0.2735 -0.6527  0.2150
  384MPD2    H5 5801   1.115   3.657  11.915 -0.2251  0.6650  0.1787
  384MPD2    N1 5802   0.768   3.822  12.157  0.3740 -0.1789 -0.1697
  384MPD2    H7 5803   0.837   3.783  12.220  0.3124 -0.1900 -0.1078
  385TMC3    C1 5804   1.241   3.553  11.749  0.5869  0.3462 -0.1453
  385TMC3    C2 5805   1.257   3.421  11.720 -0.0859  0.5863 -0.3161
  385TMC3    C3 5806   1.333   3.347  11.812 -0.3775 -0.2550  0.4790
  385TMC3    C4 5807   1.294   3.610  11.861  0.0569 -0.0948  0.7045
  385TMC3    C5 5808   1.356   3.525  11.953  0.1167  0.2594  0.2155
  385TMC3    C6 5809   1.378   3.393  11.928  0.0290  0.5872 -0.1953
  385TMC3     C 5810   1.102   3.601  11.726  0.7723  0.1931  0.3243
  385TMC3     O 5811   1.046   3.546  11.632  0.2577 -0.2831 -1.0314
  385TMC3     H 5812   1.217   3.378  11.629  1.5831 -0.9683 -0.3134
  385TMC3    H1 5813   1.286   3.718  11.871  0.5154 -0.0480  0.5696
  385TMC3    H2 5814   1.428   3.325  11.996  1.7125 -0.3665 -2.3867
  385TMC3    C7 5815   1.309   3.556  12.084 -1.0327 -0.6824  0.2996
  385TMC3    C8 5816   1.300   3.204  11.815  0.1141  0.3854  0.8352
  385TMC3    O1 5817   1.243   3.656  12.102 -0.4890 -0.2496  0.0472
  385TMC3    O2 5818   1.341   3.141  11.911 -0.2829 -0.1113 -0.5996
  386TMC3    C1 5819   1.412   1.349  12.095 -0.5530  0.1043 -0.0032
  386TMC3    C2 5820   1.393   1.313  11.963  0.1427  0.2811 -0.4557
  386TMC3    C3 5821   1.267   1.309  11.908 -0.5278 -0.5145  0.2161
  386TMC3    C4 5822   1.305   1.386  12.165 -0.4157  0.1922  0.1741
  386TMC3    C5 5823   1.179   1.372  12.117  0.6862  0.2659  0.6519
  386TMC3    C6 5824   1.154   1.333  11.991 -0.2611  0.0820  0.0575
  386TMC3     C 5825   1.524   1.286  12.156  0.7826  0.3476 -0.0308
  386TMC3     O 5826   1.588   1.342  12.245  0.4073 -0.3215  0.1081
  386TMC3     H 5827   1.483   1.319  11.904 -0.0130  0.1791 -0.7000
  386TMC3    H1 5828   1.317   1.424  12.266  1.5633 -0.6324  0.2615
  386TMC3    H2 5829   1.054   1.335  11.949 -0.4639  2.4681  0.6486
  386TMC3    C7 5830   1.076   1.369  12.213 -0.7420  0.2837 -0.5764
  386TMC3    C8 5831   1.238   1.244  11.782  0.6847 -0.8425  1.2698
  386TMC3    O1 5832   1.101   1.405  12.326  0.3217 -0.1135 -0.2893
  386TMC3    O2 5833   1.134   1.267  11.731  0.8008  0.0208 -0.1363
  387MPD2     C 5834   3.898   0.371   8.980 -0.3272  0.3531 -0.0466
  387MPD2    C1 5835   3.849   0.348   9.113  0.3811  0.0948 -0.5587
  387MPD2    C2 5836   3.842   0.220   9.164  1.0705  0.7041 -0.0425
  387MPD2    C3 5837   3.898   0.118   9.095 -0.5599  0.3593  0.6500
  387MPD2    C4 5838   3.932   0.130   8.966  0.0024 -0.0485 -0.3937
  387MPD2    C5 5839   3.932   0.256   8.909  0.8861 -0.3212  0.0914
  387MPD2     H 5840   3.806   0.204   9.265  0.2562  1.2840 -0.2359
  387MPD2    H1 5841   3.968   0.052   8.899 -0.7055 -0.3793 -0.3893
  387MPD2    H2 5842   3.899   0.467   8.931 -1.6123  0.0592 -0.6684
  387MPD2    H3 5843   3.966   0.273   8.807  1.1126  2.5691  0.6397
  387MPD2     N 5844   3.898   4.738   9.165 -0.0676 -0.2464 -0.3074
  387MPD2    H5 5845   3.856   0.002   9.258 -1.1474 -0.6900 -0.7836
  387MPD2    N1 5846   3.800   0.449   9.197 -0.1806 -0.3622 -0.1755
  387MPD2    H7 5847   3.766   0.416   9.287  1.1324 -0.4513  0.2821
  388TMC3    C1 5848   3.779   0.647   9.307 -0.1134 -0.0410  0.4430
  388TMC3    C2 5849   3.675   0.732   9.318 -0.4583 -0.3088  0.6071
  388TMC3    C3 5850   3.659   0.799   9.440  0.0496 -0.4018  0.2107
  388TMC3    C4 5851   3.850   0.606   9.413 -0.2628 -0.1888 -0.4082
  388TMC3    C5 5852   3.812   0.654   9.536  0.6232 -0.0902 -1.0952
  388TMC3    C6 5853   3.726   0.755   9.552  0.0507  0.2118 -0.0288
  388TMC3     C 5854   3.791   0.581   9.176 -0.2063  0.1666  0.1389
  388TMC3     O 5855   3.803   0.644   9.072 -0.5845 -0.4075  0.1777
  388TMC3     H 5856   3.624   0.775   9.233  0.0223 -0.4338  0.2586
  388TMC3    H1 5857   3.925   0.528   9.404 -0.3899 -0.2758 -0.7302
  388TMC3    H2 5858   3.699   0.797   9.648  2.6968  1.2695  0.2804
  388TMC3    C7 5859   3.858   0.577   9.649 -0.4549  0.5428 -0.0364
  388TMC3    C8 5860   3.586   0.924   9.451  0.9287 -0.2524 -0.2490
  388TMC3    O1 5861   3.912   0.636   9.742 -0.5893  0.7234 -0.4797
  388TMC3    O2 5862   3.565   0.982   9.345  0.3463 -0.2863 -0.5172
  389MPD2     C 5863   3.252   3.489  10.342  0.3553  0.2173 -0.3377
  389MPD2    C1 5864   3.137   3.532  10.284  0.6206 -0.5835  0.2219
  389MPD2    C2 5865   3.016   3.516  10.352  0.0247 -0.4079  0.1875
  389MPD2    C3 5866   2.999   3.446  10.470 -0.2656 -0.2711 -0.2330
  389MPD2    C4 5867   3.122   3.406  10.525  0.3588 -0.1382  0.3721
  389MPD2    C5 5868   3.245   3.431  10.466  0.9153  0.5863 -0.2402
  389MPD2     H 5869   2.924   3.563  10.319 -0.6645 -1.1171  1.1108
  389MPD2    H1 5870   3.122   3.339  10.610  0.5913  0.8924  1.1907
  389MPD2    H2 5871   3.349   3.503  10.296  0.9605 -1.2359  0.4855
  389MPD2    H3 5872   3.333   3.381  10.504  0.5439 -1.4530 -2.0527
  389MPD2     N 5873   2.880   3.423  10.537 -0.2227 -0.6702  0.4023
  389MPD2    H5 5874   2.891   3.404  10.636  0.8837 -0.5691  0.2927
  389MPD2    N1 5875   3.157   3.591  10.161 -0.9482  0.7063 -0.0675
  389MPD2    H7 5876   3.247   3.632  10.136  0.1540 -1.9282 -0.4874
  390TMC3    C1 5877   2.653   3.410  10.591  0.5812  0.8228  0.6565
  390TMC3    C2 5878   2.686   3.328  10.697 -0.2138  0.0662 -0.4410
  390TMC3    C3 5879   2.600   3.325  10.804 -0.0664  0.0590  0.5879
  390TMC3    C4 5880   2.540   3.482  10.588  0.3921  0.0667 -0.2877
  390TMC3    C5 5881   2.445   3.458  10.686  0.0142 -0.0285  0.0835
  390TMC3    C6 5882   2.481   3.397  10.805  0.1507  0.6059  0.5896
  390TMC3     C 5883   2.764   3.444  10.492  0.6939  0.2074  0.2429
  390TMC3     O 5884   2.729   3.492  10.388 -0.0914 -0.3116 -1.0999
  390TMC3     H 5885   2.776   3.268  10.686 -0.0296  0.3531 -0.5019
  390TMC3    H1 5886   2.517   3.534  10.495  0.8103 -0.0685 -0.4650
  390TMC3    H2 5887   2.420   3.401  10.895 -1.8072 -0.9775 -0.6687
  390TMC3    C7 5888   2.314   3.416  10.637 -0.1804 -0.6925  0.9378
  390TMC3    C8 5889   2.575   3.194  10.860 -0.2638 -0.7647 -0.3848
  390TMC3    O1 5890   2.281   3.456  10.527  0.2904 -0.3187 -0.0305
  390TMC3    O2 5891   2.579   3.103  10.777  0.0169 -0.3310  0.1645
  391MPD2     C 5892   1.967   0.068  10.872 -1.0152 -0.1671  0.2805
  391MPD2    C1 5893   2.007   0.195  10.911  0.7744  0.0457 -0.3227
  391MPD2    C2 5894   2.060   0.274  10.809  0.0005  0.9241  0.0355
  391MPD2    C3 5895   2.066   0.232  10.675 -0.4908 -0.1157  0.0716
  391MPD2    C4 5896   2.012   0.108  10.643  0.2472 -0.0928  0.3490
  391MPD2    C5 5897   1.964   0.025  10.742 -0.9233 -0.1976 -0.2209
  391MPD2     H 5898   2.102   0.367  10.843 -1.3966  1.4659  0.2781
  391MPD2    H1 5899   2.017   0.071  10.541 -0.8472  0.4857  0.0872
  391MPD2    H2 5900   1.937   4.733  10.946  0.9593 -1.2858 -0.0211
  391MPD2    H3 5901   1.941   4.661  10.714 -1.0957  0.7104 -3.4384
  391MPD2     N 5902   2.145   0.306  10.577 -0.1379 -0.4208 -0.0570
  391MPD2    H5 5903   2.194   0.387  10.614  2.6945 -2.2714  0.2305
  391MPD2    N1 5904   1.996   0.228  11.049 -0.3231  0.1471 -0.1388
  391MPD2    H7 5905   1.952   0.157  11.107  0.1002 -1.3735 -1.7119
  392TMC3    C1 5906   2.238   0.371  10.377  0.5721 -0.5026  0.0482
  392TMC3    C2 5907   2.194   0.408  10.250  0.1689  0.3142 -0.0529
  392TMC3    C3 5908   2.264   0.509  10.192 -0.4031  0.5708  0.0716
  392TMC3    C4 5909   2.343   0.425  10.444  0.2573 -0.7898 -0.9678
  392TMC3    C5 5910   2.407   0.526  10.367  0.4309 -0.2081 -0.4151
  392TMC3    C6 5911   2.375   0.569  10.241  0.1884 -0.6302 -0.1988
  392TMC3     C 5912   2.160   0.274  10.442 -0.0894  0.6029 -0.8389
  392TMC3     O 5913   2.102   0.190  10.372 -0.2156  0.3112  0.2238
  392TMC3     H 5914   2.120   0.351  10.195 -1.0117  1.2564  0.5459
  392TMC3    H1 5915   2.376   0.387  10.540  0.9197  1.9357 -0.0885
  392TMC3    H2 5916   2.422   0.655  10.194  0.4216  0.0118  1.2003
  392TMC3    C7 5917   2.539   0.566  10.424  0.4409  0.5939 -0.1805
  392TMC3    C8 5918   2.209   0.563  10.069 -0.1639  0.6250  0.0806
  392TMC3    O1 5919   2.566   0.525  10.536 -0.3632 -0.0728 -0.4357
  392TMC3    O2 5920   2.089   0.541  10.050  0.3711  0.1023  0.5643
  393TMC3    C1 5921   0.430   3.209  10.466  0.2773 -0.2929 -0.2163
  393TMC3    C2 5922   0.367   3.121  10.381  0.9852  0.7049  0.0443
  393TMC3    C3 5923   0.307   3.011  10.428  0.5433 -0.7919 -0.7250
  393TMC3    C4 5924   0.422   3.182  10.604  0.2764 -0.1247  0.0749
  393TMC3    C5 5925   0.356   3.071  10.645 -0.3508  0.0369 -1.0453
  393TMC3    C6 5926   0.295   2.984  10.561  0.2895 -0.1300 -0.5938
  393TMC3     C 5927   0.461   3.341  10.419 -0.7099  0.6007 -0.1736
  393TMC3     O 5928   0.404   3.363  10.311 -0.0140 -0.2481  0.4392
  393TMC3     H 5929   0.372   3.148  10.276  0.4276 -1.3051 -0.5020
  393TMC3    H1 5930   0.460   3.247  10.683  1.2918 -0.7548  0.0985
  393TMC3    H2 5931   0.244   2.895  10.595  0.8873 -0.3047 -0.1511
  393TMC3    C7 5932   0.372   3.028  10.781  0.2733  1.0639 -0.1633
  393TMC3    C8 5933   0.250   2.924  10.330 -0.4408  0.4653 -1.0203
  393TMC3    O1 5934   0.289   2.956  10.831 -0.2088  0.4786 -0.0889
  393TMC3    O2 5935   0.156   2.858  10.368  0.6996  0.0553  0.1589
  394TMC3    C1 5936   3.086   3.706   9.959 -0.2021  0.1580  0.2282
  394TMC3    C2 5937   2.977   3.712   9.870  0.0896  0.8727  0.0233
  394TMC3    C3 5938   2.992   3.792   9.760 -0.1946 -0.3030 -0.3109
  394TMC3    C4 5939   3.205   3.768   9.946  0.7250 -0.3895 -0.2656
  394TMC3    C5 5940   3.219   3.842   9.830 -0.3819  0.6391 -0.1012
  394TMC3    C6 5941   3.112   3.855   9.736 -0.3954 -0.1460 -0.3006
  394TMC3     C 5942   3.052   3.626  10.080 -0.7279  0.0116 -0.2521
  394TMC3     O 5943   2.938   3.598  10.103  0.2887  0.1473 -0.3245
  394TMC3     H 5944   2.885   3.658   9.885  1.0208 -0.5525  0.5643
  394TMC3    H1 5945   3.275   3.775  10.029  0.1386  1.2678  0.1015
  394TMC3    H2 5946   3.115   3.919   9.649 -1.7880 -1.4240 -1.2922
  394TMC3    C7 5947   3.332   3.934   9.814 -0.1492  0.2587 -0.1941
  394TMC3    C8 5948   2.909   3.786   9.642  0.2887 -0.3090 -0.4283
  394TMC3    O1 5949   3.387   3.981   9.915  0.2670  0.4455  0.0540
  394TMC3    O2 5950   2.931   3.872   9.560  0.0794 -0.0641 -0.7786
  395TMC3    C1 5951   2.731   1.044  14.290  1.0159  0.0799  0.0542
  395TMC3    C2 5952   2.620   1.125  14.292  0.1946 -1.0517  0.3412
  395TMC3    C3 5953   2.611   1.243  14.365  0.1827  0.2204  0.3604
  395TMC3    C4 5954   2.830   1.082  14.380 -0.3208 -0.2858  0.2134
  395TMC3    C5 5955   2.823   1.203  14.445 -0.0087  0.3806 -0.0947
  395TMC3    C6 5956   2.716   1.282  14.437 -0.4210  0.0346 -0.2924
  395TMC3     C 5957   2.676   0.913  14.310 -0.4256 -0.6075 -0.3433
  395TMC3     O 5958   2.684   0.838  14.217 -0.0822 -0.0595  0.1368
  395TMC3     H 5959   2.534   1.083  14.242 -0.6341 -0.0083  0.8960
  395TMC3    H1 5960   2.918   1.022  14.398 -1.2256 -1.3133  1.2350
  395TMC3    H2 5961   2.706   1.369  14.501 -0.8550 -1.8255  2.2126
  395TMC3    C7 5962   2.941   1.262  14.486  0.3080 -0.3901 -0.0810
  395TMC3    C8 5963   2.480   1.283  14.419 -0.9934 -0.0552 -0.1049
  395TMC3    O1 5964   2.930   1.341  14.581  0.0342  0.1672 -0.3190
  395TMC3    O2 5965   2.475   1.394  14.471  0.0370 -0.1817  0.3275
  396MPD2     C 5966   2.653   1.476  16.963  0.3250  0.3691 -0.4913
  396MPD2    C1 5967   2.769   1.536  17.002 -0.2730 -0.2661  0.2190
  396MPD2    C2 5968   2.798   1.660  16.950  0.5326  0.1206  0.4289
  396MPD2    C3 5969   2.720   1.712  16.844 -0.1095  0.5375 -0.2172
  396MPD2    C4 5970   2.607   1.643  16.802  0.2469 -0.8462  0.2090
  396MPD2    C5 5971   2.572   1.529  16.872 -0.3802 -0.3972  0.1554
  396MPD2     H 5972   2.886   1.715  16.979  0.3238  1.5043 -1.5350
  396MPD2    H1 5973   2.552   1.675  16.715  1.5789  1.5381  0.2445
  396MPD2    H2 5974   2.622   1.385  17.014 -0.1523  2.5966  3.1425
  396MPD2    H3 5975   2.478   1.481  16.847 -0.5479 -0.1060  0.2262
  396MPD2     N 5976   2.759   1.834  16.787 -0.1843 -0.7359  0.2555
  396MPD2    H5 5977   2.834   1.887  16.829 -0.2358  0.5244 -1.2206
  396MPD2    N1 5978   2.853   1.454  17.084  0.3718 -0.1544 -0.1849
  396MPD2    H7 5979   2.803   1.376  17.127 -1.1144 -0.7714 -3.0608
  397TMC3    C1 5980   3.024   1.390  17.235  0.1912  0.2054  1.0448
  397TMC3    C2 5981   3.156   1.371  17.200 -0.4023 -0.2776  0.1087
  397TMC3    C3 5982   3.200   1.240  17.166  0.0387 -0.1988  0.1743
  397TMC3    C4 5983   2.939   1.279  17.249  0.5012 -0.1442  0.5478
  397TMC3    C5 5984   2.996   1.152  17.243 -0.1584  0.0072 -1.0119
  397TMC3    C6 5985   3.123   1.134  17.195 -0.5725  0.6533 -0.0612
  397TMC3     C 5986   2.978   1.482  17.127 -0.1258  0.4036  0.0957
  397TMC3     O 5987   3.034   1.589  17.115 -0.1903  0.3708  0.8239
  397TMC3     H 5988   3.202   1.462  17.162  0.4468 -0.4264  0.7774
  397TMC3    H1 5989   2.834   1.297  17.265  0.5745  0.0388  0.8186
  397TMC3    H2 5990   3.171   1.037  17.185  1.2443  1.3362  2.0476
  397TMC3    C7 5991   2.949   1.046  17.323  1.0530  0.1544  0.1136
  397TMC3    C8 5992   3.331   1.211  17.125 -0.6346 -0.1602  0.4246
  397TMC3    O1 5993   2.984   0.932  17.300  0.3150  0.1201  0.2342
  397TMC3    O2 5994   3.375   1.107  17.174  0.3788 -0.3736 -0.1067
  398MPD2     C 5995   0.351   2.877   0.362 -0.0012  0.0892 -0.0416
  398MPD2    C1 5996   0.450   2.818   0.439  0.1438 -0.0265 -0.0984
  398MPD2    C2 5997   0.556   2.899   0.480  0.2435 -0.2107 -0.2263
  398MPD2    C3 5998   0.560   3.027   0.434  0.2709 -0.1846  0.0367
  398MPD2    C4 5999   0.459   3.084   0.362 -0.1142  0.4905  0.7450
  398MPD2    C5 6000   0.358   3.008   0.324 -0.2130 -0.4485 -0.5946
  398MPD2     H 6001   0.632   2.859   0.546  0.6402 -4.5463 -3.3353
  398MPD2    H1 6002   0.464   3.187   0.330  0.8819 -0.3087 -1.6687
  398MPD2    H2 6003   0.266   2.820   0.326 -0.0267  0.4583 -0.5640
  398MPD2    H3 6004   0.273   3.054   0.273 -0.5640 -0.0658  0.3318
  398MPD2     N 6005   0.667   3.107   0.468 -0.6137  0.6697 -0.6138
  398MPD2    H5 6006   0.719   3.074   0.549 -0.5513  3.1660  0.3731
  398MPD2    N1 6007   0.455   2.687   0.487 -0.2216 -1.0355 -0.3208
  398MPD2    H7 6008   0.546   2.653   0.514 -0.3924 -0.6013  0.7906
  399TMC3    C1 6009   0.375   2.473   0.537 -0.4214  0.4447  0.9946
  399TMC3    C2 6010   0.486   2.457   0.615  0.0440 -0.8161 -0.4313
  399TMC3    C3 6011   0.506   2.335   0.672  0.4967 -1.0587  0.2152
  399TMC3    C4 6012   0.304   2.364   0.496 -0.0241  0.1405 -0.1161
  399TMC3    C5 6013   0.333   2.240   0.537  0.1247 -0.3433 -0.1450
  399TMC3    C6 6014   0.429   2.223   0.636  0.3469  0.4152 -0.5471
  399TMC3     C 6015   0.353   2.603   0.469  0.5424 -0.5967 -0.0570
  399TMC3     O 6016   0.232   2.617   0.444  0.2681 -0.4669 -0.0622
  399TMC3     H 6017   0.546   2.540   0.651 -1.0579  0.7406 -2.2117
  399TMC3    H1 6018   0.231   2.378   0.417 -0.5803  2.4026  0.8019
  399TMC3    H2 6019   0.456   2.121   0.661 -0.4932 -0.1250 -1.8370
  399TMC3    C7 6020   0.259   2.131   0.487  1.0690  0.0195 -0.2572
  399TMC3    C8 6021   0.629   2.327   0.755 -0.0415 -0.3091 -0.3292
  399TMC3    O1 6022   0.210   2.147   0.374  0.4131  0.1096  0.7283
  399TMC3    O2 6023   0.716   2.414   0.753 -0.8704 -0.4923 -0.4245
  400TMC3    C1 6024   3.989   0.764  16.562  0.2300 -0.4533  0.0066
  400TMC3    C2 6025   3.852   0.760  16.551  0.1766  0.2340 -0.7623
  400TMC3    C3 6026   3.785   0.883  16.559  0.0312  0.3473 -0.3503
  400TMC3    C4 6027   4.065   0.874  16.591  0.0222  0.3204  0.0149
  400TMC3    C5 6028   3.998   0.992  16.591  0.1686  0.0560 -0.0689
  400TMC3    C6 6029   3.859   1.000  16.583  0.1411 -0.2787 -0.9538
  400TMC3     C 6030   4.061   0.643  16.552  0.3150  1.1075 -0.9647
  400TMC3     O 6031   3.987   0.547  16.565  0.1872  0.6512  0.2331
  400TMC3     H 6032   3.802   0.665  16.538 -0.3554  0.3086  0.6509
  400TMC3    H1 6033   4.171   0.885  16.608 -0.0967  1.3149  0.1547
  400TMC3    H2 6034   3.811   1.095  16.562  0.0840  0.1339  1.0503
  400TMC3    C7 6035   4.074   1.114  16.610  0.4889  0.5065 -0.1767
  400TMC3    C8 6036   3.648   0.895  16.512  0.7987 -0.9360 -0.8848
  400TMC3    O1 6037   4.193   1.109  16.575  0.3003  0.1114 -0.2604
  400TMC3    O2 6038   3.589   0.996  16.540  0.2508  0.1956  0.2642
  401MPD2     C 6039   1.984   0.227   0.647  0.0713  0.4301  0.5815
  401MPD2    C1 6040   2.023   0.204   0.779 -0.3371 -0.2236  0.0298
  401MPD2    C2 6041   1.985   0.087   0.837  0.0801  0.5890 -0.0422
  401MPD2    C3 6042   1.893   4.733   0.780  0.1747  0.2733 -0.8278
  401MPD2    C4 6043   1.852   0.026   0.652 -0.4267 -0.5250 -0.1364
  401MPD2    C5 6044   1.899   0.136   0.575 -0.0611 -0.2468  0.5759
  401MPD2     H 6045   2.007   0.068   0.941 -0.4671 -3.1307 -0.5934
  401MPD2    H1 6046   1.792   4.699   0.589  0.9577  0.1040 -2.1009
  401MPD2    H2 6047   2.021   0.310   0.590 -2.2137 -0.3545 -2.0460
  401MPD2    H3 6048   1.877   0.147   0.470 -1.0261  0.4687  0.8530
  401MPD2     N 6049   1.851   4.620   0.857  0.0539 -0.1587 -0.7975
  401MPD2    H5 6050   1.905   4.620   0.943  1.1309 -1.5187 -1.4697
  401MPD2    N1 6051   2.120   0.286   0.850  0.0798  0.0818  0.8294
  401MPD2    H7 6052   2.151   0.250   0.940  1.0703 -0.4394  0.2714
  402TMC3    C1 6053   1.793   4.391   0.884 -0.0710 -0.3832  0.3147
  402TMC3    C2 6054   1.866   4.399   1.003  0.3419 -0.1661 -0.1735
  402TMC3    C3 6055   1.920   4.285   1.047  0.1176  0.3959  0.1686
  402TMC3    C4 6056   1.788   4.275   0.803  0.4373  0.3709 -0.0503
  402TMC3    C5 6057   1.844   4.164   0.860 -0.3525 -0.5046  0.0652
  402TMC3    C6 6058   1.918   4.168   0.973  0.2274  0.9801 -0.7265
  402TMC3     C 6059   1.770   4.516   0.815  0.4496 -0.3196 -0.7529
  402TMC3     O 6060   1.703   4.517   0.710  0.0700  0.4850  0.3039
  402TMC3     H 6061   1.868   4.484   1.070 -0.2245  0.3402 -0.8049
  402TMC3    H1 6062   1.748   4.280   0.703 -0.1453 -0.8222  0.1233
  402TMC3    H2 6063   1.966   4.075   1.001 -2.9011 -0.7301 -1.0711
  402TMC3    C7 6064   1.861   4.061   0.762 -0.1109  0.1433  0.4128
  402TMC3    C8 6065   2.025   4.279   1.148  0.1039  0.4684  0.3207
  402TMC3    O1 6066   1.768   4.036   0.690  0.0104 -0.3595 -0.6816
  402TMC3    O2 6067   2.109   4.194   1.125 -0.4146  0.1239  0.2377
  403MPD2     C 6068   4.737   3.332  13.645  0.1771 -0.2299  0.5252
  403MPD2    C1 6069   0.122   3.316  13.576 -0.0643  0.0190 -0.1673
  403MPD2    C2 6070   0.244   3.354  13.636  0.6912  0.2349  0.2948
  403MPD2    C3 6071   0.249   3.412  13.758  0.0311  0.4897 -0.2700
  403MPD2    C4 6072   0.127   3.451  13.812  0.7409 -0.0332  0.1864
  403MPD2    C5 6073   0.006   3.400  13.763  0.2693  0.1700 -0.4217
  403MPD2     H 6074   0.334   3.339  13.578  2.6627  0.3684  3.3432
  403MPD2    H1 6075   0.121   3.513  13.901 -0.2787 -2.0744  1.5521
  403MPD2    H2 6076   4.638   3.304  13.612  0.1121 -0.7617  1.1731
  403MPD2    H3 6077   4.653   3.431  13.814 -0.7695 -0.7868 -1.7012
  403MPD2     N 6078   0.375   3.447  13.809  0.0416  0.1404 -0.0928
  403MPD2    H5 6079   0.455   3.429  13.750  1.0407  0.1012  1.2725
  403MPD2    N1 6080   0.127   3.245  13.456 -0.1258  0.4092  0.4311
  403MPD2    H7 6081   0.220   3.218  13.425 -0.5074  0.4765 -0.7717
  404TMC3    C1 6082   0.060   3.070  13.339  0.2479 -0.5435  0.2788
  404TMC3    C2 6083   0.130   3.010  13.440 -0.4355 -0.3532 -0.0762
  404TMC3    C3 6084   0.240   2.943  13.399 -0.2074 -0.0499  0.3808
  404TMC3    C4 6085   0.102   3.071  13.209  0.0861 -0.3117  0.2519
  404TMC3    C5 6086   0.211   2.998  13.173 -0.0238  0.3446 -0.5163
  404TMC3    C6 6087   0.286   2.942  13.268 -0.7765 -1.1242 -0.7581
  404TMC3     C 6088   0.016   3.197  13.396  0.4395 -0.3327  0.4215
  404TMC3     O 6089   4.635   3.223  13.389 -0.1747 -0.3429 -0.0035
  404TMC3     H 6090   0.090   3.008  13.541 -1.1550  2.5450 -0.3132
  404TMC3    H1 6091   0.062   3.138  13.134  2.3203  1.3995  0.5892
  404TMC3    H2 6092   0.374   2.892  13.231 -0.9758  0.7983 -3.8306
  404TMC3    C7 6093   0.275   3.029  13.047  0.2101 -1.0034  0.2599
  404TMC3    C8 6094   0.323   2.866  13.502  0.0385 -1.0762  0.2698
  404TMC3    O1 6095   0.397   3.016  13.037 -0.3651 -0.2083  0.4182
  404TMC3    O2 6096   0.439   2.839  13.467  0.0769  0.2091 -0.9089
  405MPD2     C 6097   0.718   3.986  14.800 -0.3892 -0.8135 -0.6520
  405MPD2    C1 6098   0.732   3.904  14.691  0.8342  0.5638  0.2772
  405MPD2    C2 6099   0.662   3.939  14.577  0.5782 -0.1554  0.0427
  405MPD2    C3 6100   0.577   4.050  14.582  0.8727  0.5081 -0.3645
  405MPD2    C4 6101   0.569   4.125  14.695  0.3014  0.4442  0.1861
  405MPD2    C5 6102   0.645   4.098  14.801  0.3547  0.1237  0.0720
  405MPD2     H 6103   0.673   3.875  14.490 -0.5229 -2.0657  1.3113
  405MPD2    H1 6104   0.514   4.218  14.692 -2.6967 -1.3287 -0.0779
  405MPD2    H2 6105   0.766   3.953  14.892  2.9446  0.9348 -1.7677
  405MPD2    H3 6106   0.655   4.164  14.886 -1.9646  0.4239  0.1071
  405MPD2     N 6107   0.507   4.073  14.459 -0.4141  0.5433 -0.0633
  405MPD2    H5 6108   0.526   4.012  14.381 -0.9796 -1.2158  1.1844
  405MPD2    N1 6109   0.817   3.787  14.699 -0.3143  0.5752 -0.1221
  405MPD2    H7 6110   0.870   3.768  14.784 -0.4396  1.5693  0.1764
  406TMC3    C1 6111   0.100   4.094  14.290  0.2607  0.1976  0.0673
  406TMC3    C2 6112   0.110   3.961  14.288 -0.1637 -0.3995 -0.0232
  406TMC3    C3 6113   0.233   3.903  14.282  0.2440  0.2015  0.2486
  406TMC3    C4 6114   0.210   4.169  14.319  0.0227 -0.1171 -0.7302
  406TMC3    C5 6115   0.335   4.116  14.318 -0.8748  0.5766 -1.2602
  406TMC3    C6 6116   0.352   3.978  14.305 -0.4313 -0.5329  0.0721
  406TMC3     C 6117   4.715   4.161  14.333 -0.5811  0.1135 -0.5450
  406TMC3     O 6118   4.682   4.267  14.281 -0.8950 -0.1776  0.0458
  406TMC3     H 6119   0.028   3.893  14.267 -0.4296  0.1275 -0.6954
  406TMC3    H1 6120   0.186   4.273  14.340  1.0771 -0.0792  0.3095
  406TMC3    H2 6121   0.449   3.939  14.278 -0.3220  0.2173 -0.6298
  406TMC3    C7 6122   0.407   4.155  14.435 -0.4118  0.0454 -0.3109
  406TMC3    C8 6123   0.242   3.759  14.294 -0.4384 -0.1781  0.2731
  406TMC3    O1 6124   0.347   4.231  14.509 -0.1351  0.5308  0.0095
  406TMC3    O2 6125   0.134   3.700  14.300  0.3498  0.2719  0.0016
  407MPD2     C 6126   3.071   0.555   9.882 -0.1322 -0.5853  0.1738
  407MPD2    C1 6127   3.090   0.690   9.877 -0.1668  0.5195 -0.0505
  407MPD2    C2 6128   3.185   0.752   9.958  0.5308 -0.0021  0.4213
  407MPD2    C3 6129   3.252   0.669  10.056 -0.6810 -0.6284  0.2323
  407MPD2    C4 6130   3.237   0.532  10.048  0.1952 -0.0242  0.0678
  407MPD2    C5 6131   3.150   0.480   9.960 -0.7364 -0.1084 -0.2213
  407MPD2     H 6132   3.195   0.860   9.960  1.5869 -0.1177  1.2378
  407MPD2    H1 6133   3.287   0.466  10.118  1.9064  0.5406 -0.6174
  407MPD2    H2 6134   3.004   0.505   9.812 -0.2702  0.9895 -0.8117
  407MPD2    H3 6135   3.132   0.373   9.967  1.5844 -0.4589  0.4884
  407MPD2     N 6136   3.341   0.721  10.152  0.5604  0.4798 -0.0377
  407MPD2    H5 6137   3.377   0.665  10.228  3.5913  1.2960 -0.8787
  407MPD2    N1 6138   3.019   0.770   9.790 -0.3131 -0.2449  0.0218
  407MPD2    H7 6139   3.043   0.868   9.805  1.4484 -0.3532 -1.9097
  408TMC3    C1 6140   2.895   0.848   9.618 -0.5336 -0.4485  0.4692
  408TMC3    C2 6141   2.891   0.826   9.486 -0.3366  0.1476  0.4515
  408TMC3    C3 6142   2.910   0.929   9.400  0.8358  0.5149  0.4832
  408TMC3    C4 6143   2.932   0.974   9.664 -0.2674  0.4650 -0.2387
  408TMC3    C5 6144   2.957   1.071   9.575  0.0737  0.5977 -0.4843
  408TMC3    C6 6145   2.956   1.047   9.444  0.2821 -0.5014 -0.0691
  408TMC3     C 6146   2.932   0.731   9.693 -0.0921  0.0060 -0.3441
  408TMC3     O 6147   2.908   0.623   9.647 -0.0986  0.3617  0.4679
  408TMC3     H 6148   2.892   0.727   9.443 -0.3718  0.0122  0.7568
  408TMC3    H1 6149   2.938   1.009   9.766 -0.0260  0.4703 -0.2549
  408TMC3    H2 6150   2.968   1.128   9.373 -0.6019  0.9172  1.3948
  408TMC3    C7 6151   2.983   1.209   9.624  0.9370  0.3460 -0.3603
  408TMC3    C8 6152   2.966   0.881   9.278  0.1973 -0.0181  0.5401
  408TMC3    O1 6153   2.958   1.237   9.736 -0.2648  0.2511 -0.0245
  408TMC3    O2 6154   2.900   0.792   9.221  0.1145 -0.3552  0.4616
  409MPD2     C 6155   2.703   0.909  17.048  0.2861  0.0107 -0.3327
  409MPD2    C1 6156   2.807   0.820  17.040 -0.5531  0.3577  0.4345
  409MPD2    C2 6157   2.917   0.862  16.963 -0.0310 -0.3808 -0.2513
  409MPD2    C3 6158   2.925   0.992  16.920 -0.0038  0.3982 -0.5797
  409MPD2    C4 6159   2.820   1.085  16.940 -0.1963  0.0890 -0.0379
  409MPD2    C5 6160   2.708   1.040  17.007 -0.3277  0.3655  0.2158
  409MPD2     H 6161   3.000   0.796  16.941  1.1228  1.0522 -0.1104
  409MPD2    H1 6162   2.829   1.186  16.904  0.7408 -0.1851 -0.5716
  409MPD2    H2 6163   2.610   0.870  17.086 -0.9564  1.8055 -1.5564
  409MPD2    H3 6164   2.630   1.113  17.025  0.2886  0.8011  1.1364
  409MPD2     N 6165   3.047   1.029  16.862 -0.1989 -0.6117 -0.0429
  409MPD2    H5 6166   3.035   1.120  16.821  0.7701 -0.1004  0.8085
  409MPD2    N1 6167   2.814   0.693  17.097  0.0164 -0.5337 -0.0513
  409MPD2    H7 6168   2.906   0.653  17.085 -0.2651 -0.3184 -2.7629
  410TMC3    C1 6169   3.286   1.035  16.808  0.6030  0.3986 -0.1809
  410TMC3    C2 6170   3.407   1.024  16.871 -0.0680 -0.1606 -0.3357
  410TMC3    C3 6171   3.505   1.115  16.833 -0.9182 -0.0177  0.3633
  410TMC3    C4 6172   3.263   1.122  16.709  0.3912  0.2616  0.5848
  410TMC3    C5 6173   3.372   1.203  16.671  0.0094  0.9915  0.0744
  410TMC3    C6 6174   3.491   1.207  16.741 -0.4798 -0.3942  0.3608
  410TMC3     C 6175   3.170   0.970  16.870 -0.0945  0.2630  0.4386
  410TMC3     O 6176   3.204   0.870  16.928 -0.1100  0.3465  0.2643
  410TMC3     H 6177   3.412   0.968  16.963 -0.7374  2.2240  1.1497
  410TMC3    H1 6178   3.165   1.122  16.662 -1.0142 -0.8972  3.4512
  410TMC3    H2 6179   3.577   1.271  16.722 -0.4760  0.1754  2.2828
  410TMC3    C7 6180   3.368   1.267  16.542 -0.0338  0.4083  0.1328
  410TMC3    C8 6181   3.638   1.082  16.882  0.3478  0.1936 -0.5423
  410TMC3    O1 6182   3.422   1.377  16.518 -0.5159  0.1713 -0.1395
  410TMC3    O2 6183   3.729   1.162  16.882  0.5418  0.1413 -0.3940
  411MPD2     C 6184   3.534   2.116  14.385  0.1857  0.3359 -0.0152
  411MPD2    C1 6185   3.397   2.136  14.420 -0.3909 -0.0553  0.1285
  411MPD2    C2 6186   3.312   2.029  14.399 -0.2998 -0.3894 -0.0292
  411MPD2    C3 6187   3.361   1.910  14.337  0.2994 -0.5323 -0.2572
  411MPD2    C4 6188   3.493   1.905  14.293  1.4664  0.2670 -0.1594
  411MPD2    C5 6189   3.579   2.006  14.316 -0.2156 -0.0250  0.0063
  411MPD2     H 6190   3.209   2.044  14.429 -0.6959 -0.8900 -1.1636
  411MPD2    H1 6191   3.534   1.814  14.249 -0.9525  0.1674 -2.2277
  411MPD2    H2 6192   3.604   2.195  14.410  1.2836 -0.0395 -1.9253
  411MPD2    H3 6193   3.685   2.008  14.292 -0.2966  0.4512 -0.3133
  411MPD2     N 6194   3.278   1.804  14.288  0.5382  0.0920 -0.4450
  411MPD2    H5 6195   3.319   1.743  14.217 -2.0850 -1.1144 -0.9079
  411MPD2    N1 6196   3.350   2.253  14.481  0.0591  0.2368  0.0755
  411MPD2    H7 6197   3.252   2.244  14.506  0.4524  2.4813  2.3348
  412TMC3    C1 6198   3.092   1.657  14.260  0.4080  1.0662 -0.1803
  412TMC3    C2 6199   2.984   1.597  14.313 -0.5674  0.4387 -0.8015
  412TMC3    C3 6200   2.912   1.509  14.239 -0.0186  0.3387  0.3364
  412TMC3    C4 6201   3.126   1.631  14.132  0.2814 -0.3960 -0.4331
  412TMC3    C5 6202   3.057   1.535  14.063  0.0099  0.0782  0.4514
  412TMC3    C6 6203   2.960   1.463  14.123  0.3459 -0.3454  0.2056
  412TMC3     C 6204   3.157   1.768  14.332  0.6681 -0.7968  0.2213
  412TMC3     O 6205   3.100   1.831  14.419 -0.3976  0.0539  0.3037
  412TMC3     H 6206   2.945   1.635  14.406 -0.2475  1.4837 -1.0957
  412TMC3    H1 6207   3.212   1.676  14.084  2.1334 -1.0446  2.2755
  412TMC3    H2 6208   2.914   1.377  14.075 -2.5776  2.1164 -1.3464
  412TMC3    C7 6209   3.025   1.561  13.922 -0.0020 -0.0333 -0.3961
  412TMC3    C8 6210   2.771   1.544  14.241  0.2838  0.1107  0.6187
  412TMC3    O1 6211   2.932   1.496  13.879 -0.4539  0.1380  0.2470
  412TMC3    O2 6212   2.730   1.601  14.342 -0.2013  0.6295  0.1490
  413MPD2     C 6213   4.392   4.690  15.843 -0.1709  0.3386 -0.3119
  413MPD2    C1 6214   4.476   0.026  15.758  0.0553  0.1935  0.1778
  413MPD2    C2 6215   4.596   4.710  15.717  0.0690  0.5733 -0.2866
  413MPD2    C3 6216   4.638   4.587  15.772  0.1200  0.6305 -0.0480
  413MPD2    C4 6217   4.560   4.524  15.857 -0.4515  0.5041  1.0145
  413MPD2    C5 6218   4.431   4.569  15.883 -0.1085  0.9462 -0.0039
  413MPD2     H 6219   4.667   0.024  15.654  0.6679  0.4261  0.2720
  413MPD2    H1 6220   4.586   4.430  15.905 -0.0964 -0.3820 -0.8717
  413MPD2    H2 6221   4.293   4.722  15.874  0.0027 -1.4123  2.0814
  413MPD2    H3 6222   4.374   4.519  15.962 -0.4715  0.6637 -0.4458
  413MPD2     N 6223   0.027   4.534  15.726  0.7406  0.3486  0.2391
  413MPD2    H5 6224   0.083   4.593  15.666 -0.6400  1.2583 -0.1543
  413MPD2    N1 6225   4.430   0.149  15.707  0.4718 -0.4237  0.4100
  413MPD2    H7 6226   4.475   0.193  15.627  0.4242  1.2506  1.2980
  414TMC3    C1 6227   0.224   4.394  15.711  0.8537  0.2718  0.3856
  414TMC3    C2 6228   0.271   4.266  15.721 -0.2753  0.3786  0.0568
  414TMC3    C3 6229   0.387   4.238  15.654  0.0135 -0.5589 -0.0630
  414TMC3    C4 6230   0.289   4.490  15.635  0.2980  0.7138 -0.2231
  414TMC3    C5 6231   0.398   4.454  15.557  0.9677  1.2300 -0.6931
  414TMC3    C6 6232   0.458   4.326  15.576  0.2116  0.3894 -0.2919
  414TMC3     C 6233   0.084   4.412  15.762  0.0298  0.0078 -0.8254
  414TMC3     O 6234   0.035   4.321  15.828 -0.1547 -0.2246 -0.1714
  414TMC3     H 6235   0.221   4.186  15.775 -0.0909 -0.1044 -0.5017
  414TMC3    H1 6236   0.261   4.594  15.648  1.1181  0.6896  1.6295
  414TMC3    H2 6237   0.536   4.282  15.515 -2.1681 -1.9415 -1.6460
  414TMC3    C7 6238   0.474   4.545  15.468  0.4231  0.4865  0.3121
  414TMC3    C8 6239   0.443   4.111  15.648  0.1702 -0.0254 -0.2543
  414TMC3    O1 6240   0.578   4.496  15.423  0.0441 -0.0192  0.0326
  414TMC3    O2 6241   0.468   4.070  15.536  0.0802  0.5967  0.2604
  415TMC3    C1 6242   0.402   2.295   9.825  0.5164 -1.1309  0.0264
  415TMC3    C2 6243   0.418   2.398   9.736  0.6584  0.0353  0.0098
  415TMC3    C3 6244   0.391   2.363   9.602  0.1127  0.3307  0.1050
  415TMC3    C4 6245   0.351   2.175   9.790  0.1408 -0.5217  0.7711
  415TMC3    C5 6246   0.314   2.153   9.659 -0.1195  0.3994 -0.7571
  415TMC3    C6 6247   0.343   2.243   9.557 -0.4846 -0.7797  0.1864
  415TMC3     C 6248   0.413   2.317   9.967 -0.9870  0.1727 -0.3431
  415TMC3     O 6249   0.353   2.242  10.043  0.0336  0.3707  0.6654
  415TMC3     H 6250   0.429   2.502   9.765  2.9639 -0.2704  0.2568
  415TMC3    H1 6251   0.362   2.099   9.867 -1.3158  1.4648  2.9315
  415TMC3    H2 6252   0.311   2.226   9.455  0.9194 -0.0108 -0.3792
  415TMC3    C7 6253   0.277   2.022   9.620 -0.4500 -0.6289 -0.3071
  415TMC3    C8 6254   0.392   2.473   9.506  0.0505  0.2230 -0.0109
  415TMC3    O1 6255   0.310   1.983   9.508 -0.1128 -0.2414  0.8337
  415TMC3    O2 6256   0.330   2.468   9.399  0.2531 -0.1215 -0.1376
  416MPD2     C 6257   2.161   1.678  11.542 -0.7491  0.3949 -0.5505
  416MPD2    C1 6258   2.025   1.649  11.540  0.5083  0.1983  0.1393
  416MPD2    C2 6259   1.979   1.523  11.502  0.0219 -0.0637 -0.0199
  416MPD2    C3 6260   2.068   1.418  11.471 -0.5716  0.1998 -0.3640
  416MPD2    C4 6261   2.199   1.438  11.486 -0.3653 -0.1836 -0.2396
  416MPD2    C5 6262   2.242   1.570  11.510  0.0694  0.5339 -0.6719
  416MPD2     H 6263   1.875   1.499  11.486  0.0864  0.6496 -1.5164
  416MPD2    H1 6264   2.271   1.359  11.469  0.9389  1.0493 -0.5009
  416MPD2    H2 6265   2.203   1.774  11.570  1.8874 -0.9409  0.1393
  416MPD2    H3 6266   2.349   1.587  11.512  0.1865  0.0007 -2.1143
  416MPD2     N 6267   2.009   1.291  11.438 -0.0000 -0.6884 -0.4454
  416MPD2    H5 6268   1.907   1.294  11.440  0.0388 -0.1767  0.3695
  416MPD2    N1 6269   1.945   1.756  11.577 -0.3120 -0.0956 -0.7821
  416MPD2    H7 6270   1.987   1.834  11.626  0.1886 -0.4308 -0.6758
  417TMC3    C1 6271   1.755   1.889  11.586 -0.3126 -0.1902  0.3963
  417TMC3    C2 6272   1.756   1.921  11.716  0.0159  0.6532 -0.8554
  417TMC3    C3 6273   1.675   2.020  11.766  0.1921 -0.2792  1.1255
  417TMC3    C4 6274   1.654   1.936  11.509 -0.3222 -0.0547 -0.5275
  417TMC3    C5 6275   1.561   2.016  11.569  0.1401  0.2184  0.2366
  417TMC3    C6 6276   1.580   2.078  11.687 -0.0327  0.5112 -0.0839
  417TMC3     C 6277   1.811   1.762  11.547 -0.8072 -0.3565  0.0628
  417TMC3     O 6278   1.754   1.712  11.451  0.0945  0.5184  0.3722
  417TMC3     H 6279   1.824   1.860  11.774 -1.2842 -0.7690 -0.8323
  417TMC3    H1 6280   1.636   1.891  11.412 -0.2138 -1.0278 -0.0911
  417TMC3    H2 6281   1.520   2.159  11.726 -0.4687  1.0497 -1.8908
  417TMC3    C7 6282   1.459   2.068  11.473 -0.1086 -0.3946 -0.0756
  417TMC3    C8 6283   1.706   2.081  11.894 -0.1947  0.0080  0.4423
  417TMC3    O1 6284   1.484   2.060  11.352 -0.2808  0.1466  0.3243
  417TMC3    O2 6285   1.637   2.179  11.928  0.2616 -0.3631  0.2052
  418TMC3    C1 6286   1.064   3.348   0.414 -0.7470 -0.8083  0.0008
  418TMC3    C2 6287   0.943   3.296   0.364 -0.3851 -0.6113  0.9448
  418TMC3    C3 6288   0.840   3.271   0.447 -0.4577  0.9065 -0.1943
  418TMC3    C4 6289   1.089   3.371   0.546 -0.1622  0.3156 -0.2006
  418TMC3    C5 6290   0.989   3.333   0.630  0.4067  0.7856 -0.6953
  418TMC3    C6 6291   0.867   3.273   0.584  0.6516  0.4632  0.1094
  418TMC3     C 6292   1.184   3.328   0.337 -0.4600 -0.0875 -0.6336
  418TMC3     O 6293   1.159   3.322   0.218  0.1446 -0.1843  0.3987
  418TMC3     H 6294   0.917   3.288   0.259  0.3600 -0.0741  0.7201
  418TMC3    H1 6295   1.179   3.424   0.575  1.1521 -1.6768 -0.6288
  418TMC3    H2 6296   0.791   3.242   0.655 -1.0381  0.1021 -1.8665
  418TMC3    C7 6297   1.009   3.366   0.768  0.3078  0.4180  0.2173
  418TMC3    C8 6298   0.719   3.209   0.394  0.3261 -0.3734 -0.1650
  418TMC3    O1 6299   1.090   3.447   0.798  0.2507 -0.4244  0.1927
  418TMC3    O2 6300   0.692   3.237   0.279  0.4502 -0.2444 -0.8825
  419MPD2     C 6301   0.098   1.947  12.118  0.0251  0.1889  0.5996
  419MPD2    C1 6302   4.703   1.979  12.128 -0.8152  0.5321 -0.6175
  419MPD2    C2 6303   4.652   1.980  12.256 -0.6927 -0.0686  0.0844
  419MPD2    C3 6304   4.719   1.953  12.367  0.3166 -0.5193  0.5948
  419MPD2    C4 6305   0.115   1.929  12.348 -0.1059  0.0125 -0.8961
  419MPD2    C5 6306   0.178   1.929  12.224 -0.7302 -0.5516 -0.4478
  419MPD2     H 6307   4.547   2.009  12.261 -0.2191  1.3777  1.8048
  419MPD2    H1 6308   0.181   1.895  12.427  0.2485 -0.6867 -1.4979
  419MPD2    H2 6309   0.166   1.946  12.034 -0.6811  2.6865  0.0096
  419MPD2    H3 6310   0.284   1.906  12.213 -0.2761  0.9535  0.7425
  419MPD2     N 6311   4.655   1.948  12.489 -0.1091 -0.5572  0.2169
  419MPD2    H5 6312   4.565   1.994  12.502 -0.0332  0.0823 -1.5642
  419MPD2    N1 6313   4.631   2.013  12.020  0.6710  0.0664  0.0097
  419MPD2    H7 6314   4.530   2.008  12.030  0.8640 -1.0287  1.4558
  420TMC3    C1 6315   4.607   1.876  12.708  0.3496  0.8234  0.1109
  420TMC3    C2 6316   4.478   1.901  12.684  0.5916  0.3164  0.5577
  420TMC3    C3 6317   4.390   1.877  12.781 -0.4652 -0.0349 -0.3354
  420TMC3    C4 6318   4.654   1.831  12.824 -0.3323  0.1513 -0.4902
  420TMC3    C5 6319   4.564   1.814  12.925 -0.5453  0.3956  0.7455
  420TMC3    C6 6320   4.431   1.837  12.904  0.2245 -0.5412 -0.2512
  420TMC3     C 6321   4.705   1.892  12.599  0.2876 -0.6408 -1.5144
  420TMC3     O 6322   0.074   1.833  12.613 -0.8258  0.3986  0.6583
  420TMC3     H 6323   4.433   1.917  12.587 -2.6701 -0.3436  1.9782
  420TMC3    H1 6324   0.019   1.798  12.828 -0.0856  0.9553 -0.3838
  420TMC3    H2 6325   4.358   1.828  12.985  1.4682 -0.2597  0.9083
  420TMC3    C7 6326   4.613   1.770  13.054 -0.0513  0.6855  0.5601
  420TMC3    C8 6327   4.244   1.900  12.744  0.2302 -0.0130  0.0016
  420TMC3    O1 6328   4.557   1.810  13.148  0.3876  0.1484 -0.9653
  420TMC3    O2 6329   4.221   1.948  12.631 -0.1650  0.0323  0.0601
  421TMC3    C1 6330   0.533   3.563  13.948  0.1841 -0.2897  0.0028
  421TMC3    C2 6331   0.559   3.682  14.010 -0.4019  0.1756 -0.6514
  421TMC3    C3 6332   0.680   3.746  13.995  0.4040 -0.3859  0.0608
  421TMC3    C4 6333   0.625   3.509  13.869  0.4730  0.4141  0.6288
  421TMC3    C5 6334   0.749   3.570  13.853 -0.1137 -0.1331 -0.3767
  421TMC3    C6 6335   0.775   3.690  13.914  0.2137  0.7426  0.0741
  421TMC3     C 6336   0.392   3.531  13.913 -0.4495 -0.4040  0.3614
  421TMC3     O 6337   0.310   3.592  13.979 -0.5216 -0.1999 -0.2374
  421TMC3     H 6338   0.481   3.720  14.075 -1.0477 -0.1161 -1.2532
  421TMC3    H1 6339   0.615   3.409  13.828 -1.8902  0.7405  0.4092
  421TMC3    H2 6340   0.879   3.719  13.915 -0.0551  1.7162 -0.2978
  421TMC3    C7 6341   0.864   3.489  13.826 -0.1754  0.3682  0.6081
  421TMC3    C8 6342   0.720   3.841  14.103  0.0263  0.1147 -0.5132
  421TMC3    O1 6343   0.973   3.513  13.877  0.3790 -0.2642 -0.0597
  421TMC3    O2 6344   0.646   3.842  14.197 -0.1987 -0.2430 -0.7354
  422TMC3    C1 6345   3.265   4.539  12.708  0.4514  0.0009 -0.4966
  422TMC3    C2 6346   3.245   4.663  12.768  0.1423  1.5115 -0.2906
  422TMC3    C3 6347   3.116   4.686  12.824  0.2189  0.3123  0.4559
  422TMC3    C4 6348   3.163   4.448  12.698 -0.4074  0.8041 -0.0702
  422TMC3    C5 6349   3.044   4.476  12.763  0.7234  0.2371  0.1861
  422TMC3    C6 6350   3.017   4.597  12.818  0.5320 -0.3357  0.1250
  422TMC3     C 6351   3.357   4.561  12.595 -0.0526 -0.1618  0.6287
  422TMC3     O 6352   3.416   4.669  12.576  0.1319  0.1295  0.3794
  422TMC3     H 6353   3.313   0.009  12.768  3.4225 -1.1541 -1.8099
  422TMC3    H1 6354   3.180   4.353  12.648  1.4684  0.6533  0.8426
  422TMC3    H2 6355   2.917   4.623  12.853  0.4154  0.9773 -1.1506
  422TMC3    C7 6356   2.941   4.391  12.720 -0.3046  0.9226 -0.3381
  422TMC3    C8 6357   3.071   0.086  12.813 -0.9096 -0.8312  0.4776
  422TMC3    O1 6358   2.953   4.328  12.616 -0.2480 -0.3250  0.2307
  422TMC3    O2 6359   3.130   0.161  12.888  0.1133  0.4786  0.0681
  423MPD2     C 6360   3.840   0.295   0.355  1.0068  0.6508  0.2040
  423MPD2    C1 6361   3.943   0.382   0.313 -0.4342 -0.6563  0.1010
  423MPD2    C2 6362   4.006   0.355   0.195 -0.6172  0.2353  0.5279
  423MPD2    C3 6363   3.989   0.225   0.132  0.5607  0.3310  0.2855
  423MPD2    C4 6364   3.883   0.147   0.173  0.0330  0.2395 -0.2000
  423MPD2    C5 6365   3.804   0.190   0.276  0.0150 -0.2206  0.1181
  423MPD2     H 6366   4.075   0.429   0.157 -0.0644 -0.3342  0.4108
  423MPD2    H1 6367   3.852   0.055   0.125  1.1979 -0.7840  1.0092
  423MPD2    H2 6368   3.775   0.312   0.440  1.9071 -2.9034  1.5752
  423MPD2    H3 6369   3.730   0.116   0.307  1.4066 -1.5999  0.1631
  423MPD2     N 6370   4.070   0.172   0.027 -0.2174 -0.1436 -0.3726
  423MPD2    H5 6371   4.057   0.073   0.009  1.1928 -0.0719 -1.8446
  423MPD2    N1 6372   3.972   0.506   0.380  0.1116  0.0608 -0.9656
  423MPD2    H7 6373   4.050   0.556   0.340  1.0897 -0.8869 -0.2268
  424TMC3    C1 6374   3.969   0.671   0.549  0.4101 -0.1655  0.2541
  424TMC3    C2 6375   4.099   0.694   0.551 -1.3352 -0.1572 -0.4991
  424TMC3    C3 6376   4.149   0.812   0.598  0.4688  0.1519  0.4626
  424TMC3    C4 6377   3.885   0.762   0.614 -0.9513 -0.1905 -0.3611
  424TMC3    C5 6378   3.942   0.879   0.671  0.3259  0.0097 -0.4488
  424TMC3    C6 6379   4.068   0.912   0.653  0.7995 -0.0075  0.4475
  424TMC3     C 6380   3.908   0.556   0.487 -0.9398 -0.1416  0.0310
  424TMC3     O 6381   3.810   0.516   0.546 -0.6023 -0.1868  0.4673
  424TMC3     H 6382   4.172   0.623   0.513 -0.8596 -0.5603  1.1972
  424TMC3    H1 6383   3.778   0.746   0.614 -0.9456 -0.2297 -0.4983
  424TMC3    H2 6384   4.092   1.008   0.698  1.6608 -0.0578  0.1087
  424TMC3    C7 6385   3.847   0.970   0.726  0.2055 -0.1697  0.3778
  424TMC3    C8 6386   4.289   0.827   0.604 -0.0928  0.3564 -0.3128
  424TMC3    O1 6387   3.883   1.088   0.721  0.9717  0.2584 -0.0271
  424TMC3    O2 6388   4.339   0.740   0.676  0.2084  0.0483 -0.2350
  425MPD2     C 6389   3.520   4.627  17.180  0.2436  0.1640  0.6489
  425MPD2    C1 6390   3.454   4.509  17.216  0.2923 -0.2554 -0.2796
  425MPD2    C2 6391   3.339   4.533  17.294  0.1950 -0.2593 -0.0972
  425MPD2    C3 6392   3.308   4.650  17.347  0.2308 -0.3848 -0.1612
  425MPD2    C4 6393   3.396   0.016  17.335 -0.7544 -0.2227  0.3567
  425MPD2    C5 6394   3.500   0.006  17.249 -0.7824  0.9869 -0.0127
  425MPD2     H 6395   3.272   4.449  17.304  2.5491 -2.1423 -0.2001
  425MPD2    H1 6396   3.385   0.113  17.382  1.7453  0.5668 -0.6450
  425MPD2    H2 6397   3.591   4.614  17.099  1.2787  0.9440  1.4284
  425MPD2    H3 6398   3.560   0.093  17.226  0.6652  0.4780  1.7916
  425MPD2     N 6399   3.180   4.662  17.408 -1.1655  0.1717  0.1734
  425MPD2    H5 6400   3.126   4.577  17.417 -0.0233 -0.7096 -1.3309
  425MPD2    N1 6401   3.497   4.390  17.154  0.4791 -0.2716 -0.2859
  425MPD2    H7 6402   3.582   4.396  17.099  0.9949  0.7478  0.6071
  426TMC3    C1 6403   3.496   4.156  17.111  0.4148  0.1026 -0.5904
  426TMC3    C2 6404   3.501   4.171  16.981  0.0764 -0.7770  0.4324
  426TMC3    C3 6405   3.474   4.068  16.897 -0.0818 -0.2077 -0.4532
  426TMC3    C4 6406   3.464   4.037  17.163  0.2804  0.8457  0.5604
  426TMC3    C5 6407   3.432   3.927  17.083  0.1078  0.5744  0.4679
  426TMC3    C6 6408   3.444   3.943  16.949 -0.2017 -0.0688  0.3603
  426TMC3     C 6409   3.439   4.268  17.183  0.1024 -0.3793  0.0356
  426TMC3     O 6410   3.354   4.233  17.268  0.0175 -0.1146 -0.2094
  426TMC3     H 6411   3.529   4.266  16.937 -1.2220 -1.6430 -2.3059
  426TMC3    H1 6412   3.460   4.025  17.271  3.4162 -1.4935  0.4421
  426TMC3    H2 6413   3.408   3.860  16.889 -0.4463 -0.5487  1.1705
  426TMC3    C7 6414   3.354   3.817  17.137  0.8617  1.0373 -0.2921
  426TMC3    C8 6415   3.458   4.081  16.750  0.2823  1.2211  0.3969
  426TMC3    O1 6416   3.357   3.712  17.072 -0.2621  0.2871 -0.7168
  426TMC3    O2 6417   3.464   3.976  16.689  0.4711 -0.2715  0.1377
  427MPD2     C 6418   2.394   2.302  14.675 -0.7436 -0.3598  0.9246
  427MPD2    C1 6419   2.345   2.189  14.735 -0.2512  0.7109  0.1643
  427MPD2    C2 6420   2.209   2.186  14.772 -0.4776  0.5067  0.7199
  427MPD2    C3 6421   2.134   2.295  14.758  0.0603  0.1659 -0.0376
  427MPD2    C4 6422   2.182   2.404  14.700  0.1798 -0.4235  0.0308
  427MPD2    C5 6423   2.310   2.407  14.649  0.2586 -0.4723  0.8885
  427MPD2     H 6424   2.174   2.094  14.818 -1.1252  0.1702 -0.4594
  427MPD2    H1 6425   2.130   2.497  14.678  0.7203  0.0180  0.6303
  427MPD2    H2 6426   2.493   2.305  14.630 -0.6354 -0.7431  1.1360
  427MPD2    H3 6427   2.346   2.487  14.586  0.4453 -0.8697  0.4911
  427MPD2     N 6428   1.994   2.294  14.776 -0.4179 -0.6726  0.2157
  427MPD2    H5 6429   1.941   2.378  14.754  1.9005  0.7759  0.2065
  427MPD2    N1 6430   2.420   2.077  14.780  1.0728  0.3540  0.8360
  427MPD2    H7 6431   2.380   2.011  14.845 -1.0438  0.6370 -0.1945
  428TMC3    C1 6432   2.601   1.952  14.840  0.2865 -0.5561 -0.1468
  428TMC3    C2 6433   2.521   1.843  14.857  0.3873 -0.0199  0.4111
  428TMC3    C3 6434   2.577   1.735  14.922  0.0891  0.0310  0.2861
  428TMC3    C4 6435   2.733   1.955  14.874  0.0636  0.1581  0.6381
  428TMC3    C5 6436   2.781   1.845  14.931 -0.5526  0.3866  0.0182
  428TMC3    C6 6437   2.704   1.735  14.959  0.2739 -0.9262 -0.0401
  428TMC3     C 6438   2.557   2.064  14.762 -0.1501  0.3653 -0.1542
  428TMC3     O 6439   2.638   2.134  14.704  0.8490  0.6116  0.1374
  428TMC3     H 6440   2.421   1.841  14.816  0.8463  1.1868 -0.7914
  428TMC3    H1 6441   2.798   2.041  14.866  0.8868 -0.8110 -2.8141
  428TMC3    H2 6442   2.756   1.643  14.985  0.9397 -0.9617 -1.5128
  428TMC3    C7 6443   2.910   1.861  15.006 -0.1931  0.9926 -0.0548
  428TMC3    C8 6444   2.493   1.626  14.972 -0.1564 -0.0204 -0.1087
  428TMC3    O1 6445   2.919   1.817  15.122  0.5096  0.0631 -0.0368
  428TMC3    O2 6446   2.550   1.520  14.987  0.3481  0.5136 -0.3567
  429MPD2     C 6447   3.296   1.392  17.588  0.9282  0.4309 -0.0293
  429MPD2    C1 6448   3.361   1.321  17.488 -0.5970 -1.1482 -0.8891
  429MPD2    C2 6449   3.446   1.387  17.407  0.7108  0.1275 -0.4207
  429MPD2    C3 6450   3.450   1.529  17.404 -0.0343 -0.2257 -0.0074
  429MPD2    C4 6451   3.389   1.593  17.513 -1.2012  0.1955  0.2085
  429MPD2    C5 6452   3.312   1.526  17.603 -0.1975 -0.8837  0.2892
  429MPD2     H 6453   3.513   1.332  17.341  1.1592 -1.5650  1.4369
  429MPD2    H1 6454   3.400   1.700  17.527  2.5541 -0.3988  1.8261
  429MPD2    H2 6455   3.231   1.348  17.663  1.1788 -0.1822 -0.1708
  429MPD2    H3 6456   3.265   1.588  17.679  2.2939  1.2953  0.0816
  429MPD2     N 6457   3.532   1.605  17.315  0.4823  0.3135  0.2242
  429MPD2    H5 6458   3.598   1.540  17.273  0.3131  0.1030  0.2852
  429MPD2    N1 6459   3.355   1.182  17.478  0.5634  0.1850 -0.2184
  429MPD2    H7 6460   3.408   1.143  17.400  1.5492 -0.2360  0.6621
  430TMC3    C1 6461   3.618   1.785  17.188  0.1509 -0.8148  0.7395
  430TMC3    C2 6462   3.574   1.886  17.107 -0.0785 -0.6513 -0.0926
  430TMC3    C3 6463   3.642   1.900  16.989  0.2060 -0.1339  0.2039
  430TMC3    C4 6464   3.725   1.699  17.153  0.1975  0.8511  0.5010
  430TMC3    C5 6465   3.801   1.729  17.046  0.6486 -0.7776  0.2384
  430TMC3    C6 6466   3.758   1.829  16.962 -0.0769  0.6266  1.0041
  430TMC3     C 6467   3.522   1.740  17.287 -0.4870 -0.0423  0.1292
  430TMC3     O 6468   3.428   1.812  17.321  0.5145 -0.0406 -0.5900
  430TMC3     H 6469   3.482   1.939  17.130 -0.5880 -1.8271  0.6033
  430TMC3    H1 6470   3.748   1.615  17.218  0.5096 -0.6490 -1.5655
  430TMC3    H2 6471   3.813   1.845  16.869  0.1626  1.2868  1.2623
  430TMC3    C7 6472   3.873   1.613  16.994  0.2514 -0.0137  0.0837
  430TMC3    C8 6473   3.603   2.012  16.903  1.2911 -0.2743 -0.7036
  430TMC3    O1 6474   3.830   1.508  17.033 -0.6544  0.3902 -0.1272
  430TMC3    O2 6475   3.565   2.112  16.964  0.7395  0.0325  0.2611
  431MPD2     C 6476   4.167   2.599  12.158  0.4360 -0.2583 -0.2892
  431MPD2    C1 6477   4.269   2.635  12.074  0.3754  0.1454  0.0013
  431MPD2    C2 6478   4.300   2.553  11.974  0.5005  0.5982 -0.1045
  431MPD2    C3 6479   4.248   2.419  11.971 -0.3040  0.3735 -0.9717
  431MPD2    C4 6480   4.163   2.382  12.076  0.0795  0.3584 -0.2500
  431MPD2    C5 6481   4.113   2.480  12.153  0.8405  0.3917 -1.3763
  431MPD2     H 6482   4.384   2.576  11.909  0.3905  1.5935  0.1123
  431MPD2    H1 6483   4.112   2.285  12.076 -1.8743  1.3680  1.1690
  431MPD2    H2 6484   4.133   2.660  12.241  1.6551  0.0656 -0.0302
  431MPD2    H3 6485   4.030   2.446  12.215  1.4791 -2.0652 -1.8757
  431MPD2     N 6486   4.280   2.317  11.881  0.1917  0.1200 -0.2736
  431MPD2    H5 6487   4.250   2.223  11.905 -1.4283  0.2903 -1.6552
  431MPD2    N1 6488   4.343   2.755  12.097  0.1876 -0.3441  0.1724
  431MPD2    H7 6489   4.416   2.777  12.031  0.0229 -1.1018 -0.2636
  432TMC3    C1 6490   4.417   2.204  11.719 -0.0906 -0.3878 -0.4265
  432TMC3    C2 6491   4.474   2.220  11.594 -0.0721  0.3408  0.1018
  432TMC3    C3 6492   4.591   2.157  11.575  0.5234  0.3581  0.4853
  432TMC3    C4 6493   4.479   2.129  11.824  0.0898  0.6386  0.1816
  432TMC3    C5 6494   4.583   2.044  11.787  0.9608  0.0082  0.6587
  432TMC3    C6 6495   4.641   2.068  11.667 -0.2054  0.2736  0.0861
  432TMC3     C 6496   4.363   2.331  11.773 -0.1139  0.3614  0.4067
  432TMC3     O 6497   4.405   2.433  11.722  0.2214 -0.1366  0.0650
  432TMC3     H 6498   4.433   2.292  11.524 -0.3957 -1.2821 -1.3855
  432TMC3    H1 6499   4.435   2.123  11.923  1.0090 -0.3506  0.5420
  432TMC3    H2 6500   4.729   2.014  11.634 -0.4024 -1.6397  2.6990
  432TMC3    C7 6501   4.686   2.032  11.888  0.0558  0.1075  0.0707
  432TMC3    C8 6502   4.696   2.248  11.528 -0.4995  0.6534  0.5152
  432TMC3    O1 6503   0.063   2.066  11.853  1.2171  0.0471 -0.3077
  432TMC3    O2 6504   4.674   2.329  11.439  0.5140 -0.0897  0.2555
  433MPD2     C 6505   3.173   0.334  10.398  0.4353 -0.0674  0.3362
  433MPD2    C1 6506   3.276   0.252  10.451  0.4949 -0.6819 -0.0708
  433MPD2    C2 6507   3.294   0.254  10.591 -0.1593  0.4629 -0.3226
  433MPD2    C3 6508   3.204   0.319  10.673  0.2890 -0.3541  0.2956
  433MPD2    C4 6509   3.099   0.390  10.618  0.0027  0.4169  0.8052
  433MPD2    C5 6510   3.093   0.398  10.483 -0.3141 -0.4316  0.5610
  433MPD2     H 6511   3.370   0.203  10.650  0.0926  0.8453 -0.3187
  433MPD2    H1 6512   3.023   0.446  10.671 -0.0194  2.2896 -1.2058
  433MPD2    H2 6513   3.154   0.346  10.292 -0.3624  0.9411  0.5920
  433MPD2    H3 6514   3.012   0.461  10.447  1.3824  0.8542 -0.9698
  433MPD2     N 6515   3.208   0.283  10.813 -0.0336 -0.0914  0.4240
  433MPD2    H5 6516   3.261   0.201  10.839  1.3565  0.7534  0.2708
  433MPD2    N1 6517   3.367   0.175  10.376  0.0175  0.4929 -1.0265
  433MPD2    H7 6518   3.442   0.130  10.427 -0.6014  1.3593  0.6649
  434TMC3    C1 6519   3.465   0.064  10.185  0.7682 -0.0270  0.2667
  434TMC3    C2 6520   3.559   0.008  10.272 -0.4645  0.3645  0.1155
  434TMC3    C3 6521   3.586   4.613  10.246  0.7858  0.0769  0.1377
  434TMC3    C4 6522   3.414   4.732  10.077 -0.2441 -0.7891  0.3048
  434TMC3    C5 6523   3.448   4.599  10.058  0.3498 -0.3826  0.3609
  434TMC3    C6 6524   3.527   4.535  10.148  0.4371 -0.3329 -0.0788
  434TMC3     C 6525   3.370   0.159  10.238 -0.0664 -0.0376  0.0934
  434TMC3     O 6526   3.290   0.211  10.158 -0.2326  0.2955 -0.0993
  434TMC3     H 6527   3.587   0.054  10.367  0.2092  0.0385  0.0771
  434TMC3    H1 6528   3.343   0.036  10.006  3.4440  1.2207 -2.2514
  434TMC3    H2 6529   3.557   4.432  10.134  1.1108  0.0136 -1.1655
  434TMC3    C7 6530   3.355   4.520   9.979  0.0402  0.4829  0.8449
  434TMC3    C8 6531   3.656   4.545  10.351 -0.1344  0.2947  0.2094
  434TMC3    O1 6532   3.307   4.573   9.881  0.2964 -0.0989 -0.4199
  434TMC3    O2 6533   3.632   4.426  10.365 -0.0866 -1.0000  0.2650
  435MPD2     C 6534   0.887   0.278  15.515  0.1072 -0.0361  0.3907
  435MPD2    C1 6535   0.801   0.287  15.627  0.6149 -0.2541  0.2658
  435MPD2    C2 6536   0.850   0.248  15.757  0.3629  0.1123 -0.2176
  435MPD2    C3 6537   0.981   0.195  15.770 -0.4411  0.1842  0.4706
  435MPD2    C4 6538   1.056   0.187  15.655  0.3269  0.1569  0.5551
  435MPD2    C5 6539   1.011   0.240  15.536  0.0260 -0.7041  0.0616
  435MPD2     H 6540   0.788   0.258  15.845  0.4564 -1.8495  0.0858
  435MPD2    H1 6541   1.160   0.159  15.646  0.3608  0.3416  0.3477
  435MPD2    H2 6542   0.853   0.299  15.414  2.7706 -1.9069 -0.9085
  435MPD2    H3 6543   1.082   0.229  15.455 -0.5863 -1.4462 -0.3733
  435MPD2     N 6544   1.034   0.146  15.899  0.6761 -0.8318  0.2544
  435MPD2    H5 6545   0.969   0.159  15.975  1.2495 -1.0294  0.7830
  435MPD2    N1 6546   0.669   0.331  15.613  0.1004 -0.4715  0.1393
  435MPD2    H7 6547   0.608   0.314  15.692 -2.6541  0.3067 -1.8020
  436TMC3    C1 6548   0.272   0.375  15.584  0.1483 -0.3253 -0.1877
  436TMC3    C2 6549   0.397   0.337  15.569 -0.1233  0.8988  0.0994
  436TMC3    C3 6550   0.478   0.429  15.505  0.4676 -0.1555 -0.0906
  436TMC3    C4 6551   0.224   0.497  15.529 -0.1337  0.2222  0.5345
  436TMC3    C5 6552   0.312   0.576  15.463  0.0806  0.3215 -0.0864
  436TMC3    C6 6553   0.438   0.540  15.446 -0.6165 -0.1674  0.0249
  436TMC3     C 6554   0.199   0.312  15.691  0.0971 -0.0757  0.4792
  436TMC3     O 6555   0.221   0.192  15.710 -0.0561  0.3716 -0.5304
  436TMC3     H 6556   0.441   0.250  15.618 -0.6430 -0.2266 -1.4140
  436TMC3    H1 6557   0.120   0.522  15.542  0.3796  2.9616 -0.5648
  436TMC3    H2 6558   0.515   0.615  15.431 -0.6015 -0.0774  0.5533
  436TMC3    C7 6559   0.264   0.704  15.414 -0.1852  0.3372  0.1691
  436TMC3    C8 6560   0.618   0.398  15.502 -0.4916 -0.3537  0.1211
  436TMC3    O1 6561   0.340   0.797  15.391 -0.2952  0.5537 -0.1883
  436TMC3    O2 6562   0.681   0.454  15.411 -0.6465 -0.2224  0.1926
  437TMC3    C1 6563   3.771   2.741  12.347 -1.0184 -0.6835 -0.1162
  437TMC3    C2 6564   3.641   2.781  12.342 -0.4122  0.4302 -0.5219
  437TMC3    C3 6565   3.620   2.878  12.249 -0.0095 -0.6896 -0.2076
  437TMC3    C4 6566   3.862   2.787  12.266 -0.4778 -0.1620  0.3847
  437TMC3    C5 6567   3.841   2.881  12.169 -0.1190  0.1213  0.3844
  437TMC3    C6 6568   3.714   2.925  12.156 -0.7039  0.0416 -0.0738
  437TMC3     C 6569   3.797   2.614  12.420 -0.9281  0.0408 -0.4214
  437TMC3     O 6570   3.702   2.539  12.453 -0.3109 -0.6951  0.3326
  437TMC3     H 6571   3.580   2.746  12.425  1.2418 -0.9902  0.1052
  437TMC3    H1 6572   3.966   2.762  12.282 -0.2764  0.2243 -0.2816
  437TMC3    H2 6573   3.681   3.002  12.087  1.0934  0.8407 -0.0527
  437TMC3    C7 6574   3.947   2.972  12.135 -0.0167  0.1761  0.0458
  437TMC3    C8 6575   3.526   2.978  12.293 -0.1289 -0.5755 -0.2456
  437TMC3    O1 6576   3.935   3.022  12.022  0.3392 -0.0172  0.8442
  437TMC3    O2 6577   3.527   3.087  12.234 -0.4752  0.3455 -0.0991
  438MPD2     C 6578   1.348   3.275  16.711  0.3617 -0.1830  0.4181
  438MPD2    C1 6579   1.426   3.193  16.793  0.2995 -0.2240 -0.0765
  438MPD2    C2 6580   1.393   3.199  16.931  0.4204  0.0846 -0.1512
  438MPD2    C3 6581   1.295   3.276  16.980 -0.3287 -0.0793  1.3376
  438MPD2    C4 6582   1.223   3.357  16.897  0.0175  0.2257 -0.0930
  438MPD2    C5 6583   1.253   3.363  16.760 -0.0152 -0.1587 -0.0234
  438MPD2     H 6584   1.455   3.133  16.990 -0.6263 -0.1160  0.7236
  438MPD2    H1 6585   1.140   3.407  16.946  1.1083 -1.2667  3.2980
  438MPD2    H2 6586   1.360   3.278  16.603 -1.4634  0.2939  0.2385
  438MPD2    H3 6587   1.197   3.423  16.689 -0.0147 -1.0321 -0.7568
  438MPD2     N 6588   1.262   3.282  17.116 -0.4855  0.1596  0.1020
  438MPD2    H5 6589   1.184   3.340  17.147  0.5538  1.9062 -0.5502
  438MPD2    N1 6590   1.512   3.089  16.756  0.1584 -0.0186 -0.2020
  438MPD2    H7 6591   1.575   3.048  16.824 -0.6135 -1.3460 -0.2872
  439TMC3    C1 6592   1.628   2.941  16.600  0.5246  0.4611 -0.9414
  439TMC3    C2 6593   1.658   2.920  16.471 -0.0684  0.1917  0.1993
  439TMC3    C3 6594   1.746   2.820  16.443  1.0763  0.1812  0.5277
  439TMC3    C4 6595   1.677   2.868  16.706  0.3800 -1.0590 -0.2622
  439TMC3    C5 6596   1.752   2.756  16.670  0.1810  0.2395  0.2414
  439TMC3    C6 6597   1.795   2.743  16.541 -0.1401 -0.1021 -0.0189
  439TMC3     C 6598   1.532   3.050  16.621  0.1756  0.0571  0.6812
  439TMC3     O 6599   1.469   3.078  16.517 -0.2159 -0.3176  0.7118
  439TMC3     H 6600   1.622   2.982  16.389 -2.3035 -3.7257 -1.7700
  439TMC3    H1 6601   1.656   2.892  16.809  0.3927 -0.0745 -0.4918
  439TMC3    H2 6602   1.859   2.661  16.509 -0.6223 -0.3752 -0.2872
  439TMC3    C7 6603   1.813   2.676  16.770 -0.7672  0.0714  0.6213
  439TMC3    C8 6604   1.821   2.815  16.314  0.0536  0.4674 -0.5909
  439TMC3    O1 6605   1.806   2.720  16.885  0.2284  0.2860 -0.1517
  439TMC3    O2 6606   1.923   2.758  16.320  0.1779 -0.1584 -0.6252
  440MPD2     C 6607   0.342   3.672  14.724 -0.6017 -0.2090 -0.3099
  440MPD2    C1 6608   0.367   3.754  14.827  0.2401 -0.1661  0.0275
  440MPD2    C2 6609   0.456   3.721  14.927  0.6491 -0.0136  0.3582
  440MPD2    C3 6610   0.532   3.602  14.923 -0.0589  0.0447 -0.1594
  440MPD2    C4 6611   0.511   3.522  14.814  0.4723  0.0964 -0.4014
  440MPD2    C5 6612   0.422   3.561  14.722 -0.1190  0.6196 -0.5002
  440MPD2     H 6613   0.479   3.791  15.006  2.2281  0.9446 -0.9444
  440MPD2    H1 6614   0.560   3.425  14.811 -0.7884 -0.5112 -1.4104
  440MPD2    H2 6615   0.270   3.692  14.645 -0.3258 -1.5116 -0.8932
  440MPD2    H3 6616   0.415   3.497  14.635  0.9972  1.7038 -1.3800
  440MPD2     N 6617   0.620   3.555  15.022 -0.4163  0.0424 -0.1343
  440MPD2    H5 6618   0.670   3.468  15.012 -0.7518 -0.3147  1.3168
  440MPD2    N1 6619   0.301   3.876  14.845 -0.2610  0.4188 -0.9763
  440MPD2    H7 6620   0.328   3.928  14.929 -0.3348  1.9860 -1.9117
  441TMC3    C1 6621   0.730   3.557  15.231 -0.2091 -0.7151 -0.3355
  441TMC3    C2 6622   0.759   3.618  15.348 -0.5663  0.4035  0.2286
  441TMC3    C3 6623   0.824   3.541  15.442  0.6846  0.0308  0.2976
  441TMC3    C4 6624   0.726   3.418  15.231  0.5324 -0.0123  0.0936
  441TMC3    C5 6625   0.778   3.343  15.334  0.1207 -0.5465 -0.5098
  441TMC3    C6 6626   0.848   3.406  15.435 -0.3515 -0.2021 -0.2698
  441TMC3     C 6627   0.660   3.633  15.129  0.0602 -1.0215 -0.4620
  441TMC3     O 6628   0.647   3.754  15.153  0.5049  0.2505 -0.7224
  441TMC3     H 6629   0.759   3.726  15.358  0.5773  0.2911  1.4368
  441TMC3    H1 6630   0.672   3.354  15.162 -0.6396  1.1475 -0.0582
  441TMC3    H2 6631   0.917   3.359  15.504 -0.7851  0.5865  0.7005
  441TMC3    C7 6632   0.700   3.238  15.381 -0.3264  0.0747 -0.2574
  441TMC3    C8 6633   0.837   3.593  15.575  0.3622 -0.1278 -0.0139
  441TMC3    O1 6634   0.578   3.235  15.376 -0.2818  0.0807  0.2158
  441TMC3    O2 6635   0.911   3.535  15.654 -0.2518 -0.2044 -0.2610
  442MPD2     C 6636   3.221   4.491  16.025  0.7596 -0.7685  0.8745
  442MPD2    C1 6637   3.144   4.434  16.126 -0.2778  0.7311  0.2527
  442MPD2    C2 6638   3.107   4.300  16.125 -0.2355  0.5688  0.9263
  442MPD2    C3 6639   3.146   4.219  16.023 -0.9306  0.8449  0.2735
  442MPD2    C4 6640   3.229   4.273  15.930  0.5194  0.1034 -0.6967
  442MPD2    C5 6641   3.270   4.408  15.931  0.5479  0.1825  0.7985
  442MPD2     H 6642   3.055   4.265  16.213 -2.5350  1.7803  0.0434
  442MPD2    H1 6643   3.271   4.215  15.849  1.4609  0.7359 -0.6497
  442MPD2    H2 6644   3.279   4.582  16.038  2.1778 -1.4821 -0.5361
  442MPD2    H3 6645   3.350   4.442  15.867  0.2406 -0.3779  0.1217
  442MPD2     N 6646   3.126   4.081  16.010 -0.2876  0.1922  0.1272
  442MPD2    H5 6647   3.160   4.040  15.923  2.2783  0.6395  0.9148
  442MPD2    N1 6648   3.111   4.508  16.240 -0.0583 -0.2037  0.0280
  442MPD2    H7 6649   3.045   4.462  16.301 -1.3143 -2.1296 -2.7796
  443TMC3    C1 6650   3.104   4.664  16.401  0.5847  0.7775 -0.8913
  443TMC3    C2 6651   3.067   0.052  16.431  0.5882  0.0467  1.0646
  443TMC3    C3 6652   3.007   0.084  16.550  0.2303 -0.2948 -0.4143
  443TMC3    C4 6653   3.088   4.564  16.497 -0.3246  0.1720 -0.5972
  443TMC3    C5 6654   3.034   4.595  16.615  0.6368  0.3808  0.3597
  443TMC3    C6 6655   2.998   4.727  16.652  0.1619 -0.1625  0.0675
  443TMC3     C 6656   3.144   4.639  16.265  0.5943 -0.0857  0.2255
  443TMC3     O 6657   3.206   4.718  16.194 -0.2828 -0.0839 -0.1206
  443TMC3     H 6658   3.073   0.131  16.356 -2.1913 -1.5155 -0.8264
  443TMC3    H1 6659   3.112   4.460  16.481  0.8978  0.1688  1.2231
  443TMC3    H2 6660   2.977   0.013  16.755  1.0370 -0.6716  0.3587
  443TMC3    C7 6661   2.981   4.482  16.690  0.3815  0.5349  0.1487
  443TMC3    C8 6662   2.876   0.153  16.519 -0.0442  0.1672  1.0184
  443TMC3    O1 6663   3.009   4.365  16.661 -1.0304 -0.1341 -0.1999
  443TMC3    O2 6664   2.856   0.199  16.409 -0.2575  0.2468  0.1526
  444MPD2     C 6665   3.017   3.794  16.938 -0.3584 -0.0942  0.1840
  444MPD2    C1 6666   2.965   3.671  16.962 -0.2749  0.3550 -0.1811
  444MPD2    C2 6667   3.002   3.558  16.888 -0.5527  0.5798  0.1026
  444MPD2    C3 6668   3.093   3.579  16.787 -1.1649  0.0175  0.3385
  444MPD2    C4 6669   3.138   3.708  16.761 -1.1965 -0.4990  0.4658
  444MPD2    C5 6670   3.106   3.814  16.842 -0.1381 -0.4345 -0.0859
  444MPD2     H 6671   2.972   3.459  16.922 -0.4809  0.3758 -0.4211
  444MPD2    H1 6672   3.194   3.732  16.672 -0.6330  0.9661  1.2180
  444MPD2    H2 6673   2.977   3.876  16.997 -2.4793  0.8416 -2.5623
  444MPD2    H3 6674   3.146   3.911  16.815 -1.7980  0.2693  0.0048
  444MPD2     N 6675   3.132   3.468  16.705  0.1370 -0.0641  0.3256
  444MPD2    H5 6676   3.100   3.377  16.737  0.1207  0.2297  1.1660
  444MPD2    N1 6677   2.869   3.651  17.064 -0.6758  0.5823 -0.3778
  444MPD2    H7 6678   2.833   3.556  17.076  0.2528  0.6332  2.7533
  445TMC3    C1 6679   3.245   3.347  16.538 -0.3852 -0.3943 -0.2182
  445TMC3    C2 6680   3.152   3.246  16.551 -0.0242 -0.8265  0.1670
  445TMC3    C3 6681   3.173   3.127  16.490  0.7664 -0.1466  0.1549
  445TMC3    C4 6682   3.360   3.325  16.474 -0.2871 -0.3304  0.0344
  445TMC3    C5 6683   3.370   3.202  16.410  0.0418 -0.0600  0.8852
  445TMC3    C6 6684   3.282   3.098  16.422 -0.1715  0.1020  0.8526
  445TMC3     C 6685   3.232   3.469  16.614 -0.6670  0.3159  0.2024
  445TMC3     O 6686   3.295   3.567  16.564 -0.4964  0.3677  0.4498
  445TMC3     H 6687   3.054   3.277  16.588 -0.4805 -1.0876 -0.8315
  445TMC3    H1 6688   3.443   3.395  16.473 -0.4650 -0.1261 -0.4502
  445TMC3    H2 6689   3.285   3.006  16.363  0.7993  0.0580  0.9690
  445TMC3    C7 6690   3.483   3.184  16.319  0.1885  0.7141 -0.6093
  445TMC3    C8 6691   3.058   3.037  16.467  0.3391 -0.1978 -0.3797
  445TMC3    O1 6692   3.565   3.277  16.319 -0.3568 -0.4022 -0.1732
  445TMC3    O2 6693   3.041   2.983  16.359 -0.5144 -0.0242 -0.2361
  446MPD2     C 6694   3.100   4.178  10.762  0.0649  0.2706 -0.3746
  446MPD2    C1 6695   3.064   4.312  10.746  0.4159 -0.0748 -0.3030
  446MPD2    C2 6696   3.158   4.414  10.746  0.9049 -0.0052  0.3064
  446MPD2    C3 6697   3.292   4.381  10.754  0.3219 -0.1828 -0.6114
  446MPD2    C4 6698   3.323   4.250  10.763 -0.0691  0.4235 -0.6676
  446MPD2    C5 6699   3.229   4.149  10.764  0.0959 -0.3242  0.4771
  446MPD2     H 6700   3.124   4.516  10.731  2.8351  0.6295  0.3234
  446MPD2    H1 6701   3.426   4.218  10.773 -0.4371 -0.3428  0.6728
  446MPD2    H2 6702   3.021   4.104  10.768 -0.6967  1.1348  0.4903
  446MPD2    H3 6703   3.267   4.048  10.774  0.0119 -0.6243 -2.0657
  446MPD2     N 6704   3.388   4.485  10.765 -0.3338 -0.0203 -0.1568
  446MPD2    H5 6705   3.355   4.578  10.742  1.2047  1.4228  3.3685
  446MPD2    N1 6706   2.922   4.338  10.732 -0.3103 -0.2381 -0.6853
  446MPD2    H7 6707   2.850   4.271  10.757 -0.1679  0.3249  1.2421
  447TMC3    C1 6708   3.578   4.603  10.851  0.4824  0.2026  0.2573
  447TMC3    C2 6709   3.542   4.716  10.782 -0.0022 -0.3009  0.0119
  447TMC3    C3 6710   3.610   0.096  10.806 -0.3247 -0.0059 -0.6519
  447TMC3    C4 6711   3.672   4.609  10.950 -0.4183  0.7490  1.2670
  447TMC3    C5 6712   3.721   4.729  10.991  0.9821 -0.2613 -1.1066
  447TMC3    C6 6713   3.692   0.104  10.918  0.1331  0.7171  0.4537
  447TMC3     C 6714   3.517   4.472  10.822 -0.2660  0.2305  0.2948
  447TMC3     O 6715   3.574   4.370  10.861  0.5303 -0.3000 -0.0305
  447TMC3     H 6716   3.493   4.707  10.686  1.3333  2.4125 -0.9401
  447TMC3    H1 6717   3.698   4.520  11.006 -1.0342  0.1869  0.6713
  447TMC3    H2 6718   3.729   0.205  10.935  0.5013  0.8079 -0.8597
  447TMC3    C7 6719   3.824   4.727  11.088  0.7217  0.5336 -0.3751
  447TMC3    C8 6720   3.647   0.164  10.688 -0.3292  0.4162 -0.5738
  447TMC3    O1 6721   3.899   4.635  11.099 -0.0899  0.2370 -0.3026
  447TMC3    O2 6722   3.582   0.144  10.582 -0.0947 -0.1232  0.2877
  448TMC3    C1 6723   0.750   4.078  17.504 -0.1112  0.0397 -0.0967
  448TMC3    C2 6724   0.837   4.014  17.414 -0.3581 -0.4228 -0.2092
  448TMC3    C3 6725   0.968   4.037  17.440 -0.1034 -0.4947 -0.4755
  448TMC3    C4 6726   0.792   4.164  17.599 -1.0318 -0.1908 -0.3237
  448TMC3    C5 6727   0.922   4.178  17.615  0.5746  0.1155  0.3343
  448TMC3    C6 6728   1.019   4.118  17.537 -0.1342  0.7781 -0.3087
  448TMC3     C 6729   0.609   4.045  17.500  0.2662 -1.1541 -0.1633
  448TMC3     O 6730   0.543   4.057  17.607  0.2412  0.1071 -0.0707
  448TMC3     H 6731   0.801   3.926  17.362 -0.1272 -1.7640  1.8574
  448TMC3    H1 6732   0.716   4.218  17.655 -1.1946 -0.2470 -0.4923
  448TMC3    H2 6733   1.125   4.133  17.552 -0.3195  0.0916  1.6799
  448TMC3    C7 6734   0.969   4.291  17.693 -0.4060 -0.9250  0.5647
  448TMC3    C8 6735   1.064   3.985  17.342  0.4299  0.4338  0.3489
  448TMC3    O1 6736   0.890   4.384  17.714 -0.4140  0.2513 -0.0984
  448TMC3    O2 6737   1.184   4.007  17.367  0.1569  0.3984  0.0999
  449MPD2     C 6738   3.146   3.360  13.222  0.3708  0.3376 -0.3760
  449MPD2    C1 6739   3.013   3.336  13.224  0.1872 -0.5341 -0.1728
  449MPD2    C2 6740   2.962   3.301  13.347  0.3487  0.3021  0.0528
  449MPD2    C3 6741   3.037   3.293  13.463 -1.1255 -0.5102 -0.8287
  449MPD2    C4 6742   3.169   3.320  13.469 -0.5708  0.4270 -0.1795
  449MPD2    C5 6743   3.222   3.354  13.346  0.1236 -0.0916 -0.3687
  449MPD2     H 6744   2.860   3.265  13.351  0.4506 -0.2588 -2.2018
  449MPD2    H1 6745   3.240   3.316  13.550 -0.9400 -2.6225 -0.0046
  449MPD2    H2 6746   3.199   3.384  13.130 -0.5041  0.0762 -0.9511
  449MPD2    H3 6747   3.329   3.365  13.345  0.2484 -1.3306 -0.6985
  449MPD2     N 6748   2.962   3.256  13.573  0.3996 -0.0350 -0.3545
  449MPD2    H5 6749   2.864   3.239  13.550 -0.1858  3.9105 -0.8464
  449MPD2    N1 6750   2.937   3.312  13.113  0.1244  0.5634  0.6070
  449MPD2    H7 6751   2.845   3.279  13.143  1.5085 -0.9367  3.2863
  450TMC3    C1 6752   2.863   3.271  12.901  0.6955 -0.7845  0.1916
  450TMC3    C2 6753   2.900   3.153  12.846  0.2217  0.6360 -0.2117
  450TMC3    C3 6754   2.808   3.051  12.831 -0.1939  0.2888  0.3673
  450TMC3    C4 6755   2.736   3.280  12.955 -0.0246 -0.3203 -0.3139
  450TMC3    C5 6756   2.651   3.175  12.949 -0.3634  0.2453 -0.3723
  450TMC3    C6 6757   2.682   3.062  12.878  0.0403  0.0591  0.0452
  450TMC3     C 6758   2.971   3.323  12.981 -0.0867 -0.3350 -0.1512
  450TMC3     O 6759   3.085   3.329  12.940 -0.3843  0.2350  0.5342
  450TMC3     H 6760   3.001   3.149  12.807  0.1587  2.3457 -0.5213
  450TMC3    H1 6761   2.705   3.369  13.010 -0.1548 -0.3884 -0.2776
  450TMC3    H2 6762   2.614   2.978  12.878 -1.6129  1.4087  2.2487
  450TMC3    C7 6763   2.611   3.141  13.080 -0.4914  0.7032  0.5298
  450TMC3    C8 6764   2.851   2.918  12.813  0.1163  0.4025 -0.8736
  450TMC3    O1 6765   2.662   3.204  13.170 -0.1278 -0.1897  0.5548
  450TMC3    O2 6766   2.762   2.831  12.799  0.2554  0.0957  0.6110
  451MPD2     C 6767   3.567   1.785   0.832 -0.0382 -0.0043  0.5672
  451MPD2    C1 6768   3.701   1.756   0.796 -0.1329 -0.6609  0.0445
  451MPD2    C2 6769   3.722   1.634   0.729  0.2118  0.6200  0.3649
  451MPD2    C3 6770   3.621   1.540   0.702 -0.2618 -0.1008  0.0218
  451MPD2    C4 6771   3.496   1.572   0.744 -0.0270  0.0499  0.4831
  451MPD2    C5 6772   3.473   1.687   0.819  0.1705 -0.5830 -0.7163
  451MPD2     H 6773   3.823   1.610   0.700  0.6621 -0.0078  2.4806
  451MPD2    H1 6774   3.412   1.506   0.723  0.3216  0.2209 -1.4311
  451MPD2    H2 6775   3.542   1.876   0.884 -2.8612 -0.7833  0.5888
  451MPD2    H3 6776   3.372   1.708   0.852  0.0006  0.5542 -1.9776
  451MPD2     N 6777   3.645   1.417   0.634  0.0463  0.1013  0.0157
  451MPD2    H5 6778   3.565   1.355   0.631  0.1050 -0.1355  3.0750
  451MPD2    N1 6779   3.804   1.847   0.827 -0.1637 -0.3711  0.4067
  451MPD2    H7 6780   3.781   1.911   0.902  1.3722  1.8320 -1.0141
  452TMC3    C1 6781   3.745   1.280   0.468 -0.2810  0.2557  0.5262
  452TMC3    C2 6782   3.657   1.176   0.483 -0.5642  0.0284  0.2880
  452TMC3    C3 6783   3.674   1.065   0.400  0.1502  0.0037 -0.1410
  452TMC3    C4 6784   3.843   1.269   0.374  0.3951 -0.1221 -0.0551
  452TMC3    C5 6785   3.839   1.168   0.284  0.2040 -0.2896  0.9072
  452TMC3    C6 6786   3.756   1.057   0.288  0.5740 -0.4858 -0.4121
  452TMC3     C 6787   3.758   1.396   0.555 -0.3444  0.1550 -0.5434
  452TMC3     O 6788   3.839   1.477   0.523  0.1805 -0.2630 -0.4865
  452TMC3     H 6789   3.588   1.183   0.567 -0.9853  2.5839 -0.2681
  452TMC3    H1 6790   3.915   1.349   0.361 -2.0437  2.6485  3.4648
  452TMC3    H2 6791   3.740   0.983   0.211 -0.1160  2.2727 -2.9169
  452TMC3    C7 6792   3.922   1.181   0.167 -0.3798 -0.0226  0.0148
  452TMC3    C8 6793   3.616   0.935   0.437  0.3625 -0.1554  0.0741
  452TMC3    O1 6794   3.949   1.299   0.137  0.3012  0.3074  0.1731
  452TMC3    O2 6795   3.675   0.834   0.398 -0.2459 -0.1578  0.8691
  453TMC3    C1 6796   0.665   4.271  11.791 -0.2481  1.0036  0.5012
  453TMC3    C2 6797   0.571   4.192  11.846 -0.1648 -0.0073  0.0310
  453TMC3    C3 6798   0.478   4.131  11.773  0.3411 -0.3540 -0.8249
  453TMC3    C4 6799   0.663   4.300  11.656  0.1050  0.2182 -0.9774
  453TMC3    C5 6800   0.559   4.241  11.580 -0.7419  0.5942 -0.1736
  453TMC3    C6 6801   0.481   4.142  11.635 -0.8139  0.0364  0.7275
  453TMC3     C 6802   0.798   4.268  11.849  0.1264 -0.0874  0.1979
  453TMC3     O 6803   0.813   4.329  11.957  0.1385 -0.1046  0.4449
  453TMC3     H 6804   0.604   4.165  11.945 -1.5555  0.5971  0.6638
  453TMC3    H1 6805   0.741   4.363  11.615  2.6128 -1.7143  0.8252
  453TMC3    H2 6806   0.400   4.093  11.583 -0.8451  2.1754 -1.2200
  453TMC3    C7 6807   0.561   4.256  11.435  0.7805  0.2206  0.2780
  453TMC3    C8 6808   0.411   4.012  11.820  0.1766 -0.2485 -0.0747
  453TMC3    O1 6809   0.496   4.163  11.389  0.3116 -0.4753  0.0756
  453TMC3    O2 6810   0.376   3.928  11.741  0.1851  0.5146 -0.3802
  454MPD2     C 6811   3.999   3.615  15.649 -0.3035  0.4928  0.0684
  454MPD2    C1 6812   3.869   3.617  15.605  0.4548 -0.3560 -0.2210
  454MPD2    C2 6813   3.787   3.716  15.642 -0.4179 -1.2171 -0.6069
  454MPD2    C3 6814   3.826   3.813  15.735 -0.1348 -0.5089 -0.4603
  454MPD2    C4 6815   3.951   3.809  15.790  0.6678  0.8517  0.0309
  454MPD2    C5 6816   4.034   3.710  15.744  0.3972  0.6354 -0.1474
  454MPD2     H 6817   3.686   3.712  15.602 -1.2283  0.1092  1.2654
  454MPD2    H1 6818   3.983   3.881  15.865 -0.7780 -1.0446  2.4730
  454MPD2    H2 6819   4.069   3.540  15.615 -1.3889 -0.2365 -0.5347
  454MPD2    H3 6820   4.135   3.702  15.783  0.8348  1.3603 -1.1266
  454MPD2     N 6821   3.737   3.906  15.793  0.1707  0.7083  0.3714
  454MPD2    H5 6822   3.759   3.936  15.888 -1.7139 -1.3132  1.4386
  454MPD2    N1 6823   3.818   3.507  15.525 -0.4354  0.6491 -0.2413
  454MPD2    H7 6824   3.719   3.504  15.505 -0.0132  1.6117 -2.5476
  455TMC3    C1 6825   3.515   3.907  15.857  0.1241 -0.0658  0.4367
  455TMC3    C2 6826   3.545   3.963  15.983 -0.5239  0.5587  0.8559
  455TMC3    C3 6827   3.501   3.900  16.098  0.2642  0.0829 -0.3451
  455TMC3    C4 6828   3.453   3.783  15.846 -0.2186 -0.0283  0.3116
  455TMC3    C5 6829   3.429   3.713  15.962  0.1077  0.3755  0.7793
  455TMC3    C6 6830   3.443   3.771  16.087  0.2964  0.5158  0.1697
  455TMC3     C 6831   3.604   3.930  15.753 -0.5889  0.2608  0.2488
  455TMC3     O 6832   3.552   3.926  15.643 -0.3929 -0.1129  0.1582
  455TMC3     H 6833   3.598   4.058  15.987  0.6495 -0.0600  0.0446
  455TMC3    H1 6834   3.444   3.742  15.746 -1.9253  1.4604 -0.1520
  455TMC3    H2 6835   3.441   3.708  16.175 -1.2428  0.6012  0.1910
  455TMC3    C7 6836   3.413   3.569  15.931 -0.0367  0.6125 -0.1040
  455TMC3    C8 6837   3.496   3.961  16.224  0.4876  0.3654  0.2666
  455TMC3    O1 6838   3.465   3.534  15.826  0.0053 -0.5011  0.2309
  455TMC3    O2 6839   3.468   3.889  16.315  0.6852 -0.2271  0.0645
  456MPD2     C 6840   1.903   3.192  16.384 -0.1717  0.1543 -0.1184
  456MPD2    C1 6841   1.958   3.129  16.491  0.4484  0.5817  0.4733
  456MPD2    C2 6842   1.916   3.156  16.623 -0.8117  0.3545 -0.1306
  456MPD2    C3 6843   1.828   3.260  16.646 -0.3518  0.2853 -0.0504
  456MPD2    C4 6844   1.785   3.326  16.532 -0.7242  0.5532 -0.2294
  456MPD2    C5 6845   1.813   3.289  16.403 -0.6390 -0.9766 -0.3338
  456MPD2     H 6846   1.947   3.098  16.710 -1.1456 -1.8044 -1.4510
  456MPD2    H1 6847   1.714   3.408  16.537 -2.7062 -1.2549  1.0340
  456MPD2    H2 6848   1.947   3.186  16.286 -1.0580 -0.2672 -0.4880
  456MPD2    H3 6849   1.768   3.342  16.320  0.2844  2.5573  1.4256
  456MPD2     N 6850   1.797   3.305  16.778  0.5136 -0.2325 -0.0917
  456MPD2    H5 6851   1.816   3.244  16.857 -0.1564 -0.7404 -0.3253
  456MPD2    N1 6852   2.063   3.037  16.461  0.1956  0.0039  0.0426
  456MPD2    H7 6853   2.077   3.017  16.362  0.9455 -0.4984  0.2577
  457TMC3    C1 6854   1.686   3.434  16.948 -0.5597 -0.5511 -0.4793
  457TMC3    C2 6855   1.597   3.534  16.968 -0.7174  0.8119 -0.1915
  457TMC3    C3 6856   1.537   3.548  17.093  0.0558 -0.1445 -0.5783
  457TMC3    C4 6857   1.730   3.352  17.049 -0.3774 -0.1357  0.1928
  457TMC3    C5 6858   1.671   3.370  17.170  0.9615  0.8326 -0.1167
  457TMC3    C6 6859   1.577   3.467  17.196  0.3760  0.2840 -0.5429
  457TMC3     C 6860   1.740   3.422  16.811 -0.2178 -0.0066  0.8167
  457TMC3     O 6861   1.744   3.519  16.738  0.0012  0.2870 -0.4897
  457TMC3     H 6862   1.568   3.603  16.889 -2.4290 -1.8184 -1.8559
  457TMC3    H1 6863   1.814   3.283  17.051 -0.3435 -0.0466  2.1155
  457TMC3    H2 6864   1.523   3.476  17.289  0.4650  1.4291 -0.5986
  457TMC3    C7 6865   1.744   3.309  17.280  0.2983  0.1376 -0.3647
  457TMC3    C8 6866   1.433   3.652  17.118 -0.2886  0.4139 -0.2581
  457TMC3    O1 6867   1.830   3.230  17.262 -0.3924 -0.2595  0.9778
  457TMC3    O2 6868   1.396   3.652  17.236  0.1417  0.0293 -0.0107
  458MPD2     C 6869   4.321   3.305  12.244  0.4241 -0.1920 -0.1413
  458MPD2    C1 6870   4.286   3.245  12.363  0.1670 -0.0413  0.6520
  458MPD2    C2 6871   4.183   3.153  12.355 -0.2319  0.5023 -0.0562
  458MPD2    C3 6872   4.123   3.121  12.236 -0.1496  0.2799 -0.3086
  458MPD2    C4 6873   4.159   3.186  12.117 -0.3389 -0.1968  0.2363
  458MPD2    C5 6874   4.261   3.274  12.128  0.6286  0.4183  0.5313
  458MPD2     H 6875   4.145   3.104  12.444 -0.1158  0.3924 -0.0678
  458MPD2    H1 6876   4.112   3.164  12.022 -0.2896 -0.0671  0.1828
  458MPD2    H2 6877   4.402   3.377  12.234  0.4008 -0.3861 -1.6907
  458MPD2    H3 6878   4.301   3.320  12.039  0.8768  0.3371  0.6020
  458MPD2     N 6879   4.028   3.015  12.239 -0.5050  0.3694  0.5983
  458MPD2    H5 6880   4.019   2.963  12.326  0.2679 -1.4454 -0.4045
  458MPD2    N1 6881   4.352   3.288  12.474 -0.8010  0.4148  0.5302
  458MPD2    H7 6882   4.409   3.372  12.478  0.3503 -0.3421 -0.2039
  459TMC3    C1 6883   4.407   3.297  12.704 -0.3894  0.1780 -0.2662
  459TMC3    C2 6884   4.524   3.368  12.675  0.0596 -0.5949  0.2236
  459TMC3    C3 6885   4.620   3.369  12.777  0.7223  1.1065  0.8020
  459TMC3    C4 6886   4.393   3.231  12.825  0.5887 -0.3095  0.0884
  459TMC3    C5 6887   4.497   3.224  12.915 -0.1742  0.0743  0.2466
  459TMC3    C6 6888   4.601   3.300  12.897 -0.4106  0.3275 -0.0155
  459TMC3     C 6889   4.340   3.227  12.598  0.0755 -0.4950  0.4191
  459TMC3     O 6890   4.281   3.121  12.618 -0.3457  0.1707 -0.0631
  459TMC3     H 6891   4.558   3.420  12.586 -2.2000 -3.2813 -2.2212
  459TMC3    H1 6892   4.306   3.174  12.855  0.1448  0.3665  0.0906
  459TMC3    H2 6893   4.683   3.289  12.966  0.6244 -1.1485 -1.4683
  459TMC3    C7 6894   4.530   3.102  12.993  0.5208 -0.2908 -0.3069
  459TMC3    C8 6895   0.011   3.429  12.751 -0.9500  0.6838 -0.0592
  459TMC3    O1 6896   4.646   3.068  12.983 -0.2764 -0.6474 -0.2163
  459TMC3    O2 6897   0.040   3.450  12.632  0.9339 -0.3531 -0.4276
  460MPD2     C 6898   3.966   0.317  10.606  0.8143  0.2256 -0.1856
  460MPD2    C1 6899   3.829   0.312  10.609  0.9687 -0.0348  0.4840
  460MPD2    C2 6900   3.751   0.416  10.559 -0.6707 -0.0150  0.3444
  460MPD2    C3 6901   3.814   0.525  10.502 -0.5196 -0.4074 -0.0411
  460MPD2    C4 6902   3.955   0.526  10.493 -0.6028  0.3124 -0.0494
  460MPD2    C5 6903   4.030   0.422  10.544 -0.4993  0.5024 -0.5748
  460MPD2     H 6904   3.650   0.426  10.598 -0.4922 -1.7536  1.2605
  460MPD2    H1 6905   4.007   0.604  10.440 -1.0252  0.9179  0.4298
  460MPD2    H2 6906   4.028   0.238  10.647 -0.3223 -0.4207  0.2905
  460MPD2    H3 6907   4.138   0.423  10.536 -0.4394 -2.5524  0.0614
  460MPD2     N 6908   3.727   0.634  10.462  0.0917  0.2951  0.3136
  460MPD2    H5 6909   3.627   0.615  10.458 -0.2774  2.5738 -1.4546
  460MPD2    N1 6910   3.772   0.221  10.699 -0.0863 -0.4825 -0.8046
  460MPD2    H7 6911   3.831   0.195  10.778 -0.9900  1.4206  0.4960
  461TMC3    C1 6912   3.662   0.845  10.386  0.0146  0.0704 -0.1497
  461TMC3    C2 6913   3.559   0.802  10.308 -0.3505  0.2676  0.2471
  461TMC3    C3 6914   3.460   0.892  10.268  0.1565  0.1561  0.2750
  461TMC3    C4 6915   3.669   0.975  10.426 -0.2922 -0.4303 -0.3334
  461TMC3    C5 6916   3.566   1.062  10.380 -0.0810  0.4673  0.4628
  461TMC3    C6 6917   3.468   1.029  10.295 -0.2691 -0.3478 -0.0406
  461TMC3     C 6918   3.769   0.755  10.416  0.1941  0.1916 -0.3887
  461TMC3     O 6919   3.876   0.802  10.444 -0.6949 -0.4586  0.0846
  461TMC3     H 6920   3.562   0.703  10.265 -1.6103 -0.3221  1.5396
  461TMC3    H1 6921   3.758   1.011  10.476  0.0300 -1.8124  0.0911
  461TMC3    H2 6922   3.399   1.108  10.265  0.8670  0.3626 -0.7705
  461TMC3    C7 6923   3.572   1.202  10.423 -0.3798 -0.5207 -0.2477
  461TMC3    C8 6924   3.370   0.859  10.161 -0.3038  0.2461 -0.2205
  461TMC3    O1 6925   3.530   1.278  10.341  0.3542  0.7821 -0.1383
  461TMC3    O2 6926   3.306   0.957  10.119  0.0113 -0.1631  0.2045
  462TMC3    C1 6927   4.031   0.763  17.339 -0.1921 -0.5828  0.2369
  462TMC3    C2 6928   3.991   0.644  17.279 -0.2117 -0.4933  0.3373
  462TMC3    C3 6929   3.859   0.613  17.297 -1.4214 -0.4793  0.1638
  462TMC3    C4 6930   3.962   0.817  17.443  0.3148  0.3999  0.0455
  462TMC3    C5 6931   3.827   0.787  17.451  0.0711 -0.4042 -0.0816
  462TMC3    C6 6932   3.779   0.671  17.398  0.7044 -0.0210 -0.2816
  462TMC3     C 6933   4.163   0.814  17.317 -0.0644  0.0131 -0.8066
  462TMC3     O 6934   4.239   0.747  17.258 -0.3045  0.0036 -0.0870
  462TMC3     H 6935   4.057   0.596  17.207  2.1477 -1.2011  2.9624
  462TMC3    H1 6936   4.011   0.888  17.507 -0.2469 -0.3930  1.3550
  462TMC3    H2 6937   3.672   0.659  17.399  0.8653 -1.5776 -0.9552
  462TMC3    C7 6938   3.737   0.839  17.555  0.0265 -0.3466 -0.1805
  462TMC3    C8 6939   3.799   0.506  17.221  0.7670 -0.6117 -0.4075
  462TMC3    O1 6940   3.648   0.760  17.596  0.1666  0.4982  0.3182
  462TMC3    O2 6941   3.685   0.478  17.259  0.6349  0.0817  0.3980
  463MPD2     C 6942   0.485   4.437   0.634  0.0677 -0.2762  0.1750
  463MPD2    C1 6943   0.402   4.552   0.638 -0.7948 -0.2383 -0.3084
  463MPD2    C2 6944   0.445   4.675   0.598 -0.5100 -0.3811 -0.7170
  463MPD2    C3 6945   0.580   4.688   0.562 -0.3471 -0.0681  0.5344
  463MPD2    C4 6946   0.662   4.578   0.562  0.5617 -0.7328 -0.5814
  463MPD2    C5 6947   0.617   4.450   0.596 -0.5749  0.2062 -0.0005
  463MPD2     H 6948   0.371   0.016   0.608 -0.4020 -0.3946  0.1927
  463MPD2    H1 6949   0.764   4.597   0.533  0.7235 -0.7629 -0.0435
  463MPD2    H2 6950   0.439   4.340   0.650  1.8830 -1.1191  0.2100
  463MPD2    H3 6951   0.684   4.365   0.593 -0.2208  0.5138 -0.7532
  463MPD2     N 6952   0.641   0.070   0.506 -0.1061  0.0383  0.6621
  463MPD2    H5 6953   0.738   0.058   0.481 -0.1778 -0.4072  0.5913
  463MPD2    N1 6954   0.262   4.552   0.688 -0.0342 -0.1088  0.2062
  463MPD2    H7 6955   0.222   4.642   0.711  2.6582  1.7589 -2.3513
  464TMC3    C1 6956   0.072   4.436   0.783 -0.4161  0.5869 -0.2278
  464TMC3    C2 6957   0.032   4.559   0.841  0.7450  0.1923 -0.3725
  464TMC3    C3 6958   4.650   4.559   0.908  0.4059  0.1770 -0.2534
  464TMC3    C4 6959   4.722   4.332   0.776 -0.2302  0.3804 -0.0522
  464TMC3    C5 6960   4.603   4.336   0.840 -0.0277 -0.4308  0.1211
  464TMC3    C6 6961   4.567   4.448   0.913 -0.1932  0.7730 -0.4645
  464TMC3     C 6962   0.187   4.437   0.699 -0.2149  0.2245  0.1914
  464TMC3     O 6963   0.192   4.334   0.628  0.2686  0.4858 -0.3785
  464TMC3     H 6964   0.103   4.641   0.849  1.6998 -0.8114  1.3099
  464TMC3    H1 6965   0.024   4.234   0.753  0.0831  0.4838  0.0440
  464TMC3    H2 6966   4.468   4.457   0.956  0.5454  2.5267  0.8493
  464TMC3    C7 6967   4.527   4.211   0.843  0.4484 -0.4621  0.4163
  464TMC3    C8 6968   4.594   4.682   0.965  0.0380 -0.2675 -0.8373
  464TMC3    O1 6969   4.575   4.129   0.763  0.0217  0.1805 -0.1025
  464TMC3    O2 6970   4.497   4.665   1.033 -0.1570  0.5609  0.3214
  465MPD2     C 6971   1.065   2.946  16.978  0.0841 -0.5090  0.7385
  465MPD2    C1 6972   0.949   2.983  17.045  0.9937  0.9907  0.6584
  465MPD2    C2 6973   0.848   3.045  16.977 -0.1005 -0.2968  0.2912
  465MPD2    C3 6974   0.863   3.085  16.848 -0.8040  0.4712  0.8075
  465MPD2    C4 6975   0.985   3.055  16.784  0.9999 -0.7322 -0.1958
  465MPD2    C5 6976   1.083   2.986  16.848  0.3486 -0.0229 -0.3432
  465MPD2     H 6977   0.755   3.060  17.031  0.3457 -0.0841  1.0037
  465MPD2    H1 6978   1.010   3.099  16.689  0.4232  0.0409  0.0106
  465MPD2    H2 6979   1.153   2.904  17.025  0.3060  1.0723  1.7732
  465MPD2    H3 6980   1.183   2.984  16.805  1.0205 -0.6568  1.2546
  465MPD2     N 6981   0.756   3.146  16.780 -0.0019 -0.5390 -1.0566
  465MPD2    H5 6982   0.677   3.165  16.840  0.0255 -0.1537 -1.1408
  465MPD2    N1 6983   0.932   2.949  17.186 -0.0840  0.1493  0.1713
  465MPD2    H7 6984   0.853   2.996  17.231 -0.7453  0.5540 -1.3992
  466TMC3    C1 6985   0.388   3.285  16.660 -0.3992 -0.2969  0.4937
  466TMC3    C2 6986   0.385   3.396  16.580 -0.2273  0.4636  0.2684
  466TMC3    C3 6987   0.496   3.418  16.507  0.0536 -0.2549 -0.0028
  466TMC3    C4 6988   0.503   3.222  16.690 -0.5785  0.6343  0.3740
  466TMC3    C5 6989   0.613   3.242  16.610  0.4795 -0.0546 -0.0188
  466TMC3    C6 6990   0.611   3.338  16.518 -0.3680  0.3763 -0.3004
  466TMC3     C 6991   0.271   3.256  16.738  0.3317  0.3238  0.2598
  466TMC3     O 6992   0.282   3.237  16.860 -0.8772 -0.3915  0.4984
  466TMC3     H 6993   0.297   3.458  16.570 -0.4493  0.2930  1.1724
  466TMC3    H1 6994   0.494   3.137  16.757 -0.1013 -0.5832 -1.0896
  466TMC3    H2 6995   0.698   3.373  16.464 -0.3746  1.0687  0.1468
  466TMC3    C7 6996   0.752   3.200  16.646 -0.0431 -0.4235  0.0740
  466TMC3    C8 6997   0.509   3.542  16.437 -0.1755 -0.4725  0.3685
  466TMC3    O1 6998   0.845   3.219  16.566 -0.6152  0.2638 -0.2972
  466TMC3    O2 6999   0.580   3.553  16.340 -0.0264 -0.0807  0.4169
  467TMC3    C1 7000   2.116   2.448  13.975  0.1217  0.2937 -0.5551
  467TMC3    C2 7001   2.056   2.557  13.916 -0.0338 -1.0922 -0.1950
  467TMC3    C3 7002   1.922   2.553  13.889  0.0590 -0.3160  0.6241
  467TMC3    C4 7003   2.039   2.343  14.024  0.4979  0.0965 -0.1803
  467TMC3    C5 7004   1.900   2.349  13.995  0.2969 -0.1494  0.4994
  467TMC3    C6 7005   1.838   2.450  13.928  0.7578 -0.2915 -0.4735
  467TMC3     C 7006   2.255   2.427  13.965 -0.1245 -0.5487  0.2765
  467TMC3     O 7007   2.317   2.526  13.931  0.3871 -0.1483 -0.4942
  467TMC3     H 7008   2.115   2.639  13.877 -0.6199  0.0014  1.2089
  467TMC3    H1 7009   2.076   2.255  14.076 -0.3313  0.0681  0.3581
  467TMC3    H2 7010   1.730   2.464  13.927  0.7051 -0.7480 -0.9775
  467TMC3    C7 7011   1.817   2.249  14.064  0.0610  0.5255  0.0089
  467TMC3    C8 7012   1.881   2.656  13.792 -0.0010 -0.2737 -0.4600
  467TMC3    O1 7013   1.877   2.147  14.101 -0.7489 -0.2978 -0.1320
  467TMC3    O2 7014   1.958   2.745  13.766  0.0655  0.7035 -0.9675
  468MPD2     C 7015   0.510   0.613  11.205 -0.4248 -0.2237  0.6984
  468MPD2    C1 7016   0.613   0.569  11.133  1.0586  0.7294 -0.1275
  468MPD2    C2 7017   0.617   0.438  11.100  0.0218 -0.0044  0.8687
  468MPD2    C3 7018   0.526   0.346  11.141 -0.3262 -0.5514 -0.1048
  468MPD2    C4 7019   0.421   0.388  11.215 -0.2288  0.2826 -0.0294
  468MPD2    C5 7020   0.420   0.519  11.251 -0.1765  0.3450 -0.3579
  468MPD2     H 7021   0.701   0.406  11.039  1.6433  3.8791  1.0735
  468MPD2    H1 7022   0.347   0.322  11.258  0.1168  0.2986  0.5824
  468MPD2    H2 7023   0.488   0.715  11.236  0.5108 -0.0434  0.7745
  468MPD2    H3 7024   0.345   0.561  11.317 -1.1315 -1.2311 -0.4449
  468MPD2     N 7025   0.523   0.206  11.117  0.1711 -0.4378 -0.7938
  468MPD2    H5 7026   0.437   0.158  11.140  0.4790 -0.8651 -0.5205
  468MPD2    N1 7027   0.719   0.648  11.084  0.2623  0.2315  0.2318
  468MPD2    H7 7028   0.802   0.598  11.054 -0.2910 -0.1788 -0.6071
  469TMC3    C1 7029   0.832   0.863  11.048 -0.3952 -0.2349 -0.2454
  469TMC3    C2 7030   0.951   0.822  11.109  0.1523  0.0914 -0.1394
  469TMC3    C3 7031   1.033   0.919  11.155 -0.6519  0.2591 -0.0825
  469TMC3    C4 7032   0.806   0.989  11.011  0.4362  0.2247  0.2152
  469TMC3    C5 7033   0.900   1.090  11.043  0.5470 -0.1528  0.2270
  469TMC3    C6 7034   1.015   1.051  11.115 -0.3444 -0.4664  0.4423
  469TMC3     C 7035   0.708   0.789  11.076 -0.0455  0.3340 -0.4425
  469TMC3     O 7036   0.606   0.855  11.079 -0.1802  0.3758  0.3664
  469TMC3     H 7037   0.957   0.717  11.133  1.9512  0.4154  0.7930
  469TMC3    H1 7038   0.710   1.006  10.963  0.2685  0.1213  0.5099
  469TMC3    H2 7039   1.092   1.124  11.139  1.3173 -1.9305 -0.4621
  469TMC3    C7 7040   0.877   1.229  11.032 -0.0733 -0.4985 -0.1222
  469TMC3    C8 7041   1.144   0.886  11.245 -0.3881 -0.0298 -0.9332
  469TMC3    O1 7042   0.970   1.299  11.066 -0.5630  0.2842  0.1400
  469TMC3    O2 7043   1.182   0.768  11.241  0.2699 -0.5017  0.2333
  470TMC3    C1 7044   2.870   1.416   0.632  0.2694  0.5326  0.6175
  470TMC3    C2 7045   2.964   1.514   0.635 -0.6764 -0.4095 -0.7923
  470TMC3    C3 7046   2.983   1.567   0.756 -0.1481  0.4872 -0.0055
  470TMC3    C4 7047   2.797   1.379   0.745  0.9483  0.2705 -0.9002
  470TMC3    C5 7048   2.809   1.450   0.857  0.2075  0.0133  0.4034
  470TMC3    C6 7049   2.904   1.547   0.869 -0.0170 -0.0118 -0.8485
  470TMC3     C 7050   2.860   1.336   0.509 -0.1049  0.3095  0.3161
  470TMC3     O 7051   2.947   1.347   0.421  0.2318  0.1229  0.3484
  470TMC3     H 7052   3.026   1.532   0.547 -0.4784  2.0644 -0.1315
  470TMC3    H1 7053   2.719   1.304   0.740 -1.5021  2.6977  0.8405
  470TMC3    H2 7054   2.928   1.587   0.967 -0.0105 -1.3782 -0.2932
  470TMC3    C7 7055   2.684   1.467   0.932 -0.3321 -0.5762  0.2822
  470TMC3    C8 7056   3.046   1.701   0.759 -0.2995 -0.2262  0.0063
  470TMC3    O1 7057   2.590   1.387   0.915 -0.3438 -0.3610  0.3076
  470TMC3    O2 7058   3.034   1.768   0.859 -0.1235  0.0613 -0.0407
  471MPD2     C 7059   3.455   2.230  16.459 -0.0604 -0.5332  0.3952
  471MPD2    C1 7060   3.458   2.093  16.450  0.8148  0.4392 -0.3795
  471MPD2    C2 7061   3.507   2.015  16.553  0.3324 -0.3734  0.4106
  471MPD2    C3 7062   3.564   2.071  16.669 -0.2971  1.0099  0.3237
  471MPD2    C4 7063   3.549   2.210  16.681 -0.6737 -0.1547  0.1903
  471MPD2    C5 7064   3.502   2.287  16.579 -0.3170 -0.0664 -0.1605
  471MPD2     H 7065   3.497   1.909  16.537 -1.8910 -0.2587  0.9718
  471MPD2    H1 7066   3.582   2.260  16.771 -0.6143  3.2396 -1.7072
  471MPD2    H2 7067   3.431   2.294  16.376 -0.0182 -2.8587 -1.4156
  471MPD2    H3 7068   3.502   2.395  16.589 -0.3903 -0.1590  0.9115
  471MPD2     N 7069   3.619   1.986  16.768  0.3749  1.0961  0.1420
  471MPD2    H5 7070   3.649   1.894  16.737  0.0078  0.8080  0.6383
  471MPD2    N1 7071   3.419   2.029  16.338  0.6509  0.5655  0.6447
  471MPD2    H7 7072   3.417   1.928  16.354 -0.7548  0.7855  1.8975
  472TMC3    C1 7073   3.297   1.971  16.141  0.1151  0.0482  0.0076
  472TMC3    C2 7074   3.185   2.001  16.071 -1.3247  0.0306 -0.4315
  472TMC3    C3 7075   3.122   1.893  16.003 -0.1928  1.1224  0.1756
  472TMC3    C4 7076   3.334   1.844  16.166 -0.1720 -0.0978 -0.0313
  472TMC3    C5 7077   3.261   1.737  16.110 -0.0869 -0.4686  0.2515
  472TMC3    C6 7078   3.152   1.764  16.022  0.4076 -0.6229 -0.4934
  472TMC3     C 7079   3.358   2.078  16.219  0.2181 -0.3582 -0.1973
  472TMC3     O 7080   3.333   2.194  16.191  0.3279 -0.5136  0.5605
  472TMC3     H 7081   3.168   2.102  16.037  1.4335  0.6960  0.1137
  472TMC3    H1 7082   3.430   1.809  16.203 -1.0513 -0.3082  2.0865
  472TMC3    H2 7083   3.089   1.692  15.971 -2.4681  1.6932 -0.1709
  472TMC3    C7 7084   3.284   1.609  16.170 -0.1820 -0.0351 -0.0030
  472TMC3    C8 7085   3.037   1.926  15.890  0.3124 -0.3499 -0.5963
  472TMC3    O1 7086   3.347   1.617  16.272  0.8869  0.8220  0.1010
  472TMC3    O2 7087   3.093   1.910  15.782  0.8833  0.3060 -0.7201
  473MPD2     C 7088   3.392   4.521  13.998 -0.2404 -0.6879 -1.0821
  473MPD2    C1 7089   3.308   4.603  13.926 -0.0679 -0.3064  0.2831
  473MPD2    C2 7090   3.289   4.736  13.969  0.6558 -0.1252 -0.1321
  473MPD2    C3 7091   3.357   0.042  14.077  0.3086 -0.4508 -0.5300
  473MPD2    C4 7092   3.432   4.694  14.156  0.0754  0.4626 -0.5500
  473MPD2    C5 7093   3.445   4.563  14.115  0.2177 -0.4768 -0.0105
  473MPD2     H 7094   3.223   0.066  13.917 -0.6366  1.1882  3.2907
  473MPD2    H1 7095   3.480   4.725  14.248  0.3230 -3.2089  0.5626
  473MPD2    H2 7096   3.396   4.413  13.993 -0.8664 -0.7347 -0.6562
  473MPD2    H3 7097   3.504   4.498  14.179  0.9542  0.2334  0.0312
  473MPD2     N 7098   3.332   0.173  14.129 -0.8211  0.3589 -0.0209
  473MPD2    H5 7099   3.377   0.184  14.219  0.4678 -0.5138 -0.5551
  473MPD2    N1 7100   3.229   4.556  13.819 -0.7883  0.1052 -0.2393
  473MPD2    H7 7101   3.161   4.614  13.770  0.3249  0.1252 -1.7752
  474TMC3    C1 7102   3.298   0.402  14.139  0.6376 -0.0595  0.0265
  474TMC3    C2 7103   3.346   0.513  14.079  0.1714  0.1531 -0.4316
  474TMC3    C3 7104   3.382   0.616  14.171 -0.4043 -0.3971 -0.3036
  474TMC3    C4 7105   3.284   0.382  14.275 -0.1095  0.5013 -0.5926
  474TMC3    C5 7106   3.337   0.475  14.361  0.1196  0.3423  0.1024
  474TMC3    C6 7107   3.374   0.597  14.308 -0.0851  0.5378 -0.8338
  474TMC3     C 7108   3.287   0.283  14.055  0.3896 -0.1726 -0.0910
  474TMC3     O 7109   3.271   0.285  13.934  0.0135  0.3273  0.4616
  474TMC3     H 7110   3.366   0.523  13.973 -1.2955 -2.3824 -0.9216
  474TMC3    H1 7111   3.232   0.301  14.326 -1.2579  0.9323 -1.0637
  474TMC3    H2 7112   3.381   0.687  14.369  0.5724 -0.1737  0.1502
  474TMC3    C7 7113   3.321   0.458  14.506 -0.0906  0.5971  0.0582
  474TMC3    C8 7114   3.428   0.744  14.127  0.9670 -0.2494 -0.7959
  474TMC3    O1 7115   3.283   0.349  14.540  0.3572  0.0487 -0.2040
  474TMC3    O2 7116   3.456   0.826  14.211  0.2019 -0.3941 -0.1345
  475MPD2     C 7117   0.651   3.044  11.218  0.4038  0.3492  0.8794
  475MPD2    C1 7118   0.727   3.085  11.111  0.6345 -0.2115 -0.1969
  475MPD2    C2 7119   0.676   3.078  10.987 -0.0703 -0.4945  0.2714
  475MPD2    C3 7120   0.545   3.037  10.964 -0.0481 -0.5690  0.6840
  475MPD2    C4 7121   0.469   3.009  11.070 -0.0779 -0.7633 -0.0262
  475MPD2    C5 7122   0.521   3.008  11.193 -0.4464 -0.1533 -0.4580
  475MPD2     H 7123   0.730   3.116  10.901 -0.8819 -0.1633 -0.0923
  475MPD2    H1 7124   0.365   2.987  11.048  0.1064  0.1517 -1.8144
  475MPD2    H2 7125   0.692   3.037  11.318  2.1153 -1.4357  0.0413
  475MPD2    H3 7126   0.454   2.971  11.270  1.0368 -1.2066  0.3284
  475MPD2     N 7127   0.494   3.063  10.838 -0.5082  0.2073 -0.5610
  475MPD2    H5 7128   0.562   3.111  10.781 -0.1529  0.4519  0.0704
  475MPD2    N1 7129   0.859   3.133  11.136 -0.5455  0.1745 -0.2842
  475MPD2    H7 7130   0.898   3.138  11.229  1.4382 -2.8201 -0.9532
  476TMC3    C1 7131   1.066   3.215  11.049 -0.6995  0.1239 -0.3896
  476TMC3    C2 7132   1.121   3.260  10.933  0.9098 -0.2864 -0.3383
  476TMC3    C3 7133   1.225   3.349  10.934 -0.6352  0.3850  0.6554
  476TMC3    C4 7134   1.096   3.271  11.170  0.3592 -0.6059  0.1552
  476TMC3    C5 7135   1.204   3.363  11.174 -0.7450  0.2612 -0.0224
  476TMC3    C6 7136   1.267   3.401  11.055 -0.5585 -0.2724  0.0844
  476TMC3     C 7137   0.950   3.132  11.033 -1.0774 -0.3936  0.2137
  476TMC3     O 7138   0.946   3.062  10.933  0.6707  0.1538 -0.4784
  476TMC3     H 7139   1.082   3.225  10.839  0.2748  1.5144 -0.7555
  476TMC3    H1 7140   1.066   3.220  11.261 -0.1212  0.6636  0.7037
  476TMC3    H2 7141   1.340   3.481  11.051 -1.0712  0.1578 -1.0021
  476TMC3    C7 7142   1.258   3.392  11.302  0.0806 -0.3673 -0.4012
  476TMC3    C8 7143   1.243   3.430  10.815 -0.2929  0.3281 -0.0913
  476TMC3    O1 7144   1.225   3.323  11.393  0.6243 -0.3205 -0.4208
  476TMC3    O2 7145   1.277   3.548  10.835  1.2150  0.2303 -0.6148
  477MPD2     C 7146   3.871   4.595  11.519  0.6047  0.9201  0.2027
  477MPD2    C1 7147   3.850   4.460  11.526  0.0702  0.0330  0.4348
  477MPD2    C2 7148   3.830   4.402  11.648 -0.1421  0.0467  0.1563
  477MPD2    C3 7149   3.845   4.479  11.763  0.0368 -0.2804 -0.3085
  477MPD2    C4 7150   3.858   4.617  11.754  0.5094 -0.3968 -0.3869
  477MPD2    C5 7151   3.877   4.671  11.631 -0.1723 -0.3591 -0.1914
  477MPD2     H 7152   3.811   4.297  11.669 -1.2376  0.3650  0.7800
  477MPD2    H1 7153   3.856   4.675  11.845  0.8069 -1.3614  0.2203
  477MPD2    H2 7154   3.891   4.651  11.428 -0.7315  1.6295  0.3520
  477MPD2    H3 7155   3.893   0.040  11.616 -0.2394 -0.1849  0.9710
  477MPD2     N 7156   3.846   4.403  11.881  0.1064 -0.2286  0.5996
  477MPD2    H5 7157   3.848   4.302  11.874  0.9044 -0.1936  0.3568
  477MPD2    N1 7158   3.837   4.388  11.400 -0.2274  0.0723  0.4144
  477MPD2    H7 7159   3.844   4.439  11.312  1.8026  0.8541  1.0389
  478TMC3    C1 7160   3.806   4.196  11.263 -0.0917 -0.0335  0.1007
  478TMC3    C2 7161   3.709   4.105  11.234  0.0125  0.4333 -0.0111
  478TMC3    C3 7162   3.673   4.094  11.104 -0.2149  0.0337 -0.0539
  478TMC3    C4 7163   3.875   4.267  11.169  0.9193 -0.2002 -0.9532
  478TMC3    C5 7164   3.830   4.257  11.040 -0.5863 -0.3110  0.3675
  478TMC3    C6 7165   3.726   4.175  11.001  0.0996 -0.1656  0.5093
  478TMC3     C 7166   3.811   4.252  11.392 -0.6028 -0.4713 -0.4714
  478TMC3     O 7167   3.774   4.171  11.477  0.2971 -0.6260  0.7007
  478TMC3     H 7168   3.659   4.044  11.308  0.9421  0.7426  0.8657
  478TMC3    H1 7169   3.952   4.340  11.192 -0.0517 -0.1437  2.0660
  478TMC3    H2 7170   3.694   4.161  10.898  1.4828  2.5006 -0.2918
  478TMC3    C7 7171   3.913   4.323  10.940  0.2601 -0.3015 -0.0156
  478TMC3    C8 7172   3.528   4.070  11.092  0.0565 -0.1093  0.1947
  478TMC3    O1 7173   4.023   4.366  10.983  0.1395 -0.1733 -0.5461
  478TMC3    O2 7174   3.484   3.967  11.146  0.1840 -0.2626  0.1502
  479MPD2     C 7175   3.182   2.087  14.894  0.0022 -0.4206 -0.2038
  479MPD2    C1 7176   3.120   1.989  14.968  0.6952 -0.5873 -0.8126
  479MPD2    C2 7177   3.178   1.964  15.092 -0.0407 -0.5442  0.7862
  479MPD2    C3 7178   3.285   2.033  15.139  0.2863  0.2553 -0.3843
  479MPD2    C4 7179   3.341   2.126  15.059  0.1970  0.9959 -0.3612
  479MPD2    C5 7180   3.292   2.153  14.934 -0.0416  0.5858  0.2684
  479MPD2     H 7181   3.134   1.883  15.149  1.2432 -0.0953  2.3981
  479MPD2    H1 7182   3.427   2.185  15.086  0.1278  0.5002  0.9612
  479MPD2    H2 7183   3.140   2.107  14.796  1.1899 -0.2208 -0.6653
  479MPD2    H3 7184   3.334   2.230  14.872 -1.0479 -0.2402 -1.4491
  479MPD2     N 7185   3.339   2.029  15.267  0.8430 -0.9529 -0.3284
  479MPD2    H5 7186   3.426   2.079  15.279 -1.6553  2.9283  1.3073
  479MPD2    N1 7187   2.994   1.939  14.935 -0.1419  0.1710 -0.3715
  479MPD2    H7 7188   2.961   1.950  14.839 -1.8899 -0.7337  0.1217
  480TMC3    C1 7189   2.968   1.823  15.488 -0.1894  0.5594  0.1893
  480TMC3    C2 7190   2.884   1.920  15.445 -0.3163  0.3988  0.4022
  480TMC3    C3 7191   2.934   2.034  15.385 -0.4653  0.2278 -0.0315
  480TMC3    C4 7192   3.097   1.824  15.439 -0.8035  0.6347  0.9214
  480TMC3    C5 7193   3.150   1.936  15.386 -0.6901 -0.4941 -0.2340
  480TMC3    C6 7194   3.069   2.041  15.362  0.1268 -0.2388 -0.0244
  480TMC3     C 7195   2.924   1.718  15.593 -0.0869  0.1453 -1.0584
  480TMC3     O 7196   3.006   1.633  15.614 -0.1899  0.3650  0.3581
  480TMC3     H 7197   2.777   1.910  15.461 -0.3254 -1.3489 -0.7976
  480TMC3    H1 7198   3.167   1.746  15.464  0.2385  1.4117  0.4068
  480TMC3    H2 7199   3.114   2.133  15.325 -4.4418  2.7387  1.7097
  480TMC3    C7 7200   3.296   1.936  15.369 -0.1212 -0.6297  0.2409
  480TMC3    C8 7201   2.846   2.105  15.292 -0.3761 -0.0218  0.1812
  480TMC3    O1 7202   3.359   1.916  15.469 -0.0260  0.4611 -0.2655
  480TMC3    O2 7203   2.731   2.062  15.292 -0.1438 -0.3893  0.3133
  481MPD2     C 7204   0.475   1.598  14.243 -0.2090 -0.5561 -0.0687
  481MPD2    C1 7205   0.343   1.559  14.238  0.2698 -0.2602 -0.3844
  481MPD2    C2 7206   0.281   1.498  14.352 -0.0559  0.0602  0.2463
  481MPD2    C3 7207   0.349   1.485  14.468 -0.2286 -0.2565  0.0354
  481MPD2    C4 7208   0.482   1.515  14.466  0.1238 -0.3771  0.0039
  481MPD2    C5 7209   0.542   1.562  14.355 -0.1844  0.2811  0.7441
  481MPD2     H 7210   0.176   1.471  14.350 -0.4386  1.5015  0.9200
  481MPD2    H1 7211   0.543   1.493  14.553 -1.8098 -0.5673  1.3113
  481MPD2    H2 7212   0.529   1.641  14.160 -0.7025  1.3708  0.6163
  481MPD2    H3 7213   0.649   1.577  14.354 -0.2896  0.9248 -0.7811
  481MPD2     N 7214   0.289   1.439  14.595 -0.6342 -0.1967  0.9139
  481MPD2    H5 7215   0.347   1.425  14.677 -0.9622 -2.2807  0.7802
  481MPD2    N1 7216   0.269   1.611  14.129  0.3098 -0.5095 -0.3531
  481MPD2    H7 7217   0.313   1.680  14.069  0.3042 -0.7970 -0.6867
  482TMC3    C1 7218   0.076   1.679  13.987  0.8217 -0.5728  0.5939
  482TMC3    C2 7219   4.677   1.686  13.986 -0.4607  0.2424 -0.0455
  482TMC3    C3 7220   4.619   1.674  13.866  0.0566  0.0934 -0.3914
  482TMC3    C4 7221   0.154   1.692  13.878  0.1635 -0.1703 -0.2222
  482TMC3    C5 7222   0.086   1.710  13.757  0.3619 -0.4316  0.4287
  482TMC3    C6 7223   4.690   1.681  13.748 -1.2807 -0.3485 -0.2328
  482TMC3     C 7224   0.132   1.600  14.102 -0.2539 -0.3327  0.0681
  482TMC3     O 7225   0.050   1.530  14.165 -0.4854 -0.4666 -1.2038
  482TMC3     H 7226   4.623   1.661  14.077 -1.2888  0.4976 -0.4618
  482TMC3    H1 7227   0.261   1.702  13.892 -0.1040  2.6847 -0.3281
  482TMC3    H2 7228   4.636   1.661  13.656  2.8150 -1.1046 -2.4934
  482TMC3    C7 7229   0.171   1.682  13.645  0.1344  0.9843 -0.1971
  482TMC3    C8 7230   4.509   1.584  13.874  0.1592 -0.2629  0.2991
  482TMC3    O1 7231   0.246   1.589  13.667 -0.2023  0.1354 -0.0326
  482TMC3    O2 7232   4.501   1.513  13.969  0.2557  0.2137  0.2563
  483TMC3    C1 7233   2.266   0.474   0.910 -0.2585 -0.1036 -0.1574
  483TMC3    C2 7234   2.315   0.601   0.875  0.1435 -0.1615 -0.0490
  483TMC3    C3 7235   2.398   0.656   0.961  0.2790 -0.3463  0.1704
  483TMC3    C4 7236   2.310   0.411   1.021  0.7720 -0.1213 -0.5314
  483TMC3    C5 7237   2.398   0.472   1.105 -0.0076 -0.2203 -0.0281
  483TMC3    C6 7238   2.451   0.593   1.073  1.0277  0.0384 -0.0478
  483TMC3     C 7239   2.172   0.407   0.813  0.2688 -0.2254 -0.0033
  483TMC3     O 7240   2.148   0.461   0.710 -0.2641  0.3286 -0.2344
  483TMC3     H 7241   2.286   0.644   0.779 -1.9509  0.0152  0.6542
  483TMC3    H1 7242   2.270   0.314   1.048 -1.7502  0.2770 -2.8341
  483TMC3    H2 7243   2.524   0.650   1.129  0.9796 -1.8114  1.8802
  483TMC3    C7 7244   2.501   0.376   1.155  0.0158 -0.2813  0.0834
  483TMC3    C8 7245   2.492   0.747   0.901  0.0013 -0.2231  0.5377
  483TMC3    O1 7246   2.495   0.263   1.109  0.2402  0.1074  0.1235
  483TMC3    O2 7247   2.526   0.719   0.782 -0.4839 -0.4648 -0.4181
  484MPD2     C 7248   0.287   3.428  12.995  0.3255 -0.3350  0.2280
  484MPD2    C1 7249   0.227   3.456  12.872 -0.0073 -0.7103 -0.1874
  484MPD2    C2 7250   0.312   3.494  12.764  0.2920  0.2982  0.5881
  484MPD2    C3 7251   0.449   3.516  12.789 -0.3445  0.1876  0.5920
  484MPD2    C4 7252   0.499   3.495  12.913  0.7242  0.1523 -0.6936
  484MPD2    C5 7253   0.419   3.448  13.011 -0.5260 -0.5730 -0.5675
  484MPD2     H 7254   0.269   3.502  12.664 -1.0155 -2.8565  0.8948
  484MPD2    H1 7255   0.605   3.501  12.935  0.5822  1.3038 -0.3453
  484MPD2    H2 7256   0.226   3.391  13.076 -0.1120 -0.8690 -0.3454
  484MPD2    H3 7257   0.458   3.437  13.111 -1.7273  2.1043  0.2038
  484MPD2     N 7258   0.534   3.580  12.696 -1.0402  1.4267 -0.0335
  484MPD2    H5 7259   0.623   3.605  12.735 -1.5707 -0.4545  2.3961
  484MPD2    N1 7260   0.091   3.436  12.864  0.1286 -0.2303  0.8331
  484MPD2    H7 7261   0.045   3.416  12.952 -0.9371 -0.8440  0.1504
  485TMC3    C1 7262   0.614   3.696  12.507 -0.3722  0.0112 -0.0610
  485TMC3    C2 7263   0.742   3.674  12.549 -0.0338  0.1446 -0.2915
  485TMC3    C3 7264   0.828   3.752  12.490  0.6497  0.4257 -0.4906
  485TMC3    C4 7265   0.578   3.777  12.405 -0.1604 -0.4504  0.8704
  485TMC3    C5 7266   0.672   3.859  12.358  0.1140  0.5484 -0.3865
  485TMC3    C6 7267   0.802   3.837  12.389  0.3193  0.0856  0.2499
  485TMC3     C 7268   0.504   3.630  12.575  0.0508  0.3111 -0.3844
  485TMC3     O 7269   0.399   3.638  12.517 -0.1357  0.1334 -0.4921
  485TMC3     H 7270   0.763   3.597  12.622 -1.4794  0.7199  0.7248
  485TMC3    H1 7271   0.479   3.777  12.360  1.1161  0.2375 -1.9189
  485TMC3    H2 7272   0.878   3.902  12.348  0.6793 -0.8782 -0.6149
  485TMC3    C7 7273   0.658   3.880  12.217  0.5037  0.9908  0.8138
  485TMC3    C8 7274   0.952   3.681  12.467  0.3137 -0.0779 -0.0180
  485TMC3    O1 7275   0.561   3.938  12.171  0.3854 -0.0587 -0.2485
  485TMC3    O2 7276   1.037   3.755  12.419 -0.5186 -0.1709  0.9332
  486MPD2     C 7277   2.558   1.976  12.382  0.4923  0.7649 -0.0529
  486MPD2    C1 7278   2.491   1.908  12.280  0.3493 -0.9116  0.3148
  486MPD2    C2 7279   2.395   1.973  12.204 -0.4258 -0.2988 -0.2500
  486MPD2    C3 7280   2.357   2.099  12.233 -0.3004 -0.3765 -0.5918
  486MPD2    C4 7281   2.409   2.166  12.348 -0.6495 -0.1176  0.1768
  486MPD2    C5 7282   2.509   2.101  12.416 -0.0971 -0.4240 -0.2169
  486MPD2     H 7283   2.361   1.922  12.114  0.2075  0.0328 -0.6749
  486MPD2    H1 7284   2.389   2.270  12.369  0.7511  0.1959  0.0077
  486MPD2    H2 7285   2.645   1.936  12.432  0.4086 -0.2471 -0.7177
  486MPD2    H3 7286   2.562   2.152  12.496 -0.6059 -0.0409 -0.1264
  486MPD2     N 7287   2.264   2.166  12.150  0.0473 -0.6149 -0.3124
  486MPD2    H5 7288   2.240   2.125  12.060  0.0843  1.4670 -1.2689
  486MPD2    N1 7289   2.531   1.772  12.261  0.2471  0.3434 -0.0910
  486MPD2    H7 7290   2.611   1.740  12.314  0.0411 -0.3953 -0.2308
  487TMC3    C1 7291   2.496   1.539  12.245 -0.5558 -0.1065  0.8093
  487TMC3    C2 7292   2.420   1.435  12.199 -0.1023 -0.9180  0.3075
  487TMC3    C3 7293   2.421   1.309  12.258  0.0466  0.7557 -0.6086
  487TMC3    C4 7294   2.568   1.515  12.365  0.5543  0.3655  0.3178
  487TMC3    C5 7295   2.567   1.388  12.425 -0.2205  0.0490 -0.5189
  487TMC3    C6 7296   2.499   1.284  12.365  0.0818  0.0572  0.0357
  487TMC3     C 7297   2.456   1.670  12.205  0.6400 -0.0747 -0.4479
  487TMC3     O 7298   2.366   1.678  12.116 -0.5398  0.2908 -0.3017
  487TMC3     H 7299   2.352   1.451  12.116  0.7472 -1.7002 -0.5529
  487TMC3    H1 7300   2.625   1.584  12.426  0.3852  2.1874 -1.6011
  487TMC3    H2 7301   2.485   1.194  12.425 -1.9875  1.4448  1.6677
  487TMC3    C7 7302   2.598   1.382  12.572 -0.0442  0.9344  0.1922
  487TMC3    C8 7303   2.289   1.261  12.304 -0.0779 -0.1928  0.3058
  487TMC3    O1 7304   2.596   1.489  12.634 -0.2836  0.0664 -0.3109
  487TMC3    O2 7305   2.254   1.149  12.278 -0.1193 -0.1159 -0.0008
  488MPD2     C 7306   2.617   3.799  16.111 -0.7161 -0.1038  0.2205
  488MPD2    C1 7307   2.659   3.911  16.185 -0.8063 -0.3949 -0.0766
  488MPD2    C2 7308   2.661   3.893  16.327 -0.1660  0.5363  0.1549
  488MPD2    C3 7309   2.607   3.782  16.392  1.0304 -0.0339  0.0744
  488MPD2    C4 7310   2.568   3.672  16.314 -0.5116 -0.1024  0.7010
  488MPD2    C5 7311   2.566   3.687  16.181 -0.3978 -0.1494  0.4395
  488MPD2     H 7312   2.718   3.961  16.390 -0.7492  0.5106  0.7094
  488MPD2    H1 7313   2.528   3.590  16.374  0.7049 -1.3147 -0.1354
  488MPD2    H2 7314   2.605   3.791  16.004 -0.9853 -1.5210  0.3470
  488MPD2    H3 7315   2.526   3.613  16.113 -1.9490 -0.7007  1.9549
  488MPD2     N 7316   2.616   3.784  16.531 -0.1763  0.3763  0.7204
  488MPD2    H5 7317   2.676   3.853  16.574 -0.4542  1.1911 -0.1884
  488MPD2    N1 7318   2.686   4.036  16.128 -0.5220  0.2891 -0.3526
  488MPD2    H7 7319   2.671   4.117  16.187  0.4712 -0.2261  0.6201
  489TMC3    C1 7320   2.597   3.729  16.755 -0.7400 -0.2841 -0.0745
  489TMC3    C2 7321   2.690   3.822  16.778  0.1075 -0.0358 -0.1155
  489TMC3    C3 7322   2.674   3.901  16.886 -0.5161  0.5863 -0.4351
  489TMC3    C4 7323   2.506   3.683  16.848 -0.4639  1.1207  0.4131
  489TMC3    C5 7324   2.498   3.761  16.960  0.3274 -0.4155  0.4364
  489TMC3    C6 7325   2.572   3.878  16.975  0.6027 -0.7387 -0.0607
  489TMC3     C 7326   2.550   3.700  16.623 -0.0838 -0.4180 -0.3980
  489TMC3     O 7327   2.477   3.607  16.597 -0.2199  0.3718  0.2450
  489TMC3     H 7328   2.781   3.834  16.720 -0.8215  0.4453 -1.4665
  489TMC3    H1 7329   2.441   3.598  16.828  1.5294 -0.4504  0.5490
  489TMC3    H2 7330   2.571   3.927  17.071  1.3945  1.2409 -1.0742
  489TMC3    C7 7331   2.405   3.723  17.071  0.7667 -0.0991 -0.0733
  489TMC3    C8 7332   2.728   4.031  16.874  0.0647 -0.4588  0.7095
  489TMC3    O1 7333   2.372   3.816  17.139  0.0687 -0.2954  0.1911
  489TMC3    O2 7334   2.837   4.038  16.810  0.0892 -0.0828  0.1264
  490MPD2     C 7335   3.173   3.292  17.122  0.2435  0.2823 -0.3081
  490MPD2    C1 7336   3.173   3.204  17.228 -0.2075 -0.8385 -0.3863
  490MPD2    C2 7337   3.287   3.164  17.290  0.8684 -0.5530 -0.0606
  490MPD2    C3 7338   3.409   3.208  17.247 -0.2066 -0.4491 -0.7216
  490MPD2    C4 7339   3.409   3.286  17.135 -0.6297 -0.1588  0.3312
  490MPD2    C5 7340   3.295   3.333  17.079 -0.0272 -0.4045 -0.2592
  490MPD2     H 7341   3.278   3.092  17.370 -1.5031  0.2443  0.3766
  490MPD2    H1 7342   3.499   3.331  17.095  0.6143 -1.6243  1.5149
  490MPD2    H2 7343   3.086   3.346  17.088 -0.5723 -0.4454  0.6346
  490MPD2    H3 7344   3.293   3.402  16.996  1.5992  2.2580  1.9088
  490MPD2     N 7345   3.529   3.157  17.309  0.4339 -0.7893  0.4384
  490MPD2    H5 7346   3.607   3.172  17.245  0.9863  0.0056  1.2973
  490MPD2    N1 7347   3.053   3.150  17.282 -0.1165  0.4206 -0.5306
  490MPD2    H7 7348   3.050   3.089  17.363 -2.1944  1.9713  0.5634
  491TMC3    C1 7349   2.845   3.065  17.293  0.6679  0.0682  0.1882
  491TMC3    C2 7350   2.886   3.030  17.420 -0.5642 -0.0803 -0.5994
  491TMC3    C3 7351   2.899   2.898  17.459  0.0934  0.7772  0.3361
  491TMC3    C4 7352   2.792   2.966  17.215  0.5633  0.7111  0.1546
  491TMC3    C5 7353   2.801   2.836  17.260  0.4424 -0.5159 -0.0534
  491TMC3    C6 7354   2.860   2.794  17.377 -0.3909 -0.3298  0.0831
  491TMC3     C 7355   2.932   3.153  17.223 -0.3745  0.5382 -0.6786
  491TMC3     O 7356   2.895   3.182  17.111  0.0005 -0.5779  0.1985
  491TMC3     H 7357   2.932   3.104  17.484 -0.3510 -1.5828  0.9900
  491TMC3    H1 7358   2.759   2.982  17.113  0.0903  0.3451  0.2517
  491TMC3    H2 7359   2.866   2.688  17.395 -0.4653 -0.0223  1.9085
  491TMC3    C7 7360   2.729   2.735  17.193  0.7051  0.0412 -0.9055
  491TMC3    C8 7361   3.013   2.876  17.544  0.6878 -0.1980  0.4299
  491TMC3    O1 7362   2.748   2.616  17.224  0.2512 -0.4181 -0.0551
  491TMC3    O2 7363   3.005   2.893  17.664  0.3882 -0.6355 -0.0117
  492MPD2     C 7364   3.360   3.093  10.889 -0.1323  1.0210 -0.6899
  492MPD2    C1 7365   3.235   3.044  10.863 -0.4780 -0.2540  0.2885
  492MPD2    C2 7366   3.155   2.998  10.969  0.1436 -0.4937 -0.1238
  492MPD2    C3 7367   3.216   2.990  11.095 -0.3063 -0.3076 -0.4794
  492MPD2    C4 7368   3.344   3.034  11.116  0.1330  0.2126 -0.2327
  492MPD2    C5 7369   3.415   3.079  11.012 -0.2807  0.1619  0.2181
  492MPD2     H 7370   3.055   2.962  10.952 -0.9367  2.4778 -0.0119
  492MPD2    H1 7371   3.393   3.024  11.212 -0.2532  1.6936  0.1158
  492MPD2    H2 7372   3.420   3.138  10.811 -0.7672  0.0243 -1.7535
  492MPD2    H3 7373   3.503   3.132  11.048  0.1818 -0.2482 -0.3033
  492MPD2     N 7374   3.153   2.939  11.212 -0.0343  0.2514  0.2959
  492MPD2    H5 7375   3.210   2.933  11.296  1.2670  1.7680 -0.4756
  492MPD2    N1 7376   3.190   3.050  10.727 -0.1501 -0.3816 -0.0142
  492MPD2    H7 7377   3.258   3.064  10.653 -1.3673 -1.7137 -1.4072
  493TMC3    C1 7378   3.029   3.029  10.539 -0.2630 -0.6505 -0.3792
  493TMC3    C2 7379   3.130   3.022  10.449 -1.0040  0.1080  0.7857
  493TMC3    C3 7380   3.096   3.045  10.318 -0.3372 -0.0951 -0.4864
  493TMC3    C4 7381   2.900   3.042  10.498  0.4016 -0.1353 -0.0796
  493TMC3    C5 7382   2.868   3.062  10.366 -0.6223  0.1370 -0.0718
  493TMC3    C6 7383   2.970   3.071  10.276 -0.3573 -0.0505  0.4810
  493TMC3     C 7384   3.061   3.012  10.684  0.1150 -0.3109 -0.5408
  493TMC3     O 7385   2.961   2.983  10.746 -0.6166  0.1461 -0.3291
  493TMC3     H 7386   3.233   3.010  10.480  0.1356 -0.7082 -3.3807
  493TMC3    H1 7387   2.821   3.063  10.569  1.1172 -0.0644  0.6978
  493TMC3    H2 7388   2.958   3.090  10.170 -0.3877  2.2623  0.8892
  493TMC3    C7 7389   2.725   3.080  10.325  1.1233  0.3722  0.2033
  493TMC3    C8 7390   3.203   3.118  10.243 -0.0181  0.2081 -0.2572
  493TMC3    O1 7391   2.715   3.155  10.230  0.5918  0.2632  0.8341
  493TMC3    O2 7392   3.166   3.201  10.162 -0.2370  0.0120 -0.3318
  494TMC3    C1 7393   3.561   4.530   0.113 -0.2087  0.2267 -0.6840
  494TMC3    C2 7394   3.579   4.391   0.083 -0.7520  0.1514  0.1004
  494TMC3    C3 7395   3.588   4.365  17.696  0.0681  0.0252 -0.3427
  494TMC3    C4 7396   3.570   4.637   0.024  1.0222 -0.0194  0.1016
  494TMC3    C5 7397   3.598   4.594  17.642 -0.1807 -0.4407 -0.6917
  494TMC3    C6 7398   3.605   4.465  17.601 -0.2799  0.2563 -1.2092
  494TMC3     C 7399   3.592   4.570   0.248  0.0998 -0.0415 -0.8453
  494TMC3     O 7400   3.542   4.677   0.291 -0.4451  0.1956  0.3262
  494TMC3     H 7401   3.548   4.316   0.156  3.8438 -1.8100  0.0166
  494TMC3    H1 7402   3.571   0.000   0.062 -1.3775 -0.3749  1.0993
  494TMC3    H2 7403   3.606   4.438  17.496 -0.0058  1.2672 -1.4692
  494TMC3    C7 7404   3.690   4.672  17.565  0.0455  0.0323 -1.1349
  494TMC3    C8 7405   3.623   4.233  17.666 -1.4362 -0.4612 -0.3296
  494TMC3    O1 7406   3.752   4.605  17.486 -0.5026  0.1520  0.8288
  494TMC3    O2 7407   3.606   4.197  17.552 -0.6171  0.2916  0.2684
  495TMC3    C1 7408   3.313   2.465  14.510 -0.2538  0.6306 -0.0065
  495TMC3    C2 7409   3.233   2.459  14.402 -0.1190 -0.6050  0.8260
  495TMC3    C3 7410   3.095   2.473  14.418 -0.2473 -0.0330  0.9846
  495TMC3    C4 7411   3.262   2.471  14.635 -0.3053 -0.2091 -0.9509
  495TMC3    C5 7412   3.126   2.492  14.648  0.3597  0.1563 -0.1087
  495TMC3    C6 7413   3.041   2.491  14.544 -0.7558  0.4458  0.3125
  495TMC3     C 7414   3.421   2.373  14.494 -0.2880 -0.3134  0.0034
  495TMC3     O 7415   3.520   2.401  14.434  0.1298  0.0720 -0.0918
  495TMC3     H 7416   3.267   2.459  14.299  1.3000  0.2721  1.2943
  495TMC3    H1 7417   3.324   2.459  14.723 -3.5398 -0.0563  1.3578
  495TMC3    H2 7418   2.933   2.492  14.553 -0.4953  1.2402  3.2993
  495TMC3    C7 7419   3.078   2.457  14.780  0.5448 -0.4037  0.0884
  495TMC3    C8 7420   2.996   2.410  14.326  0.4766 -0.8322 -0.9371
  495TMC3    O1 7421   3.159   2.458  14.874  0.6340 -0.1543  0.2327
  495TMC3    O2 7422   2.889   2.467  14.312 -1.1087 -0.2541 -0.2498
  496MPD2     C 7423   4.679   2.105  15.082 -0.9368 -0.2137 -0.3301
  496MPD2    C1 7424   0.014   2.064  15.190  0.3066  0.1333  0.5081
  496MPD2    C2 7425   4.701   2.099  15.312 -0.5096 -0.4266 -0.6150
  496MPD2    C3 7426   4.580   2.168  15.323  0.3898 -0.4597 -0.3065
  496MPD2    C4 7427   4.504   2.201  15.218 -0.9064 -0.5764  0.5048
  496MPD2    C5 7428   4.552   2.161  15.097 -0.1570  0.0422 -0.2935
  496MPD2     H 7429   0.028   2.084  15.397 -0.7908 -2.9566 -0.8255
  496MPD2    H1 7430   4.421   2.271  15.217 -0.0621  0.3782 -1.9806
  496MPD2    H2 7431   4.709   2.093  14.979  0.0358  0.8978 -0.1882
  496MPD2    H3 7432   4.512   2.207  15.007  0.2710 -0.5890 -0.8046
  496MPD2     N 7433   4.535   2.218  15.446 -0.0848 -0.1755  0.3564
  496MPD2    H5 7434   4.439   2.252  15.447 -0.1933 -0.4849  0.3652
  496MPD2    N1 7435   0.134   1.996  15.164 -0.1485  0.0558  0.0623
  496MPD2    H7 7436   0.165   1.995  15.068  0.4411  0.5408  0.2523
  497TMC3    C1 7437   4.524   2.294  15.666  0.2203 -0.5653  0.5927
  497TMC3    C2 7438   4.453   2.405  15.631 -0.7462  0.4853 -0.8237
  497TMC3    C3 7439   4.395   2.477  15.736 -0.7702 -0.0425 -0.0797
  497TMC3    C4 7440   4.554   2.264  15.797 -0.5619  0.3128  0.1655
  497TMC3    C5 7441   4.496   2.340  15.893 -0.1906  0.3789 -0.5034
  497TMC3    C6 7442   4.409   2.445  15.869  0.3987  0.0405 -0.1784
  497TMC3     C 7443   4.602   2.226  15.568  0.2971 -0.2717  0.4855
  497TMC3     O 7444   4.710   2.180  15.601 -0.1482 -0.0411  0.0908
  497TMC3     H 7445   4.435   2.436  15.529 -0.5834  2.3422 -0.2897
  497TMC3    H1 7446   4.617   2.178  15.817 -1.4166 -0.0904  1.1401
  497TMC3    H2 7447   4.360   2.498  15.949  0.4900  0.0746 -0.1455
  497TMC3    C7 7448   4.511   2.289  16.031  0.2462  0.2020 -0.0794
  497TMC3    C8 7449   4.323   2.606  15.709  0.0033 -0.6643 -0.2733
  497TMC3    O1 7450   4.408   2.293  16.102 -0.5188  0.0431  0.0631
  497TMC3    O2 7451   4.326   2.687  15.800  0.0661 -0.5149 -0.0247
  498MPD2     C 7452   0.429   2.982   9.450 -0.4567  0.4373  0.0724
  498MPD2    C1 7453   0.502   2.944   9.560 -0.3671  0.0285 -0.0292
  498MPD2    C2 7454   0.518   2.811   9.584 -0.4698 -0.1169  0.2390
  498MPD2    C3 7455   0.454   2.715   9.511  0.7769 -0.2923  0.0235
  498MPD2    C4 7456   0.379   2.750   9.400 -1.4301  0.2916 -0.1509
  498MPD2    C5 7457   0.373   2.885   9.376  0.9782  0.0008  0.1721
  498MPD2     H 7458   0.585   2.771   9.660  0.4984 -0.0293 -0.5727
  498MPD2    H1 7459   0.324   2.682   9.337 -2.6483  0.1708  1.0322
  498MPD2    H2 7460   0.394   3.083   9.434  0.7912  0.7792 -0.4121
  498MPD2    H3 7461   0.315   2.906   9.287 -0.3062  0.7052  1.1673
  498MPD2     N 7462   0.460   2.581   9.562 -0.8355 -0.2848  0.9149
  498MPD2    H5 7463   0.510   2.559   9.648  0.4222  0.6006  0.4185
  498MPD2    N1 7464   0.560   3.032   9.655  0.2639 -0.5406  0.0659
  498MPD2    H7 7465   0.625   2.998   9.725  1.3403  0.1374 -0.5930
  499TMC3    C1 7466   0.623   3.229   9.763 -0.4523  0.3543 -0.3963
  499TMC3    C2 7467   0.624   3.165   9.883  0.1366  0.2889 -0.8446
  499TMC3    C3 7468   0.676   3.233   9.995  0.2799  0.2140  0.2848
  499TMC3    C4 7469   0.651   3.361   9.749 -0.2720 -0.4011 -0.2780
  499TMC3    C5 7470   0.703   3.432   9.859  0.2257 -0.2686  0.5242
  499TMC3    C6 7471   0.719   3.366   9.986  0.2379  0.2255  0.9106
  499TMC3     C 7472   0.561   3.169   9.649 -0.4347 -0.1418 -0.1740
  499TMC3     O 7473   0.502   3.245   9.573  0.1642  0.4059  0.2827
  499TMC3     H 7474   0.587   3.064   9.894  2.7204 -0.6907 -1.2079
  499TMC3    H1 7475   0.640   3.401   9.649  0.5874  1.1202  0.2237
  499TMC3    H2 7476   0.747   3.415  10.079  0.9464 -0.3956  1.0303
  499TMC3    C7 7477   0.752   3.569   9.838  0.5778  0.0662  0.4105
  499TMC3    C8 7478   0.674   3.160  10.119  0.2632  0.2546 -0.1169
  499TMC3    O1 7479   0.727   3.628   9.732 -0.1248  0.6586  0.0528
  499TMC3    O2 7480   0.605   3.061  10.130  0.3959 -0.0727 -0.1806
  500MPD2     C 7481   2.502   3.941  10.744  0.0797 -0.2989 -0.1450
  500MPD2    C1 7482   2.517   3.919  10.612 -0.4479 -0.1151 -0.1105
  500MPD2    C2 7483   2.415   3.955  10.531 -0.1102 -0.2088  0.3717
  500MPD2    C3 7484   2.307   4.034  10.578 -0.3269 -1.0878  0.5693
  500MPD2    C4 7485   2.304   4.065  10.710 -0.5555 -0.5541 -0.3057
  500MPD2    C5 7486   2.401   4.014  10.798 -0.5065 -0.0142 -0.9791
  500MPD2     H 7487   2.434   3.925  10.429  1.3924 -1.2350  0.9509
  500MPD2    H1 7488   2.227   4.131  10.749 -2.1129 -2.0623 -0.8492
  500MPD2    H2 7489   2.573   3.896  10.813 -0.2084 -0.0522  0.3107
  500MPD2    H3 7490   2.386   4.027  10.905  0.6664 -0.0625 -0.8146
  500MPD2     N 7491   2.209   4.097  10.502  0.6077  0.9499  0.0835
  500MPD2    H5 7492   2.142   4.157  10.550  0.4831 -1.1597  2.5555
  500MPD2    N1 7493   2.642   3.873  10.559 -0.5923 -0.2053  0.2572
  500MPD2    H7 7494   2.632   3.855  10.459  2.1151  1.8679 -0.3630
  501TMC3    C1 7495   2.875   3.832  10.536 -0.1181 -0.4972 -0.0912
  501TMC3    C2 7496   2.860   3.889  10.409  0.1515 -0.1773  0.1258
  501TMC3    C3 7497   2.967   3.898  10.335  0.6703  0.4612 -0.3583
  501TMC3    C4 7498   2.998   3.794  10.588 -0.1383 -0.1485  0.4310
  501TMC3    C5 7499   3.104   3.822  10.512 -0.5905 -0.3728  0.3223
  501TMC3    C6 7500   3.096   3.879  10.383 -0.3106 -0.1983 -0.5500
  501TMC3     C 7501   2.759   3.850  10.627  0.3184  0.4425  0.4339
  501TMC3     O 7502   2.782   3.849  10.747  0.0833  0.2291 -0.1351
  501TMC3     H 7503   2.768   3.929  10.368  0.4039  1.2066  0.9084
  501TMC3    H1 7504   3.008   3.759  10.690 -1.6776  3.6230  1.9085
  501TMC3    H2 7505   3.187   3.892  10.325 -1.7409  2.5091 -2.1515
  501TMC3    C7 7506   3.243   3.791  10.563 -0.2003 -0.4621  0.6476
  501TMC3    C8 7507   2.955   3.963  10.206  0.0011 -0.4019  0.2088
  501TMC3    O1 7508   3.265   3.698  10.642  0.1483 -0.5104 -0.5468
  501TMC3    O2 7509   2.863   3.936  10.128  0.2679 -0.5457 -0.4120
  502TMC3    C1 7510   2.504   3.125  14.970  0.3213 -0.1806  0.0234
  502TMC3    C2 7511   2.484   3.245  14.917  0.1921 -0.1191 -0.3708
  502TMC3    C3 7512   2.354   3.282  14.901  0.5273 -0.5958 -0.1491
  502TMC3    C4 7513   2.403   3.031  14.978  0.2784 -0.0634 -0.9398
  502TMC3    C5 7514   2.276   3.074  14.963 -0.5012 -0.3028 -0.0203
  502TMC3    C6 7515   2.248   3.196  14.929  0.0505  0.2402  0.5472
  502TMC3     C 7516   2.626   3.099  15.045  0.4718  0.3646  0.3434
  502TMC3     O 7517   2.721   3.175  15.033  0.2015 -0.5291 -0.1515
  502TMC3     H 7518   2.562   3.317  14.895  0.1634 -0.8429 -2.8656
  502TMC3    H1 7519   2.418   2.927  15.004  0.2934  0.3379  0.6275
  502TMC3    H2 7520   2.148   3.238  14.921 -0.0374 -0.0798 -0.0425
  502TMC3    C7 7521   2.170   2.988  15.007  0.0901  0.7613 -0.1136
  502TMC3    C8 7522   2.346   3.374  14.793  0.3100 -0.6013  0.3168
  502TMC3    O1 7523   2.194   2.870  15.000 -0.3002  0.2293  0.3798
  502TMC3    O2 7524   2.407   3.480  14.798  0.7638  0.0243  0.3453
  503MPD2     C 7525   4.174   3.279  17.083 -0.0845  0.6659  0.5377
  503MPD2    C1 7526   4.188   3.333  17.213  0.0502  1.1790  0.4831
  503MPD2    C2 7527   4.242   3.254  17.311 -0.6007 -0.2598 -0.2118
  503MPD2    C3 7528   4.281   3.122  17.282  0.7722  1.0408 -0.7335
  503MPD2    C4 7529   4.262   3.075  17.155 -1.1197  0.6269  0.2925
  503MPD2    C5 7530   4.213   3.155  17.054  0.7626  0.3267 -0.5638
  503MPD2     H 7531   4.248   3.295  17.411  1.2154 -1.6914  0.2656
  503MPD2    H1 7532   4.296   2.976  17.126  0.8292  1.1522  0.7712
  503MPD2    H2 7533   4.138   3.335  16.998 -1.5015  1.3580  1.5942
  503MPD2    H3 7534   4.205   3.115  16.954  1.6550 -1.1502 -0.0447
  503MPD2     N 7535   4.344   3.045  17.381 -0.0218 -0.6177  0.0184
  503MPD2    H5 7536   4.361   3.086  17.472 -1.2799 -0.6236  0.2585
  503MPD2    N1 7537   4.159   3.466  17.237 -0.0352 -0.0667  0.1111
  503MPD2    H7 7538   4.158   3.498  17.333  0.5395 -0.8158  0.3620
  504TMC3    C1 7539   4.488   2.883  17.455 -0.3960 -0.3937  0.1306
  504TMC3    C2 7540   4.483   2.934  17.581 -0.0951  0.3256  0.8048
  504TMC3    C3 7541   4.605   2.914  17.649 -0.0782 -0.4287 -0.2327
  504TMC3    C4 7542   4.595   2.825  17.396 -0.0930  0.0213  0.1678
  504TMC3    C5 7543   4.708   2.810  17.466  0.2302  0.3461 -0.4162
  504TMC3    C6 7544   4.717   2.851  17.595  0.0677  0.1855  0.2029
  504TMC3     C 7545   4.384   2.911  17.361  0.1542 -0.1587 -0.1231
  504TMC3     O 7546   4.346   2.828  17.278  1.0377 -0.7593  0.4186
  504TMC3     H 7547   4.390   2.968  17.625  0.5008  1.8857  0.8201
  504TMC3    H1 7548   4.584   2.780  17.298 -1.3664  3.2227 -1.1542
  504TMC3    H2 7549   0.073   2.835  17.646 -1.9063  3.5544  4.7997
  504TMC3    C7 7550   0.086   2.756  17.404  0.4316 -0.1294  0.6427
  504TMC3    C8 7551   4.620   2.934   0.043 -0.2891  0.1517 -0.2518
  504TMC3    O1 7552   0.083   2.766  17.282 -0.8704 -0.1895  0.4363
  504TMC3    O2 7553   4.732   2.904   0.081  0.3535  0.3510 -0.1146
  505MPD2     C 7554   4.373   2.073  10.470  0.0513  0.7102 -0.5284
  505MPD2    C1 7555   4.481   1.990  10.476 -0.2714  0.0160  0.1373
  505MPD2    C2 7556   4.591   2.023  10.550  0.7397  0.0736  0.1054
  505MPD2    C3 7557   4.603   2.142  10.610  1.2142 -0.5104  0.2439
  505MPD2    C4 7558   4.503   2.240  10.601  0.0642  0.0649  0.1075
  505MPD2    C5 7559   4.392   2.200  10.529 -0.1870 -0.2371 -0.4302
  505MPD2     H 7560   4.669   1.949  10.558 -0.8908 -1.8545 -1.6242
  505MPD2    H1 7561   4.511   2.333  10.656 -1.3219  0.6637 -0.7179
  505MPD2    H2 7562   4.284   2.026  10.432  0.6113 -0.9731  0.2208
  505MPD2    H3 7563   4.311   2.272  10.525 -0.1559 -0.1495  0.5019
  505MPD2     N 7564   4.725   2.167  10.668  0.1349 -0.9266  0.2179
  505MPD2    H5 7565   0.035   2.079  10.686 -1.2293 -1.2407  2.2545
  505MPD2    N1 7566   4.464   1.867  10.413  0.3970 -0.3126 -0.0552
  505MPD2    H7 7567   4.386   1.861  10.348  0.0342 -0.1706  0.3700
  506TMC3    C1 7568   4.517   1.633  10.371  0.3088 -0.2070 -0.2395
  506TMC3    C2 7569   4.522   1.655  10.233  0.3735 -0.0300  0.2932
  506TMC3    C3 7570   4.610   1.578  10.160  0.0079 -0.4925  0.0502
  506TMC3    C4 7571   4.582   1.527  10.422  0.0021 -0.1393  0.2332
  506TMC3    C5 7572   4.656   1.444  10.340 -0.0782 -0.4106  0.6833
  506TMC3    C6 7573   4.682   1.471  10.206  0.3584  0.1205  0.2348
  506TMC3     C 7574   4.527   1.751  10.458 -0.3244  0.1909  0.1541
  506TMC3     O 7575   4.577   1.734  10.569  0.6715  0.1442  0.2123
  506TMC3     H 7576   4.473   1.736  10.180  2.0856  0.4406 -0.5549
  506TMC3    H1 7577   4.557   1.500  10.524  0.1130  1.1713  0.6086
  506TMC3    H2 7578   0.015   1.418  10.145  1.3961 -1.0149  2.4078
  506TMC3    C7 7579   0.032   1.398  10.411  0.9446  0.5141 -0.4024
  506TMC3    C8 7580   4.670   1.655  10.049  0.1340  0.9156  0.5882
  506TMC3    O1 7581   0.095   1.303  10.374  0.2115  0.2956  0.2300
  506TMC3    O2 7582   4.644   1.778  10.045  0.1273 -0.0450 -0.0281
  507TMC3    C1 7583   0.921   3.374  14.727 -0.1161  0.4005  0.2799
  507TMC3    C2 7584   0.943   3.296  14.619 -0.3799 -0.5565  0.3627
  507TMC3    C3 7585   0.937   3.361  14.499  0.0196  0.1814 -0.3844
  507TMC3    C4 7586   0.909   3.512  14.726  0.7024 -0.5050  0.8650
  507TMC3    C5 7587   0.929   3.578  14.612 -0.5431  0.5811  0.2860
  507TMC3    C6 7588   0.953   3.496  14.498  0.6196 -0.2007 -0.0709
  507TMC3     C 7589   0.827   3.310  14.820 -0.5626  0.0091 -0.3728
  507TMC3     O 7590   0.813   3.356  14.935 -0.2153 -0.1579  0.6579
  507TMC3     H 7591   0.957   3.189  14.616 -0.9113 -0.6497  1.5772
  507TMC3    H1 7592   0.853   3.566  14.801 -1.5771 -2.5954  0.6463
  507TMC3    H2 7593   0.966   3.552  14.406 -1.0971 -0.2065 -0.3105
  507TMC3    C7 7594   0.852   3.700  14.590 -0.0161  0.4492 -0.0708
  507TMC3    C8 7595   0.808   3.322  14.437 -0.4188  0.2570 -0.5586
  507TMC3    O1 7596   0.813   3.704  14.475  0.2518  0.4444 -0.6857
  507TMC3    O2 7597   0.780   3.205  14.448  0.1944  0.0500 -0.4689
  508MPD2     C 7598   1.553   0.744  15.984 -0.0870 -0.7641 -0.6832
  508MPD2    C1 7599   1.680   0.801  15.992  0.0253  0.1488  0.0726
  508MPD2    C2 7600   1.718   0.878  15.887 -0.2935  0.4294 -0.1979
  508MPD2    C3 7601   1.633   0.898  15.774 -0.2826  0.4648 -0.3832
  508MPD2    C4 7602   1.505   0.839  15.776  0.6011  0.0929 -0.6551
  508MPD2    C5 7603   1.472   0.757  15.880  0.1982  0.2994  0.2860
  508MPD2     H 7604   1.802   0.945  15.901  0.5382 -0.7197  0.3137
  508MPD2    H1 7605   1.430   0.850  15.698  0.7099 -0.3098 -0.8195
  508MPD2    H2 7606   1.517   0.678  16.062  2.3914 -1.4673 -0.1628
  508MPD2    H3 7607   1.375   0.709  15.884  0.2836  0.2253  1.4008
  508MPD2     N 7608   1.683   0.979  15.668  0.1778 -0.1794  0.2322
  508MPD2    H5 7609   1.761   1.039  15.694 -0.0084 -0.1084  0.6238
  508MPD2    N1 7610   1.754   0.777  16.112 -0.7523 -0.4645 -1.3957
  508MPD2    H7 7611   1.712   0.718  16.184 -1.3093 -0.3745 -1.6442
  509TMC3    C1 7612   1.673   1.289  15.326  0.5930 -0.7975 -0.0899
  509TMC3    C2 7613   1.804   1.317  15.353  0.0493 -0.7442  0.2610
  509TMC3    C3 7614   1.879   1.241  15.441 -0.5097  0.0377  0.5115
  509TMC3    C4 7615   1.611   1.187  15.388  0.5649  0.0196  0.9888
  509TMC3    C5 7616   1.688   1.111  15.474  0.1346 -0.2118  0.3593
  509TMC3    C6 7617   1.823   1.135  15.498 -0.7975 -0.9941 -0.0386
  509TMC3     C 7618   1.575   1.393  15.282  0.7575  0.7780  0.2023
  509TMC3     O 7619   1.462   1.374  15.328  0.2054  0.0798  0.0547
  509TMC3     H 7620   1.851   1.402  15.305  1.6210 -2.0179 -0.4665
  509TMC3    H1 7621   1.520   1.150  15.342  0.0626  1.9912  0.3714
  509TMC3    H2 7622   1.882   1.064  15.554 -2.0564 -1.0138  1.2225
  509TMC3    C7 7623   1.625   1.003  15.541 -0.3781  0.2191 -0.1017
  509TMC3    C8 7624   2.021   1.264  15.459  0.4409 -0.1116 -0.2008
  509TMC3    O1 7625   1.516   0.970  15.500  0.5339 -0.3198  0.7158
  509TMC3    O2 7626   2.087   1.165  15.475 -0.3039  0.1861  0.5183
  510MPD2     C 7627   4.131   2.652  14.615 -0.3322 -0.3345  0.1315
  510MPD2    C1 7628   4.205   2.551  14.662  0.2288 -0.5118 -0.7886
  510MPD2    C2 7629   4.327   2.516  14.608 -0.1435  0.5122  0.1592
  510MPD2    C3 7630   4.392   2.593  14.520  0.5173  0.0248  0.2306
  510MPD2    C4 7631   4.324   2.704  14.479  0.1476  0.2902 -0.8543
  510MPD2    C5 7632   4.196   2.733  14.529  0.3200  0.0506 -0.3992
  510MPD2     H 7633   4.380   2.432  14.651 -1.2349 -0.0036  0.4823
  510MPD2    H1 7634   4.365   2.777  14.409  1.4312 -1.4447 -1.8980
  510MPD2    H2 7635   4.037   2.675  14.663 -0.2458 -0.2089  0.2396
  510MPD2    H3 7636   4.146   2.823  14.497 -0.3073  0.9857  3.2608
  510MPD2     N 7637   4.523   2.563  14.491  0.1828  0.4133  0.3520
  510MPD2    H5 7638   4.557   2.480  14.537 -0.5639  0.3346  0.7622
  510MPD2    N1 7639   4.137   2.464  14.757 -0.4431  0.0753  0.1959
  510MPD2    H7 7640   4.035   2.464  14.761 -0.4950  0.9131 -1.2650
  511TMC3    C1 7641   4.089   2.273  14.885  0.2027 -0.1205 -0.2799
  511TMC3    C2 7642   3.979   2.336  14.930 -0.0876 -0.2720 -0.1306
  511TMC3    C3 7643   3.889   2.252  14.989  0.0922  0.2024  1.1112
  511TMC3    C4 7644   4.105   2.137  14.887  0.7470 -0.7175  0.6229
  511TMC3    C5 7645   4.008   2.052  14.938  0.0722 -0.1730 -0.4046
  511TMC3    C6 7646   3.900   2.110  14.994  0.2270 -0.1681  0.2638
  511TMC3     C 7647   4.191   2.354  14.824  0.8395 -0.1260 -0.0021
  511TMC3     O 7648   4.301   2.309  14.820 -0.5012 -0.3956 -0.5408
  511TMC3     H 7649   3.969   2.443  14.944  0.5766 -0.1110 -0.8239
  511TMC3    H1 7650   4.199   2.089  14.862  2.1364  2.1688  0.3341
  511TMC3    H2 7651   3.819   2.049  15.033 -0.8433 -0.6431 -2.7407
  511TMC3    C7 7652   3.990   1.936  14.858  0.0210  0.3553  0.2165
  511TMC3    C8 7653   3.776   2.317  15.054  0.9564  0.6863  0.0257
  511TMC3    O1 7654   4.050   1.933  14.753  0.5134 -0.3699  0.1138
  511TMC3    O2 7655   3.746   2.433  15.031  0.8895  0.5541 -0.1818
  512TMC3    C1 7656   3.098   2.099  13.390  0.6275 -0.6782  0.5473
  512TMC3    C2 7657   3.191   2.038  13.475  0.2367  0.1707 -0.6892
  512TMC3    C3 7658   3.204   1.900  13.459 -0.3179  0.0926 -0.6360
  512TMC3    C4 7659   3.007   2.024  13.315  0.1593 -0.6555  0.0922
  512TMC3    C5 7660   3.037   1.891  13.297  0.1536 -0.3641  0.4942
  512TMC3    C6 7661   3.138   1.828  13.366 -0.7061  0.0517  0.0529
  512TMC3     C 7662   3.078   2.243  13.388 -0.2704  0.0212  0.6962
  512TMC3     O 7663   2.969   2.285  13.347 -0.0220 -0.0627 -0.1219
  512TMC3     H 7664   3.244   2.083  13.557 -0.3917 -0.0768 -0.1510
  512TMC3    H1 7665   2.935   2.069  13.247  0.0793  0.4224  0.8941
  512TMC3    H2 7666   3.179   1.730  13.343 -1.1591 -0.6600  2.2643
  512TMC3    C7 7667   2.991   1.828  13.174  0.2455 -0.1890 -0.0823
  512TMC3    C8 7668   3.313   1.828  13.524 -0.3931 -0.4866 -0.1644
  512TMC3    O1 7669   2.904   1.896  13.116 -0.1351 -0.0422 -0.5121
  512TMC3    O2 7670   3.300   1.712  13.545 -0.7296 -0.4055 -0.3423
  513MPD2     C 7671   0.435   2.149  13.554  0.3805 -0.2950  0.2730
  513MPD2    C1 7672   0.463   2.163  13.423 -0.1148 -0.3884 -0.5338
  513MPD2    C2 7673   0.590   2.210  13.384  0.2330  0.3278 -0.4174
  513MPD2    C3 7674   0.689   2.226  13.485  0.1899  0.8116 -0.7747
  513MPD2    C4 7675   0.660   2.200  13.618  0.2698  0.0079 -0.3296
  513MPD2    C5 7676   0.524   2.177  13.654 -0.5448 -0.5226  0.3171
  513MPD2     H 7677   0.623   2.224  13.282  0.8769 -0.9984 -0.3838
  513MPD2    H1 7678   0.729   2.225  13.699 -0.2793 -0.9894  0.4489
  513MPD2    H2 7679   0.333   2.126  13.584 -0.2439 -0.0140 -1.6198
  513MPD2    H3 7680   0.493   2.160  13.757  0.9289  1.7832  1.1384
  513MPD2     N 7681   0.818   2.262  13.438 -0.6493  0.3527  0.3811
  513MPD2    H5 7682   0.827   2.265  13.337 -0.0342  1.7547  0.4774
  513MPD2    N1 7683   0.370   2.128  13.324 -0.4071  0.1250 -0.4109
  513MPD2    H7 7684   0.402   2.158  13.233 -1.5755  0.2345 -0.7868
  514TMC3    C1 7685   0.208   2.029  13.200 -0.2478  0.3130 -0.1488
  514TMC3    C2 7686   0.123   2.098  13.107 -0.5834 -0.3449  0.0114
  514TMC3    C3 7687   0.122   2.054  12.977  0.4777 -0.2622  0.2866
  514TMC3    C4 7688   0.295   1.931  13.145 -0.3749  0.0102  0.3868
  514TMC3    C5 7689   0.288   1.897  13.007  0.0687  0.0749  0.5542
  514TMC3    C6 7690   0.209   1.960  12.920  0.3756  0.1573 -0.0427
  514TMC3     C 7691   0.241   2.080  13.331  0.3977  0.3260 -0.1909
  514TMC3     O 7692   0.170   2.033  13.417 -0.0127  0.5363 -0.1026
  514TMC3     H 7693   0.061   2.182  13.136 -1.5619 -0.9766 -0.2475
  514TMC3    H1 7694   0.345   1.869  13.219  0.3239  0.5255  0.3448
  514TMC3    H2 7695   0.212   1.929  12.816 -1.6508  0.4578 -0.1843
  514TMC3    C7 7696   0.407   1.861  12.942 -0.6567  0.4034  0.0735
  514TMC3    C8 7697   0.056   2.136  12.880  0.6473 -0.1586 -0.1166
  514TMC3    O1 7698   0.395   1.781  12.853 -0.2607  0.4627 -0.1917
  514TMC3    O2 7699   4.702   2.211  12.909  0.3015  0.2068  0.3524
  515MPD2     C 7700   3.075   4.132  14.427  0.2402 -0.2223 -0.3171
  515MPD2    C1 7701   3.153   4.025  14.427 -0.1188  0.1461  0.4800
  515MPD2    C2 7702   3.260   4.016  14.521  0.9115  0.4910  0.1392
  515MPD2    C3 7703   3.284   4.115  14.605 -0.7599 -0.1181  0.4156
  515MPD2    C4 7704   3.200   4.222  14.607  0.0866 -0.3348 -0.1161
  515MPD2    C5 7705   3.103   4.237  14.516  0.0400  0.1640 -0.2023
  515MPD2     H 7706   3.323   3.929  14.508 -0.2327 -0.5764  1.7208
  515MPD2    H1 7707   3.234   4.306  14.667  2.4738  0.2057 -2.2530
  515MPD2    H2 7708   2.996   4.152  14.356 -0.2982  1.9576  0.9047
  515MPD2    H3 7709   3.037   4.323  14.515  0.1479  0.2495 -0.0000
  515MPD2     N 7710   3.397   4.098  14.684 -0.4414 -0.1764 -0.6538
  515MPD2    H5 7711   3.470   4.034  14.654  0.9336  1.3626 -0.5187
  515MPD2    N1 7712   3.134   3.916  14.345 -0.0942 -0.1323  0.0983
  515MPD2    H7 7713   3.207   3.846  14.354 -1.2067 -1.4687 -1.3292
  516TMC3    C1 7714   3.016   3.756  14.229  0.2361 -0.3037  0.3333
  516TMC3    C2 7715   2.966   3.736  14.108  0.1023  0.4478 -0.2291
  516TMC3    C3 7716   2.900   3.620  14.082  0.5680 -0.5395  0.5447
  516TMC3    C4 7717   3.002   3.663  14.326 -0.1869  0.2219  0.1874
  516TMC3    C5 7718   2.924   3.551  14.300  0.2468  0.0470 -0.8394
  516TMC3    C6 7719   2.878   3.518  14.171  0.0336  0.4298  0.3429
  516TMC3     C 7720   3.027   3.893  14.264 -0.1427 -0.1207 -1.1403
  516TMC3     O 7721   2.927   3.967  14.256  0.6273 -0.4411 -0.5056
  516TMC3     H 7722   2.969   3.818  14.036 -3.8002  1.0016  0.2593
  516TMC3    H1 7723   3.048   3.671  14.424 -1.5993  0.2921  0.8431
  516TMC3    H2 7724   2.817   3.435  14.138  0.7101  0.4785 -1.0528
  516TMC3    C7 7725   2.889   3.463  14.411 -0.4227  0.3619  0.4688
  516TMC3    C8 7726   2.852   3.595  13.950 -0.1572 -0.6276  0.8425
  516TMC3    O1 7727   2.942   3.478  14.519 -0.4513 -0.1031 -0.0076
  516TMC3    O2 7728   2.758   3.519  13.932  0.2487 -0.2261  0.1234
  517MPD2     C 7729   2.913   0.189   0.384  0.6175 -0.0840  0.0875
  517MPD2    C1 7730   2.956   0.256   0.271  0.2808 -0.2901  0.2475
  517MPD2    C2 7731   2.991   0.389   0.271 -0.1129  0.1285 -0.3693
  517MPD2    C3 7732   3.007   0.453   0.387  0.2941 -0.0598 -0.3016
  517MPD2    C4 7733   2.962   0.385   0.507 -0.4954  0.5857  0.3356
  517MPD2    C5 7734   2.900   0.262   0.500 -0.5588 -0.1623 -0.6887
  517MPD2     H 7735   3.006   0.430   0.171 -0.2604 -2.4047 -1.4217
  517MPD2    H1 7736   2.956   0.443   0.598 -3.7056 -1.1871  1.2669
  517MPD2    H2 7737   2.891   0.083   0.390 -0.4115  0.1669  0.7313
  517MPD2    H3 7738   2.853   0.225   0.590 -0.3871  2.3049  0.4038
  517MPD2     N 7739   3.033   0.591   0.407 -0.0362 -0.5604 -0.2022
  517MPD2    H5 7740   3.024   0.624   0.503  1.9701  1.1659 -0.6078
  517MPD2    N1 7741   2.963   0.195   0.147  0.2870  0.3756  0.8753
  517MPD2    H7 7742   2.998   0.245   0.065 -2.2703  1.0182  0.1793
  518TMC3    C1 7743   2.911   0.029  17.740 -0.5188  0.1503  0.5221
  518TMC3    C2 7744   2.834   4.646  17.715  0.0844 -0.4110 -0.4385
  518TMC3    C3 7745   2.843   4.600  17.588 -0.3557 -0.5334 -0.4236
  518TMC3    C4 7746   2.984   0.097  17.644  0.7912  0.3260 -0.2475
  518TMC3    C5 7747   3.000   0.025  17.527  0.0211 -0.7670  0.1773
  518TMC3    C6 7748   2.925   4.650  17.493 -0.4737 -0.0180  0.1082
  518TMC3     C 7749   2.922   0.068   0.125  0.1468  0.8708  0.3759
  518TMC3     O 7750   2.872   4.725   0.202  0.6429 -0.0779 -0.1859
  518TMC3     H 7751   2.773   4.603   0.044 -0.1213  1.0329  0.1780
  518TMC3    H1 7752   3.045   0.186  17.652  0.8408  0.2307  0.4164
  518TMC3    H2 7753   2.924   4.617  17.389  1.6904  1.1730 -0.3059
  518TMC3    C7 7754   3.127   0.045  17.459 -0.4206 -0.1456  0.6715
  518TMC3    C8 7755   2.791   4.467  17.569  0.1027 -0.2992 -0.2158
  518TMC3    O1 7756   3.180   0.155  17.469 -0.1337  0.2404  0.1458
  518TMC3    O2 7757   2.826   4.414  17.467 -0.2077 -0.0902 -0.0258
  519MPD2     C 7758   4.651   3.553  14.649  0.5834  0.0592 -0.5123
  519MPD2    C1 7759   4.555   3.548  14.551 -0.0916 -0.0757  0.3432
  519MPD2    C2 7760   4.576   3.455  14.452  0.0427  0.2708 -0.1685
  519MPD2    C3 7761   4.682   3.368  14.453  0.0909 -0.1623 -0.9140
  519MPD2    C4 7762   0.043   3.377  14.555 -0.2785 -0.5651  0.2343
  519MPD2    C5 7763   0.022   3.474  14.651  0.0458  0.2255 -0.0470
  519MPD2     H 7764   4.500   3.445  14.375  0.1093  4.6645 -0.8343
  519MPD2    H1 7765   0.119   3.301  14.564 -0.2434 -0.3554  1.7340
  519MPD2    H2 7766   4.638   3.615  14.736 -1.5921 -0.3785 -0.5229
  519MPD2    H3 7767   0.097   3.479  14.729 -1.1342  0.2078  1.0734
  519MPD2     N 7768   4.707   3.278  14.343 -0.1803  0.5116 -0.2079
  519MPD2    H5 7769   0.047   3.214  14.353 -0.8662  0.2161  3.1366
  519MPD2    N1 7770   4.445   3.635  14.557 -0.4736 -0.3522  0.5427
  519MPD2    H7 7771   4.451   3.716  14.617  0.1815  0.4474 -0.5911
  520TMC3    C1 7772   4.701   3.186  14.130  0.2500  0.3392  0.5561
  520TMC3    C2 7773   4.618   3.166  14.022 -0.2103 -0.2611 -0.0798
  520TMC3    C3 7774   4.681   3.107  13.918 -0.1277  0.0598 -0.1188
  520TMC3    C4 7775   0.101   3.156  14.134 -1.1265  0.2647  0.1766
  520TMC3    C5 7776   0.159   3.114  14.017 -0.2459 -0.0589 -0.1017
  520TMC3    C6 7777   0.082   3.074  13.914 -0.2711 -0.2971  0.3650
  520TMC3     C 7778   4.647   3.287  14.221 -0.4849  0.4391 -0.2173
  520TMC3     O 7779   4.554   3.356  14.180  0.6059 -0.3795 -0.4785
  520TMC3     H 7780   4.512   3.190  14.027 -0.7170 -2.4831 -0.3800
  520TMC3    H1 7781   0.172   3.179  14.213 -1.9399 -0.5798  1.1644
  520TMC3    H2 7782   0.116   3.023  13.824  1.0348 -1.8648  1.7361
  520TMC3    C7 7783   0.302   3.108  14.019  0.3921 -0.0780 -0.2888
  520TMC3    C8 7784   4.608   3.062  13.803  0.1609 -0.4987 -0.3739
  520TMC3    O1 7785   0.359   3.087  14.125 -0.0083 -0.4807  0.1823
  520TMC3    O2 7786   4.673   3.027  13.705  0.2157  0.6710 -0.4075
  521MPD2     C 7787   0.682   1.081  17.614 -0.3245  0.4724 -0.6545
  521MPD2    C1 7788   0.617   1.064  17.492 -0.1277  0.8248 -0.1413
  521MPD2    C2 7789   0.685   1.056  17.373  0.2462 -0.7135 -0.7057
  521MPD2    C3 7790   0.826   1.058  17.372 -0.7193 -0.2472  0.5342
  521MPD2    C4 7791   0.886   1.060  17.494  0.3338  0.3773  0.2077
  521MPD2    C5 7792   0.817   1.076  17.611 -0.0448 -0.2863  0.0378
  521MPD2     H 7793   0.638   1.035  17.278 -1.0201  1.7397 -0.6335
  521MPD2    H1 7794   0.993   1.055  17.506  0.2502 -1.8844 -0.0622
  521MPD2    H2 7795   0.627   1.097  17.706 -1.8549  0.9032 -1.6277
  521MPD2    H3 7796   0.875   1.089  17.702  0.6876  2.9170 -0.8992
  521MPD2     N 7797   0.909   1.042  17.260  0.5888 -0.4150 -0.3095
  521MPD2    H5 7798   0.858   1.039  17.172  2.7160 -1.8910 -1.4934
  521MPD2    N1 7799   0.477   1.062  17.499 -0.6834  0.8853 -0.1470
  521MPD2    H7 7800   0.434   1.055  17.590 -0.9875 -0.7366 -0.4062
  522TMC3    C1 7801   1.108   1.008  17.130 -0.1844 -0.1532 -0.4250
  522TMC3    C2 7802   1.219   0.934  17.144 -0.6734 -0.2167  0.0967
  522TMC3    C3 7803   1.331   0.954  17.068 -0.2705 -0.0925 -0.2326
  522TMC3    C4 7804   1.109   1.113  17.045  0.2899 -0.1138 -0.4559
  522TMC3    C5 7805   1.227   1.142  16.982 -0.5881 -0.0632 -0.8048
  522TMC3    C6 7806   1.341   1.063  16.990  0.0245  0.0540  0.3344
  522TMC3     C 7807   1.045   1.044  17.259  0.1753 -1.1162  0.5380
  522TMC3     O 7808   1.113   1.104  17.340  0.6236  0.0808  0.5903
  522TMC3     H 7809   1.212   0.848  17.210  0.4131 -1.4303 -1.3537
  522TMC3    H1 7810   1.037   1.188  17.076  0.8096  0.6638 -1.1305
  522TMC3    H2 7811   1.426   1.082  16.926 -2.9922  1.3158 -3.3018
  522TMC3    C7 7812   1.244   1.253  16.889  0.1437 -0.0156 -0.1284
  522TMC3    C8 7813   1.451   0.863  17.085  0.1517  0.8489 -0.1189
  522TMC3    O1 7814   1.357   1.294  16.860  0.1840 -0.3046 -0.5168
  522TMC3    O2 7815   1.464   0.806  17.193 -0.3153  0.2313 -0.1559
  523MPD2     C 7816   3.647   1.333  10.752 -0.4645 -1.2115 -0.2870
  523MPD2    C1 7817   3.619   1.345  10.617  0.1337  0.3625 -0.9524
  523MPD2    C2 7818   3.595   1.470  10.563 -0.4616  0.0676  0.5738
  523MPD2    C3 7819   3.607   1.585  10.641 -1.0334  0.3081  0.1823
  523MPD2    C4 7820   3.644   1.571  10.770 -0.3431  0.3329  0.5060
  523MPD2    C5 7821   3.656   1.446  10.830  0.1729 -0.2518  1.2959
  523MPD2     H 7822   3.568   1.473  10.458 -1.6706 -0.6634  0.8718
  523MPD2    H1 7823   3.660   1.659  10.831  0.2504 -0.5554  1.6197
  523MPD2    H2 7824   3.661   1.237  10.800  0.7768  0.0249  1.8277
  523MPD2    H3 7825   3.694   1.431  10.931 -1.0404  0.1848  1.8194
  523MPD2     N 7826   3.561   1.708  10.593  0.0977  0.5256 -0.6126
  523MPD2    H5 7827   3.582   1.790  10.650  0.0989 -0.3004  0.5872
  523MPD2    N1 7828   3.609   1.224  10.549  0.4420  0.0829  0.1391
  523MPD2    H7 7829   3.621   1.140  10.606 -0.9646 -0.2106 -0.0093
  524TMC3    C1 7830   3.458   1.855  10.456  0.3099  0.0472  0.0890
  524TMC3    C2 7831   3.473   1.907  10.326 -0.6199 -0.1759 -0.1779
  524TMC3    C3 7832   3.476   2.044  10.319 -0.1801 -0.8771  0.6511
  524TMC3    C4 7833   3.423   1.931  10.569  0.0688 -0.0174  0.2701
  524TMC3    C5 7834   3.411   2.065  10.546  0.6717 -0.3601  0.7614
  524TMC3    C6 7835   3.450   2.128  10.425  0.3973  0.6263  0.0979
  524TMC3     C 7836   3.498   1.721  10.468 -0.4229 -0.3343 -0.1223
  524TMC3     O 7837   3.492   1.654  10.367 -0.8376 -0.3726 -0.4297
  524TMC3     H 7838   3.517   1.848  10.246  0.0906 -1.3035  1.0491
  524TMC3    H1 7839   3.380   1.880  10.654  3.8488 -1.7515  1.0913
  524TMC3    H2 7840   3.443   2.235  10.408  1.3766  0.5376 -0.8830
  524TMC3    C7 7841   3.305   2.124  10.621  0.4188 -0.3958  0.0845
  524TMC3    C8 7842   3.458   2.100  10.183  0.4344 -0.2422  0.4073
  524TMC3    O1 7843   3.266   2.065  10.719  0.4500 -0.1990 -0.2669
  524TMC3    O2 7844   3.378   2.195  10.182 -0.1700 -0.0485 -0.1456
  525MPD2     C 7845   1.155   3.177  14.198 -0.0079 -0.4302  0.1948
  525MPD2    C1 7846   1.247   3.217  14.293 -0.1926 -0.6277 -0.2702
  525MPD2    C2 7847   1.263   3.356  14.320 -0.0345  0.1183  0.5572
  525MPD2    C3 7848   1.201   3.452  14.245  0.1324  0.0526  0.5439
  525MPD2    C4 7849   1.112   3.406  14.147  0.5822 -0.1494 -0.5289
  525MPD2    C5 7850   1.082   3.275  14.129 -0.3315  0.1902 -0.1334
  525MPD2     H 7851   1.328   3.382  14.403  0.9030  2.1149 -0.7822
  525MPD2    H1 7852   1.055   3.482  14.095  0.3262  0.5016  0.7057
  525MPD2    H2 7853   1.120   3.076  14.179 -1.0107 -0.3251  1.5235
  525MPD2    H3 7854   1.007   3.249  14.055 -2.4330  2.9449  1.0558
  525MPD2     N 7855   1.220   3.593  14.263  0.6083 -0.6544 -0.2369
  525MPD2    H5 7856   1.258   3.626  14.352 -1.0099 -0.2744  0.3261
  525MPD2    N1 7857   1.339   3.129  14.354  0.6135  0.2990 -0.0642
  525MPD2    H7 7858   1.417   3.167  14.406 -0.8039  0.3849  1.9871
  526TMC3    C1 7859   1.400   2.932  14.464  0.3302  0.2718 -0.2211
  526TMC3    C2 7860   1.355   2.836  14.555  0.1426  0.3826  0.1401
  526TMC3    C3 7861   1.455   2.767  14.616 -0.0576  0.5412  0.1587
  526TMC3    C4 7862   1.535   2.949  14.434  0.8763  0.3200 -0.3836
  526TMC3    C5 7863   1.622   2.867  14.498 -0.6602 -0.2273  0.1005
  526TMC3    C6 7864   1.589   2.774  14.591  0.6256  0.4098 -0.6375
  526TMC3     C 7865   1.297   3.007  14.394 -0.0258 -0.2329 -0.5798
  526TMC3     O 7866   1.180   2.969  14.400  0.4361 -0.1462  0.1994
  526TMC3     H 7867   1.254   2.836  14.594  0.0238 -0.5515 -0.1582
  526TMC3    H1 7868   1.567   3.024  14.363  0.4250  0.1552 -0.7591
  526TMC3    H2 7869   1.656   2.711  14.648  2.0241  1.5102 -1.0815
  526TMC3    C7 7870   1.760   2.882  14.458 -0.6438  0.0370  0.2229
  526TMC3    C8 7871   1.429   2.715  14.746  0.4608 -0.9556  0.4076
  526TMC3    O1 7872   1.780   2.973  14.382  0.2255 -0.2418  0.3522
  526TMC3    O2 7873   1.512   2.733  14.833 -0.2080 -0.3976  0.1149
  527MPD2     C 7874   3.427   1.129   0.963 -0.0478  0.0290  0.3238
  527MPD2    C1 7875   3.434   0.993   0.973  0.6916  0.4378  0.0764
  527MPD2    C2 7876   3.544   0.928   0.916 -0.4261 -0.4354  0.3410
  527MPD2    C3 7877   3.640   0.991   0.847 -0.1177  1.0027  1.0900
  527MPD2    C4 7878   3.633   1.129   0.841 -0.8579  0.4079 -0.7479
  527MPD2    C5 7879   3.527   1.200   0.902  0.1650  0.6963 -0.3221
  527MPD2     H 7880   3.543   0.820   0.922 -0.4082 -0.3867  1.2122
  527MPD2    H1 7881   3.695   1.195   0.781  1.2801  1.5204  2.7170
  527MPD2    H2 7882   3.347   1.186   1.009  1.1759  1.2997  0.8881
  527MPD2    H3 7883   3.525   1.308   0.889  0.6423  0.4519 -2.4547
  527MPD2     N 7884   3.737   0.919   0.784  0.0008 -0.5899 -0.5019
  527MPD2    H5 7885   3.722   0.819   0.793  0.5049 -0.5610  0.6836
  527MPD2    N1 7886   3.337   0.909   1.028 -0.4464  0.2482 -0.2814
  527MPD2    H7 7887   3.350   0.808   1.020  1.2789  0.4433 -0.0688
  528TMC3    C1 7888   3.123   0.849   1.103  0.4871 -0.2638 -0.7239
  528TMC3    C2 7889   3.144   0.720   1.054  0.0673  0.5164 -0.4573
  528TMC3    C3 7890   3.035   0.636   1.060 -0.3175  0.1904  0.0230
  528TMC3    C4 7891   3.003   0.891   1.161  1.0072  0.1154  0.4706
  528TMC3    C5 7892   2.905   0.796   1.174 -0.7454  0.0010  0.7070
  528TMC3    C6 7893   2.917   0.672   1.115 -0.1906  0.0115 -0.8081
  528TMC3     C 7894   3.219   0.957   1.067 -0.0131  0.1353  0.1580
  528TMC3     O 7895   3.175   1.069   1.053 -0.0806  0.3318 -0.2388
  528TMC3     H 7896   3.231   0.688   0.998 -1.3783 -0.2807 -2.2268
  528TMC3    H1 7897   2.990   0.996   1.184 -2.3846 -0.7512  2.5775
  528TMC3    H2 7898   2.852   0.591   1.147  0.6063 -0.2681  0.1166
  528TMC3    C7 7899   2.796   0.810   1.268 -0.1385  0.2235  0.7377
  528TMC3    C8 7900   3.070   0.497   1.025 -0.8363  0.8921  0.1069
  528TMC3    O1 7901   2.709   0.722   1.276 -0.6699 -0.3756 -0.5998
  528TMC3    O2 7902   3.187   0.466   1.018 -0.0570 -0.2108  0.5886
  529MPD2     C 7903   1.805   4.073   1.347  0.6792 -0.4997 -1.1957
  529MPD2    C1 7904   1.769   3.959   1.280  1.3042 -0.4005 -0.3105
  529MPD2    C2 7905   1.670   3.974   1.188 -0.5229  0.2407  0.1147
  529MPD2    C3 7906   1.604   4.096   1.161 -0.1068 -0.6050  0.1415
  529MPD2    C4 7907   1.635   4.201   1.238 -0.3750  0.4244 -0.1653
  529MPD2    C5 7908   1.733   4.190   1.323  0.5674 -0.9035  0.8384
  529MPD2     H 7909   1.631   3.887   1.138  1.1507 -0.1041 -0.6044
  529MPD2    H1 7910   1.581   4.295   1.229  1.1549  1.4315  1.2810
  529MPD2    H2 7911   1.879   4.073   1.427  1.3566 -0.6608 -1.8298
  529MPD2    H3 7912   1.760   4.276   1.384  3.6538 -1.8577  0.7896
  529MPD2     N 7913   1.522   4.106   1.042 -0.3271 -0.3462 -0.5789
  529MPD2    H5 7914   1.517   4.019   0.990  0.3763 -0.0321 -1.1663
  529MPD2    N1 7915   1.840   3.838   1.295  0.0967 -0.0022 -0.0240
  529MPD2    H7 7916   1.812   3.759   1.237  1.2330 -0.1444 -0.3665
  530TMC3    C1 7917   1.921   3.669   1.427  0.0679  0.4923 -0.3198
  530TMC3    C2 7918   2.004   3.585   1.357  0.0355 -0.4413  0.2939
  530TMC3    C3 7919   1.965   3.454   1.341 -0.2190  0.4197  1.1516
  530TMC3    C4 7920   1.802   3.625   1.475 -0.1760 -0.0022 -0.7540
  530TMC3    C5 7921   1.761   3.498   1.453 -0.3073  0.2453  0.8832
  530TMC3    C6 7922   1.848   3.405   1.392 -0.7893  0.1653  0.8789
  530TMC3     C 7923   1.922   3.808   1.401  0.2187  0.2046  1.1136
  530TMC3     O 7924   1.973   3.875   1.485  0.3787 -0.1743  0.3594
  530TMC3     H 7925   2.096   3.625   1.318  0.0666 -1.5122 -0.7360
  530TMC3    H1 7926   1.737   3.694   1.528  0.1585  0.2669 -0.6954
  530TMC3    H2 7927   1.822   3.304   1.364  1.9374 -0.4109  0.4734
  530TMC3    C7 7928   1.633   3.488   1.385 -0.8165 -0.0740 -0.4578
  530TMC3    C8 7929   2.049   3.362   1.258  0.2245  0.3658 -0.4192
  530TMC3    O1 7930   1.605   3.373   1.341  0.0270 -0.2786 -0.2098
  530TMC3    O2 7931   1.990   3.276   1.188  0.5206  0.6126  0.3574
  531MPD2     C 7932   0.906   1.904  12.859  0.9654 -0.1546  0.1535
  531MPD2    C1 7933   0.873   1.994  12.962  0.1793 -0.3330 -0.0476
  531MPD2    C2 7934   0.741   1.988  13.001  0.4518 -0.0481  0.2376
  531MPD2    C3 7935   0.646   1.912  12.938 -0.1150 -0.1491 -0.2697
  531MPD2    C4 7936   0.682   1.842  12.824  0.7259  0.5730 -0.9383
  531MPD2    C5 7937   0.811   1.841  12.781 -0.5702  0.2593 -0.4816
  531MPD2     H 7938   0.712   2.047  13.087  2.4343  0.6226  0.4510
  531MPD2    H1 7939   0.610   1.781  12.770  1.7216 -0.8318 -0.7019
  531MPD2    H2 7940   1.009   1.896  12.826  0.4944  1.6156 -1.7600
  531MPD2    H3 7941   0.836   1.774  12.699 -2.0830  0.5087 -1.1529
  531MPD2     N 7942   0.520   1.917  12.998  0.4298  0.2547  0.1324
  531MPD2    H5 7943   0.518   1.956  13.091 -0.1674  1.4112 -0.3693
  531MPD2    N1 7944   0.974   2.067  13.028  0.4442 -0.0145  1.0119
  531MPD2    H7 7945   1.067   2.033  13.009  0.0333 -0.0457 -0.9380
  532TMC3    C1 7946   1.037   2.186  13.220 -0.3519  0.0184 -0.0758
  532TMC3    C2 7947   1.006   2.292  13.296 -0.2161  0.2113 -0.2543
  532TMC3    C3 7948   1.048   2.292  13.427 -0.6053 -0.2522 -1.0786
  532TMC3    C4 7949   1.101   2.077  13.270  0.4655  0.6551  0.0324
  532TMC3    C5 7950   1.170   2.092  13.385  0.1990  0.0946 -0.5898
  532TMC3    C6 7951   1.139   2.198  13.464 -0.0881 -0.1760 -0.6713
  532TMC3     C 7952   0.940   2.163  13.114 -0.9809  0.0972  0.3508
  532TMC3     O 7953   0.841   2.232  13.128  0.1388 -0.5067 -0.3504
  532TMC3     H 7954   0.958   2.381  13.256 -1.0792 -0.3474 -0.4758
  532TMC3    H1 7955   1.117   1.992  13.205  1.2030 -0.2781  1.4288
  532TMC3    H2 7956   1.176   2.199  13.566  1.1617  2.8523 -1.1247
  532TMC3    C7 7957   1.283   2.010  13.426 -0.8027  0.0728 -0.0497
  532TMC3    C8 7958   0.933   2.290  13.514  0.2650 -0.3660  0.2180
  532TMC3    O1 7959   1.366   2.063  13.495 -0.0109  0.3816  1.3135
  532TMC3    O2 7960   0.940   2.265  13.632  0.6365 -0.5280  0.4119
  533TMC3    C1 7961   1.197   3.823  14.220 -0.9288  0.0291  0.5454
  533TMC3    C2 7962   1.314   3.884  14.175  0.5389 -0.8458 -0.4877
  533TMC3    C3 7963   1.378   3.970  14.261  0.5082 -0.1932 -0.3575
  533TMC3    C4 7964   1.161   3.828  14.351 -0.2479  0.1923 -0.3537
  533TMC3    C5 7965   1.243   3.895  14.435  0.4718  0.1055  0.1051
  533TMC3    C6 7966   1.345   3.973  14.390 -0.1034  0.5493  0.6554
  533TMC3     C 7967   1.195   3.687  14.171  0.3771 -0.3064 -0.2144
  533TMC3     O 7968   1.203   3.670  14.050  0.2278  0.2560  0.3357
  533TMC3     H 7969   1.333   3.884  14.068 -0.5544 -0.4779 -0.6855
  533TMC3    H1 7970   1.068   3.779  14.380 -0.9310  1.9351  0.3525
  533TMC3    H2 7971   1.406   4.037  14.453  2.5995 -1.7408  0.3306
  533TMC3    C7 7972   1.271   3.817  14.552 -0.3438 -0.0167  0.3679
  533TMC3    C8 7973   1.515   3.981  14.237  0.3619  0.7062 -0.3872
  533TMC3    O1 7974   1.250   3.699  14.549 -0.1057  0.0320  0.3325
  533TMC3    O2 7975   1.597   3.971  14.326 -0.2226  0.4213  0.9001
  534MPD2     C 7976   4.302   4.023   0.790 -0.0084 -0.5806 -1.2243
  534MPD2    C1 7977   4.291   4.139   0.863  0.3920  0.1825 -0.0242
  534MPD2    C2 7978   4.169   4.181   0.908 -0.3013  0.0036 -0.0617
  534MPD2    C3 7979   4.059   4.103   0.872  0.0796 -0.1227 -1.0347
  534MPD2    C4 7980   4.068   3.992   0.796 -0.1667 -0.0135  0.0087
  534MPD2    C5 7981   4.193   3.949   0.758  0.1351  0.3620  0.6710
  534MPD2     H 7982   4.164   4.278   0.957  2.7398  0.1573 -0.0643
  534MPD2    H1 7983   3.985   3.929   0.767 -0.9023  0.4972  0.9914
  534MPD2    H2 7984   4.400   3.987   0.758  1.7749  0.8303  2.7351
  534MPD2    H3 7985   4.203   3.858   0.700  0.2696 -1.0161  2.8640
  534MPD2     N 7986   3.926   4.153   0.890 -0.4670 -0.0370  0.3246
  534MPD2    H5 7987   3.844   4.106   0.853 -0.9532 -0.9300  2.5387
  534MPD2    N1 7988   4.400   4.226   0.892  0.2022  0.7297  0.0970
  534MPD2    H7 7989   4.370   4.311   0.938  0.4329  0.1557  1.3139
  535TMC3    C1 7990   3.749   4.287   0.925 -0.8509 -0.2724 -0.4042
  535TMC3    C2 7991   3.670   4.350   1.015  0.2337 -0.7545  0.1292
  535TMC3    C3 7992   3.548   4.384   0.973 -0.0462 -0.3049  0.1339
  535TMC3    C4 7993   3.722   4.285   0.793  0.1844 -0.5011  0.4576
  535TMC3    C5 7994   3.612   4.341   0.755  0.1641  0.1024 -1.0746
  535TMC3    C6 7995   3.514   4.383   0.844 -0.2240  0.1590  0.6666
  535TMC3     C 7996   3.891   4.273   0.941  0.2810  0.6346 -0.3159
  535TMC3     O 7997   3.955   4.363   0.990  0.3856  0.2508 -0.3279
  535TMC3     H 7998   3.697   4.347   1.120  1.3820  0.5610 -0.1226
  535TMC3    H1 7999   3.797   4.263   0.717 -1.2619 -1.8796 -0.5551
  535TMC3    H2 8000   3.417   4.410   0.805  0.4675  2.1162  0.2703
  535TMC3    C7 8001   3.567   4.290   0.626  0.4570  0.0779  0.5208
  535TMC3    C8 8002   3.437   4.398   1.064  0.2614 -0.3153 -0.8614
  535TMC3    O1 8003   3.625   4.193   0.580  0.5724 -0.3321 -0.2861
  535TMC3    O2 8004   3.322   4.356   1.039  1.0896  0.2495  0.4005
  536MPD2     C 8005   2.988   2.270  16.164 -0.2102 -0.5335 -0.2273
  536MPD2    C1 8006   2.858   2.280  16.207  0.5283 -1.1272 -0.2669
  536MPD2    C2 8007   2.774   2.342  16.123  0.4022  0.4972  0.5035
  536MPD2    C3 8008   2.801   2.391  15.996  0.4649  0.3883 -0.1656
  536MPD2    C4 8009   2.937   2.393  15.955 -0.2013 -1.0150 -0.5393
  536MPD2    C5 8010   3.024   2.318  16.037  0.3864  0.4630  0.5620
  536MPD2     H 8011   2.670   2.353  16.150 -0.3989  0.1808 -2.4096
  536MPD2    H1 8012   2.975   2.428  15.859  0.6306  0.3850  0.2938
  536MPD2    H2 8013   3.069   2.234  16.226  1.3794 -0.3527 -2.1874
  536MPD2    H3 8014   3.130   2.325  16.014  0.4146 -0.5986  0.3968
  536MPD2     N 8015   2.706   2.460  15.922  0.2822  0.0933  0.6262
  536MPD2    H5 8016   2.746   2.543  15.880 -0.8580  0.3032 -0.0394
  536MPD2    N1 8017   2.820   2.230  16.336  0.0259 -0.3696  0.1360
  536MPD2    H7 8018   2.892   2.177  16.384 -0.5692 -0.3162  1.0802
  537TMC3    C1 8019   2.668   2.201  16.514  0.2032 -0.0059  0.1687
  537TMC3    C2 8020   2.628   2.274  16.622  0.5535  0.8473 -0.1478
  537TMC3    C3 8021   2.652   2.220  16.749  0.4092 -0.5037 -0.2271
  537TMC3    C4 8022   2.711   2.066  16.530  0.2477  0.0904 -0.0498
  537TMC3    C5 8023   2.724   2.015  16.654 -0.4718 -0.2679 -0.0203
  537TMC3    C6 8024   2.694   2.093  16.763  0.0164  0.6518 -0.0870
  537TMC3     C 8025   2.700   2.264  16.396  0.1989  0.3377 -0.2890
  537TMC3     O 8026   2.612   2.339  16.358  0.1873 -0.1781 -0.1912
  537TMC3     H 8027   2.598   2.376  16.602 -1.9528  0.3883  1.3754
  537TMC3    H1 8028   2.724   2.001  16.443  2.4340  1.0476 -0.4464
  537TMC3    H2 8029   2.706   2.055  16.864 -1.3780 -2.1791 -0.9936
  537TMC3    C7 8030   2.717   1.878  16.662 -0.2256 -0.4041  0.9362
  537TMC3    C8 8031   2.634   2.311  16.855 -0.0814  0.4789  0.6233
  537TMC3    O1 8032   2.676   1.813  16.570 -0.5857 -0.1380  0.2272
  537TMC3    O2 8033   2.709   2.305  16.950 -0.0185 -0.7589  0.1400
  538TMC3    C1 8034   4.261   0.595  10.804  0.4512  0.5721  0.0032
  538TMC3    C2 8035   4.309   0.685  10.706 -0.0356 -0.2007  0.0338
  538TMC3    C3 8036   4.227   0.787  10.663  0.6418  0.4017  0.5747
  538TMC3    C4 8037   4.129   0.596  10.838  0.4218 -0.8396 -0.7280
  538TMC3    C5 8038   4.045   0.698  10.791 -0.3924  0.5533  1.1734
  538TMC3    C6 8039   4.093   0.796  10.706 -0.0312  0.8772 -0.5795
  538TMC3     C 8040   4.347   0.514  10.884  0.4522  0.2873  0.1459
  538TMC3     O 8041   4.297   0.409  10.924  0.2618 -0.4922  0.4247
  538TMC3     H 8042   4.414   0.675  10.682  0.4416  0.0442  2.0235
  538TMC3    H1 8043   4.078   0.505  10.867 -0.9103  1.1787  3.2156
  538TMC3    H2 8044   4.014   0.850  10.654 -0.9246 -1.8667 -2.0601
  538TMC3    C7 8045   3.909   0.693  10.838  0.5773  0.1400  0.0178
  538TMC3    C8 8046   4.260   0.824  10.523  0.3193 -0.7090  0.0391
  538TMC3    O1 8047   3.824   0.749  10.775 -0.8690  0.0726  0.0337
  538TMC3    O2 8048   4.349   0.758  10.470  0.6665  0.5200 -0.2342
  539MPD2     C 8049   3.234   4.146  11.115  0.9678  0.0371 -0.0016
  539MPD2    C1 8050   3.339   4.234  11.091  0.1443 -0.0316  0.3200
  539MPD2    C2 8051   3.303   4.365  11.088 -0.4090 -0.4695  0.8766
  539MPD2    C3 8052   3.173   4.401  11.128  0.3213 -0.7353 -0.0079
  539MPD2    C4 8053   3.080   4.307  11.159 -0.1535 -0.0242  1.0346
  539MPD2    C5 8054   3.107   4.175  11.153  0.2192  0.3474  0.7745
  539MPD2     H 8055   3.382   4.433  11.060 -1.7374  1.0783  0.9280
  539MPD2    H1 8056   2.979   4.344  11.172  0.9731  2.7605  1.9016
  539MPD2    H2 8057   3.252   4.039  11.122  3.2729  0.3843 -0.7505
  539MPD2    H3 8058   3.035   4.099  11.182  0.8159 -0.1513  0.9293
  539MPD2     N 8059   3.137   4.538  11.140 -0.1515  0.3756 -0.4004
  539MPD2    H5 8060   3.039   4.566  11.146 -0.2377  0.0990 -0.5416
  539MPD2    N1 8061   3.478   4.196  11.073 -0.0749 -0.4868 -1.0079
  539MPD2    H7 8062   3.548   4.262  11.041 -0.6811  0.4898 -0.3396
  540TMC3    C1 8063   3.159   0.035  11.119  0.7352 -0.8893 -0.1621
  540TMC3    C2 8064   3.153   0.105  11.008 -0.0509 -0.1419 -0.4403
  540TMC3    C3 8065   3.105   0.233  11.019  0.4268 -0.7878 -0.9275
  540TMC3    C4 8066   3.107   0.072  11.237 -0.2124 -0.3741 -0.5676
  540TMC3    C5 8067   3.052   0.202  11.245  0.5936 -0.1601 -0.3623
  540TMC3    C6 8068   3.051   0.282  11.134 -0.8406 -0.5007 -0.9607
  540TMC3     C 8069   3.213   4.646  11.096 -0.0235 -0.3544 -0.3880
  540TMC3     O 8070   3.327   4.651  11.055  0.7243  0.2114  0.4597
  540TMC3     H 8071   3.167   0.052  10.914  1.4678 -2.0944  0.8816
  540TMC3    H1 8072   3.108   4.734  11.315 -0.9394  1.9626  1.7114
  540TMC3    H2 8073   3.030   0.387  11.145  2.1842  0.1111 -0.8638
  540TMC3    C7 8074   2.986   0.243  11.366  0.4575  0.3634 -0.5516
  540TMC3    C8 8075   3.115   0.326  10.907  0.1836 -0.4457  0.3148
  540TMC3    O1 8076   2.886   0.315  11.355 -0.6328 -0.3674  0.7525
  540TMC3    O2 8077   3.045   0.421  10.913  0.4386 -0.1191  0.1016
  541MPD2     C 8078   2.037   2.197  13.296  0.1935 -0.6277  0.2329
  541MPD2    C1 8079   2.039   2.128  13.179  0.2816  0.2131 -0.2649
  541MPD2    C2 8080   2.004   2.200  13.068  0.5032  0.7332  1.3142
  541MPD2    C3 8081   1.957   2.335  13.067 -0.0130  0.3967 -0.5495
  541MPD2    C4 8082   1.958   2.404  13.182  0.1843 -0.8181 -0.2072
  541MPD2    C5 8083   1.996   2.332  13.293 -0.4533 -0.1758  0.9244
  541MPD2     H 8084   2.000   2.149  12.972 -0.8063  1.2741  1.0867
  541MPD2    H1 8085   1.921   2.505  13.194  3.1217  0.6860 -3.7036
  541MPD2    H2 8086   2.066   2.144  13.385  0.0656  0.9849  1.2429
  541MPD2    H3 8087   1.994   2.387  13.386 -0.8757  4.3682 -1.7710
  541MPD2     N 8088   1.901   2.394  12.950 -0.0534  0.5851  0.7720
  541MPD2    H5 8089   1.876   2.492  12.957 -1.6653  0.1346  1.3541
  541MPD2    N1 8090   2.080   1.995  13.183  0.6912 -0.3878  0.2650
  541MPD2    H7 8091   2.094   1.958  13.277 -0.4056  0.6231  0.8363
  542TMC3    C1 8092   1.857   2.412  12.709  0.2221 -0.1020 -0.2831
  542TMC3    C2 8093   1.792   2.350  12.604 -0.4809 -0.0383  0.3123
  542TMC3    C3 8094   1.780   2.432  12.491 -0.4124 -0.4987 -0.4448
  542TMC3    C4 8095   1.888   2.549  12.718 -0.0578  0.3404  0.1336
  542TMC3    C5 8096   1.862   2.619  12.604 -0.6740 -0.3175  0.0715
  542TMC3    C6 8097   1.813   2.567  12.491 -0.0484 -0.3455 -0.0561
  542TMC3     C 8098   1.875   2.327  12.827 -0.3164 -0.6578 -0.0274
  542TMC3     O 8099   1.874   2.206  12.809 -0.6721 -0.3619 -0.6110
  542TMC3     H 8100   1.771   2.243  12.604 -1.0601  0.0777 -0.9154
  542TMC3    H1 8101   1.944   2.595  12.799  0.7904 -1.3193  0.4804
  542TMC3    H2 8102   1.786   2.614  12.397 -2.1626  2.0582  1.7283
  542TMC3    C7 8103   1.885   2.762  12.599 -0.2935  0.2089  0.5676
  542TMC3    C8 8104   1.795   2.360  12.368 -0.5466 -0.1197  0.1834
  542TMC3    O1 8105   1.950   2.801  12.503 -0.2714  0.2601  0.5196
  542TMC3    O2 8106   1.721   2.388  12.278 -0.2350 -0.4486  0.4307
  543TMC3    C1 8107   1.245   3.230  17.343  0.0272 -0.1420  0.2550
  543TMC3    C2 8108   1.221   3.114  17.412 -0.4251 -0.1069  0.1437
  543TMC3    C3 8109   1.197   3.135  17.544  0.0782 -0.8461 -0.4740
  543TMC3    C4 8110   1.247   3.352  17.402  0.4447  0.6031  0.0489
  543TMC3    C5 8111   1.220   3.365  17.539 -0.8093  0.2870  0.1244
  543TMC3    C6 8112   1.196   3.255  17.611 -0.0851  0.2171 -0.0721
  543TMC3     C 8113   1.311   3.203  17.217  0.1946  0.3220 -0.2458
  543TMC3     O 8114   1.387   3.109  17.217  0.3228 -0.5060  0.3248
  543TMC3     H 8115   1.230   3.015  17.370  0.2753  0.3664 -0.8167
  543TMC3    H1 8116   1.265   3.438  17.339  1.5737  0.2832 -0.0714
  543TMC3    H2 8117   1.204   3.252  17.719  1.7971 -0.3160 -0.2289
  543TMC3    C7 8118   1.284   3.474  17.608  0.0670  1.2680 -0.6408
  543TMC3    C8 8119   1.181   3.020  17.624  0.0670 -0.3896  0.7204
  543TMC3    O1 8120   1.385   3.520  17.556 -0.0078  0.1728  0.1789
  543TMC3    O2 8121   1.247   2.920  17.599 -0.4980  0.1272 -0.4674
  544MPD2     C 8122   0.936   2.787   0.270  0.2521 -0.7075 -0.5115
  544MPD2    C1 8123   1.052   2.751   0.200 -0.0193  0.3261  0.4332
  544MPD2    C2 8124   1.107   2.832   0.101 -0.2682  0.2619 -0.0632
  544MPD2    C3 8125   1.041   2.950   0.068  0.4515  0.7195 -0.5004
  544MPD2    C4 8126   0.922   2.984   0.137  0.6132 -0.0096 -0.6600
  544MPD2    C5 8127   0.872   2.902   0.242  0.1044 -0.0314  0.3397
  544MPD2     H 8128   1.193   2.810   0.039  0.9615  0.2623  1.6454
  544MPD2    H1 8129   0.865   3.072   0.112  0.9550  0.2406 -0.5475
  544MPD2    H2 8130   0.899   2.739   0.359 -1.9583  0.3220 -0.8434
  544MPD2    H3 8131   0.781   2.921   0.298  0.5114 -0.3190  1.0904
  544MPD2     N 8132   1.085   3.043  17.726  0.2297  0.3737 -0.2352
  544MPD2    H5 8133   1.039   3.133  17.724  2.2166  1.3767 -0.0174
  544MPD2    N1 8134   1.103   2.623   0.233 -0.0620  0.1204  0.2197
  544MPD2    H7 8135   1.043   2.561   0.287  0.6605 -0.9842 -0.2406
  545TMC3    C1 8136   1.260   2.446   0.226  0.0258  0.2499 -0.2894
  545TMC3    C2 8137   1.387   2.407   0.238 -0.0136  0.0548 -0.1041
  545TMC3    C3 8138   1.420   2.275   0.257 -0.0839  1.0133  0.0577
  545TMC3    C4 8139   1.166   2.351   0.260  0.0493  0.4534 -0.0321
  545TMC3    C5 8140   1.199   2.223   0.302 -0.0198 -0.1214  0.9511
  545TMC3    C6 8141   1.324   2.184   0.275 -0.8516  0.0131  0.2179
  545TMC3     C 8142   1.235   2.589   0.216  0.4052 -0.7335  0.2077
  545TMC3     O 8143   1.331   2.664   0.199  0.5385 -0.4718  0.1199
  545TMC3     H 8144   1.471   2.476   0.232  0.7562 -0.8681 -0.0250
  545TMC3    H1 8145   1.066   2.390   0.275  0.0082  0.4681 -0.3517
  545TMC3    H2 8146   1.354   2.080   0.263  1.1622  0.8124 -1.6782
  545TMC3    C7 8147   1.097   2.120   0.298  0.1809  0.4150  0.1082
  545TMC3    C8 8148   1.556   2.239   0.283 -0.3936  0.0385  0.3446
  545TMC3    O1 8149   0.992   2.155   0.251  0.0310  0.2273  0.3600
  545TMC3    O2 8150   1.644   2.318   0.245 -0.6084  0.4051  0.3424
  546MPD2     C 8151   2.664   3.007  17.721  0.0728 -0.1427 -0.4520
  546MPD2    C1 8152   2.586   3.017  17.606 -0.5578  0.0323 -0.2173
  546MPD2    C2 8153   2.584   3.139  17.546  0.6606 -0.4603 -0.5040
  546MPD2    C3 8154   2.642   3.249  17.608  0.0339  0.4896 -0.1716
  546MPD2    C4 8155   2.719   3.235  17.719 -0.6489 -0.4587 -0.1948
  546MPD2    C5 8156   2.737   3.113   0.012 -0.4690  0.1635  0.3220
  546MPD2     H 8157   2.547   3.150  17.445  1.7926 -1.0943 -0.9829
  546MPD2    H1 8158   2.779   3.314   0.014 -0.9120 -0.1477 -0.3900
  546MPD2    H2 8159   2.689   2.914   0.021 -0.1020  1.2118  2.2249
  546MPD2    H3 8160   2.802   3.089   0.095  0.5534  0.8000 -0.2964
  546MPD2     N 8161   2.634   3.372  17.545 -0.2965 -0.4333 -0.4421
  546MPD2    H5 8162   2.677   3.452  17.590 -0.2567 -1.7889  1.9397
  546MPD2    N1 8163   2.529   2.896  17.553  0.2419  0.0219 -0.2259
  546MPD2    H7 8164   2.540   2.815  17.613  1.0600 -0.7714 -1.4350
  547TMC3    C1 8165   2.403   2.755  17.416  0.4879 -0.1287  0.5335
  547TMC3    C2 8166   2.296   2.734  17.337 -0.1673 -0.2048 -0.3603
  547TMC3    C3 8167   2.262   2.606  17.298 -0.5826  0.2685  0.3088
  547TMC3    C4 8168   2.477   2.647  17.467  0.2658  0.8120  0.3633
  547TMC3    C5 8169   2.440   2.518  17.429 -0.1832 -0.0411 -0.4551
  547TMC3    C6 8170   2.327   2.496  17.355 -0.1406  0.7066  0.0948
  547TMC3     C 8171   2.446   2.891  17.440  0.0717 -0.2769  0.1772
  547TMC3     O 8172   2.404   2.981  17.367  0.2161 -0.2942 -0.0467
  547TMC3     H 8173   2.236   2.817  17.303 -0.4676 -0.9724 -1.6760
  547TMC3    H1 8174   2.569   2.663  17.522  0.3142  3.7250 -0.6006
  547TMC3    H2 8175   2.290   2.397  17.331  0.3189  0.0239  2.1630
  547TMC3    C7 8176   2.526   2.415  17.482  0.1427 -0.4995 -0.4531
  547TMC3    C8 8177   2.159   2.588  17.191 -1.6110  0.5926  0.4824
  547TMC3    O1 8178   2.609   2.451  17.563  0.2950 -0.5018 -0.1327
  547TMC3    O2 8179   2.094   2.690  17.165 -0.2712 -0.1372 -0.4522
  548MPD2     C 8180   2.324   3.502  12.618 -0.3739 -0.2200 -0.5668
  548MPD2    C1 8181   2.296   3.442  12.497  0.4965 -0.7225  0.8049
  548MPD2    C2 8182   2.406   3.391  12.421  0.7730  0.2106  0.5368
  548MPD2    C3 8183   2.533   3.383  12.472  0.0095 -0.1929 -0.3055
  548MPD2    C4 8184   2.560   3.432  12.602  0.0072 -0.0865  0.0356
  548MPD2    C5 8185   2.456   3.485  12.674  0.1931 -0.3553 -0.0158
  548MPD2     H 8186   2.393   3.356  12.319 -0.9435 -2.0289  1.5137
  548MPD2    H1 8187   2.655   3.408  12.647  0.0333  0.5270  0.3105
  548MPD2    H2 8188   2.245   3.535  12.685  1.0680 -1.2314  1.6293
  548MPD2    H3 8189   2.461   3.504  12.781 -0.8312  0.4936 -0.1125
  548MPD2     N 8190   2.638   3.328  12.396 -0.1405  0.3260  0.2319
  548MPD2    H5 8191   2.611   3.307  12.300 -2.5890 -1.7679  1.3871
  548MPD2    N1 8192   2.164   3.457  12.444 -0.1817  0.0649 -0.3170
  548MPD2    H7 8193   2.095   3.516  12.488  1.4462  0.1250  2.1724
  549TMC3    C1 8194   1.971   3.405  12.316 -0.8247  0.1963  0.0351
  549TMC3    C2 8195   1.932   3.534  12.330  0.4503  0.0251 -0.9262
  549TMC3    C3 8196   1.803   3.567  12.304  0.1451 -0.2304 -0.4639
  549TMC3    C4 8197   1.888   3.308  12.277  0.4574  0.5057 -0.4491
  549TMC3    C5 8198   1.759   3.348  12.248 -0.0805  0.3192  0.2140
  549TMC3    C6 8199   1.714   3.478  12.251 -0.4555  0.0558 -0.2512
  549TMC3     C 8200   2.113   3.378  12.341  0.8635 -0.0530 -0.0051
  549TMC3     O 8201   2.160   3.278  12.283 -0.2747 -0.3703  0.1105
  549TMC3     H 8202   2.011   3.602  12.359 -0.7238  0.9272  0.1830
  549TMC3    H1 8203   1.938   3.212  12.281  0.3216  0.4539  0.0815
  549TMC3    H2 8204   1.608   3.496  12.253 -0.4613  0.0805 -0.7244
  549TMC3    C7 8205   1.661   3.244  12.213  0.5728 -0.1857 -0.4653
  549TMC3    C8 8206   1.742   3.699  12.334  0.8902  0.1271  0.0994
  549TMC3    O1 8207   1.548   3.276  12.183 -0.0731  0.1171  0.3730
  549TMC3    O2 8208   1.649   3.735  12.263  0.4897  0.1043  0.3561
  550TMC3    C1 8209   1.528   1.930  12.229  0.0257 -0.4005 -0.0221
  550TMC3    C2 8210   1.589   1.934  12.353  0.7440  0.2059  0.2197
  550TMC3    C3 8211   1.582   2.052  12.421  0.3483 -0.4618 -0.0209
  550TMC3    C4 8212   1.470   2.042  12.174  0.0720  0.3540  0.1718
  550TMC3    C5 8213   1.467   2.156  12.246  0.1369 -0.3810  0.7786
  550TMC3    C6 8214   1.514   2.154  12.375 -0.4179 -0.0466  0.2293
  550TMC3     C 8215   1.557   1.819  12.135  0.2647  0.3146 -0.4182
  550TMC3     O 8216   1.641   1.735  12.173 -0.1873  0.4971 -0.0716
  550TMC3     H 8217   1.651   1.852  12.388 -0.3451 -0.8859 -0.3903
  550TMC3    H1 8218   1.439   2.049  12.070  0.3476  1.6190  0.1782
  550TMC3    H2 8219   1.506   2.239  12.442  1.1589 -0.8726  1.4638
  550TMC3    C7 8220   1.373   2.266  12.201  0.0992 -0.5371  0.2059
  550TMC3    C8 8221   1.540   2.032  12.558  0.3932  0.3589 -0.1486
  550TMC3    O1 8222   1.304   2.253  12.101  0.6677  0.5815 -0.5467
  550TMC3    O2 8223   1.568   2.120  12.641  0.1132 -0.8179  0.3762
  551TMC3    C1 8224   3.647   4.592  13.564  0.1565  0.2970  0.5272
  551TMC3    C2 8225   3.713   4.680  13.484  0.8422  0.7734  0.1385
  551TMC3    C3 8226   3.801   0.020  13.546 -0.0410 -0.0841  0.1780
  551TMC3    C4 8227   3.653   4.589  13.704  0.1244  0.2435  0.2745
  551TMC3    C5 8228   3.747   4.674  13.758  0.2910 -0.3263 -0.0867
  551TMC3    C6 8229   3.807   0.029  13.681  0.2447 -0.1247  0.3685
  551TMC3     C 8230   3.534   4.519  13.501  0.2839 -1.3268  0.9237
  551TMC3     O 8231   3.518   4.402  13.525  0.5853  0.1777  0.6642
  551TMC3     H 8232   3.691   4.669  13.379  0.4643 -1.8836  0.4945
  551TMC3    H1 8233   3.605   4.510  13.761 -0.4872 -0.3226 -1.0036
  551TMC3    H2 8234   3.887   0.076  13.737 -0.7403  4.1354 -1.8164
  551TMC3    C7 8235   3.742   4.700  13.899 -0.2701  0.2581  0.6802
  551TMC3    C8 8236   3.887   0.118  13.469 -0.1850 -0.2427  0.1091
  551TMC3    O1 8237   3.746   4.611  13.983 -0.2656  0.2236 -0.3258
  551TMC3    O2 8238   3.942   0.197  13.545 -0.2701  0.3464  0.1348
  552MPD2     C 8239   0.663   1.969  14.178  0.1015  0.5502 -0.5909
  552MPD2    C1 8240   0.800   1.964  14.143  0.5574 -0.3429 -0.2692
  552MPD2    C2 8241   0.882   1.925  14.241 -0.8524  0.2217  0.1636
  552MPD2    C3 8242   0.849   1.900  14.374  0.0202 -0.3866  0.5070
  552MPD2    C4 8243   0.718   1.900  14.398 -0.3870  0.3474  0.2174
  552MPD2    C5 8244   0.625   1.934  14.304 -0.2495  0.3557  0.3172
  552MPD2     H 8245   0.983   1.900  14.212 -1.1515 -1.1244  0.2724
  552MPD2    H1 8246   0.672   1.892  14.496  0.0138  2.2875  0.5625
  552MPD2    H2 8247   0.588   2.001  14.107 -0.2582 -0.9306 -0.8867
  552MPD2    H3 8248   0.523   1.949  14.336 -0.1921 -0.1738  0.7426
  552MPD2     N 8249   0.952   1.869  14.470  0.1792 -0.2214 -0.5820
  552MPD2    H5 8250   0.929   1.817  14.554  0.2426  1.2788  0.3684
  552MPD2    N1 8251   0.858   1.992  14.012  0.3146  0.1143 -1.1145
  552MPD2    H7 8252   0.957   1.974  13.996  0.9967  0.0172  3.2001
  553TMC3    C1 8253   0.881   1.995  13.785 -0.2530  0.0866 -0.7705
  553TMC3    C2 8254   0.852   1.892  13.714  0.2625 -0.3484 -0.2866
  553TMC3    C3 8255   0.957   1.827  13.653 -0.2101  0.1666 -0.3405
  553TMC3    C4 8256   1.008   2.042  13.802  0.0945 -0.5926 -0.2952
  553TMC3    C5 8257   1.112   1.971  13.752 -0.1283  1.2201 -0.9497
  553TMC3    C6 8258   1.085   1.864  13.677 -0.1805 -0.0018 -0.4001
  553TMC3     C 8259   0.788   2.003  13.897  0.7645  0.4492  0.1192
  553TMC3     O 8260   0.668   1.978  13.878  0.4606  0.1135 -0.4675
  553TMC3     H 8261   0.753   1.848  13.720 -0.4647  1.3834  0.3338
  553TMC3    H1 8262   1.035   2.122  13.871 -5.3638  0.7679  0.2298
  553TMC3    H2 8263   1.168   1.805  13.638 -0.8476 -0.6305 -0.8765
  553TMC3    C7 8264   1.253   2.009  13.774 -1.0443  0.3756  0.9713
  553TMC3    C8 8265   0.928   1.716  13.561  0.1626 -0.3674 -0.3933
  553TMC3    O1 8266   1.268   2.124  13.787  0.0582  0.4192 -0.0613
  553TMC3    O2 8267   1.029   1.647  13.530 -0.1918 -0.1132 -0.1002
  554TMC3    C1 8268   2.166   0.184  11.404  0.2340 -0.2418 -0.4104
  554TMC3    C2 8269   2.082   0.213  11.303 -0.3359  1.4220  0.2521
  554TMC3    C3 8270   2.070   0.340  11.244  0.2974 -0.0655  0.2561
  554TMC3    C4 8271   2.256   0.278  11.442  1.4052  0.0625 -0.8075
  554TMC3    C5 8272   2.250   0.399  11.375 -0.3093  0.6870 -0.6211
  554TMC3    C6 8273   2.154   0.437  11.291 -0.6283 -0.1662  1.1591
  554TMC3     C 8274   2.145   0.058  11.482 -1.2442  0.6233 -0.4198
  554TMC3     O 8275   2.047   4.730  11.451  0.3526 -0.1965 -0.5620
  554TMC3     H 8276   2.023   0.126  11.276 -0.5742  2.0052 -1.1254
  554TMC3    H1 8277   2.347   0.256  11.496 -1.1779 -2.0118  2.6632
  554TMC3    H2 8278   2.167   0.534  11.244 -0.3210 -0.8325 -0.1259
  554TMC3    C7 8279   2.377   0.464  11.352  0.4369  0.5340  0.2916
  554TMC3    C8 8280   2.033   0.351  11.104 -0.2566 -0.8828  0.9194
  554TMC3    O1 8281   2.391   0.490  11.234 -0.2050 -0.5592  0.4543
  554TMC3    O2 8282   2.087   0.443  11.049  0.0494  0.2267 -0.5162
  555TMC3    C1 8283   1.884   0.022  14.803 -0.4481  0.7321 -0.0130
  555TMC3    C2 8284   1.832   0.098  14.905  0.3762  0.6455 -0.0474
  555TMC3    C3 8285   1.836   0.049  15.034 -0.5058  0.4998  0.1487
  555TMC3    C4 8286   1.946   4.643  14.824  0.1040 -0.6916 -0.4530
  555TMC3    C5 8287   1.947   4.595  14.950  0.2498  0.3443 -0.0255
  555TMC3    C6 8288   1.895   4.666  15.057  0.0852 -0.4939  0.4590
  555TMC3     C 8289   1.889   0.078  14.676 -0.5083  0.5308  0.5723
  555TMC3     O 8290   1.968   0.023  14.606  0.3669 -0.1112  0.3361
  555TMC3     H 8291   1.792   0.195  14.880  3.6667  1.5851 -1.6880
  555TMC3    H1 8292   1.990   4.589  14.741  2.4485  2.7324 -1.4666
  555TMC3    H2 8293   1.894   4.619  15.155  0.9984 -2.0302 -0.2600
  555TMC3    C7 8294   1.949   4.451  14.967 -0.2958  0.1315 -0.2182
  555TMC3    C8 8295   1.787   0.139  15.135 -0.2797 -0.2215  1.2297
  555TMC3    O1 8296   1.964   4.410  15.081 -0.1464  0.0148 -0.0240
  555TMC3    O2 8297   1.710   0.226  15.097  0.0614  0.4204  0.5558
  556MPD2     C 8298   3.928   2.107  10.612  0.6748  0.0455  0.3763
  556MPD2    C1 8299   4.008   1.998  10.630  0.2759  0.5003  0.0900
  556MPD2    C2 8300   3.992   1.890  10.543 -0.2724 -0.3934 -0.7671
  556MPD2    C3 8301   3.899   1.890  10.443 -0.3787 -0.1002 -0.4487
  556MPD2    C4 8302   3.811   2.002  10.435 -0.1524  0.1221  0.2992
  556MPD2    C5 8303   3.831   2.115  10.513  0.2598 -0.1916  0.4750
  556MPD2     H 8304   4.064   1.809  10.545  0.3981  0.1851 -1.9313
  556MPD2    H1 8305   3.739   2.022  10.357  1.3003 -1.3893 -1.4238
  556MPD2    H2 8306   3.947   2.196  10.671 -2.4102  1.4969 -0.8149
  556MPD2    H3 8307   3.776   2.206  10.495 -1.5882 -1.4843 -0.4410
  556MPD2     N 8308   3.895   1.777  10.354 -0.7635  0.0710 -0.2650
  556MPD2    H5 8309   3.946   1.696  10.388 -2.4111 -0.8178  0.0897
  556MPD2    N1 8310   4.109   1.999  10.725  0.1570  0.1937 -0.2172
  556MPD2    H7 8311   4.158   1.910  10.735 -2.9314 -1.5855 -1.1269
  557TMC3    C1 8312   3.827   1.651  10.163 -0.3167  0.2755 -0.6167
  557TMC3    C2 8313   3.828   1.670  10.028 -0.1930  1.4236  0.7278
  557TMC3    C3 8314   3.852   1.558   9.951  0.6066  0.7628  0.6363
  557TMC3    C4 8315   3.845   1.533  10.225  0.8554  0.4951  0.2872
  557TMC3    C5 8316   3.858   1.422  10.153 -0.1222  0.0218  0.7947
  557TMC3    C6 8317   3.868   1.435  10.013 -0.4301  0.2498  0.2402
  557TMC3     C 8318   3.824   1.774  10.233 -0.0855 -0.1290 -0.3679
  557TMC3     O 8319   3.763   1.867  10.176 -0.2774 -0.5179  0.8518
  557TMC3     H 8320   3.818   1.767   9.979  2.1881  1.9364  1.2637
  557TMC3    H1 8321   3.842   1.528  10.333 -0.9445 -2.3347  0.0975
  557TMC3    H2 8322   3.874   1.350   9.946 -3.3771 -0.4378  0.8238
  557TMC3    C7 8323   3.908   1.303  10.220  0.3218  0.3525  0.7167
  557TMC3    C8 8324   3.933   1.596   9.839  0.4177 -0.3778  0.2326
  557TMC3    O1 8325   3.897   1.310  10.341 -0.4120  0.1567 -0.3684
  557TMC3    O2 8326   3.970   1.714   9.839 -0.1481 -0.5852 -0.4190
  558TMC3    C1 8327   2.056   4.134  10.332  0.0828  0.2805 -1.3023
  558TMC3    C2 8328   1.949   4.120  10.419  0.4934  0.6448 -0.4418
  558TMC3    C3 8329   1.833   4.168  10.374  0.0605 -0.2967  0.2658
  558TMC3    C4 8330   2.041   4.176  10.204 -0.9400  0.7154  0.2103
  558TMC3    C5 8331   1.918   4.214  10.155  0.5389  0.0690 -0.1857
  558TMC3    C6 8332   1.816   4.215  10.247  0.0659 -0.4191 -0.5634
  558TMC3     C 8333   2.197   4.097  10.369 -0.2760  0.8197 -0.1650
  558TMC3     O 8334   2.274   4.058  10.283 -0.3862 -0.5253  0.4016
  558TMC3     H 8335   1.959   4.044  10.496  2.0660  2.4849  1.1752
  558TMC3    H1 8336   2.124   4.201  10.139 -1.7426  1.3017 -0.5887
  558TMC3    H2 8337   1.725   4.262  10.213  0.6599  2.2802  1.6325
  558TMC3    C7 8338   1.905   4.278  10.023  0.2589 -0.0972 -0.2056
  558TMC3    C8 8339   1.718   4.147  10.455  0.1513  0.2132  0.0739
  558TMC3    O1 8340   2.006   4.300   9.961  0.0578  0.0106 -0.1783
  558TMC3    O2 8341   1.609   4.174  10.407 -0.3507  0.1416  0.4559
  559MPD2     C 8342   1.951   4.555  10.277 -0.4901  0.1554 -0.2240
  559MPD2    C1 8343   1.945   4.511  10.411 -0.5365  0.7511  0.2270
  559MPD2    C2 8344   2.062   4.496  10.489 -0.1089 -1.1067 -0.2016
  559MPD2    C3 8345   2.184   4.500  10.429  0.2364 -0.0449 -0.6723
  559MPD2    C4 8346   2.184   4.521  10.296 -0.1149 -0.0711  0.0702
  559MPD2    C5 8347   2.073   4.550  10.215 -0.1716  0.2579 -0.3602
  559MPD2     H 8348   2.063   4.478  10.596  0.4139 -0.3022 -0.0717
  559MPD2    H1 8349   2.281   4.508  10.250 -0.9189 -0.3643 -1.5643
  559MPD2    H2 8350   1.867   4.589  10.217 -1.3492 -3.7703 -1.2263
  559MPD2    H3 8351   2.085   4.573  10.110  1.3029  0.5707 -0.1257
  559MPD2     N 8352   2.294   4.470  10.510  0.0536  0.2773  0.6840
  559MPD2    H5 8353   2.277   4.455  10.609  0.1018 -0.8316  0.5257
  559MPD2    N1 8354   1.813   4.499  10.460  0.2981  0.1181  0.2036
  559MPD2    H7 8355   1.745   4.529  10.391 -1.9103 -2.0862  1.4375
  560TMC3    C1 8356   2.509   4.427  10.590 -0.4322 -0.7072  0.4788
  560TMC3    C2 8357   2.455   4.374  10.704 -0.0284 -0.0781 -0.7262
  560TMC3    C3 8358   2.542   4.349  10.804  0.2571 -0.3546  0.0618
  560TMC3    C4 8359   2.641   4.460  10.587 -0.7455 -0.3281  0.4757
  560TMC3    C5 8360   2.724   4.431  10.694 -0.3369  0.3412  0.7202
  560TMC3    C6 8361   2.673   4.375  10.804 -0.2117  0.1949 -0.1134
  560TMC3     C 8362   2.426   4.450  10.469  0.1492 -0.3128  0.6398
  560TMC3     O 8363   2.476   4.438  10.357 -0.6316  0.3167  0.3490
  560TMC3     H 8364   2.351   4.344  10.711  0.1920 -0.7857 -0.5292
  560TMC3    H1 8365   2.677   4.504  10.495 -0.5898  1.5964  1.4560
  560TMC3    H2 8366   2.728   4.377  10.898  0.6324 -1.8396 -0.5665
  560TMC3    C7 8367   2.867   4.459  10.696 -0.8022  0.0903 -0.1030
  560TMC3    C8 8368   2.488   4.304  10.929 -0.3866  0.7657 -0.5219
  560TMC3    O1 8369   2.910   4.560  10.645  1.2207  0.2872  0.2983
  560TMC3    O2 8370   2.366   4.308  10.936  0.4624  0.0281 -0.5135
  561TMC3    C1 8371   0.118   3.800  11.584  1.0903  0.2861  0.7023
  561TMC3    C2 8372   0.052   3.750  11.692  0.3810 -0.2183 -0.6253
  561TMC3    C3 8373   0.010   3.835  11.792  0.4189  0.3687 -1.2498
  561TMC3    C4 8374   0.131   3.938  11.569  0.4876 -0.7126  0.3120
  561TMC3    C5 8375   0.086   4.017  11.669 -0.9723 -0.6262 -0.2188
  561TMC3    C6 8376   0.017   3.968  11.767  0.1747  0.4344 -0.1580
  561TMC3     C 8377   0.209   3.716  11.509  0.9989  0.6878 -0.1931
  561TMC3     O 8378   0.173   3.605  11.479 -0.1487  0.7682 -0.4346
  561TMC3     H 8379   0.064   3.643  11.709  2.9095  0.3148  1.0423
  561TMC3    H1 8380   0.178   3.974  11.478  0.6658  0.4486  0.8769
  561TMC3    H2 8381   4.729   4.029  11.853 -0.4732 -0.3675  0.2057
  561TMC3    C7 8382   0.108   4.162  11.675  0.1605  0.4671  0.3377
  561TMC3    C8 8383   4.645   3.775  11.879  0.3175  0.1408  0.3111
  561TMC3    O1 8384   0.064   4.214  11.776  0.2491 -0.0383  0.1239
  561TMC3    O2 8385   4.658   3.655  11.908  0.6043  0.1009  0.0718
  562TMC3    C1 8386   1.234   0.393  15.999 -0.5870 -0.4980 -0.5619
  562TMC3    C2 8387   1.110   0.461  15.993 -0.1638 -0.2217  0.3363
  562TMC3    C3 8388   1.065   0.503  15.870 -0.0289 -0.1435 -0.3599
  562TMC3    C4 8389   1.309   0.377  15.890  0.7034  0.5653 -0.3741
  562TMC3    C5 8390   1.264   0.427  15.768  0.2298  0.1711  0.0366
  562TMC3    C6 8391   1.141   0.492  15.758 -0.1543  0.3341 -1.1288
  562TMC3     C 8392   1.268   0.345  16.133 -0.1564 -0.4742 -0.1715
  562TMC3     O 8393   1.192   0.379  16.228 -0.5913  0.1671  0.0028
  562TMC3     H 8394   1.048   0.465  16.081  0.6041 -1.5524  0.9299
  562TMC3    H1 8395   1.400   0.318  15.888  0.0329 -0.4901  0.2147
  562TMC3    H2 8396   1.091   0.524  15.668 -1.7094  1.0802  0.0009
  562TMC3    C7 8397   1.322   0.394  15.638 -0.0114 -1.2537  0.1228
  562TMC3    C8 8398   0.928   0.547  15.860  0.8548 -0.1450 -0.4550
  562TMC3    O1 8399   1.295   0.475  15.549  0.0386 -0.2830  0.3119
  562TMC3    O2 8400   0.854   0.519  15.951 -1.0653 -0.2381 -0.1784
  563MPD2     C 8401   3.931   1.409  15.448 -0.4215 -0.2222 -0.3092
  563MPD2    C1 8402   3.942   1.477  15.569 -0.2102  0.8064  0.2360
  563MPD2    C2 8403   4.070   1.535  15.597 -0.1733  0.1688  0.9070
  563MPD2    C3 8404   4.171   1.523  15.503  0.2952 -0.0709  0.8634
  563MPD2    C4 8405   4.158   1.451  15.386 -0.9299  0.2729  0.3184
  563MPD2    C5 8406   4.036   1.404  15.361 -0.0111 -0.5569 -0.4445
  563MPD2     H 8407   4.095   1.591  15.687 -2.8332  0.1591  1.6345
  563MPD2    H1 8408   4.233   1.451  15.308 -0.1585 -1.1805  1.0448
  563MPD2    H2 8409   3.848   1.343  15.427  0.0633 -1.4917  1.7906
  563MPD2    H3 8410   4.020   1.358  15.264  0.1184 -0.1374 -0.6672
  563MPD2     N 8411   4.292   1.590  15.533  0.2252  0.0764  0.4518
  563MPD2    H5 8412   4.297   1.637  15.623 -0.7741 -0.2542  0.6861
  563MPD2    N1 8413   3.835   1.473  15.657 -0.5553  0.1618 -0.8776
  563MPD2    H7 8414   3.750   1.423  15.638  0.4958 -0.9651 -2.5866
  564TMC3    C1 8415   3.755   1.475  15.875  0.3976 -0.4887  0.0137
  564TMC3    C2 8416   3.626   1.428  15.834  0.6103 -0.6113 -0.2680
  564TMC3    C3 8417   3.558   1.348  15.925 -0.3121  0.3885  0.4554
  564TMC3    C4 8418   3.813   1.438  15.992  0.4527 -0.4292 -0.0716
  564TMC3    C5 8419   3.745   1.357  16.079  0.3058 -0.5388 -0.0332
  564TMC3    C6 8420   3.610   1.327  16.052 -0.4928  0.2656  0.2362
  564TMC3     C 8421   3.844   1.532  15.776  0.1429 -0.7046  0.0913
  564TMC3     O 8422   3.924   1.609  15.825 -0.4165 -0.4155 -0.0385
  564TMC3     H 8423   3.590   1.455  15.735  0.7735  0.2606 -0.0911
  564TMC3    H1 8424   3.921   1.452  15.989  0.5576 -1.2244 -0.0854
  564TMC3    H2 8425   3.553   1.263  16.118 -2.7165 -0.6950 -2.5804
  564TMC3    C7 8426   3.823   1.252  16.122 -0.3171 -0.0202 -0.6091
  564TMC3    C8 8427   3.509   1.225  15.868 -0.4460 -0.2295 -0.1118
  564TMC3    O1 8428   3.940   1.265  16.154 -0.3977  0.6558 -0.1748
  564TMC3    O2 8429   3.524   1.120  15.931 -0.1063 -0.3225  0.1480
  565TMC3    C1 8430   4.284   3.489   9.638  0.1091 -0.0282  0.3133
  565TMC3    C2 8431   4.233   3.414   9.745  0.1189  0.0139  0.1297
  565TMC3    C3 8432   4.140   3.316   9.721 -0.2764 -0.1463  0.4954
  565TMC3    C4 8433   4.241   3.461   9.512  0.1840  0.2721 -0.1058
  565TMC3    C5 8434   4.139   3.373   9.489  0.1038 -0.3550 -1.0026
  565TMC3    C6 8435   4.089   3.299   9.592 -0.0950 -0.6649 -0.5647
  565TMC3     C 8436   4.343   3.618   9.657  0.2056  0.5722  0.5056
  565TMC3     O 8437   4.345   3.706   9.573 -0.0387 -0.4817  0.0099
  565TMC3     H 8438   4.255   3.437   9.849  2.0210 -1.5848  0.0728
  565TMC3    H1 8439   4.282   3.520   9.430  2.3018  1.8106  2.0534
  565TMC3    H2 8440   3.993   3.250   9.578  0.9156 -2.6997 -0.4904
  565TMC3    C7 8441   4.119   3.339   9.348 -0.3669  0.4028 -0.2511
  565TMC3    C8 8442   4.103   3.226   9.831  0.8243 -0.5749 -0.0316
  565TMC3    O1 8443   4.134   3.431   9.274  0.0110  0.8034 -0.2024
  565TMC3    O2 8444   4.152   3.265   9.939  0.0898 -0.5824  0.3691
  566MPD2     C 8445   0.412   4.473  14.110 -0.0560 -0.1649 -0.2380
  566MPD2    C1 8446   0.429   4.597  14.059 -0.1639  0.0796 -0.2740
  566MPD2    C2 8447   0.344   4.647  13.960 -0.4865  0.1751 -0.5793
  566MPD2    C3 8448   0.238   4.573  13.915  0.4430  0.5066 -0.4710
  566MPD2    C4 8449   0.208   4.454  13.987 -0.7093  0.4942  0.2434
  566MPD2    C5 8450   0.297   4.402  14.077  0.2010  0.5099 -0.3506
  566MPD2     H 8451   0.350   0.009  13.919 -2.1244  0.4825 -0.0784
  566MPD2    H1 8452   0.121   4.396  13.960  0.7723 -1.1863 -0.9823
  566MPD2    H2 8453   0.486   4.431  14.177 -0.9995 -1.6274 -0.1087
  566MPD2    H3 8454   0.275   4.303  14.116  0.7428  0.5445  0.0378
  566MPD2     N 8455   0.151   4.611  13.813 -0.0383 -0.1382 -0.3194
  566MPD2    H5 8456   0.071   4.549  13.812 -0.5875  0.5951 -1.5447
  566MPD2    N1 8457   0.549   4.660  14.094  0.5248 -0.1305 -0.4723
  566MPD2    H7 8458   0.610   4.598  14.147  0.9860  1.8867  1.3396
  567TMC3    C1 8459   0.754   0.010  14.043 -1.1494  0.1008  0.3940
  567TMC3    C2 8460   0.819   0.030  13.928  0.0816  0.4577  0.4278
  567TMC3    C3 8461   0.960   0.017  13.920  0.5644  0.3385 -0.4770
  567TMC3    C4 8462   0.813   4.694  14.153  0.4763 -0.3782 -0.2816
  567TMC3    C5 8463   0.951   4.678  14.144 -0.0902  0.1602 -0.3973
  567TMC3    C6 8464   1.029   4.716  14.030  0.3209  0.2270 -0.0414
  567TMC3     C 8465   0.613   0.025  14.031  0.2971  0.2480  0.4455
  567TMC3     O 8466   0.571   0.083  13.930  0.2838 -0.4596  0.2042
  567TMC3     H 8467   0.772   0.071  13.840 -1.1299  1.1329  1.3855
  567TMC3    H1 8468   0.765   4.678  14.249 -0.5513 -3.1001 -1.2449
  567TMC3    H2 8469   1.136   4.699  14.023  0.2886  0.5566 -1.4935
  567TMC3    C7 8470   1.020   4.656  14.274 -0.3093 -0.0144  0.3800
  567TMC3    C8 8471   1.010   0.088  13.801  0.3122  0.1732  0.8548
  567TMC3    O1 8472   0.952   4.618  14.369  0.3656 -0.2484  0.0027
  567TMC3    O2 8473   0.931   0.136  13.720 -0.1278  0.5502 -0.0052
  568MPD2     C 8474   3.571   4.596  16.021 -0.0145  0.2509 -0.0086
  568MPD2    C1 8475   3.552   4.691  16.117 -0.3124  0.1800  0.5017
  568MPD2    C2 8476   3.519   0.080  16.078  0.5295  0.3292  0.2527
  568MPD2    C3 8477   3.484   0.108  15.945 -0.4966 -0.7610 -0.0220
  568MPD2    C4 8478   3.509   0.015  15.845 -0.2747  0.1624  0.1674
  568MPD2    C5 8479   3.557   4.627  15.885 -1.0016 -0.3395  0.5033
  568MPD2     H 8480   3.501   0.154  16.156 -0.4076  0.2684  0.0863
  568MPD2    H1 8481   3.479   0.024  15.741 -0.9974  1.3867  0.4922
  568MPD2    H2 8482   3.588   4.493  16.049  1.7992  1.1565  2.2710
  568MPD2    H3 8483   3.556   4.543  15.817 -1.0956  1.5959 -1.8835
  568MPD2     N 8484   3.412   0.228  15.922  0.9387 -0.3057  0.3881
  568MPD2    H5 8485   3.390   0.278  16.007  0.1209 -0.2925  0.1654
  568MPD2    N1 8486   3.574   4.656  16.255 -0.6486  0.4545 -0.1268
  568MPD2    H7 8487   3.630   4.574  16.280 -1.7807 -0.2725  0.0359
  569TMC3    C1 8488   3.289   0.399  15.813 -0.2823 -0.3354  0.1869
  569TMC3    C2 8489   3.244   0.441  15.940  0.2400 -0.1232  0.1224
  569TMC3    C3 8490   3.176   0.559  15.950  0.5555  0.2432 -0.0305
  569TMC3    C4 8491   3.260   0.476  15.700  0.3272 -0.1400  0.3686
  569TMC3    C5 8492   3.186   0.587  15.715 -0.2070  0.0954 -0.2107
  569TMC3    C6 8493   3.136   0.632  15.838 -0.2903  0.7370 -0.7905
  569TMC3     C 8494   3.366   0.282  15.802 -0.5405 -0.1198 -0.3918
  569TMC3     O 8495   3.398   0.256  15.689  0.1096 -0.4480  0.1688
  569TMC3     H 8496   3.258   0.376  16.027 -2.0267 -0.6218  0.1285
  569TMC3    H1 8497   3.313   0.472  15.606 -0.9749 -0.8203 -0.3462
  569TMC3    H2 8498   3.072   0.718  15.853  0.4531  1.2571 -0.5719
  569TMC3    C7 8499   3.205   0.692  15.615  0.2717 -0.0249  0.3138
  569TMC3    C8 8500   3.167   0.623  16.075 -0.6383  0.5359 -0.8909
  569TMC3    O1 8501   3.204   0.662  15.498 -0.2004  0.0232 -0.6098
  569TMC3    O2 8502   3.078   0.706  16.097 -0.3091  0.7611  0.5849
  570TMC3    C1 8503   2.737   4.198  15.974  0.5597 -0.3143  0.5809
  570TMC3    C2 8504   2.792   4.225  15.852 -0.1975 -0.7278 -0.4465
  570TMC3    C3 8505   2.845   4.352  15.828 -0.2334 -0.2734  0.0582
  570TMC3    C4 8506   2.718   4.295  16.069 -0.2364  0.3308  0.3653
  570TMC3    C5 8507   2.766   4.420  16.045  0.1127  0.9068 -0.1174
  570TMC3    C6 8508   2.831   4.451  15.927  0.0073 -0.5585 -0.4450
  570TMC3     C 8509   2.707   4.060  15.996 -0.3634  0.4905  0.1016
  570TMC3     O 8510   2.717   3.980  15.906 -0.2438  0.3324 -0.1612
  570TMC3     H 8511   2.791   4.144  15.779 -2.2296 -0.8394 -0.2878
  570TMC3    H1 8512   2.682   4.271  16.169 -1.5260  1.1630  0.0916
  570TMC3    H2 8513   2.884   4.544  15.909 -2.0380  0.9502  1.3192
  570TMC3    C7 8514   2.765   4.520  16.144  0.4360  0.4569  0.2833
  570TMC3    C8 8515   2.923   4.382  15.710 -0.0601 -0.4641  0.3937
  570TMC3    O1 8516   2.846   4.614  16.148 -0.1583 -0.3322 -0.1128
  570TMC3    O2 8517   2.949   4.496  15.680 -0.3607  0.0221 -0.2462
  571MPD2     C 8518   0.777   0.457  17.639  0.2386  0.4624 -0.2015
  571MPD2    C1 8519   0.663   0.522  17.664  0.2715 -0.7141 -0.4591
  571MPD2    C2 8520   0.676   0.642  17.739  0.1019 -0.2002 -0.0998
  571MPD2    C3 8521   0.801   0.696   0.032 -0.5725  0.2090 -0.3476
  571MPD2    C4 8522   0.912   0.636  17.736 -0.1310 -0.0599  0.2871
  571MPD2    C5 8523   0.898   0.521  17.667 -0.0148  0.1409 -0.1727
  571MPD2     H 8524   0.583   0.692   0.012  0.4991 -0.2107  1.5327
  571MPD2    H1 8525   1.014   0.668   0.006 -0.3941  1.8031 -1.3670
  571MPD2    H2 8526   0.782   0.368  17.577  0.8804 -0.1067  0.6611
  571MPD2    H3 8527   0.987   0.467  17.640  0.2554  0.2323  0.5210
  571MPD2     N 8528   0.796   0.811   0.106  0.4467 -0.3192 -0.1959
  571MPD2    H5 8529   0.704   0.853   0.120  0.7579  0.1837  0.3015
  571MPD2    N1 8530   0.542   0.465  17.622 -0.1908 -0.4837  0.2348
  571MPD2    H7 8531   0.551   0.372  17.582  0.0894 -0.7241  0.8547
  572TMC3    C1 8532   0.861   0.978   0.261  0.3179 -0.2651  0.1760
  572TMC3    C2 8533   0.930   0.983   0.381  0.3808 -0.1805  0.0940
  572TMC3    C3 8534   0.872   1.062   0.480 -0.1448  0.5917  0.6349
  572TMC3    C4 8535   0.753   1.055   0.229 -0.6014 -0.5422 -0.7911
  572TMC3    C5 8536   0.706   1.140   0.321 -0.0941  0.0660  0.2045
  572TMC3    C6 8537   0.764   1.145   0.446  0.6270 -0.3220 -0.5816
  572TMC3     C 8538   0.903   0.870   0.174  0.0703 -0.1892 -0.2742
  572TMC3     O 8539   1.017   0.828   0.187  0.3800 -0.1580 -0.2586
  572TMC3     H 8540   1.008   0.907   0.389  0.9132  0.1762 -1.7093
  572TMC3    H1 8541   0.719   1.061   0.126  1.0210  1.8888 -1.1747
  572TMC3    H2 8542   0.741   1.223   0.518 -1.2297 -0.9173 -0.5285
  572TMC3    C7 8543   0.633   1.259   0.272  0.8287  0.3458 -0.0471
  572TMC3    C8 8544   0.938   1.085   0.608  0.0335 -0.4007 -0.1635
  572TMC3    O1 8545   0.563   1.243   0.171  0.1969  0.1884 -0.1577
  572TMC3    O2 8546   0.891   1.170   0.682  0.5579  0.3313  0.3045
  573MPD2     C 8547   2.031   1.580   0.502  0.2557 -0.3586  0.9391
  573MPD2    C1 8548   1.927   1.608   0.584 -0.0161 -0.6676  0.1940
  573MPD2    C2 8549   1.808   1.531   0.582  0.2887 -0.0537  0.9625
  573MPD2    C3 8550   1.787   1.439   0.487  0.0860  0.0367 -0.0704
  573MPD2    C4 8551   1.885   1.420   0.393  0.2314 -0.0614  0.0802
  573MPD2    C5 8552   2.005   1.495   0.401  0.0665  0.1849  1.1907
  573MPD2     H 8553   1.728   1.549   0.653 -0.7285 -0.9738  0.0386
  573MPD2    H1 8554   1.877   1.345   0.315 -1.7895  0.4426 -0.1968
  573MPD2    H2 8555   2.120   1.642   0.506 -0.0769  0.1958 -0.2879
  573MPD2    H3 8556   2.085   1.475   0.331 -0.4678 -0.6106  0.8050
  573MPD2     N 8557   1.669   1.371   0.463  0.8488  0.2854  0.4564
  573MPD2    H5 8558   1.674   1.321   0.375  1.2877 -0.4458  0.8922
  573MPD2    N1 8559   1.937   1.721   0.670 -0.6138  0.1466  0.3671
  573MPD2    H7 8560   2.025   1.771   0.666  0.6228 -2.1596 -1.5509
  574TMC3    C1 8561   1.442   1.297   0.477 -0.2817  0.4698  0.2019
  574TMC3    C2 8562   1.317   1.340   0.496 -0.3203  1.4224  0.1103
  574TMC3    C3 8563   1.226   1.302   0.404  0.1863 -0.1115 -1.1934
  574TMC3    C4 8564   1.472   1.199   0.386 -0.5854 -0.4180 -0.5144
  574TMC3    C5 8565   1.376   1.177   0.292 -0.5920 -0.4028 -0.0942
  574TMC3    C6 8566   1.242   1.216   0.305 -0.0614  0.0463  0.4009
  574TMC3     C 8567   1.547   1.384   0.531 -0.0556  0.2940 -0.6386
  574TMC3     O 8568   1.518   1.449   0.631  0.4751 -0.1912 -0.0323
  574TMC3     H 8569   1.281   1.406   0.573 -0.1759  1.4179  0.1801
  574TMC3    H1 8570   1.572   1.162   0.367 -0.2291  0.3732 -0.1771
  574TMC3    H2 8571   1.163   1.204   0.231 -0.2043  1.7651  0.2794
  574TMC3    C7 8572   1.406   1.057   0.212 -0.0998 -0.2900  0.2801
  574TMC3    C8 8573   1.111   1.394   0.391  0.0021 -0.7483 -0.6149
  574TMC3    O1 8574   1.510   1.000   0.238  0.1699 -0.3101 -0.3666
  574TMC3    O2 8575   1.013   1.340   0.339 -0.3057 -0.6268 -0.7494
  575TMC3    C1 8576   4.469   2.870  10.498  0.7912 -0.0803 -0.3235
  575TMC3    C2 8577   4.403   2.800  10.593  0.2814  0.1292 -0.1562
  575TMC3    C3 8578   4.271   2.765  10.572  0.3773 -0.7038  0.4207
  575TMC3    C4 8579   4.406   2.887  10.378 -0.1376 -0.2223 -0.2613
  575TMC3    C5 8580   4.274   2.855  10.362  0.4690  0.2426  0.0470
  575TMC3    C6 8581   4.202   2.791  10.456  0.4734 -0.5170  0.3024
  575TMC3     C 8582   4.556   2.978  10.545 -0.4786 -0.5104 -0.2317
  575TMC3     O 8583   4.567   2.994  10.665 -0.7445 -0.1602 -0.6359
  575TMC3     H 8584   4.457   2.766  10.681 -0.7503  0.2453  0.5091
  575TMC3    H1 8585   4.451   2.952  10.304  0.6090 -0.6018 -0.1448
  575TMC3    H2 8586   4.099   2.765  10.436 -0.0008 -0.2710  2.3577
  575TMC3    C7 8587   4.206   2.925  10.254  0.2433  0.0693  0.1637
  575TMC3    C8 8588   4.194   2.712  10.678  0.2276  0.1390  0.8460
  575TMC3    O1 8589   4.262   3.014  10.193 -0.4806 -0.0159  0.5739
  575TMC3    O2 8590   4.073   2.703  10.659  0.1333  0.0403  0.6612
  576MPD2     C 8591   3.602   4.309  12.718  0.0978 -0.4169 -0.3913
  576MPD2    C1 8592   3.656   4.409  12.637  0.1702 -0.6883 -0.1501
  576MPD2    C2 8593   3.675   4.531  12.698  0.2952  1.2263  0.0194
  576MPD2    C3 8594   3.608   4.562  12.818 -0.5748  0.1656 -0.3461
  576MPD2    C4 8595   3.543   4.465  12.897 -0.2203 -0.8973  1.0706
  576MPD2    C5 8596   3.550   4.339  12.841  0.7245  0.1919  0.6157
  576MPD2     H 8597   3.719   4.613  12.643 -1.6508  1.7513 -0.7567
  576MPD2    H1 8598   3.502   4.485  12.995 -0.4404  0.6206  0.6849
  576MPD2    H2 8599   3.598   4.206  12.685 -2.8635 -0.3457 -0.2396
  576MPD2    H3 8600   3.510   4.255  12.898  0.9248 -0.8088 -0.7217
  576MPD2     N 8601   3.608   4.691  12.862  0.1955 -0.7793  0.5311
  576MPD2    H5 8602   3.659   0.016  12.801 -0.4274 -0.0766  0.7340
  576MPD2    N1 8603   3.707   4.394  12.505 -0.4344  0.0588 -0.2293
  576MPD2    H7 8604   3.779   4.458  12.472 -0.5897  0.7815  0.8165
  577TMC3    C1 8605   3.783   4.265  12.310  0.8533  0.1615  0.0385
  577TMC3    C2 8606   3.832   4.145  12.277  0.0653 -0.3249 -0.2179
  577TMC3    C3 8607   3.930   4.140  12.172 -0.1911 -0.0768  0.0853
  577TMC3    C4 8608   3.792   4.367  12.227 -0.2876  0.1948  0.1037
  577TMC3    C5 8609   3.867   4.352  12.112 -0.1384  0.1086  0.1293
  577TMC3    C6 8610   3.946   4.245  12.086 -0.2595 -0.5841 -0.4391
  577TMC3     C 8611   3.700   4.277  12.435 -0.0489 -0.5349 -0.0123
  577TMC3     O 8612   3.642   4.174  12.470  0.8143 -0.0382 -0.1909
  577TMC3     H 8613   3.822   4.055  12.337  1.7756  0.4017  1.1651
  577TMC3    H1 8614   3.748   4.458  12.265  1.3755  1.2995 -0.6397
  577TMC3    H2 8615   4.028   4.249  12.016 -0.8257  1.2879 -0.9942
  577TMC3    C7 8616   3.837   4.456  12.010  0.0433 -0.0225  0.2881
  577TMC3    C8 8617   4.031   4.035  12.189 -0.2752 -0.3372 -0.3106
  577TMC3    O1 8618   3.800   4.564  12.050 -0.0321 -0.3072 -0.0811
  577TMC3    O2 8619   4.027   3.984  12.295  0.0120 -0.6387 -0.1551
  578MPD2     C 8620   2.047   4.461   1.461 -0.0284 -0.1472  1.0434
  578MPD2    C1 8621   2.087   4.374   1.360  0.3965 -0.5656 -0.1229
  578MPD2    C2 8622   2.209   4.303   1.374 -0.1930 -0.1070 -0.1396
  578MPD2    C3 8623   2.291   4.326   1.483  0.1533 -0.0422 -0.0378
  578MPD2    C4 8624   2.247   4.410   1.581  0.1049 -0.9322 -0.2661
  578MPD2    C5 8625   2.133   4.489   1.564 -0.0008  0.3555 -0.3436
  578MPD2     H 8626   2.247   4.234   1.300 -1.7726  0.1413 -1.2007
  578MPD2    H1 8627   2.313   4.430   1.665 -0.0384  0.7216 -0.5481
  578MPD2    H2 8628   1.962   4.526   1.444 -0.0213 -0.0063  1.5300
  578MPD2    H3 8629   2.116   4.566   1.638  1.5024 -1.5377  1.9875
  578MPD2     N 8630   2.410   4.246   1.490 -0.5522 -0.1751  0.2220
  578MPD2    H5 8631   2.435   4.183   1.415  1.3933  0.6870  0.1629
  578MPD2    N1 8632   1.992   4.353   1.257 -0.4466 -0.6508 -0.1417
  578MPD2    H7 8633   1.912   4.416   1.251 -0.5492 -0.7954 -0.3119
  579TMC3    C1 8634   2.642   4.205   1.539  0.0629 -0.2517 -0.2433
  579TMC3    C2 8635   2.756   4.283   1.554 -0.2074  0.5653 -1.0998
  579TMC3    C3 8636   2.868   4.238   1.486  0.5014  0.2405  0.1284
  579TMC3    C4 8637   2.647   4.092   1.460  0.1441 -0.7491  0.0960
  579TMC3    C5 8638   2.768   4.050   1.399 -0.5414  0.9727 -0.0682
  579TMC3    C6 8639   2.881   4.120   1.419  0.5281  0.0900 -0.0093
  579TMC3     C 8640   2.520   4.278   1.572 -0.0331  0.5625 -0.2375
  579TMC3     O 8641   2.529   4.360   1.663 -0.2699  0.2145  0.0538
  579TMC3     H 8642   2.754   4.376   1.610  0.8187  1.3256 -2.3128
  579TMC3    H1 8643   2.555   4.035   1.456  0.3061 -0.9372 -0.8751
  579TMC3    H2 8644   2.973   4.078   1.378  1.0813 -1.0619  2.4346
  579TMC3    C7 8645   2.775   3.949   1.288  0.6692  0.2022  0.4301
  579TMC3    C8 8646   2.992   4.300   1.528 -1.0130 -0.5285  0.2266
  579TMC3    O1 8647   2.889   3.935   1.235  0.5348 -0.0111 -0.2219
  579TMC3    O2 8648   2.984   4.374   1.622 -0.3707  0.6525 -0.4685
  580TMC3    C1 8649   1.765   2.944  11.257  0.4962 -0.2790  0.4427
  580TMC3    C2 8650   1.809   2.971  11.132 -0.0939  0.3379  0.3542
  580TMC3    C3 8651   1.764   2.894  11.028 -0.1655 -0.8812 -0.5548
  580TMC3    C4 8652   1.688   2.832  11.283  0.1810  0.3214  0.6076
  580TMC3    C5 8653   1.651   2.750  11.176 -0.0231  0.2901 -0.6669
  580TMC3    C6 8654   1.689   2.782  11.044 -0.0281  0.0881  0.4697
  580TMC3     C 8655   1.794   3.042  11.361 -0.2953 -0.0300  1.0795
  580TMC3     O 8656   1.840   3.149  11.325 -0.5258  0.1787 -0.9443
  580TMC3     H 8657   1.879   3.052  11.111  1.0587 -1.2840 -2.1515
  580TMC3    H1 8658   1.650   2.806  11.382  1.2262 -1.4557  0.5289
  580TMC3    H2 8659   1.641   2.736  10.959 -0.1199  0.0822  0.5243
  580TMC3    C7 8660   1.663   2.614  11.204  1.0068  0.1770 -0.0374
  580TMC3    C8 8661   1.792   2.939  10.888 -0.0013  0.3029  0.4017
  580TMC3    O1 8662   1.594   2.538  11.137  0.3360 -0.2831  0.6273
  580TMC3    O2 8663   1.716   2.904  10.802 -0.2061  0.0960  0.6637
  581MPD2     C 8664   4.589   3.140  14.691 -0.3707 -0.3663  1.2461
  581MPD2    C1 8665   4.580   3.220  14.803 -0.8269  0.5561  0.1742
  581MPD2    C2 8666   4.461   3.296  14.825  0.0071 -0.5750 -0.0961
  581MPD2    C3 8667   4.356   3.284  14.731 -0.5977  0.8976 -0.3526
  581MPD2    C4 8668   4.370   3.206  14.621  0.3205 -0.2206 -0.0854
  581MPD2    C5 8669   4.485   3.138  14.595 -0.0935  0.3265  1.3114
  581MPD2     H 8670   4.450   3.351  14.918 -1.7166 -0.6526 -0.2510
  581MPD2    H1 8671   4.284   3.198  14.555  0.0304  2.1233  0.0205
  581MPD2    H2 8672   4.680   3.080  14.683  0.9802  1.8692 -0.2422
  581MPD2    H3 8673   4.482   3.083  14.502 -0.2179 -0.4570  1.7758
  581MPD2     N 8674   4.234   3.364  14.744  0.4083 -0.4243  0.4918
  581MPD2    H5 8675   4.155   3.344  14.683 -0.1247  1.0761  0.6965
  581MPD2    N1 8676   4.681   3.203  14.898 -0.9218 -0.4089  0.0873
  581MPD2    H7 8677   0.025   3.151  14.869  1.8442  2.9547  1.7398
  582TMC3    C1 8678   0.038   3.159  15.107  0.0726 -0.6445  0.6343
  582TMC3    C2 8679   0.054   3.181  15.238 -0.0791  0.0073  0.6983
  582TMC3    C3 8680   0.111   3.089  15.322  0.0923 -0.6349 -0.8290
  582TMC3    C4 8681   0.092   3.050  15.045 -0.4996  1.3139  0.0572
  582TMC3    C5 8682   0.133   2.952  15.133 -0.6640  0.1948 -0.8742
  582TMC3    C6 8683   0.143   2.966  15.266 -0.3752 -0.5992 -0.2997
  582TMC3     C 8684   4.678   3.237  15.028  0.9466  0.4332  0.1373
  582TMC3     O 8685   4.596   3.303  15.086 -0.3084 -0.0454  0.0773
  582TMC3     H 8686   0.022   3.276  15.278 -0.4918 -0.0891  0.5921
  582TMC3    H1 8687   0.093   3.028  14.939  2.6351  0.3247  0.2712
  582TMC3    H2 8688   0.185   2.884  15.323  0.9104  0.2351 -0.0275
  582TMC3    C7 8689   0.160   2.819  15.078  0.0288  0.3635  0.2132
  582TMC3    C8 8690   0.071   3.093  15.464  0.5309 -0.3660 -0.1696
  582TMC3    O1 8691   0.239   2.760  15.143  0.5471  0.3364 -0.3448
  582TMC3    O2 8692   0.006   3.190  15.500 -0.5110  0.3196 -0.6383
  583MPD2     C 8693   4.623   4.207  16.685 -0.1008 -0.1651  0.7065
  583MPD2    C1 8694   4.666   4.334  16.651  0.1494  0.1082  0.2843
  583MPD2    C2 8695   4.620   4.438  16.732  0.4034  0.0015 -0.0245
  583MPD2    C3 8696   4.536   4.427  16.842 -0.6562  0.0998 -0.3430
  583MPD2    C4 8697   4.504   4.296  16.880  0.0819 -0.5525 -0.0990
  583MPD2    C5 8698   4.545   4.192  16.793  0.1288 -0.5235 -0.1131
  583MPD2     H 8699   4.650   4.537  16.701 -1.6771  1.4164  2.4644
  583MPD2    H1 8700   4.466   4.267  16.978  1.0465 -1.7320 -0.0751
  583MPD2    H2 8701   4.634   4.122  16.619  0.6705  0.2185  0.3458
  583MPD2    H3 8702   4.504   4.093  16.816  1.8311 -1.0391  0.6882
  583MPD2     N 8703   4.512   4.537  16.925  0.6507 -0.6861  0.1884
  583MPD2    H5 8704   4.531   4.630  16.888 -0.7255 -0.9651 -1.2507
  583MPD2    N1 8705   0.002   4.356  16.533  0.2184 -0.2036  0.1040
  583MPD2    H7 8706   0.006   4.446  16.486  0.8144  2.0826  4.5494
  584TMC3    C1 8707   4.400   4.659  17.090  0.2929 -0.3667  0.1313
  584TMC3    C2 8708   4.474   0.033  17.061 -0.4361  0.2985  0.0163
  584TMC3    C3 8709   4.441   0.159  17.109  0.6146 -0.3540  0.0970
  584TMC3    C4 8710   4.283   4.672  17.156  0.5790 -0.9788 -0.0520
  584TMC3    C5 8711   4.254   0.057  17.204  0.3500 -0.0193  0.4558
  584TMC3    C6 8712   4.332   0.171  17.188 -0.4122 -0.5093 -0.4623
  584TMC3     C 8713   4.427   4.531  17.033 -0.1568  0.4634  0.4844
  584TMC3     O 8714   4.360   4.438  17.073 -0.2180  0.2927 -0.4476
  584TMC3     H 8715   4.562   0.031  16.999 -2.0918 -0.2197 -2.3202
  584TMC3    H1 8716   4.210   4.593  17.167  0.4207 -0.8176  0.0653
  584TMC3    H2 8717   4.307   0.268  17.227  3.1150 -0.3693  1.3789
  584TMC3    C7 8718   4.129   0.068  17.283 -0.0034  0.2556  0.1185
  584TMC3    C8 8719   4.496   0.276  17.039 -0.4666  0.4586  0.6506
  584TMC3    O1 8720   4.064   4.702  17.293 -0.3357 -0.1145 -0.1890
  584TMC3    O2 8721   4.522   0.258  16.924 -0.0898 -0.2204 -0.0189
  585MPD2     C 8722   3.747   3.426   0.428  0.7727  0.7169 -0.0817
  585MPD2    C1 8723   3.631   3.387   0.350  0.2310  0.2415  0.4516
  585MPD2    C2 8724   3.637   3.287   0.260 -0.0397  0.1195 -0.3635
  585MPD2    C3 8725   3.760   3.234   0.224 -0.1612 -0.1868  0.0486
  585MPD2    C4 8726   3.870   3.266   0.298  0.1787 -0.0937  0.1258
  585MPD2    C5 8727   3.865   3.361   0.404 -0.1984 -0.0670 -0.3759
  585MPD2     H 8728   3.545   3.259   0.211 -0.1828 -1.3036  0.7140
  585MPD2    H1 8729   3.965   3.218   0.279 -0.0312 -0.5022  0.1021
  585MPD2    H2 8730   3.727   3.510   0.494 -0.0975 -0.5534  1.2870
  585MPD2    H3 8731   3.953   3.389   0.461  0.6266 -0.8506 -1.2401
  585MPD2     N 8732   3.768   3.153   0.103  0.1033 -0.1377  0.2390
  585MPD2    H5 8733   3.676   3.144   0.062  0.5711 -1.8606 -0.4329
  585MPD2    N1 8734   3.497   3.437   0.366 -0.7863 -0.6038 -0.5774
  585MPD2    H7 8735   3.424   3.385   0.318 -3.5099  0.8865  1.9668
  586TMC3    C1 8736   3.826   3.065  17.646  0.3132 -0.2964  0.4127
  586TMC3    C2 8737   3.909   2.984  17.569  0.5083  0.4771  0.2536
  586TMC3    C3 8738   3.867   2.955  17.445 -0.1955  0.0375  0.0841
  586TMC3    C4 8739   3.708   3.111  17.602 -0.4061 -0.5046  0.1512
  586TMC3    C5 8740   3.677   3.081  17.475  0.5360 -0.2939  0.0156
  586TMC3    C6 8741   3.753   3.005  17.387  0.5442 -0.1350 -0.3317
  586TMC3     C 8742   3.878   3.125   0.023 -0.6122  0.0067 -0.6383
  586TMC3     O 8743   3.997   3.128   0.054 -0.2561 -0.1400  0.6666
  586TMC3     H 8744   3.998   2.942  17.614  0.8916  1.4807  0.4316
  586TMC3    H1 8745   3.647   3.181  17.658  1.6393  0.5792  1.0218
  586TMC3    H2 8746   3.714   2.977  17.290 -0.1297  2.0235 -0.6789
  586TMC3    C7 8747   3.542   3.110  17.437  0.3916 -0.0936  0.0087
  586TMC3    C8 8748   3.955   2.872  17.367  0.0205  0.6107  0.2730
  586TMC3    O1 8749   3.456   3.114  17.524  0.1170  0.0578  0.6681
  586TMC3    O2 8750   4.003   2.770  17.421 -0.1011 -0.0465  0.7708
  587TMC3    C1 8751   1.482   2.027  16.774  0.3087 -0.1897  0.4064
  587TMC3    C2 8752   1.449   2.151  16.729 -0.5205 -0.4406 -0.0271
  587TMC3    C3 8753   1.554   2.231  16.686 -0.9425 -0.0287  0.3412
  587TMC3    C4 8754   1.607   1.974  16.782 -0.6123 -0.6653  0.1914
  587TMC3    C5 8755   1.705   2.059  16.756  0.0198  0.3484  0.6659
  587TMC3    C6 8756   1.681   2.182  16.696 -0.1741 -0.3353 -0.0640
  587TMC3     C 8757   1.379   1.930  16.819  0.1974 -0.0777  0.5338
  587TMC3     O 8758   1.411   1.867  16.920 -0.0129  0.5124  0.1294
  587TMC3     H 8759   1.346   2.182  16.724 -1.1284 -2.5309 -0.8091
  587TMC3    H1 8760   1.610   1.868  16.807  1.1900 -0.5115  0.6444
  587TMC3    H2 8761   1.766   2.245  16.672 -2.5083  2.2372 -1.6118
  587TMC3    C7 8762   1.844   1.997  16.736  0.2124  0.0512 -0.4161
  587TMC3    C8 8763   1.543   2.380  16.654 -1.0299  0.4979 -0.9510
  587TMC3    O1 8764   1.929   2.043  16.659 -0.4904 -0.7645 -0.3460
  587TMC3    O2 8765   1.642   2.423  16.599  0.2322  0.2244  0.1799
  588TMC3    C1 8766   3.989   4.550   9.255 -0.3497  0.4211 -0.2708
  588TMC3    C2 8767   3.961   4.416   9.241 -0.5899 -0.6295 -0.1884
  588TMC3    C3 8768   3.947   4.357   9.359  0.6258  0.3324  0.2347
  588TMC3    C4 8769   4.014   4.621   9.368 -0.5272 -0.6380  0.4090
  588TMC3    C5 8770   3.998   4.544   9.480 -0.5435 -0.2487 -0.6942
  588TMC3    C6 8771   3.956   4.418   9.480  0.3484 -0.0975 -0.6846
  588TMC3     C 8772   3.970   4.628   9.135  0.0380  0.7356 -0.4517
  588TMC3     O 8773   4.032   4.590   9.038  0.0470 -0.2886 -0.1372
  588TMC3     H 8774   3.962   4.368   9.144 -0.2373  0.0833 -0.5416
  588TMC3    H1 8775   4.054   4.722   9.370 -1.3160 -0.3055 -0.8569
  588TMC3    H2 8776   3.932   4.364   9.571 -0.1794  2.3502  0.6132
  588TMC3    C7 8777   4.005   4.612   9.611 -0.3643  0.1479  0.7281
  588TMC3    C8 8778   3.887   4.223   9.341  0.0172 -0.1311 -0.1770
  588TMC3    O1 8779   4.043   4.547   9.706  0.3051 -0.2542 -0.1250
  588TMC3    O2 8780   3.845   4.196   9.231  0.1071  0.2625  1.1153
  589TMC3    C1 8781   2.928   2.536   0.968  0.0104 -0.3881  0.5629
  589TMC3    C2 8782   3.046   2.575   1.035  0.1689  0.3070 -0.2510
  589TMC3    C3 8783   3.154   2.496   1.014  0.0872  0.5628  0.3931
  589TMC3    C4 8784   2.926   2.435   0.882  0.4424  0.0547  0.9819
  589TMC3    C5 8785   3.039   2.361   0.861  0.4972  0.2455  0.6245
  589TMC3    C6 8786   3.153   2.395   0.927  0.7169 -0.3873  0.5693
  589TMC3     C 8787   2.810   2.611   0.994 -0.0467  0.0851  0.3749
  589TMC3     O 8788   2.720   2.577   0.926 -0.4565  0.3258 -0.2565
  589TMC3     H 8789   3.061   2.672   1.081 -1.8383 -0.4099  1.9109
  589TMC3    H1 8790   2.838   2.406   0.827  0.6916 -0.1382  0.6791
  589TMC3    H2 8791   3.241   2.338   0.901  1.2034  1.6506 -2.2291
  589TMC3    C7 8792   3.031   2.241   0.780 -0.4290  0.5365  0.0127
  589TMC3    C8 8793   3.282   2.548   1.060 -0.6941  0.1249 -0.3904
  589TMC3    O1 8794   2.933   2.173   0.811 -0.1113 -0.0011  0.1682
  589TMC3    O2 8795   3.284   2.654   1.125  0.2060  0.0412  0.1435
  590MPD2     C 8796   2.520   0.774  16.682 -1.6208  0.0106  0.0374
  590MPD2    C1 8797   2.474   0.816  16.558 -0.0845  0.3225  0.3646
  590MPD2    C2 8798   2.560   0.872  16.471 -0.0441 -0.8160  0.0288
  590MPD2    C3 8799   2.692   0.904  16.506 -0.3873 -0.7369 -0.1165
  590MPD2    C4 8800   2.737   0.867  16.629  0.1011  0.1455 -0.6642
  590MPD2    C5 8801   2.655   0.790  16.708 -0.5414  0.2357  0.4394
  590MPD2     H 8802   2.517   0.919  16.383 -2.4822 -1.2326  0.9893
  590MPD2    H1 8803   2.836   0.892  16.664 -0.5097 -2.4140  2.9233
  590MPD2    H2 8804   2.460   0.719  16.753 -1.0961  1.6425  1.7270
  590MPD2    H3 8805   2.694   0.772  16.807  2.2249 -0.0726 -0.7186
  590MPD2     N 8806   2.776   0.962  16.411 -0.1855 -0.1127  0.4670
  590MPD2    H5 8807   2.733   0.976  16.320 -3.6502 -1.2865  1.9562
  590MPD2    N1 8808   2.341   0.791  16.523  0.0868 -0.3084 -0.3408
  590MPD2    H7 8809   2.282   0.763  16.601  1.7870  0.2361  1.1347
  591TMC3    C1 8810   2.944   1.077  16.306  0.5188  0.6364 -0.0057
  591TMC3    C2 8811   2.947   0.989  16.202 -0.2150 -0.4129  0.0265
  591TMC3    C3 8812   2.914   1.034  16.074 -1.2648  0.0274  0.0526
  591TMC3    C4 8813   2.906   1.206  16.283  0.2792 -0.1002 -0.3953
  591TMC3    C5 8814   2.887   1.252  16.158  0.3224 -0.3572  0.1353
  591TMC3    C6 8815   2.886   1.168  16.052 -0.1398 -0.4122 -0.2484
  591TMC3     C 8816   2.897   1.018  16.428  0.0805 -0.2516  0.4265
  591TMC3     O 8817   2.960   1.039  16.528  0.1202 -0.5495 -0.1574
  591TMC3     H 8818   2.960   0.882  16.217 -2.1725 -0.3617  2.1372
  591TMC3    H1 8819   2.888   1.264  16.373 -1.5635 -0.4658 -0.5290
  591TMC3    H2 8820   2.850   1.205  15.957 -1.0801 -0.5796  0.0418
  591TMC3    C7 8821   2.802   1.370  16.131 -0.3451 -0.4972 -0.4822
  591TMC3    C8 8822   2.839   0.938  16.000 -0.4129  0.5020  0.3348
  591TMC3    O1 8823   2.709   1.394  16.214  0.1400  0.5494 -0.2186
  591TMC3    O2 8824   2.780   0.846  16.049  0.5196  0.3468  0.2419
  592MPD2     C 8825   2.787   3.179  11.249  0.0965  0.3428 -0.2661
  592MPD2    C1 8826   2.736   3.200  11.372  0.0988 -0.3097 -0.7542
  592MPD2    C2 8827   2.637   3.113  11.410 -0.0258 -0.4125  0.5550
  592MPD2    C3 8828   2.591   3.007  11.340  0.2950  0.3809 -0.4565
  592MPD2    C4 8829   2.647   2.989  11.215 -0.5137  0.3068  0.4741
  592MPD2    C5 8830   2.744   3.074  11.173 -0.1529  0.2177 -0.9232
  592MPD2     H 8831   2.597   3.110  11.511  0.5742 -1.8726  0.7517
  592MPD2    H1 8832   2.634   2.900  11.156 -0.5226  0.1824  0.6640
  592MPD2    H2 8833   2.865   3.242  11.206 -0.5484  0.2625 -1.5683
  592MPD2    H3 8834   2.796   3.052  11.080 -0.2932  1.3819 -1.2816
  592MPD2     N 8835   2.510   2.911  11.412 -0.1033  0.0527 -0.0283
  592MPD2    H5 8836   2.489   2.926  11.511  2.3950  2.5970  0.0887
  592MPD2    N1 8837   2.802   3.292  11.455 -0.0476  0.2258  0.3364
  592MPD2    H7 8838   2.869   3.350  11.404  1.7201 -0.3926  1.9413
  593TMC3    C1 8839   2.890   3.368  11.656  0.2198 -0.1914 -0.3041
  593TMC3    C2 8840   2.867   3.422  11.780 -0.2143 -0.2006  0.1250
  593TMC3    C3 8841   2.972   3.490  11.836  1.8071 -0.0389 -0.3062
  593TMC3    C4 8842   3.022   3.353  11.605  0.0428  0.0352 -0.3184
  593TMC3    C5 8843   3.122   3.405  11.682  0.2813 -0.6297  0.6193
  593TMC3    C6 8844   3.101   3.487  11.782 -0.2874 -0.6639  0.3762
  593TMC3     C 8845   2.781   3.294  11.587  0.2686  0.1724 -0.2953
  593TMC3     O 8846   2.676   3.274  11.647 -0.1240  0.0690 -0.5840
  593TMC3     H 8847   2.767   3.417  11.822  0.0203  0.7683  0.7965
  593TMC3    H1 8848   3.038   3.301  11.512  1.2833  1.5098 -0.9191
  593TMC3    H2 8849   3.191   3.519  11.833  0.3590 -0.1296 -1.1091
  593TMC3    C7 8850   3.258   3.390  11.639  0.6100  0.6697 -0.2952
  593TMC3    C8 8851   2.954   3.538  11.969 -0.0522 -0.1582  0.1970
  593TMC3    O1 8852   3.328   3.491  11.646  0.3441  0.2219 -0.0118
  593TMC3    O2 8853   2.840   3.518  12.015  0.2733 -0.0324 -0.0828
  594MPD2     C 8854   1.836   1.584  14.706 -0.2907  0.1736  0.0201
  594MPD2    C1 8855   1.769   1.691  14.651  0.2007  0.2962 -0.3325
  594MPD2    C2 8856   1.851   1.783  14.592 -0.0592 -0.6709  0.3904
  594MPD2    C3 8857   1.991   1.787  14.604  0.3926  0.2767 -0.4163
  594MPD2    C4 8858   2.048   1.690  14.680  0.0592 -0.1181 -0.0767
  594MPD2    C5 8859   1.969   1.592  14.731 -0.4721 -0.3013  0.2165
  594MPD2     H 8860   1.806   1.863  14.533 -0.3385 -2.2778 -1.6020
  594MPD2    H1 8861   2.155   1.691  14.699 -0.0870 -1.8583  0.8070
  594MPD2    H2 8862   1.787   1.500  14.753 -0.8050  0.2649 -0.3566
  594MPD2    H3 8863   2.021   1.514  14.785 -0.6649 -0.1485  0.6261
  594MPD2     N 8864   2.053   1.891  14.533 -0.0317  0.7398 -0.1838
  594MPD2    H5 8865   1.995   1.960  14.486  0.5583 -0.1908 -2.2912
  594MPD2    N1 8866   1.622   1.697  14.645 -1.0476 -0.3228 -0.1803
  594MPD2    H7 8867   1.570   1.619  14.686  0.6104 -1.7649 -0.8027
  595TMC3    C1 8868   2.392   2.136  14.323 -0.9104 -0.9645  0.2391
  595TMC3    C2 8869   2.339   2.018  14.376  0.3142  0.2354 -0.6998
  595TMC3    C3 8870   2.221   2.025  14.431 -0.1792  0.5494 -0.9666
  595TMC3    C4 8871   2.312   2.239  14.303  0.4867 -0.3032  0.1221
  595TMC3    C5 8872   2.189   2.241  14.365  0.0288  0.0089  0.5816
  595TMC3    C6 8873   2.139   2.131  14.432  0.2900 -0.1001 -0.3097
  595TMC3     C 8874   2.535   2.167  14.313 -0.7761 -0.1494  0.6823
  595TMC3     O 8875   2.566   2.281  14.350 -0.1533 -0.0245  0.2338
  595TMC3     H 8876   2.405   1.935  14.396 -0.8487 -0.6545 -0.5233
  595TMC3    H1 8877   2.355   2.326  14.254  1.5749 -1.9639 -1.8759
  595TMC3    H2 8878   2.040   2.138  14.477  0.7964 -2.5220  1.1736
  595TMC3    C7 8879   2.112   2.365  14.377 -0.3245  0.6737  0.0253
  595TMC3    C8 8880   2.187   1.901  14.510  0.2525 -0.1294 -0.0379
  595TMC3    O1 8881   1.991   2.356  14.409 -0.4860  0.4883 -0.1922
  595TMC3    O2 8882   2.275   1.835  14.563 -0.3749 -0.0450  0.2847
  596MPD2     C 8883   0.631   4.044  16.856 -0.1485 -0.3943 -0.5256
  596MPD2    C1 8884   0.673   4.161  16.796 -0.0053  0.1714  0.2929
  596MPD2    C2 8885   0.720   4.150  16.668 -0.0736  0.1129 -0.7703
  596MPD2    C3 8886   0.731   4.030  16.593  0.3283 -0.0278 -0.4296
  596MPD2    C4 8887   0.706   3.919  16.661  0.2484 -0.3264  0.4614
  596MPD2    C5 8888   0.654   3.925  16.794  0.9134  0.0067  0.8592
  596MPD2     H 8889   0.734   4.244  16.616 -2.0480  0.2474 -1.0742
  596MPD2    H1 8890   0.697   3.825  16.608  1.3170 -0.5961  0.7498
  596MPD2    H2 8891   0.569   4.044  16.944 -0.3429 -0.8306 -0.6612
  596MPD2    H3 8892   0.612   3.830  16.826  2.3108 -1.4757 -1.6818
  596MPD2     N 8893   0.767   4.029  16.454  0.2758 -0.4093  0.2297
  596MPD2    H5 8894   0.786   3.941  16.407 -0.2908  1.1065 -2.8035
  596MPD2    N1 8895   0.652   4.291  16.847  0.8711  0.6661  0.0685
  596MPD2    H7 8896   0.671   4.373  16.791  0.5605  0.9259  0.3456
  597TMC3    C1 8897   0.577   4.469  16.975  0.4156  0.5140  0.0020
  597TMC3    C2 8898   0.689   4.539  16.943 -0.4177  0.2156 -0.2663
  597TMC3    C3 8899   0.690   4.676  16.968  0.2628  0.1528  0.1503
  597TMC3    C4 8900   0.469   4.525  17.029 -0.0875 -0.1432 -0.2577
  597TMC3    C5 8901   0.469   4.659  17.054 -0.6461  1.0920  0.7780
  597TMC3    C6 8902   0.585   4.733  17.029  0.1184 -0.4894  0.1823
  597TMC3     C 8903   0.584   4.323  16.964  0.0072  0.4934  0.4955
  597TMC3     O 8904   0.510   4.256  17.031 -0.2233 -0.1596  0.9442
  597TMC3     H 8905   0.776   4.494  16.896 -0.7312 -0.0235 -0.6258
  597TMC3    H1 8906   0.377   4.472  17.049 -1.9526  3.4711  0.7522
  597TMC3    H2 8907   0.574   0.103  17.023  2.6823 -0.3671 -2.3168
  597TMC3    C7 8908   0.352   4.730  17.089 -0.2830 -0.3771  0.4636
  597TMC3    C8 8909   0.794   0.012  16.900 -0.7531  0.5940 -0.3394
  597TMC3    O1 8910   0.242   4.677  17.069 -0.7217 -0.9681  0.1319
  597TMC3    O2 8911   0.911   4.708  16.899  0.2099  0.3341 -0.0476
  598TMC3    C1 8912   3.528   1.118  15.263  0.2434 -0.0950 -0.1408
  598TMC3    C2 8913   3.404   1.075  15.240 -0.6501  0.1251 -0.4205
  598TMC3    C3 8914   3.328   1.129  15.135 -0.3624  0.2052  0.1648
  598TMC3    C4 8915   3.576   1.214  15.184 -0.6884 -0.3195 -0.6785
  598TMC3    C5 8916   3.500   1.277  15.091 -0.1078 -0.4780  0.1449
  598TMC3    C6 8917   3.375   1.231  15.053  0.5086  0.5103  0.4813
  598TMC3     C 8918   3.599   1.104  15.387  0.1097  0.8114  0.7821
  598TMC3     O 8919   3.653   1.204  15.436 -0.9100  1.1330  0.6556
  598TMC3     H 8920   3.358   0.987  15.284 -0.1747  0.3296  0.4750
  598TMC3    H1 8921   3.682   1.232  15.200 -0.7003 -2.6128  1.8750
  598TMC3    H2 8922   3.318   1.272  14.970  1.6831  1.1375 -0.0186
  598TMC3    C7 8923   3.566   1.347  14.983 -0.5376 -0.0994 -0.7368
  598TMC3    C8 8924   3.211   1.053  15.087 -0.8012 -0.6894  0.3381
  598TMC3    O1 8925   3.526   1.299  14.879  0.1718 -0.3387  0.1199
  598TMC3    O2 8926   3.140   1.003  15.175  0.1044  0.4945  0.1792
  599MPD2     C 8927   3.311   3.640  15.343 -0.9279  0.7693  0.0254
  599MPD2    C1 8928   3.325   3.548  15.453 -0.1241 -0.0186 -0.1738
  599MPD2    C2 8929   3.240   3.557  15.563 -1.5807 -0.0430  0.2809
  599MPD2    C3 8930   3.156   3.668  15.573 -0.1507 -0.0309 -0.5053
  599MPD2    C4 8931   3.146   3.756  15.461 -0.1624  0.6834 -0.6164
  599MPD2    C5 8932   3.226   3.744  15.351 -0.4375  0.5403  0.3428
  599MPD2     H 8933   3.264   3.495  15.648 -0.4439 -1.4968 -1.1065
  599MPD2    H1 8934   3.068   3.831  15.464  0.2935  1.1517 -0.5155
  599MPD2    H2 8935   3.359   3.628  15.247 -0.6886  2.0951 -0.0103
  599MPD2    H3 8936   3.216   3.814  15.269  1.5625  2.1306  1.4777
  599MPD2     N 8937   3.074   3.698  15.689  0.1820 -0.1048 -0.5893
  599MPD2    H5 8938   3.029   3.789  15.680 -1.0496 -0.4833  1.7987
  599MPD2    N1 8939   3.424   3.446  15.433  0.8401 -0.1235  0.0735
  599MPD2    H7 8940   3.479   3.460  15.348  0.5107  0.3144 -0.0648
  600TMC3    C1 8941   3.009   3.697  15.918  0.6240 -0.0581 -0.3319
  600TMC3    C2 8942   2.943   3.618  16.014 -0.4911  0.5532 -0.3683
  600TMC3    C3 8943   2.927   3.670  16.134  0.0565  0.7815 -0.0930
  600TMC3    C4 8944   3.061   3.819  15.944 -0.2717  0.1375 -0.5115
  600TMC3    C5 8945   3.038   3.874  16.070 -0.4778 -0.2852  0.9124
  600TMC3    C6 8946   2.961   3.801  16.161 -0.0779 -0.0955  0.0601
  600TMC3     C 8947   3.059   3.621  15.801 -0.4016 -0.0308 -0.2349
  600TMC3     O 8948   3.076   3.500  15.796  0.3198 -0.1978  0.0244
  600TMC3     H 8949   2.918   3.515  15.993  0.5885  0.9152 -3.3953
  600TMC3    H1 8950   3.124   3.869  15.871  0.1508  0.7592  0.2763
  600TMC3    H2 8951   2.932   3.841  16.257 -2.8377  0.7905 -1.1617
  600TMC3    C7 8952   3.055   4.017  16.105 -0.0900  0.5942 -0.6779
  600TMC3    C8 8953   2.933   3.593  16.259  0.3943  0.7340  0.2813
  600TMC3    O1 8954   3.018   4.054  16.216  0.4140 -0.1347  0.0482
  600TMC3    O2 8955   2.984   3.653  16.350 -0.2010 -0.2323 -0.0634
  601MPD2     C 8956   0.432   1.724   0.250  0.3508  0.4060  0.2448
  601MPD2    C1 8957   0.447   1.636   0.154 -0.6043 -0.2119  0.4136
  601MPD2    C2 8958   0.509   1.507   0.183 -0.4411  0.4138 -0.0758
  601MPD2    C3 8959   0.571   1.493   0.307 -0.2339  0.8074  0.0954
  601MPD2    C4 8960   0.558   1.590   0.407  0.6167 -0.1829 -0.4955
  601MPD2    C5 8961   0.487   1.706   0.378 -0.8794 -0.1131 -0.2969
  601MPD2     H 8962   0.517   1.433   0.104  2.1197  0.2757  0.2983
  601MPD2    H1 8963   0.595   1.562   0.505 -0.1985  0.7575  0.0805
  601MPD2    H2 8964   0.375   1.817   0.244  0.4989  0.5438  1.0177
  601MPD2    H3 8965   0.473   1.780   0.456  1.0943 -1.0479  0.9322
  601MPD2     N 8966   0.637   1.375   0.346 -0.2442 -0.6671  0.7026
  601MPD2    H5 8967   0.694   1.378   0.430  1.6908  0.3999 -0.6418
  601MPD2    N1 8968   0.414   1.671   0.023  0.0656 -0.4469  0.1225
  601MPD2    H7 8969   0.458   1.614  17.701  0.6867  0.8980 -0.5811
  602TMC3    C1 8970   0.312   1.818  17.610  0.5762 -0.5407  0.1694
  602TMC3    C2 8971   0.209   1.906  17.593 -0.3477 -0.5348 -0.0634
  602TMC3    C3 8972   0.220   1.991  17.484  0.4773 -0.5249 -0.1768
  602TMC3    C4 8973   0.416   1.800  17.521 -0.0787  0.0021  0.1909
  602TMC3    C5 8974   0.416   1.891  17.419 -0.2012  0.1463  0.3901
  602TMC3    C6 8975   0.325   1.989  17.395 -0.9278 -0.4684  0.3528
  602TMC3     C 8976   0.309   1.757  17.738  0.1202  0.7610 -0.0896
  602TMC3     O 8977   0.217   1.781   0.065 -0.1516  0.3344  0.0791
  602TMC3     H 8978   0.130   1.919  17.666  1.0178  0.7852  1.1698
  602TMC3    H1 8979   0.494   1.726  17.536 -0.0211  0.0869  0.3032
  602TMC3    H2 8980   0.337   2.082  17.340 -2.4106 -1.3111 -1.3866
  602TMC3    C7 8981   0.515   1.882  17.313  0.3026 -0.0538  0.2651
  602TMC3    C8 8982   0.110   2.082  17.457 -0.1155 -0.6158  0.3958
  602TMC3    O1 8983   0.607   1.799  17.321  0.1623 -0.1251 -0.5439
  602TMC3    O2 8984   0.033   2.117  17.544 -0.3513 -0.0305  0.3368
  603TMC3    C1 8985   2.928   2.545  11.021 -0.3346 -0.4264 -0.4523
  603TMC3    C2 8986   3.021   2.580  11.112  0.3711 -0.3433  0.3029
  603TMC3    C3 8987   3.147   2.615  11.071 -0.2332 -0.0615  0.1241
  603TMC3    C4 8988   2.952   2.543  10.886  0.4005 -0.6865 -0.1270
  603TMC3    C5 8989   3.066   2.600  10.845  0.0759  0.4908  0.1879
  603TMC3    C6 8990   3.169   2.642  10.936  0.3441 -0.5160 -0.5283
  603TMC3     C 8991   2.799   2.506  11.071 -0.1978 -0.1592 -0.0221
  603TMC3     O 8992   2.754   2.559  11.171  0.3545  0.3857  0.4422
  603TMC3     H 8993   2.996   2.574  11.217 -0.9622 -4.0847 -0.2234
  603TMC3    H1 8994   2.865   2.521  10.825 -0.0033  0.5414  0.0079
  603TMC3    H2 8995   3.263   2.681  10.899 -0.3697  0.0125 -1.7838
  603TMC3    C7 8996   3.094   2.615  10.696  0.0192  0.2157  0.0525
  603TMC3    C8 8997   3.248   2.619  11.164  0.7105  0.1298  0.2837
  603TMC3    O1 8998   3.208   2.619  10.665  0.2561 -0.3037  0.3853
  603TMC3    O2 8999   3.215   2.580  11.274 -0.5114  0.0631 -0.1795
  604MPD2     C 9000   4.585   0.302  16.058  0.3691  0.9770 -0.6273
  604MPD2    C1 9001   4.594   0.434  16.013 -0.4669  0.3596  0.2176
  604MPD2    C2 9002   4.677   0.459  15.903 -0.7494 -0.8244  0.2872
  604MPD2    C3 9003   0.028   0.360  15.850  0.2193 -0.3759  0.0948
  604MPD2    C4 9004   0.001   0.227  15.888 -0.2066 -0.0560 -0.4051
  604MPD2    C5 9005   4.653   0.197  15.994 -0.0347 -0.3385 -0.3240
  604MPD2     H 9006   4.678   0.557  15.856  1.5734 -0.1137  1.7964
  604MPD2    H1 9007   0.038   0.137  15.841 -2.3529 -0.5181 -1.2212
  604MPD2    H2 9008   4.515   0.273  16.135  0.5734  0.0670 -0.7767
  604MPD2    H3 9009   4.624   0.093  15.998  1.8872 -0.9437 -2.2002
  604MPD2     N 9010   0.114   0.399  15.749 -0.4168 -0.6162 -0.4193
  604MPD2    H5 9011   0.121   0.497  15.722 -3.7430 -0.2302  0.1091
  604MPD2    N1 9012   4.524   0.538  16.080 -0.4340 -0.1729 -0.0380
  604MPD2    H7 9013   4.455   0.505  16.146  0.5649 -0.0980  1.0333
  605TMC3    C1 9014   4.498   0.750  16.173 -0.1386  0.6438  0.6326
  605TMC3    C2 9015   4.588   0.842  16.214  0.1508 -0.4026 -0.6680
  605TMC3    C3 9016   4.539   0.937  16.297 -0.1444 -0.3714 -0.1509
  605TMC3    C4 9017   4.364   0.748  16.202  0.2226  0.9245  0.9011
  605TMC3    C5 9018   4.315   0.844  16.288 -0.3665  0.3766  0.1624
  605TMC3    C6 9019   4.409   0.941  16.332 -0.1255 -0.6663 -0.4129
  605TMC3     C 9020   4.547   0.667  16.070 -0.4232  0.4045 -0.1176
  605TMC3     O 9021   4.620   0.729  15.995  0.2577 -0.5951 -0.0628
  605TMC3     H 9022   4.693   0.827  16.196  0.4948 -0.2257  1.1196
  605TMC3    H1 9023   4.295   0.684  16.148 -1.5711  1.3344  2.7102
  605TMC3    H2 9024   4.372   1.003  16.414 -1.1520 -1.4301 -0.3017
  605TMC3    C7 9025   4.177   0.892  16.276  0.0606  0.2178 -0.2013
  605TMC3    C8 9026   4.623   1.051  16.314  0.0593  0.3933 -0.0540
  605TMC3    O1 9027   4.174   1.014  16.293  0.4189  0.3839 -0.1265
  605TMC3    O2 9028   4.735   1.054  16.274 -0.1291  0.3174  0.2410
  606TMC3    C1 9029   0.732   3.557   0.100  0.4046  0.1367  0.4271
  606TMC3    C2 9030   0.808   3.559   0.212 -0.1147  0.5724  0.3010
  606TMC3    C3 9031   0.749   3.576   0.333 -0.0594  0.0998 -0.0883
  606TMC3    C4 9032   0.596   3.555   0.109  0.1002  0.0223 -0.1614
  606TMC3    C5 9033   0.536   3.576   0.231 -0.3246 -0.6265  0.2194
  606TMC3    C6 9034   0.615   3.588   0.342  0.3334  0.1600  0.2362
  606TMC3     C 9035   0.803   3.595  17.718  0.8020  0.8461  0.3688
  606TMC3     O 9036   0.922   3.571  17.720 -0.8825 -0.1629  0.0216
  606TMC3     H 9037   0.916   3.562   0.202 -0.1681 -1.1297 -0.8072
  606TMC3    H1 9038   0.537   3.548   0.018 -1.0730 -0.4566  0.6391
  606TMC3    H2 9039   0.566   3.609   0.436  1.5347 -2.4607  1.4660
  606TMC3    C7 9040   0.405   3.519   0.259  0.4885 -0.0025  0.5530
  606TMC3    C8 9041   0.832   3.630   0.430  0.4654 -0.1634 -0.0080
  606TMC3    O1 9042   0.391   3.462   0.369  0.4397  0.2176  0.0996
  606TMC3    O2 9043   0.950   3.654   0.401  0.4604 -0.1566 -0.2149
  607MPD2     C 9044   2.641   2.350  11.437  0.6874  0.1207  0.2638
  607MPD2    C1 9045   2.701   2.441  11.524  0.7804 -0.4485  0.0269
  607MPD2    C2 9046   2.698   2.403  11.657 -0.0391 -0.0669 -0.1754
  607MPD2    C3 9047   2.658   2.284  11.709  1.0447 -0.3162 -0.9324
  607MPD2    C4 9048   2.610   2.189  11.620  0.8417 -0.3094  0.7030
  607MPD2    C5 9049   2.607   2.230  11.486 -0.1320 -0.9277  0.5662
  607MPD2     H 9050   2.726   2.469  11.739  0.2270 -1.9657  1.2505
  607MPD2    H1 9051   2.570   2.093  11.652 -0.6790 -0.3973 -1.4299
  607MPD2    H2 9052   2.620   2.372  11.333 -0.5087 -1.4610  0.1617
  607MPD2    H3 9053   2.577   2.165  11.405 -1.4721  1.7600 -1.1219
  607MPD2     N 9054   2.667   2.264  11.852  0.3757  0.2418 -0.8335
  607MPD2    H5 9055   2.707   2.344  11.900  0.6883  0.4851 -1.5060
  607MPD2    N1 9056   2.735   2.573  11.477 -0.3445 -0.0724  0.4671
  607MPD2    H7 9057   2.735   2.573  11.376 -1.3593  2.0010  0.4876
  608TMC3    C1 9058   2.810   2.794  11.487  0.8607  0.5290 -0.0945
  608TMC3    C2 9059   2.851   2.882  11.583  0.2074  0.0486  0.5354
  608TMC3    C3 9060   2.964   2.956  11.568 -0.0958 -0.6140 -0.4473
  608TMC3    C4 9061   2.883   2.778  11.371  0.5900 -0.9385  0.0027
  608TMC3    C5 9062   2.991   2.855  11.356 -0.2966 -0.0634 -0.0585
  608TMC3    C6 9063   3.031   2.946  11.447  0.2828  0.6389 -0.6579
  608TMC3     C 9064   2.764   2.679  11.555 -0.0003  0.4131  0.1974
  608TMC3     O 9065   2.746   2.689  11.672 -0.4447 -0.1493  0.2584
  608TMC3     H 9066   2.797   2.902  11.675 -0.9720  0.8744 -0.3493
  608TMC3    H1 9067   2.844   2.721  11.287  0.4220 -0.6595 -0.1089
  608TMC3    H2 9068   3.106   3.023  11.433  0.8857 -0.2367 -2.2994
  608TMC3    C7 9069   3.024   2.891  11.218  0.1171  0.5472 -0.0371
  608TMC3    C8 9070   3.045   2.955  11.695 -0.4700  0.0899  0.8216
  608TMC3    O1 9071   2.944   2.851  11.128 -0.0326  0.4217 -0.3407
  608TMC3    O2 9072   3.146   3.027  11.699  0.4403  0.5787 -0.1754
  609TMC3    C1 9073   1.775   1.485   9.329 -0.4892 -0.6025  0.2698
  609TMC3    C2 9074   1.843   1.442   9.219  1.1192 -0.1077 -0.0907
  609TMC3    C3 9075   1.965   1.387   9.239  0.7693 -0.5005  0.6362
  609TMC3    C4 9076   1.818   1.477   9.460 -0.3502  0.8461 -0.3503
  609TMC3    C5 9077   1.951   1.422   9.475 -0.2425  0.4974  0.0591
  609TMC3    C6 9078   2.021   1.379   9.367 -0.3764  0.2005 -0.7805
  609TMC3     C 9079   1.638   1.522   9.303  0.6830 -0.4985 -0.7637
  609TMC3     O 9080   1.605   1.545   9.188 -0.1530  0.1176 -0.3346
  609TMC3     H 9081   1.796   1.451   9.122 -0.8235 -1.2154  0.7680
  609TMC3    H1 9082   1.770   1.518   9.548  0.4239  0.1585  0.3950
  609TMC3    H2 9083   2.123   1.344   9.372 -1.6541 -3.2991  0.7602
  609TMC3    C7 9084   2.010   1.409   9.599 -0.0423  0.3742 -0.7676
  609TMC3    C8 9085   2.050   1.334   9.133 -0.2486 -0.1376 -0.4954
  609TMC3    O1 9086   1.994   1.493   9.684 -0.1245  0.4868 -0.2695
  609TMC3    O2 9087   2.150   1.268   9.161 -0.0287  0.1786 -0.2644
  610TMC3    C1 9088   3.492   2.276  12.431  0.8624 -0.4500 -0.2710
  610TMC3    C2 9089   3.533   2.350  12.323 -0.2102  0.9506 -0.2423
  610TMC3    C3 9090   3.646   2.298  12.260  0.5763 -0.2880 -0.0839
  610TMC3    C4 9091   3.554   2.164  12.478  0.4165 -0.0750 -0.1293
  610TMC3    C5 9092   3.675   2.129  12.426 -0.3089  0.2597 -0.3387
  610TMC3    C6 9093   3.718   2.190  12.311 -0.1306  0.6476 -0.3282
  610TMC3     C 9094   3.348   2.288  12.450 -0.2751 -0.3441 -0.5688
  610TMC3     O 9095   3.303   2.403  12.449  0.3234 -0.2353 -0.2995
  610TMC3     H 9096   3.486   2.438  12.280  1.4594  2.2711  0.6180
  610TMC3    H1 9097   3.516   2.120  12.570  1.5223 -0.3948  0.1686
  610TMC3    H2 9098   3.815   2.166  12.268  0.5707  0.8171  1.1790
  610TMC3    C7 9099   3.768   2.064  12.511 -0.3554 -0.1542 -0.5436
  610TMC3    C8 9100   3.718   2.382  12.165 -0.1536  0.0128 -0.4736
  610TMC3    O1 9101   3.884   2.080  12.477 -0.4015 -0.2499 -0.0650
  610TMC3    O2 9102   3.819   2.327  12.119 -0.7275  0.1428 -0.0658
  611MPD2     C 9103   1.919   2.494  10.554  0.2658  0.6024  0.1480
  611MPD2    C1 9104   1.939   2.444  10.431  0.3605 -0.5802  0.8478
  611MPD2    C2 9105   2.007   2.521  10.339  0.6978  0.5389  0.2614
  611MPD2    C3 9106   2.071   2.635  10.380  0.0298  0.2537  0.0865
  611MPD2    C4 9107   2.046   2.689  10.504 -0.0591 -0.1287  0.1399
  611MPD2    C5 9108   1.968   2.619  10.594 -0.4224  0.8050  0.3803
  611MPD2     H 9109   2.038   2.485  10.242  0.5169 -0.4927  0.5804
  611MPD2    H1 9110   2.087   2.787  10.525  2.2057 -1.4879  1.9781
  611MPD2    H2 9111   1.860   2.445  10.631 -0.3455  0.2099 -0.5766
  611MPD2    H3 9112   1.944   2.662  10.690  1.5259  0.6693  0.9368
  611MPD2     N 9113   2.158   2.714  10.298  0.3345  0.0573 -0.3728
  611MPD2    H5 9114   2.208   2.792  10.340  0.0885 -1.1898  2.2538
  611MPD2    N1 9115   1.887   2.315  10.408  0.4034 -0.3567  0.2640
  611MPD2    H7 9116   1.848   2.266  10.488  1.6711  0.4159  1.3567
  612TMC3    C1 9117   2.292   2.763  10.110 -0.1677 -0.3740  0.1336
  612TMC3    C2 9118   2.419   2.743  10.156  0.1113 -0.2291  0.4095
  612TMC3    C3 9119   2.523   2.804  10.090 -1.1987  0.0301 -0.2313
  612TMC3    C4 9120   2.269   2.830   9.993  0.2385 -0.7725  0.9144
  612TMC3    C5 9121   2.377   2.875   9.923 -0.6007 -0.2838  0.1350
  612TMC3    C6 9122   2.502   2.868   9.972 -0.3089  0.6007  0.3961
  612TMC3     C 9123   2.181   2.681  10.164 -0.1464  0.6800  0.9210
  612TMC3     O 9124   2.106   2.632  10.080 -0.2435  0.6557  0.7710
  612TMC3     H 9125   2.436   2.683  10.245 -0.3412  1.4454  1.6331
  612TMC3    H1 9126   2.172   2.838   9.946  0.8535 -0.8231 -0.3519
  612TMC3    H2 9127   2.591   2.892   9.915  0.1876 -1.8219  0.1349
  612TMC3    C7 9128   2.354   2.928   9.789 -0.0434  1.0516 -0.4944
  612TMC3    C8 9129   2.663   2.776  10.135  0.0806 -0.0222 -0.4390
  612TMC3    O1 9130   2.243   2.900   9.739  0.7248  0.5408 -0.2019
  612TMC3    O2 9131   2.745   2.830  10.063  0.1038  0.4275 -0.7121
  613MPD2     C 9132   1.992   4.193  16.110  0.9700  0.2658 -0.0219
  613MPD2    C1 9133   1.946   4.312  16.060  0.0308  0.0550  0.7273
  613MPD2    C2 9134   1.853   4.306  15.958  0.0650  0.1121  0.7713
  613MPD2    C3 9135   1.811   4.183  15.906 -0.5613  0.4538 -0.2742
  613MPD2    C4 9136   1.861   4.064  15.958  0.1233  0.3460  0.4930
  613MPD2    C5 9137   1.950   4.071  16.064  0.5179  0.4923  0.5781
  613MPD2     H 9138   1.824   4.397  15.906  0.5191  0.7598  1.6446
  613MPD2    H1 9139   1.834   3.969  15.913  1.2462  0.5991 -0.7192
  613MPD2    H2 9140   2.075   4.203  16.179 -0.1617  4.3348  0.7462
  613MPD2    H3 9141   2.010   3.985  16.093  4.1854  2.5260 -1.0093
  613MPD2     N 9142   1.738   4.172  15.783 -0.3128 -0.2532  0.3339
  613MPD2    H5 9143   1.756   4.095  15.720  0.7136  1.5247 -1.5417
  613MPD2    N1 9144   1.994   4.432  16.113 -0.2765 -0.0619  0.1664
  613MPD2    H7 9145   2.072   4.440  16.177 -0.0105  2.2294 -0.4501
  614TMC3    C1 9146   2.019   4.661  16.081 -0.1351 -0.3212  0.7373
  614TMC3    C2 9147   2.146   4.630  16.018  0.5004  0.0144  0.4826
  614TMC3    C3 9148   2.182   4.705  15.907 -0.1321  0.8608 -0.3990
  614TMC3    C4 9149   1.950   0.039  16.046  0.0378  0.3614 -0.1917
  614TMC3    C5 9150   1.996   0.108  15.941 -0.2072 -0.5476 -0.3022
  614TMC3    C6 9151   2.111   0.078  15.869 -0.1160  0.1765 -0.1855
  614TMC3     C 9152   1.926   4.551  16.095 -0.0030 -0.1035 -0.0361
  614TMC3     O 9153   1.810   4.570  16.067  0.3287 -0.3860 -0.2821
  614TMC3     H 9154   2.195   4.535  16.036  0.1842 -0.2220  0.0945
  614TMC3    H1 9155   1.861   0.072  16.097  0.1314 -1.2657  1.0263
  614TMC3    H2 9156   2.137   0.144  15.787  0.2593 -0.5562 -0.6505
  614TMC3    C7 9157   1.887   0.159  15.858  0.0723  0.0201  0.2406
  614TMC3    C8 9158   2.194   4.611  15.800 -0.5070 -0.0951 -0.0489
  614TMC3    O1 9159   1.805   0.238  15.904 -0.5427  0.3403 -0.3359
  614TMC3    O2 9160   2.158   4.495  15.817  0.3513  0.2048 -0.6203
  615MPD2     C 9161   1.709   1.355  15.988  0.7386  0.1615 -0.0724
  615MPD2    C1 9162   1.632   1.245  16.030  0.5042 -0.1674 -0.4058
  615MPD2    C2 9163   1.522   1.210  15.954  0.2493  0.4488  0.4627
  615MPD2    C3 9164   1.490   1.276  15.837 -0.1211  0.1380 -0.2732
  615MPD2    C4 9165   1.569   1.380  15.796 -0.2229 -0.4545  0.1526
  615MPD2    C5 9166   1.674   1.420  15.874 -0.4502  0.3386  0.1171
  615MPD2     H 9167   1.466   1.122  15.982  1.2402 -0.5247 -0.6002
  615MPD2    H1 9168   1.551   1.432  15.703  4.8070  3.0058  1.1671
  615MPD2    H2 9169   1.796   1.391  16.041  0.2823 -0.2719  0.9560
  615MPD2    H3 9170   1.737   1.493  15.824  0.5926 -0.5498  0.1309
  615MPD2     N 9171   1.383   1.248  15.747 -0.1762 -0.6798 -0.1358
  615MPD2    H5 9172   1.379   1.317  15.673 -0.7524 -0.9319 -0.3424
  615MPD2    N1 9173   1.653   1.200  16.163  0.5655  0.2372  0.1878
  615MPD2    H7 9174   1.585   1.137  16.205 -0.3735 -0.2838 -2.1019
  616TMC3    C1 9175   1.751   1.173  16.380  0.7165 -0.0524  0.6826
  616TMC3    C2 9176   1.858   1.145  16.451  0.1834  0.1800 -0.3755
  616TMC3    C3 9177   1.844   1.132  16.590 -1.3046 -0.1984 -0.1994
  616TMC3    C4 9178   1.627   1.176  16.442 -0.3264 -0.6917  0.2040
  616TMC3    C5 9179   1.617   1.147  16.576  0.2008 -0.3053  0.8075
  616TMC3    C6 9180   1.721   1.125  16.655 -0.2141 -0.0556 -0.4144
  616TMC3     C 9181   1.768   1.218  16.241 -0.0615 -0.0611 -0.0715
  616TMC3     O 9182   1.881   1.226  16.197  1.1303  0.0376  0.0451
  616TMC3     H 9183   1.958   1.132  16.411 -0.9341 -0.7103 -2.8857
  616TMC3    H1 9184   1.536   1.185  16.383 -0.2994 -1.2464  0.0744
  616TMC3    H2 9185   1.718   1.124  16.763 -0.1279  0.6624 -0.4033
  616TMC3    C7 9186   1.496   1.077  16.619  0.7127 -0.3238 -0.5039
  616TMC3    C8 9187   1.961   1.123  16.677 -0.1632 -0.6307 -0.3432
  616TMC3    O1 9188   1.506   0.993  16.704 -0.1717 -0.1372  0.2166
  616TMC3    O2 9189   1.947   1.080  16.789  0.2783 -0.3268  1.0398
  617MPD2     C 9190   3.980   4.436  13.334  0.3847 -0.7746 -0.6829
  617MPD2    C1 9191   4.023   4.460  13.461  0.0459  0.1088  0.6064
  617MPD2    C2 9192   3.969   4.401  13.569 -0.5617  0.2925  1.0893
  617MPD2    C3 9193   3.871   4.314  13.555  0.8530 -0.2103  0.2454
  617MPD2    C4 9194   3.823   4.291  13.428  0.3878 -0.2247 -0.0157
  617MPD2    C5 9195   3.875   4.354  13.317 -0.1846  0.7628 -0.4668
  617MPD2     H 9196   3.995   4.426  13.671  0.9532  0.0561  0.7664
  617MPD2    H1 9197   3.740   4.225  13.407  0.7120 -0.8338  0.6311
  617MPD2    H2 9198   4.023   4.497  13.255  2.6480 -1.1590  0.2402
  617MPD2    H3 9199   3.834   4.340  13.217 -0.5851  2.7400 -0.5904
  617MPD2     N 9200   3.796   4.247  13.659  0.6655  0.5771  0.2011
  617MPD2    H5 9201   3.718   4.189  13.630  1.8626  0.2679 -2.4245
  617MPD2    N1 9202   4.109   4.575  13.474  0.0915  0.0907  0.2423
  617MPD2    H7 9203   4.138   4.616  13.385  0.2826  0.0100  0.2678
  618TMC3    C1 9204   4.295   4.679  13.569  0.7940 -0.1441  0.4108
  618TMC3    C2 9205   4.388   4.628  13.653  0.5941 -0.1971  0.1189
  618TMC3    C3 9206   4.521   4.632  13.618 -0.4656  0.1366  0.1879
  618TMC3    C4 9207   4.331   4.733  13.450  0.2508  0.8310  0.1842
  618TMC3    C5 9208   4.466   4.735  13.412 -0.8174  0.3647 -0.9187
  618TMC3    C6 9209   4.558   4.689  13.496  0.6875 -0.5578 -0.1607
  618TMC3     C 9210   4.165   4.618  13.592  0.0049  0.0316 -0.6693
  618TMC3     O 9211   4.129   4.596  13.708 -0.2073 -0.1223  0.2252
  618TMC3     H 9212   4.352   4.587  13.747  0.6285 -0.5279 -0.0123
  618TMC3    H1 9213   4.252   0.027  13.382  1.4394  0.4502 -1.3737
  618TMC3    H2 9214   4.662   4.688  13.466  0.8624 -2.0244  0.4983
  618TMC3    C7 9215   4.519   0.077  13.302 -0.3078 -0.0948 -0.6916
  618TMC3    C8 9216   4.586   4.508  13.675 -0.4980 -0.0738  0.3297
  618TMC3    O1 9217   4.604   0.159  13.334  0.2098 -0.4635 -0.3163
  618TMC3    O2 9218   4.552   4.471  13.785  0.4584 -0.3568 -0.7954
  619MPD2     C 9219   0.890   0.776  13.765  0.0228 -0.5203  0.7842
  619MPD2    C1 9220   0.829   0.842  13.664  0.1500  0.1204 -0.0266
  619MPD2    C2 9221   0.691   0.838  13.633  0.5205  0.1985 -0.5416
  619MPD2    C3 9222   0.614   0.754  13.705  0.5741 -0.3836 -0.4589
  619MPD2    C4 9223   0.679   0.687  13.821 -0.4597  0.3891 -0.0439
  619MPD2    C5 9224   0.811   0.702  13.849 -0.3360 -0.4461  0.0018
  619MPD2     H 9225   0.653   0.889  13.544 -0.0012  1.7427  0.5669
  619MPD2    H1 9226   0.623   0.617  13.883 -1.7669  1.6497  0.2026
  619MPD2    H2 9227   0.993   0.786  13.796  0.5193 -0.8365 -0.7850
  619MPD2    H3 9228   0.853   0.658  13.939 -0.6384 -1.8361 -0.5409
  619MPD2     N 9229   0.480   0.731  13.692 -0.1841  0.0510  0.1421
  619MPD2    H5 9230   0.442   0.658  13.752 -1.0446  0.6112  0.2747
  619MPD2    N1 9231   0.904   0.929  13.581  0.0354 -0.2683  0.4021
  619MPD2    H7 9232   0.851   0.987  13.518  0.1566  0.0178  0.5615
  620TMC3    C1 9233   1.080   1.060  13.494 -0.2109  0.1074 -0.1879
  620TMC3    C2 9234   0.998   1.101  13.395 -0.1039 -0.1113  0.5820
  620TMC3    C3 9235   1.056   1.169  13.289 -0.0254  0.4532  0.4761
  620TMC3    C4 9236   1.211   1.095  13.499 -0.3414 -0.2574  0.2342
  620TMC3    C5 9237   1.258   1.175  13.401 -0.3463 -0.3772 -0.4603
  620TMC3    C6 9238   1.190   1.193  13.287  0.2521  0.1412  0.1672
  620TMC3     C 9239   1.043   0.955  13.582  0.2129 -0.0336  0.2053
  620TMC3     O 9240   1.132   0.894  13.638  0.2284 -0.6037  0.0796
  620TMC3     H 9241   0.893   1.078  13.383 -0.7284  2.5413  0.7512
  620TMC3    H1 9242   1.280   1.081  13.581 -0.7668 -0.7987  0.5020
  620TMC3    H2 9243   1.234   1.243  13.201  1.1388 -0.0780  0.4950
  620TMC3    C7 9244   1.343   1.281  13.448  0.3731  1.0125  0.1180
  620TMC3    C8 9245   0.998   1.290  13.248 -0.8140  0.7020  0.1479
  620TMC3    O1 9246   1.419   1.254  13.540  0.0249 -0.2542  0.1344
  620TMC3    O2 9247   1.074   1.387  13.237  0.8272 -0.0937 -0.8449
  621MPD2     C 9248   0.503   0.950  10.749 -0.1626  0.6055  0.5059
  621MPD2    C1 9249   0.592   0.852  10.706 -0.2850 -0.0680  0.6804
  621MPD2    C2 9250   0.701   0.893  10.635 -0.0170 -0.3387 -0.3901
  621MPD2    C3 9251   0.734   1.024  10.615  0.1542  0.2945  0.5433
  621MPD2    C4 9252   0.653   1.118  10.668  0.0067 -0.1833  0.8671
  621MPD2    C5 9253   0.540   1.085  10.739 -0.0160  1.1059  0.0157
  621MPD2     H 9254   0.762   0.811  10.597 -1.5738 -1.6181 -0.1204
  621MPD2    H1 9255   0.683   1.222  10.661  4.5546 -1.6465 -1.2999
  621MPD2    H2 9256   0.410   0.920  10.796  0.7029  0.8593  2.3562
  621MPD2    H3 9257   0.489   1.174  10.773  0.5318  1.2672  0.4332
  621MPD2     N 9258   0.846   1.043  10.535  0.2661  0.5419  0.2651
  621MPD2    H5 9259   0.886   0.960  10.492  0.7458  0.3121  1.1466
  621MPD2    N1 9260   0.559   0.715  10.727 -0.7294  0.4094 -0.4651
  621MPD2    H7 9261   0.621   0.645  10.687 -2.0277 -1.5205  0.9338
  622TMC3    C1 9262   0.424   0.524  10.741  0.1072  0.3229  0.8636
  622TMC3    C2 9263   0.341   0.454  10.828 -0.0556  0.0575  0.0676
  622TMC3    C3 9264   0.254   0.364  10.774 -0.1011 -0.6333  0.0796
  622TMC3    C4 9265   0.417   0.496  10.604  0.0385 -0.2784  0.6877
  622TMC3    C5 9266   0.327   0.403  10.556 -0.0467  0.0256  0.1090
  622TMC3    C6 9267   0.251   0.328  10.644  0.0992 -0.2940  0.0414
  622TMC3     C 9268   0.443   0.667  10.783 -0.1134  0.6428  0.1448
  622TMC3     O 9269   0.357   0.715  10.855 -0.0990  0.0479 -0.6538
  622TMC3     H 9270   0.325   0.483  10.931  2.0840 -0.0362  0.4205
  622TMC3    H1 9271   0.468   0.554  10.527 -2.1050 -0.1532 -0.6140
  622TMC3    H2 9272   0.176   0.257  10.613  0.9156 -0.5264 -1.4091
  622TMC3    C7 9273   0.284   0.408  10.415 -0.2456  0.1994 -0.0870
  622TMC3    C8 9274   0.167   0.298  10.874  0.2348 -0.0974  0.4623
  622TMC3    O1 9275   0.193   0.330  10.393 -0.3491  0.3125  0.5319
  622TMC3    O2 9276   0.223   0.260  10.975 -0.3523  0.1689  0.7032
  623MPD2     C 9277   0.434   1.844  15.653  0.0156 -0.2174 -0.7732
  623MPD2    C1 9278   0.330   1.762  15.689  0.0861 -0.7618 -0.1387
  623MPD2    C2 9279   0.355   1.680  15.801 -0.5636 -0.0926  0.0360
  623MPD2    C3 9280   0.471   1.680  15.875 -0.1931 -0.1786 -1.0025
  623MPD2    C4 9281   0.574   1.754  15.830  0.4892 -0.0626 -0.1164
  623MPD2    C5 9282   0.551   1.836  15.724 -0.1887 -0.2820 -1.1225
  623MPD2     H 9283   0.277   1.613  15.836 -0.6695 -0.1870 -0.3827
  623MPD2    H1 9284   0.673   1.744  15.872  0.6477  3.2521  0.3678
  623MPD2    H2 9285   0.425   1.921  15.578 -1.9420  1.0896  0.7909
  623MPD2    H3 9286   0.646   1.881  15.696 -1.3229  1.4620 -2.1464
  623MPD2     N 9287   0.477   1.592  15.986 -0.6171  0.1373  0.4740
  623MPD2    H5 9288   0.395   1.537  16.008 -0.0428 -0.5764  0.8085
  623MPD2    N1 9289   0.209   1.764  15.616 -0.1765  1.1013  0.4460
  623MPD2    H7 9290   0.192   1.833  15.543  0.3753  0.1432 -0.5868
  624TMC3    C1 9291   0.636   1.434  16.393  0.4857  0.2648 -0.3995
  624TMC3    C2 9292   0.507   1.441  16.433 -0.9692  0.2683 -0.4077
  624TMC3    C3 9293   0.405   1.465  16.350 -0.2284 -0.6497  0.0120
  624TMC3    C4 9294   0.665   1.468  16.264 -0.6023 -0.0085 -0.0613
  624TMC3    C5 9295   0.561   1.491  16.181 -0.6647 -0.5960  0.1206
  624TMC3    C6 9296   0.437   1.481  16.221  0.4429  0.1859 -0.3074
  624TMC3     C 9297   0.738   1.414  16.498 -0.3568 -0.3729 -0.5296
  624TMC3     O 9298   0.692   1.378  16.606 -0.2837  0.1840  0.0725
  624TMC3     H 9299   0.472   1.407  16.530  1.8153  1.0685  0.8547
  624TMC3    H1 9300   0.764   1.462  16.220  0.1547 -1.2322  1.7892
  624TMC3    H2 9301   0.349   1.477  16.158 -0.6966 -0.7696  1.3207
  624TMC3    C7 9302   0.586   1.577  16.066  0.0705  0.5458  0.0950
  624TMC3    C8 9303   0.274   1.406  16.381  1.1045  0.3265  0.0540
  624TMC3    O1 9304   0.701   1.618  16.044  0.2550 -0.9327  0.3980
  624TMC3    O2 9305   0.271   1.294  16.432 -0.2556 -0.2670 -0.0363
  625MPD2     C 9306   0.352   2.448   0.964 -0.4653  0.3962 -0.5110
  625MPD2    C1 9307   0.420   2.572   0.951  0.0770  0.4571 -0.4020
  625MPD2    C2 9308   0.538   2.580   1.013 -0.0474  0.1738  0.0349
  625MPD2    C3 9309   0.590   2.487   1.100  0.4086 -0.2154  0.2198
  625MPD2    C4 9310   0.532   2.362   1.116 -0.1225 -0.4703  0.1456
  625MPD2    C5 9311   0.415   2.352   1.040 -0.1350 -0.0405 -0.3197
  625MPD2     H 9312   0.590   2.675   1.008  0.3013 -0.1150 -1.7839
  625MPD2    H1 9313   0.566   2.282   1.181  1.4369  0.7259  0.8022
  625MPD2    H2 9314   0.252   2.421   0.931  0.6859 -1.1049 -2.7265
  625MPD2    H3 9315   0.365   2.257   1.053 -0.5310  0.2195  0.0695
  625MPD2     N 9316   0.696   2.531   1.180 -0.0991 -0.8599 -1.1469
  625MPD2    H5 9317   0.734   2.622   1.156 -1.2197  0.5915  2.6225
  625MPD2    N1 9318   0.383   2.675   0.874 -0.2982  0.0647  1.3683
  625MPD2    H7 9319   0.438   2.759   0.885  0.1328  0.2178 -1.9296
  626TMC3    C1 9320   0.253   2.816   0.747 -0.9492  0.4097 -0.3091
  626TMC3    C2 9321   0.117   2.846   0.730 -0.5102  0.6744 -0.3626
  626TMC3    C3 9322   0.074   2.974   0.746 -0.0712 -0.3329 -0.0648
  626TMC3    C4 9323   0.345   2.914   0.773 -0.4578 -0.3913  0.3733
  626TMC3    C5 9324   0.297   3.047   0.781 -0.1218 -0.4321  0.9117
  626TMC3    C6 9325   0.166   3.074   0.764  0.1188 -0.2767  0.1623
  626TMC3     C 9326   0.271   2.685   0.800 -0.3852 -0.2390 -0.4855
  626TMC3     O 9327   0.188   2.593   0.784  0.4600  0.3458 -0.4459
  626TMC3     H 9328   0.047   2.768   0.700 -0.6623  0.2761  1.0620
  626TMC3    H1 9329   0.451   2.897   0.792 -0.1471  0.2657 -0.8392
  626TMC3    H2 9330   0.135   3.178   0.768 -1.2391 -0.7380  1.2866
  626TMC3    C7 9331   0.392   3.147   0.822  0.3122  1.4329 -0.0386
  626TMC3    C8 9332   4.689   3.017   0.683  0.5367  0.5826 -0.3377
  626TMC3    O1 9333   0.498   3.110   0.865 -0.0975  0.2199  0.1661
  626TMC3    O2 9334   4.647   3.121   0.742  0.6405 -0.1542  0.2410
  627MPD2     C 9335   3.579   3.251  14.567  0.1295 -0.3160 -0.1223
  627MPD2    C1 9336   3.709   3.251  14.529  0.1898 -0.2333  0.2503
  627MPD2    C2 9337   3.766   3.147  14.455 -0.0268  0.1262  0.0565
  627MPD2    C3 9338   3.679   3.050  14.417  0.0446  0.5126 -0.0622
  627MPD2    C4 9339   3.547   3.042  14.462 -0.1303 -0.6671 -0.5295
  627MPD2    C5 9340   3.496   3.146  14.536  0.0122  0.1652 -0.1058
  627MPD2     H 9341   3.869   3.157  14.424  0.3836  1.1689  1.7701
  627MPD2    H1 9342   3.481   2.958  14.441  1.3165 -1.8324 -0.3761
  627MPD2    H2 9343   3.533   3.333  14.621 -1.5545 -1.9348  0.9142
  627MPD2    H3 9344   3.389   3.151  14.552  0.0886  0.0436  0.4452
  627MPD2     N 9345   3.742   2.944  14.347  0.1925 -0.2625  0.5020
  627MPD2    H5 9346   3.838   2.964  14.324  0.2310 -0.9274  0.0793
  627MPD2    N1 9347   3.802   3.349  14.578  0.2610 -0.5409 -0.4711
  627MPD2    H7 9348   3.899   3.323  14.558  1.3327  2.4277  1.0111
  628TMC3    C1 9349   3.872   3.524  14.713  0.0982  0.9269 -0.4365
  628TMC3    C2 9350   3.980   3.455  14.757  0.6356  0.2412  0.0551
  628TMC3    C3 9351   4.079   3.524  14.814  0.3955  0.1888 -0.2271
  628TMC3    C4 9352   3.857   3.660  14.729 -0.1667 -0.3171  0.3300
  628TMC3    C5 9353   3.966   3.721  14.782  0.2534  0.3868  0.5911
  628TMC3    C6 9354   4.085   3.661  14.809  0.4279  0.4746  0.2277
  628TMC3     C 9355   3.769   3.464  14.634 -0.8636  0.2658 -0.3411
  628TMC3     O 9356   3.673   3.532  14.619  0.3454 -0.0216 -0.5257
  628TMC3     H 9357   3.994   3.349  14.740 -0.1704 -0.0642  1.2696
  628TMC3    H1 9358   3.762   3.713  14.728 -1.2499 -2.2738 -1.3873
  628TMC3    H2 9359   4.157   3.718  14.867  1.4314 -1.4089  0.8405
  628TMC3    C7 9360   3.983   3.863  14.760 -0.0467 -0.6307  0.0985
  628TMC3    C8 9361   4.210   3.465  14.826  0.8426  0.5560 -0.1153
  628TMC3    O1 9362   4.075   3.918  14.814  0.4948 -0.0119 -0.0372
  628TMC3    O2 9363   4.293   3.528  14.891  0.3592 -0.2768  0.3767
  629MPD2     C 9364   2.451   1.081  16.765 -0.7534 -0.3141 -0.5031
  629MPD2    C1 9365   2.435   1.193  16.678  0.1847  0.3128  0.2429
  629MPD2    C2 9366   2.310   1.224  16.632  0.2752  0.4030  0.4045
  629MPD2    C3 9367   2.204   1.146  16.667 -0.6415 -0.1445  0.0583
  629MPD2    C4 9368   2.220   1.035  16.758  0.3401  0.1504 -0.1373
  629MPD2    C5 9369   2.347   1.011  16.814  0.2283  0.1114 -0.0189
  629MPD2     H 9370   2.297   1.310  16.567  1.2148 -0.5584 -1.0670
  629MPD2    H1 9371   2.133   0.977  16.787 -0.8597  1.8440 -0.3166
  629MPD2    H2 9372   2.551   1.054  16.795 -0.4068  2.2234  0.6392
  629MPD2    H3 9373   2.364   0.919  16.869  0.4584 -0.2420 -0.6690
  629MPD2     N 9374   2.077   1.172  16.616  0.0104  0.7157  0.2361
  629MPD2    H5 9375   2.055   1.226  16.533 -0.6377  2.2400  1.3980
  629MPD2    N1 9376   2.555   1.271  16.654  0.2523  0.0603 -0.1051
  629MPD2    H7 9377   2.646   1.233  16.677 -0.5689 -1.3284  0.8535
  630TMC3    C1 9378   2.700   1.429  16.562  0.4696  0.2836  0.1716
  630TMC3    C2 9379   2.721   1.518  16.463  0.1065  0.0420  0.2750
  630TMC3    C3 9380   2.849   1.566  16.441  0.1333  0.2268 -0.1177
  630TMC3    C4 9381   2.797   1.399  16.653 -0.1591  0.3805  0.3299
  630TMC3    C5 9382   2.928   1.435  16.614 -0.0021  0.3917 -0.8943
  630TMC3    C6 9383   2.955   1.517  16.508 -0.4246  0.3921  0.3643
  630TMC3     C 9384   2.559   1.393  16.586 -0.2883  0.0856 -0.6021
  630TMC3     O 9385   2.467   1.467  16.544 -0.5520 -0.7074 -0.3205
  630TMC3     H 9386   2.638   1.529  16.395 -0.4477 -0.3354  0.8930
  630TMC3    H1 9387   2.782   1.324  16.730  0.6364 -1.0220 -0.8970
  630TMC3    H2 9388   3.050   1.553  16.470  0.9628 -1.0113  2.5285
  630TMC3    C7 9389   3.026   1.405  16.715  0.3454 -0.4489 -0.5394
  630TMC3    C8 9390   2.878   1.661  16.331 -0.0553  0.0242 -0.2004
  630TMC3    O1 9391   3.001   1.308  16.786  0.1888  0.3349 -0.0082
  630TMC3    O2 9392   2.992   1.695  16.304 -0.4857 -0.0897 -0.2089
  631MPD2     C 9393   0.436   1.423  15.619 -0.1123 -0.3465 -0.1527
  631MPD2    C1 9394   0.516   1.456  15.512  0.1332 -0.3349  0.4179
  631MPD2    C2 9395   0.635   1.382  15.501  0.1044 -0.3730 -1.0089
  631MPD2    C3 9396   0.673   1.289  15.600 -0.3187  0.1778  0.0630
  631MPD2    C4 9397   0.602   1.268  15.714 -0.8127 -0.9040  0.2886
  631MPD2    C5 9398   0.482   1.335  15.715  0.3811 -0.3601 -0.7525
  631MPD2     H 9399   0.703   1.402  15.418  0.0639 -0.8678 -1.1625
  631MPD2    H1 9400   0.635   1.207  15.797 -0.5764  1.6642  2.1122
  631MPD2    H2 9401   0.345   1.477  15.639 -0.7919  0.1801 -4.6671
  631MPD2    H3 9402   0.418   1.305  15.796 -0.2922  3.7123  0.2161
  631MPD2     N 9403   0.799   1.226  15.583  0.1179 -0.0116 -0.4830
  631MPD2    H5 9404   0.853   1.249  15.500  0.8907  0.2617  0.0920
  631MPD2    N1 9405   0.485   1.561  15.423  0.4747 -0.4235 -0.7041
  631MPD2    H7 9406   0.393   1.602  15.438  0.5595 -0.5533  0.1921
  632TMC3    C1 9407   0.505   1.729  15.259  0.9112 -0.2916  0.6764
  632TMC3    C2 9408   0.385   1.784  15.292 -0.5830  0.0571  0.1437
  632TMC3    C3 9409   0.323   1.871  15.206  0.2679  0.5750 -0.5312
  632TMC3    C4 9410   0.578   1.782  15.154 -0.1142  0.0767  1.1474
  632TMC3    C5 9411   0.519   1.879  15.077 -0.4673 -0.0881 -0.3739
  632TMC3    C6 9412   0.394   1.925  15.102  0.0987 -0.6954  0.2155
  632TMC3     C 9413   0.572   1.621  15.330  0.3557  0.5261  0.9935
  632TMC3     O 9414   0.682   1.590  15.286  0.0297 -0.1361 -0.3452
  632TMC3     H 9415   0.324   1.752  15.375 -1.6810 -0.1052 -0.7219
  632TMC3    H1 9416   0.667   1.732  15.116  1.7377  2.2078  2.6699
  632TMC3    H2 9417   0.348   1.998  15.036  0.3675 -1.4445 -0.7986
  632TMC3    C7 9418   0.590   1.945  14.976  0.0094 -0.0914 -0.0604
  632TMC3    C8 9419   0.202   1.934  15.263 -0.6388 -0.1001 -0.2367
  632TMC3    O1 9420   0.535   1.984  14.873  0.1421  0.3717 -0.1736
  632TMC3    O2 9421   0.162   1.906  15.374 -0.1378  0.0951 -0.1991
  633MPD2     C 9422   4.653   4.185  17.343 -0.5319 -0.0377 -0.1732
  633MPD2    C1 9423   4.639   4.118  17.221 -0.2923 -0.1964  0.0664
  633MPD2    C2 9424   4.573   3.996  17.223 -0.3258 -0.1807 -0.3338
  633MPD2    C3 9425   4.528   3.939  17.339  0.1201 -0.3820  0.3055
  633MPD2    C4 9426   4.530   4.015  17.454 -0.0794  0.0996 -0.1354
  633MPD2    C5 9427   4.583   4.140  17.448 -0.2842 -0.1058  0.3361
  633MPD2     H 9428   4.560   3.939  17.132 -1.2380 -0.8169  0.1850
  633MPD2    H1 9429   4.487   3.976  17.545  0.5198 -0.0453  0.0865
  633MPD2    H2 9430   4.700   4.281  17.357 -0.0790 -0.0782 -1.4114
  633MPD2    H3 9431   4.576   4.204  17.535 -0.5546 -0.1318  0.3342
  633MPD2     N 9432   4.489   3.800  17.345 -0.0350  0.1021  0.4609
  633MPD2    H5 9433   4.471   3.764  17.439  2.0032  0.8941  1.1532
  633MPD2    N1 9434   4.710   4.162  17.105 -0.7512 -0.4139  0.6614
  633MPD2    H7 9435   4.702   4.106  17.021  2.1268  0.7530 -0.3868
  634TMC3    C1 9436   0.110   4.297  16.962  0.6451 -0.2759  0.2763
  634TMC3    C2 9437   0.167   4.189  16.900  0.2233  0.1074  0.9551
  634TMC3    C3 9438   0.265   4.208  16.804  0.5228 -0.0206 -0.1817
  634TMC3    C4 9439   0.135   4.426  16.924  0.8883 -0.1394  0.3055
  634TMC3    C5 9440   0.224   4.442  16.818 -0.1263 -0.4315 -0.5890
  634TMC3    C6 9441   0.281   4.333  16.756  0.3802 -0.4644  0.2192
  634TMC3     C 9442   0.044   4.281  17.089 -0.0716  0.1684 -0.1440
  634TMC3     O 9443   0.060   4.379  17.167 -0.0597 -0.4473  0.0051
  634TMC3     H 9444   0.143   4.090  16.937 -0.7792 -1.3969 -3.8105
  634TMC3    H1 9445   0.096   4.510  16.981  4.1131  0.6137  1.3670
  634TMC3    H2 9446   0.355   4.350  16.678 -1.1756  0.5779 -1.0552
  634TMC3    C7 9447   0.217   4.562  16.739 -0.4852  0.5967 -0.7896
  634TMC3    C8 9448   0.322   4.095  16.731 -0.1247 -0.4297  0.7669
  634TMC3    O1 9449   0.267   4.558  16.627 -0.0670  0.0797 -0.0427
  634TMC3    O2 9450   0.290   3.988  16.783  0.0379 -0.0126 -0.3324
  635TMC3    C1 9451   0.315   0.407  17.624 -0.1654 -0.0265  0.9191
  635TMC3    C2 9452   0.346   0.277  17.594  0.3712 -0.2565  0.1844
  635TMC3    C3 9453   0.245   0.183  17.607 -0.4622 -0.0535 -0.5485
  635TMC3    C4 9454   0.189   0.439  17.677  0.1130 -0.1788 -0.0362
  635TMC3    C5 9455   0.102   0.341  17.702  0.4411 -0.5195 -0.0626
  635TMC3    C6 9456   0.124   0.210  17.672  0.3358 -0.8915 -0.5036
  635TMC3     C 9457   0.416   0.508  17.646  0.5679  0.0693 -0.3464
  635TMC3     O 9458   0.385   0.620  17.696  0.0365  0.0191 -0.6399
  635TMC3     H 9459   0.439   0.247  17.546  1.2033 -0.5464  1.9649
  635TMC3    H1 9460   0.161   0.543  17.691  1.3904  0.1789 -0.1515
  635TMC3    H2 9461   0.044   0.137  17.666  0.4670 -1.0987  0.3270
  635TMC3    C7 9462   4.725   0.377   0.035  0.4280 -0.0282 -0.5807
  635TMC3    C8 9463   0.262   0.037  17.591 -0.0799  0.1715 -0.0633
  635TMC3    O1 9464   4.732   0.491   0.085  0.5503  0.1653 -0.0260
  635TMC3    O2 9465   0.162   4.701  17.599 -0.4545  0.1928  0.5269
  636MPD2     C 9466   1.410   0.263  15.394  0.2012  0.0305  0.3527
  636MPD2    C1 9467   1.426   0.206  15.519 -0.2419 -0.1319 -0.2032
  636MPD2    C2 9468   1.472   0.073  15.525  0.0135  0.1017  0.4299
  636MPD2    C3 9469   1.504   0.001  15.416  0.4176  0.0168  0.4252
  636MPD2    C4 9470   1.499   0.057  15.294  0.3843 -0.0199  0.0864
  636MPD2    C5 9471   1.447   0.185  15.283 -0.3356 -0.6491  0.3308
  636MPD2     H 9472   1.478   0.037  15.627 -0.1971 -1.4374 -0.1032
  636MPD2    H1 9473   1.532   4.737  15.208 -0.2714  1.0096 -0.8560
  636MPD2    H2 9474   1.382   0.362  15.361 -0.1818 -0.4007 -0.6222
  636MPD2    H3 9475   1.434   0.234  15.187 -0.1227 -0.0964  0.5835
  636MPD2     N 9476   1.557   4.609  15.439 -0.4932  0.5568  0.1878
  636MPD2    H5 9477   1.574   4.572  15.532  1.0245 -0.5026 -0.5095
  636MPD2    N1 9478   1.386   0.272  15.637 -0.6434  0.3430 -0.4752
  636MPD2    H7 9479   1.389   0.218  15.723  0.1948  2.3114  0.7331
  637TMC3    C1 9480   1.665   4.407  15.402  0.4515 -0.3045 -0.1545
  637TMC3    C2 9481   1.611   4.368  15.522 -0.2092 -0.4120 -0.6275
  637TMC3    C3 9482   1.678   4.262  15.582  0.0615  0.1061  0.2122
  637TMC3    C4 9483   1.776   4.345  15.349 -0.0878  0.0464  0.6954
  637TMC3    C5 9484   1.844   4.251  15.412  0.9807 -0.1785  1.0291
  637TMC3    C6 9485   1.784   4.194  15.523 -0.5834  0.7718 -0.4547
  637TMC3     C 9486   1.612   4.525  15.341 -0.3784 -0.2168 -0.1574
  637TMC3     O 9487   1.628   4.541  15.217 -0.3781  0.6341  0.1588
  637TMC3     H 9488   1.523   4.412  15.569  1.1110 -0.0543  1.5178
  637TMC3    H1 9489   1.812   4.384  15.254  1.9152  0.1953  1.5300
  637TMC3    H2 9490   1.851   4.126  15.576  0.3759  0.6453 -1.8254
  637TMC3    C7 9491   1.978   4.293  15.451  0.6629 -0.1007  0.2097
  637TMC3    C8 9492   1.679   4.279  15.724  0.2408  0.5373  0.4593
  637TMC3    O1 9493   2.007   4.266  15.567 -0.1418 -0.2909 -0.1287
  637TMC3    O2 9494   1.646   4.388  15.768 -0.1038 -0.9351  0.4242
  638MPD2     C 9495   1.386   3.919  14.897  0.1900 -0.3631  0.1396
  638MPD2    C1 9496   1.352   3.837  14.792 -0.4505 -0.3370  0.5867
  638MPD2    C2 9497   1.338   3.701  14.828  0.2010 -0.2666 -0.0148
  638MPD2    C3 9498   1.353   3.657  14.951 -0.7974  0.5905 -0.0898
  638MPD2    C4 9499   1.390   3.739  15.052  0.4376  0.2922  0.6782
  638MPD2    C5 9500   1.407   3.871  15.019  0.1715  0.1654  0.5667
  638MPD2     H 9501   1.307   3.625  14.758 -0.2718  0.1019 -0.2046
  638MPD2    H1 9502   1.415   3.700  15.150 -1.7263 -3.4226 -0.2303
  638MPD2    H2 9503   1.387   4.026  14.875  0.8292 -0.2847  0.5651
  638MPD2    H3 9504   1.440   3.935  15.100  1.5229 -1.3964  1.2479
  638MPD2     N 9505   1.340   3.519  14.967  0.0235 -0.6873 -0.3821
  638MPD2    H5 9506   1.321   3.471  14.880 -0.5098  0.9232 -1.1516
  638MPD2    N1 9507   1.327   3.891  14.660  0.4308 -0.6626  0.8202
  638MPD2    H7 9508   1.342   3.991  14.652 -1.4809 -0.4021  0.5763
  639TMC3    C1 9509   1.300   3.308  15.064  1.1268 -0.1905  0.6245
  639TMC3    C2 9510   1.223   3.264  14.963  0.8991 -0.5242  0.6508
  639TMC3    C3 9511   1.205   3.133  14.960 -0.6406  0.0510 -0.0787
  639TMC3    C4 9512   1.363   3.226  15.153  0.1468  0.7566 -0.2065
  639TMC3    C5 9513   1.339   3.087  15.145 -0.0209  0.0106 -0.5577
  639TMC3    C6 9514   1.259   3.037  15.045 -0.4841  0.1096  0.2020
  639TMC3     C 9515   1.328   3.448  15.084  0.1441 -0.4183  0.7209
  639TMC3     O 9516   1.341   3.480  15.199  0.2056  0.1784 -0.1892
  639TMC3     H 9517   1.180   3.325  14.884  1.3498  1.3009  1.7996
  639TMC3    H1 9518   1.432   3.269  15.226  1.3936  0.1864 -1.0602
  639TMC3    H2 9519   1.255   2.931  15.020 -0.5124  0.3482 -0.8124
  639TMC3    C7 9520   1.456   3.001  15.177  0.0092  0.5577 -0.1676
  639TMC3    C8 9521   1.134   3.083  14.840 -0.1490 -0.5512  0.2411
  639TMC3    O1 9522   1.428   2.888  15.214  0.1941  0.5348 -0.5663
  639TMC3    O2 9523   1.167   3.137  14.734 -0.2501 -0.3037  0.5216
  640MPD2     C 9524   1.658   2.600  10.196  1.1368  0.0311 -0.1935
  640MPD2    C1 9525   1.663   2.618  10.056 -0.0761 -0.3861 -0.6144
  640MPD2    C2 9526   1.577   2.721  10.010  0.3662 -0.1059 -0.1991
  640MPD2    C3 9527   1.499   2.800  10.096 -0.5193  0.3411  0.6652
  640MPD2    C4 9528   1.508   2.781  10.226 -0.5478 -0.0545 -0.0587
  640MPD2    C5 9529   1.586   2.681  10.284 -0.1771 -0.4563 -0.1627
  640MPD2     H 9530   1.589   2.742   9.904 -0.4193  0.8680 -0.0953
  640MPD2    H1 9531   1.452   2.853  10.285  1.1719  2.3680 -1.4136
  640MPD2    H2 9532   1.696   2.510  10.243 -0.4955 -0.7751 -0.4160
  640MPD2    H3 9533   1.577   2.673  10.392 -1.0348 -1.1405 -0.2916
  640MPD2     N 9534   1.407   2.899  10.057  0.9320 -0.6010 -0.6074
  640MPD2    H5 9535   1.351   2.937  10.132  0.8115  0.7302 -1.3734
  640MPD2    N1 9536   1.748   2.536   9.973 -0.1855 -0.5988 -0.4544
  640MPD2    H7 9537   1.795   2.460  10.022 -0.3053 -1.4649 -1.6734
  641TMC3    C1 9538   1.876   2.473   9.796 -0.9367 -0.2739  0.1798
  641TMC3    C2 9539   1.966   2.419   9.885  0.5712 -0.2403  0.3805
  641TMC3    C3 9540   2.064   2.347   9.825  0.6917 -0.0552  0.8259
  641TMC3    C4 9541   1.881   2.458   9.660  0.4253 -0.0932  0.1891
  641TMC3    C5 9542   1.970   2.365   9.612 -0.1706 -0.6615  0.1377
  641TMC3    C6 9543   2.063   2.306   9.697 -0.7084  0.2890 -0.7400
  641TMC3     C 9544   1.779   2.565   9.842  0.0245 -0.6984  0.0965
  641TMC3     O 9545   1.724   2.642   9.767 -0.5871  0.6249 -0.0196
  641TMC3     H 9546   1.965   2.451   9.988 -2.2849  0.5441  0.0858
  641TMC3    H1 9547   1.809   2.507   9.596  0.2791 -1.3958 -0.6341
  641TMC3    H2 9548   2.151   2.252   9.666 -1.4722 -1.2337 -0.2536
  641TMC3    C7 9549   1.987   2.343   9.468 -0.4486  0.1112  0.1227
  641TMC3    C8 9550   2.136   2.261   9.912 -0.0668 -0.4188  0.8445
  641TMC3    O1 9551   1.932   2.421   9.393  0.2561  0.4699 -0.3405
  641TMC3    O2 9552   2.161   2.147   9.867 -0.8364  0.5198 -0.0729
  642TMC3    C1 9553   2.844   3.258  12.319  0.4711 -0.4182 -0.2783
  642TMC3    C2 9554   2.961   3.304  12.267  0.0153  0.1728 -0.1954
  642TMC3    C3 9555   3.003   3.232  12.159  0.1595 -0.0283  0.4029
  642TMC3    C4 9556   2.788   3.143  12.284 -0.3520  0.3563  0.1232
  642TMC3    C5 9557   2.832   3.086  12.167  0.0971 -0.0793  0.2929
  642TMC3    C6 9558   2.936   3.134  12.102 -0.5106  0.4870  0.1745
  642TMC3     C 9559   2.774   3.344  12.417 -0.7805  0.2626  0.3279
  642TMC3     O 9560   2.835   3.418  12.497 -0.3233  0.2371  0.2094
  642TMC3     H 9561   3.012   3.387  12.315 -0.1306  1.1647 -1.7583
  642TMC3    H1 9562   2.698   3.109  12.333  0.4965 -0.1218  1.3362
  642TMC3    H2 9563   2.962   3.099  12.002 -1.2369 -3.1574  1.2561
  642TMC3    C7 9564   2.753   2.987  12.097 -0.3092  0.5697  0.0076
  642TMC3    C8 9565   3.133   3.251  12.097 -0.0529 -0.2409  0.8071
  642TMC3    O1 9566   2.755   2.988  11.975 -0.1200 -0.9906 -0.3103
  642TMC3    O2 9567   3.165   3.205  11.986 -0.0486  0.1537  0.8371
  643TMC3    C1 9568   2.721   2.192   0.397  0.7187 -0.4501 -0.3588
  643TMC3    C2 9569   2.602   2.116   0.402  0.3585  0.3343 -0.0177
  643TMC3    C3 9570   2.576   2.022   0.307 -0.0716  0.4228  0.5735
  643TMC3    C4 9571   2.812   2.169   0.297 -0.2393  0.1545 -0.2229
  643TMC3    C5 9572   2.786   2.075   0.202  0.1568  0.7805  0.0961
  643TMC3    C6 9573   2.674   1.993   0.213  0.5425  0.7669  0.6952
  643TMC3     C 9574   2.731   2.312   0.476  0.3284  0.0432 -0.1638
  643TMC3     O 9575   2.631   2.358   0.527 -0.1355  0.0737  0.7286
  643TMC3     H 9576   2.532   2.119   0.484  0.9606 -0.5296  0.5248
  643TMC3    H1 9577   2.893   2.238   0.272 -0.8432  0.4853 -1.2541
  643TMC3    H2 9578   2.648   1.916   0.141 -0.9151  0.0733  1.9566
  643TMC3    C7 9579   2.812   2.120   0.066 -0.1040  0.5374 -0.5799
  643TMC3    C8 9580   2.461   2.069   0.231  0.6286  0.4315 -0.6485
  643TMC3    O1 9581   2.848   2.235   0.044 -0.2227  0.0148  0.3469
  643TMC3    O2 9582   2.416   1.991   0.145  0.3691 -0.5492 -0.3292
  644MPD2     C 9583   2.375   2.438   9.488 -0.5491 -0.7960 -0.2735
  644MPD2    C1 9584   2.350   2.474   9.622  0.6261  0.1147  0.3837
  644MPD2    C2 9585   2.255   2.577   9.653 -0.0050 -0.2226 -0.6820
  644MPD2    C3 9586   2.186   2.638   9.551 -0.4811  1.2849 -0.8155
  644MPD2    C4 9587   2.214   2.607   9.421  0.4464  0.1153 -0.2281
  644MPD2    C5 9588   2.307   2.515   9.390  0.1645 -0.4258 -0.4275
  644MPD2     H 9589   2.228   2.602   9.755  0.9796 -2.4682  0.1519
  644MPD2    H1 9590   2.176   2.664   9.337 -1.7036 -1.6583 -0.4488
  644MPD2    H2 9591   2.458   2.371   9.469  2.0486  3.0119 -2.4151
  644MPD2    H3 9592   2.325   2.499   9.284  0.4821  1.6742 -0.6936
  644MPD2     N 9593   2.093   2.735   9.587 -0.1790 -0.3697 -0.0000
  644MPD2    H5 9594   2.088   2.745   9.687 -4.6204  1.7827 -0.4747
  644MPD2    N1 9595   2.411   2.403   9.728  0.0982  0.5838  0.5687
  644MPD2    H7 9596   2.474   2.330   9.696  0.2966  0.5214  1.1006
  645TMC3    C1 9597   1.912   2.874   9.584 -0.3858 -0.0063  0.1947
  645TMC3    C2 9598   1.932   2.909   9.712  0.2689 -0.5912  0.0385
  645TMC3    C3 9599   1.828   2.977   9.777  0.3472  0.1636 -0.2844
  645TMC3    C4 9600   1.795   2.901   9.513  0.1147 -0.3825  0.4767
  645TMC3    C5 9601   1.689   2.959   9.583 -0.1819 -0.9140  0.3234
  645TMC3    C6 9602   1.703   2.991   9.716 -0.2381 -0.1661  0.1608
  645TMC3     C 9603   2.016   2.817   9.504  0.1498  0.3992 -0.7661
  645TMC3     O 9604   2.021   2.841   9.384 -0.2294  0.2554  1.0064
  645TMC3     H 9605   2.027   2.898   9.762  0.2035  0.2686  0.3559
  645TMC3    H1 9606   1.782   2.871   9.410  0.9176  1.6627 -0.2107
  645TMC3    H2 9607   1.616   3.017   9.776 -0.7613  2.5005 -1.7751
  645TMC3    C7 9608   1.567   2.999   9.500  0.4807  0.6685 -0.3972
  645TMC3    C8 9609   1.840   2.985   9.924  0.4168 -0.1411  0.3955
  645TMC3    O1 9610   1.559   2.961   9.385  0.4948 -0.1081 -0.1013
  645TMC3    O2 9611   1.943   2.946   9.974 -0.2772 -0.4912 -0.3552
  646MPD2     C 9612   1.746   2.549  14.283 -0.0740 -0.5372  0.2295
  646MPD2    C1 9613   1.632   2.494  14.344 -0.3020 -0.6304  0.6819
  646MPD2    C2 9614   1.508   2.539  14.314  0.3658  0.3986 -0.7273
  646MPD2    C3 9615   1.498   2.641  14.219  1.0179 -0.6447  0.4270
  646MPD2    C4 9616   1.610   2.690  14.151 -0.1532  0.1389 -0.3393
  646MPD2    C5 9617   1.738   2.650  14.195 -0.3938 -0.8041 -0.4708
  646MPD2     H 9618   1.415   2.506  14.359  1.6722 -0.5670  1.2781
  646MPD2    H1 9619   1.609   2.779  14.089 -3.0508  0.5956  0.3839
  646MPD2    H2 9620   1.847   2.538  14.320 -0.0556 -1.8733 -0.2196
  646MPD2    H3 9621   1.827   2.702  14.161 -0.1373  0.4947  2.2023
  646MPD2     N 9622   1.363   2.690  14.208 -0.2496  0.1335 -0.2937
  646MPD2    H5 9623   1.287   2.656  14.267  0.1806  0.7524  0.6279
  646MPD2    N1 9624   1.663   2.398  14.449 -0.2323 -0.1563 -0.3127
  646MPD2    H7 9625   1.760   2.367  14.451 -0.5333 -1.1650 -1.2235
  647TMC3    C1 9626   1.621   2.237  14.622  0.1373  0.0577 -0.0357
  647TMC3    C2 9627   1.527   2.170  14.698  0.1673  0.8811 -0.0520
  647TMC3    C3 9628   1.578   2.103  14.807  0.4159 -0.6024 -0.2915
  647TMC3    C4 9629   1.753   2.241  14.654 -1.0141 -0.4173  0.1458
  647TMC3    C5 9630   1.788   2.192  14.780 -0.1640 -0.3667  0.8073
  647TMC3    C6 9631   1.705   2.118  14.846 -0.2292 -0.0908  0.8836
  647TMC3     C 9632   1.576   2.342  14.533 -0.5059 -0.5683 -0.0993
  647TMC3     O 9633   1.457   2.366  14.536 -0.4229  0.0379 -0.2635
  647TMC3     H 9634   1.427   2.157  14.656  0.4724 -0.4096 -0.3632
  647TMC3    H1 9635   1.826   2.264  14.577 -1.5750 -2.3802 -0.9675
  647TMC3    H2 9636   1.744   2.075  14.938  0.9456  0.9286  0.8631
  647TMC3    C7 9637   1.927   2.179  14.820 -0.1234  0.6119  0.5987
  647TMC3    C8 9638   1.494   2.011  14.887 -0.4660 -0.1020  0.7342
  647TMC3    O1 9639   1.959   2.075  14.870 -0.0975 -0.2127  0.0902
  647TMC3    O2 9640   1.376   2.041  14.889 -0.0449  0.1646 -0.3188
  648TMC3    C1 9641   0.787   4.112  16.233 -0.0609  0.6282 -0.2156
  648TMC3    C2 9642   0.896   4.030  16.208  0.3539  0.2519 -0.4910
  648TMC3    C3 9643   0.962   4.031  16.083 -0.0147 -0.1332 -0.2622
  648TMC3    C4 9644   0.747   4.207  16.147  0.1404 -0.0087  0.4020
  648TMC3    C5 9645   0.815   4.212  16.028 -0.4010  0.3878  0.4063
  648TMC3    C6 9646   0.914   4.126  15.990 -0.3960  0.4148  0.4173
  648TMC3     C 9647   0.770   4.145  16.375  0.0582 -0.5499 -0.2812
  648TMC3     O 9648   0.740   4.258  16.399  0.7122 -0.3034 -0.0431
  648TMC3     H 9649   0.925   3.962  16.287  2.2469  1.2828 -0.3025
  648TMC3    H1 9650   0.659   4.262  16.176  1.5246  2.1024  0.5895
  648TMC3    H2 9651   0.968   4.151  15.899  2.9078 -0.8072  2.0088
  648TMC3    C7 9652   0.793   4.315  15.932 -0.2086 -0.5566  0.1982
  648TMC3    C8 9653   1.088   3.973  16.066  0.3938 -0.3531 -0.2053
  648TMC3    O1 9654   0.838   4.299  15.821  0.1296 -0.8306  0.0042
  648TMC3    O2 9655   1.133   3.919  16.165 -0.0302 -0.3350 -0.2550
  649TMC3    C1 9656   3.899   0.875  13.063 -0.2156  0.1080  0.7754
  649TMC3    C2 9657   4.007   0.962  13.083  0.2984 -0.6965 -0.3811
  649TMC3    C3 9658   4.098   0.915  13.173  0.2225  0.0524  0.4315
  649TMC3    C4 9659   3.876   0.749  13.122  0.5990  0.3478  0.3965
  649TMC3    C5 9660   3.960   0.718  13.215 -0.3911  0.1876  0.3025
  649TMC3    C6 9661   4.066   0.800  13.245  0.5434 -0.4573  0.5631
  649TMC3     C 9662   3.781   0.938  12.999 -0.3017 -0.4330 -0.2739
  649TMC3     O 9663   3.778   1.058  12.974 -0.1799 -0.0351 -0.3546
  649TMC3     H 9664   3.995   1.065  13.049  1.6775 -0.6073 -0.6142
  649TMC3    H1 9665   3.779   0.700  13.124  0.8719 -0.2585 -0.9782
  649TMC3    H2 9666   4.132   0.762  13.323  0.9739  0.6394  0.7391
  649TMC3    C7 9667   3.904   0.637  13.322  0.3566  0.1343  0.1226
  649TMC3    C8 9668   4.215   0.995  13.207 -0.0601  0.4026 -0.2434
  649TMC3    O1 9669   3.818   0.553  13.291 -0.4442  0.1879 -0.1723
  649TMC3    O2 9670   4.268   0.997  13.320  0.2227  0.3913  0.0074
  650TMC3    C1 9671   2.128   2.351  12.085  0.5273  0.2929 -0.4816
  650TMC3    C2 9672   2.076   2.472  12.125  0.4563 -0.7439  0.2974
  650TMC3    C3 9673   1.984   2.528  12.043  0.5479 -0.2056  0.3093
  650TMC3    C4 9674   2.065   2.274  11.987 -0.4289 -0.8714  0.4057
  650TMC3    C5 9675   1.988   2.346  11.903  0.2517  0.0022  0.0587
  650TMC3    C6 9676   1.948   2.472  11.924  0.0692 -0.3694 -0.1143
  650TMC3     C 9677   2.208   2.283  12.186  0.1400 -0.3123 -0.7608
  650TMC3     O 9678   2.202   2.336  12.298 -0.1628 -0.2694  0.1355
  650TMC3     H 9679   2.128   2.536  12.196  0.3070  2.0454 -2.1147
  650TMC3    H1 9680   2.093   2.171  11.973  2.0101 -0.5672  3.0758
  650TMC3    H2 9681   1.870   2.512  11.859  0.5010  2.9577  1.4352
  650TMC3    C7 9682   1.971   2.289  11.771 -0.7017 -0.0087  0.5804
  650TMC3    C8 9683   1.921   2.648  12.092  0.1576  0.0803 -0.2301
  650TMC3    O1 9684   1.982   2.168  11.760 -0.7553 -0.4718  0.4854
  650TMC3    O2 9685   1.984   2.710  12.179 -0.5683 -0.6254  0.3686
  651MPD2     C 9686   0.768   4.397  10.519  0.5301  0.4412 -0.2069
  651MPD2    C1 9687   0.803   4.487  10.624 -0.7672  0.1428  0.3829
  651MPD2    C2 9688   0.937   4.515  10.638 -0.1790 -0.8022  0.5954
  651MPD2    C3 9689   1.038   4.461  10.555  0.0366  0.0209 -0.0949
  651MPD2    C4 9690   0.997   4.383  10.448 -0.6299 -0.7315 -1.1173
  651MPD2    C5 9691   0.859   4.353  10.431 -0.4221 -0.2640  0.1091
  651MPD2     H 9692   0.964   4.571  10.726  2.0797 -0.5399 -0.2815
  651MPD2    H1 9693   1.058   4.345  10.367  0.6002  1.2848 -1.1443
  651MPD2    H2 9694   0.664   4.372  10.503  0.8394 -0.7650 -0.3491
  651MPD2    H3 9695   0.828   4.304  10.339  1.1464  1.7772 -1.5094
  651MPD2     N 9696   1.173   4.491  10.584 -0.8130 -0.3198  0.0313
  651MPD2    H5 9697   1.184   4.554  10.663 -1.9397 -2.7495  2.1198
  651MPD2    N1 9698   0.717   4.549  10.716  0.5062  0.0141 -0.1757
  651MPD2    H7 9699   0.760   4.621  10.774  1.2816 -0.0595 -0.6739
  652TMC3    C1 9700   1.635   4.514  10.609 -0.1560 -0.5330 -0.0749
  652TMC3    C2 9701   1.529   4.457  10.544  0.2624  0.3559  0.3195
  652TMC3    C3 9702   1.402   4.493  10.590  0.3687 -0.3320 -0.1508
  652TMC3    C4 9703   1.625   4.602  10.712 -0.1076 -0.8955  0.3374
  652TMC3    C5 9704   1.502   4.628  10.750 -0.5811  0.2757 -0.3027
  652TMC3    C6 9705   1.390   4.576  10.698 -0.0278 -0.1508  0.0475
  652TMC3     C 9706   1.773   4.465  10.585  0.4447 -0.1841  1.0083
  652TMC3     O 9707   1.838   4.432  10.681 -0.1981 -0.1466  0.5913
  652TMC3     H 9708   1.545   4.397  10.456 -0.0624  0.7831 -0.0346
  652TMC3    H1 9709   1.708   4.627  10.777 -0.1037 -2.5059  0.9530
  652TMC3    H2 9710   1.299   4.608  10.748 -0.0621 -0.2369  0.0410
  652TMC3    C7 9711   1.487   4.717  10.867  0.3422 -0.7113 -0.7675
  652TMC3    C8 9712   1.283   4.437  10.530 -0.4228 -0.2035  0.7280
  652TMC3    O1 9713   1.401   4.685  10.948  0.1570  0.1143  0.9634
  652TMC3    O2 9714   1.299   4.360  10.432 -0.0040 -0.2654  0.7810
  653MPD2     C 9715   4.393   4.281   0.006 -0.4913 -0.3643  0.0132
  653MPD2    C1 9716   4.315   4.338  17.656  0.0837  0.2080  0.3622
  653MPD2    C2 9717   4.234   4.260  17.582  0.1190 -0.0666  0.1548
  653MPD2    C3 9718   4.244   4.125  17.598 -0.8672  0.5890 -0.5639
  653MPD2    C4 9719   4.311   4.067  17.708  0.8913  0.3381 -0.3039
  653MPD2    C5 9720   4.384   4.149   0.039 -0.3157 -0.2103 -0.7520
  653MPD2     H 9721   4.170   4.307  17.508 -1.7581 -0.0336  1.7879
  653MPD2    H1 9722   4.302   3.964  17.740  0.7168  0.0274 -1.3493
  653MPD2    H2 9723   4.455   4.340   0.073 -0.1097 -0.5916 -0.1432
  653MPD2    H3 9724   4.423   4.108   0.131 -0.8555  0.1176 -0.3727
  653MPD2     N 9725   4.184   4.051  17.491 -0.6509 -0.3352  0.3998
  653MPD2    H5 9726   4.140   4.105  17.417 -0.4274 -1.2821 -0.4123
  653MPD2    N1 9727   4.320   4.474  17.615 -0.1693 -0.5643 -0.1209
  653MPD2    H7 9728   4.259   4.513  17.543  0.2525  1.5828  0.6651
  654TMC3    C1 9729   4.120   3.875  17.354  0.4901  0.2055 -0.0501
  654TMC3    C2 9730   4.073   3.965  17.267  0.0681  0.3647  0.0538
  654TMC3    C3 9731   4.035   3.921  17.146 -0.3980  0.0126  0.3644
  654TMC3    C4 9732   4.131   3.740  17.321 -0.6818 -0.0722  0.7622
  654TMC3    C5 9733   4.098   3.699  17.198 -0.0799  0.7253 -0.1533
  654TMC3    C6 9734   4.039   3.790  17.104  0.9454 -0.4355 -0.5001
  654TMC3     C 9735   4.185   3.912  17.480 -0.6095 -0.7811  0.4001
  654TMC3     O 9736   4.226   3.824  17.552  0.1785  0.9723  0.3749
  654TMC3     H 9737   4.055   4.068  17.297  2.7577  0.0186  2.9068
  654TMC3    H1 9738   4.180   3.673  17.391  0.9774 -1.6597 -1.8866
  654TMC3    H2 9739   4.021   3.757  17.002  2.3080  0.7693 -1.1200
  654TMC3    C7 9740   4.125   3.567  17.147  0.1737 -0.1195  0.0510
  654TMC3    C8 9741   3.955   4.016  17.066 -0.0258  0.0654  0.2952
  654TMC3    O1 9742   4.144   3.569  17.024  0.5192  0.1130  0.3866
  654TMC3    O2 9743   3.989   4.135  17.082  0.2828  0.0178 -0.5740
  655MPD2     C 9744   1.290   4.292  15.718 -0.2049  0.1650  0.1083
  655MPD2    C1 9745   1.277   4.428  15.731 -0.6026 -0.1731 -0.1906
  655MPD2    C2 9746   1.249   4.510  15.615 -0.6923 -0.3312 -0.2306
  655MPD2    C3 9747   1.247   4.447  15.490 -0.4151  0.0270  0.0279
  655MPD2    C4 9748   1.277   4.316  15.486 -0.2409 -1.0126  0.0868
  655MPD2    C5 9749   1.291   4.234  15.594 -0.2886 -0.2939 -0.6282
  655MPD2     H 9750   1.237   4.618  15.616 -3.8168 -0.7287  3.7056
  655MPD2    H1 9751   1.268   4.263  15.391 -0.2465  0.8564 -0.9619
  655MPD2    H2 9752   1.295   4.222  15.801 -0.6996 -1.1729 -0.9865
  655MPD2    H3 9753   1.268   4.128  15.580 -2.2038 -0.1501  1.3564
  655MPD2     N 9754   1.217   4.512  15.363  1.2667  0.2403 -0.0066
  655MPD2    H5 9755   1.223   4.458  15.278 -0.6060 -0.1821  0.1360
  655MPD2    N1 9756   1.283   4.496  15.851 -0.4187 -0.0061 -0.2875
  655MPD2    H7 9757   1.275   4.597  15.847  0.9944  0.1646  1.4749
  656TMC3    C1 9758   1.230   4.532  16.079  0.4288 -0.1016  0.1101
  656TMC3    C2 9759   1.110   4.505  16.139  0.5947  0.5950  0.2588
  656TMC3    C3 9760   1.033   4.612  16.178 -0.0668 -0.4521 -0.6932
  656TMC3    C4 9761   1.265   4.661  16.055 -0.1260  0.2005 -0.0661
  656TMC3    C5 9762   1.167   0.020  16.054  0.2954 -0.5795  0.0011
  656TMC3    C6 9763   1.054   0.002  16.126 -0.0461  0.8141 -0.7101
  656TMC3     C 9764   1.277   4.431  15.979  0.1080  0.0077  0.1531
  656TMC3     O 9765   1.249   4.316  15.999  0.3046  0.0545 -0.0165
  656TMC3     H 9766   1.090   4.403  16.169 -1.4369  0.6924 -0.7324
  656TMC3    H1 9767   1.366   4.674  16.016  0.3240 -3.0293  0.0474
  656TMC3    H2 9768   0.978   0.080  16.134  0.1341  0.8890  0.2525
  656TMC3    C7 9769   1.153   0.080  15.919 -0.2081  0.3737  0.4050
  656TMC3    C8 9770   0.906   4.589  16.256  0.5150 -0.0420  0.3668
  656TMC3    O1 9771   1.242   0.045  15.843  0.9249  0.2654 -0.1067
  656TMC3    O2 9772   0.868   4.469  16.264 -0.1599  0.0091  0.3203
  657TMC3    C1 9773   0.141   4.045  14.809 -0.1898  0.2158 -0.3896
  657TMC3    C2 9774   0.116   4.049  14.941 -0.6522  0.7442 -0.2200
  657TMC3    C3 9775   0.055   4.153  14.994 -0.2942 -0.6827  0.2293
  657TMC3    C4 9776   0.121   4.156  14.730 -0.0981  0.1205 -0.3067
  657TMC3    C5 9777   0.062   4.263  14.780 -0.0015  1.1082 -0.4136
  657TMC3    C6 9778   0.029   4.263  14.914 -0.0754  0.5201  0.6416
  657TMC3     C 9779   0.211   3.931  14.757  0.1214  0.5973  0.0644
  657TMC3     O 9780   0.175   3.892  14.647  0.3930  0.1562 -0.1346
  657TMC3     H 9781   0.146   3.968  15.006 -1.3192  1.5574  1.0853
  657TMC3    H1 9782   0.137   4.141  14.624  3.0572 -2.4141  0.5019
  657TMC3    H2 9783   4.725   4.353  14.958  1.4916  2.1346 -1.1179
  657TMC3    C7 9784   0.021   4.376  14.706  0.0703 -1.1412  0.2264
  657TMC3    C8 9785   0.000   4.140  15.126  0.1056 -0.1887  0.7855
  657TMC3    O1 9786   4.657   4.432  14.752  0.0053 -0.0890  0.4368
  657TMC3    O2 9787   4.689   4.244  15.174 -0.3868 -0.3664  0.2934
  658MPD2     C 9788   1.410   4.683  14.612 -0.4994 -0.7006  0.0022
  658MPD2    C1 9789   1.273   4.680  14.627 -0.0814 -0.0184 -0.4780
  658MPD2    C2 9790   1.197   4.675  14.512 -0.2514  0.3303 -0.5358
  658MPD2    C3 9791   1.241   4.677  14.383  0.2240  0.3303 -0.5830
  658MPD2    C4 9792   1.381   4.691  14.372  0.7835 -0.2537 -0.6596
  658MPD2    C5 9793   1.465   4.695  14.482  0.0657  0.2932 -1.1339
  658MPD2     H 9794   1.090   4.663  14.525 -0.4280  1.9351 -0.5240
  658MPD2    H1 9795   1.428   4.696  14.275 -0.2362 -2.4598 -1.2696
  658MPD2    H2 9796   1.476   4.658  14.695 -1.7648 -1.4194  0.7989
  658MPD2    H3 9797   1.573   4.688  14.474  0.3938 -0.2128  3.5951
  658MPD2     N 9798   1.153   4.687  14.271  0.0500 -0.3802  0.0968
  658MPD2    H5 9799   1.199   4.717  14.185 -0.3624  0.9967  0.3495
  658MPD2    N1 9800   1.210   4.691  14.754  0.3454 -0.3156  0.1196
  658MPD2    H7 9801   1.109   4.683  14.750  0.2651  0.9067 -0.3607
  659TMC3    C1 9802   1.177   4.703  14.985  0.3041  0.4463 -0.6090
  659TMC3    C2 9803   1.214   4.653  15.110  0.0590  0.8583 -0.1271
  659TMC3    C3 9804   1.143   4.697  15.217 -0.1105  0.3172 -0.3590
  659TMC3    C4 9805   1.061   0.041  14.963  0.4610  0.3499 -0.1229
  659TMC3    C5 9806   0.988   0.070  15.076  0.7295 -0.7934 -0.3725
  659TMC3    C6 9807   1.032   0.040  15.203 -0.6806 -0.1830 -0.5394
  659TMC3     C 9808   1.273   4.700  14.873 -0.1469  0.1079 -0.0764
  659TMC3     O 9809   1.390   4.684  14.902 -1.0593 -0.1634 -0.2498
  659TMC3     H 9810   1.301   4.590  15.126 -0.4852  0.0380 -0.3954
  659TMC3    H1 9811   1.035   0.095  14.873  1.6259  1.3917  0.1701
  659TMC3    H2 9812   0.973   0.055  15.293  1.3623 -0.4413  0.8422
  659TMC3    C7 9813   0.860   0.137  15.065  0.0588 -0.4288  0.2366
  659TMC3    C8 9814   1.171   4.644  15.354 -0.4618  0.4740 -0.1845
  659TMC3    O1 9815   0.834   0.213  14.972  0.3810  0.2294  0.1366
  659TMC3    O2 9816   1.137   4.710  15.451 -0.1838 -0.6575  0.0598
  660MPD2     C 9817   4.025   3.543  12.760  0.6586 -0.5500 -0.4342
  660MPD2    C1 9818   3.940   3.495  12.664  0.6782  0.4239  0.0181
  660MPD2    C2 9819   3.910   3.359  12.655  0.3505 -0.2634  0.5283
  660MPD2    C3 9820   3.978   3.270  12.730  0.1469 -0.1789 -0.2463
  660MPD2    C4 9821   4.069   3.319  12.822  0.4146 -0.0856 -0.1912
  660MPD2    C5 9822   4.096   3.454  12.836  0.5416 -0.4868 -0.4818
  660MPD2     H 9823   3.836   3.324  12.584  0.9266 -1.5774  0.5739
  660MPD2    H1 9824   4.104   3.249  12.896 -2.2220 -2.0022 -0.7872
  660MPD2    H2 9825   4.045   3.646  12.784 -1.1353  0.1386 -1.8940
  660MPD2    H3 9826   4.172   3.490  12.904  0.5102  0.1354 -0.7801
  660MPD2     N 9827   3.948   3.130  12.728 -0.6296 -0.3956  0.9726
  660MPD2    H5 9828   3.976   3.082  12.812 -0.3458 -0.2088  0.9845
  660MPD2    N1 9829   3.870   3.589  12.579  0.4718  0.7404 -0.1050
  660MPD2    H7 9830   3.826   3.561  12.491 -0.5214 -0.2240  0.6981
  661TMC3    C1 9831   3.762   3.785  12.511  0.2866 -0.5560  0.2544
  661TMC3    C2 9832   3.813   3.771  12.384  0.0432 -0.3971 -0.3714
  661TMC3    C3 9833   3.738   3.814  12.280  0.1276 -0.2679 -0.1587
  661TMC3    C4 9834   3.640   3.837  12.537 -0.2684 -0.1987  0.5716
  661TMC3    C5 9835   3.563   3.872  12.424  0.0929 -0.5932 -0.7441
  661TMC3    C6 9836   3.612   3.864  12.294 -1.2626  0.8214  0.1910
  661TMC3     C 9837   3.837   3.718  12.619  1.2294  0.2524 -0.2970
  661TMC3     O 9838   3.822   3.768  12.732 -0.0508 -0.1341 -0.1298
  661TMC3     H 9839   3.921   3.768  12.375  0.0362  2.8469 -1.4824
  661TMC3    H1 9840   3.599   3.835  12.637 -1.6866 -0.3595 -0.0217
  661TMC3    H2 9841   3.553   3.884  12.206  2.5473  0.3496 -2.4708
  661TMC3    C7 9842   3.418   3.850  12.451 -0.0616 -0.3248  0.1124
  661TMC3    C8 9843   3.797   3.795  12.144 -0.1700 -0.1506 -0.5309
  661TMC3    O1 9844   3.379   3.847  12.566 -0.3005  0.4120 -0.1375
  661TMC3    O2 9845   3.747   3.870  12.063 -0.0068 -0.1066  0.0196
  662MPD2     C 9846   4.071   2.711  16.903 -0.0047 -0.0128  0.1894
  662MPD2    C1 9847   4.102   2.661  17.029  0.1940 -0.5011  0.0327
  662MPD2    C2 9848   4.058   2.727  17.141  0.2215 -0.1189 -0.5266
  662MPD2    C3 9849   3.995   2.849  17.128 -0.8445 -0.3728  0.2469
  662MPD2    C4 9850   3.999   2.914  17.005  0.0672 -1.5196  0.2022
  662MPD2    C5 9851   4.029   2.838  16.893 -0.0019  0.8163  0.0873
  662MPD2     H 9852   4.080   2.679  17.236  0.5444  0.4221 -0.3272
  662MPD2    H1 9853   3.965   3.012  16.973 -1.3150 -0.7065  4.0698
  662MPD2    H2 9854   4.077   2.650  16.813  0.1410  1.9702 -1.1445
  662MPD2    H3 9855   4.018   2.891  16.799 -0.5803 -0.0470 -0.3334
  662MPD2     N 9856   3.943   2.915  17.241  0.5377 -0.2725  0.1786
  662MPD2    H5 9857   3.894   3.001  17.222  0.9070  0.2635  1.6130
  662MPD2    N1 9858   4.170   2.538  17.045  0.2187 -0.1586  0.1305
  662MPD2    H7 9859   4.179   2.499  17.138 -0.9173  0.3667  0.4635
  663TMC3    C1 9860   4.280   2.342  17.010 -0.1454  0.5112  0.1523
  663TMC3    C2 9861   4.282   2.308  17.143 -0.0080  0.0997  0.5563
  663TMC3    C3 9862   4.336   2.192  17.179  0.4843  0.1294 -0.2562
  663TMC3    C4 9863   4.352   2.267  16.923  0.0832 -0.0100  0.0878
  663TMC3    C5 9864   4.416   2.155  16.967  0.0036  0.2064 -0.5508
  663TMC3    C6 9865   4.405   2.110  17.094 -0.7670  0.0576 -0.3198
  663TMC3     C 9866   4.215   2.455  16.950 -0.6051  0.3420  0.2796
  663TMC3     O 9867   4.238   2.477  16.830  0.0835  0.0006 -0.0549
  663TMC3     H 9868   4.230   2.360  17.223 -0.7670  0.2167 -0.0026
  663TMC3    H1 9869   4.367   2.293  16.819 -2.8781 -1.8088 -0.8033
  663TMC3    H2 9870   4.469   2.029  17.129  0.8160  2.0872  1.4671
  663TMC3    C7 9871   4.470   2.067  16.866  0.0586 -0.1464 -0.0261
  663TMC3    C8 9872   4.375   2.160  17.319 -0.1511  0.4858  0.1532
  663TMC3    O1 9873   4.528   2.118  16.771  0.0890  0.1488 -0.7833
  663TMC3    O2 9874   4.425   2.050  17.340  1.0362 -0.1088  0.5498
  664MPD2     C 9875   2.775   0.881  17.500  0.0355 -0.3067 -0.0545
  664MPD2    C1 9876   2.789   1.017  17.505  0.5629  0.4720 -1.2645
  664MPD2    C2 9877   2.708   1.084  17.591 -0.6483  0.2220 -0.1641
  664MPD2    C3 9878   2.600   1.028  17.657 -0.2548  0.0694  0.2878
  664MPD2    C4 9879   2.579   0.893  17.646 -0.2238 -0.5509  0.0091
  664MPD2    C5 9880   2.668   0.820  17.568  0.0334  0.4890  0.1151
  664MPD2     H 9881   2.724   1.191  17.586  1.8107 -0.0689  1.3481
  664MPD2    H1 9882   2.499   0.841  17.698  0.2118 -1.3383 -0.1090
  664MPD2    H2 9883   2.851   0.826  17.445  0.7036 -0.8697  1.4337
  664MPD2    H3 9884   2.663   0.712  17.564  0.2317  0.4489  0.8887
  664MPD2     N 9885   2.534   1.115  17.739 -0.4987 -0.3726 -0.4328
  664MPD2    H5 9886   2.575   1.208  17.748  0.8768 -1.0666  0.3857
  664MPD2    N1 9887   2.875   1.097  17.431  0.0981  0.1477  0.3222
  664MPD2    H7 9888   2.876   1.196  17.454 -0.7822  0.5574 -1.4188
  665TMC3    C1 9889   2.401   1.193   0.167 -0.3404 -0.2441  0.2444
  665TMC3    C2 9890   2.312   1.164   0.265 -0.9496  0.1511 -0.3668
  665TMC3    C3 9891   2.300   1.259   0.365 -0.5264  0.4260  0.0625
  665TMC3    C4 9892   2.479   1.305   0.168 -0.2979 -0.2056  0.6235
  665TMC3    C5 9893   2.468   1.397   0.278 -0.5704  0.3241  0.4877
  665TMC3    C6 9894   2.381   1.368   0.373 -0.1321 -0.3399  1.0440
  665TMC3     C 9895   2.425   1.089   0.074 -0.9307 -0.5141  0.3737
  665TMC3     O 9896   2.369   0.978   0.085 -0.1670  0.1111 -0.8465
  665TMC3     H 9897   2.264   1.068   0.280 -1.8448  0.3987 -1.6490
  665TMC3    H1 9898   2.562   1.328   0.102 -1.5417 -0.2087 -0.9236
  665TMC3    H2 9899   2.350   1.445   0.443  0.3190 -0.5753  1.5050
  665TMC3    C7 9900   2.565   1.499   0.303  0.2402 -0.8286 -0.4932
  665TMC3    C8 9901   2.226   1.232   0.484  0.1767  0.1877 -0.2029
  665TMC3    O1 9902   2.630   1.526   0.201  0.2798  0.1627 -0.1819
  665TMC3    O2 9903   2.251   1.303   0.584 -0.4483  0.5718  0.1398
  666TMC3    C1 9904   1.003   1.170  10.393  0.6757 -0.1379  0.9077
  666TMC3    C2 9905   1.123   1.144  10.444 -0.0162 -0.5481 -0.0265
  666TMC3    C3 9906   1.231   1.212  10.403  0.3123  0.0400 -0.0872
  666TMC3    C4 9907   0.980   1.277  10.320 -0.1152 -0.1185 -0.5768
  666TMC3    C5 9908   1.089   1.349  10.283 -0.5764 -0.1246 -0.2111
  666TMC3    C6 9909   1.217   1.316  10.319 -0.3194 -0.9584  0.0324
  666TMC3     C 9910   0.896   1.166  10.498  0.0741 -0.1735  0.2676
  666TMC3     O 9911   0.859   1.274  10.532  0.5765 -0.4914  0.2796
  666TMC3     H 9912   1.127   1.075  10.527 -0.1148  0.5936  0.9312
  666TMC3    H1 9913   0.881   1.293  10.278 -0.4344 -0.7905 -0.0868
  666TMC3    H2 9914   1.297   1.384  10.294 -0.1242 -0.1758  2.7635
  666TMC3    C7 9915   1.059   1.467  10.199 -0.3324 -0.6658  0.2398
  666TMC3    C8 9916   1.359   1.190  10.467 -0.0112 -0.3372 -0.1611
  666TMC3    O1 9917   0.947   1.514  10.203 -0.0733  0.4763 -0.1349
  666TMC3    O2 9918   1.386   1.075  10.495 -0.3889  0.4506 -0.3269
  667MPD2     C 9919   3.393   1.449  14.333 -0.1960 -0.3986  0.5386
  667MPD2    C1 9920   3.322   1.464  14.452  0.0231  1.1287 -0.0428
  667MPD2    C2 9921   3.204   1.395  14.474 -0.1874 -0.8715  0.7569
  667MPD2    C3 9922   3.159   1.306  14.379 -0.1706 -0.0404 -0.5161
  667MPD2    C4 9923   3.239   1.276  14.272 -0.3295 -0.4488  0.8745
  667MPD2    C5 9924   3.349   1.349  14.249  0.1268 -0.8819  0.4061
  667MPD2     H 9925   3.150   1.420  14.565 -0.5839  0.6763  0.0993
  667MPD2    H1 9926   3.203   1.201  14.203  2.9396 -0.4111 -0.8272
  667MPD2    H2 9927   3.485   1.501  14.311 -1.1469  1.0491  0.0219
  667MPD2    H3 9928   3.406   1.322  14.161  1.6456  0.9794  0.8119
  667MPD2     N 9929   3.038   1.236  14.387 -0.4706  0.0363 -0.6897
  667MPD2    H5 9930   3.011   1.172  14.313 -1.8880  0.7332 -0.7752
  667MPD2    N1 9931   3.357   1.567  14.548 -0.6565 -0.1604  0.2878
  667MPD2    H7 9932   3.291   1.569  14.625  0.0112 -0.1451  0.8592
  668TMC3    C1 9933   3.497   1.726  14.660  0.5409  0.2222 -0.1296
  668TMC3    C2 9934   3.566   1.842  14.648  0.4915  0.1448  0.2431
  668TMC3    C3 9935   3.579   1.930  14.755  0.3596  0.6388  0.3354
  668TMC3    C4 9936   3.447   1.687  14.776 -0.2003  0.9830  0.9308
  668TMC3    C5 9937   3.459   1.777  14.880 -0.1938  0.4415  0.6457
  668TMC3    C6 9938   3.528   1.892  14.875 -0.3492 -0.6904  0.0980
  668TMC3     C 9939   3.475   1.642  14.539  0.1848  0.0675 -0.4128
  668TMC3     O 9940   3.568   1.635  14.460  0.0596 -0.2656  0.2013
  668TMC3     H 9941   3.604   1.884  14.555  1.0440  1.4722  1.0610
  668TMC3    H1 9942   3.419   1.583  14.788  2.4118  0.3189  1.3282
  668TMC3    H2 9943   3.528   1.958  14.961 -0.4269 -1.5013  0.7102
  668TMC3    C7 9944   3.429   1.727  15.008 -0.3417 -0.0442  1.1315
  668TMC3    C8 9945   3.648   2.056  14.738  0.9610  0.1034  0.1810
  668TMC3    O1 9946   3.499   1.758  15.102 -0.1011 -0.0307 -0.6429
  668TMC3    O2 9947   3.613   2.147  14.811 -0.4998 -0.9035  0.4811
  669TMC3    C1 9948   1.220   1.701  14.724 -0.4483  0.5659 -0.3840
  669TMC3    C2 9949   1.122   1.761  14.652  0.2010  0.4817  0.3206
  669TMC3    C3 9950   1.173   1.825  14.543 -0.1598 -1.2112 -0.9247
  669TMC3    C4 9951   1.352   1.705  14.702  0.2114 -0.0550  0.2197
  669TMC3    C5 9952   1.401   1.771  14.590  0.0154 -1.0469  1.0210
  669TMC3    C6 9953   1.307   1.832  14.512 -0.1758 -0.3180  0.9931
  669TMC3     C 9954   1.170   1.598  14.814  0.2718  0.2624 -0.5483
  669TMC3     O 9955   1.050   1.614  14.852 -0.1407 -0.7694  0.4877
  669TMC3     H 9956   1.015   1.757  14.668 -0.0168 -1.0043 -1.5332
  669TMC3    H1 9957   1.420   1.676  14.782 -0.1679 -2.1460 -0.2162
  669TMC3    H2 9958   1.340   1.872  14.417 -1.1235 -0.6925  0.4998
  669TMC3    C7 9959   1.547   1.785  14.574 -0.2165 -0.4871 -1.1593
  669TMC3    C8 9960   1.084   1.893  14.446  0.7332  0.6769  0.1608
  669TMC3    O1 9961   1.585   1.860  14.487  0.1332  0.1731  0.5622
  669TMC3    O2 9962   1.133   1.979  14.372  0.4011 -0.0405  0.0089
  670MPD2     C 9963   4.642   3.856  13.896 -0.1189  0.7674  0.6353
  670MPD2    C1 9964   4.525   3.932  13.898  0.1612  0.6353  0.4502
  670MPD2    C2 9965   4.463   3.942  14.021  0.5774  0.3567  0.3579
  670MPD2    C3 9966   4.497   3.864  14.132  0.2442 -0.1215  0.2953
  670MPD2    C4 9967   4.602   3.773  14.115 -1.0005 -0.0260  0.0231
  670MPD2    C5 9968   4.683   3.780  14.003  0.3669  0.6223 -0.1448
  670MPD2     H 9969   4.375   4.005  14.024  0.7178  0.5585  0.2129
  670MPD2    H1 9970   4.628   3.715  14.204  1.9134 -0.5430 -1.1588
  670MPD2    H2 9971   4.697   3.844  13.804  1.5321 -0.4321  1.7561
  670MPD2    H3 9972   0.034   3.718  14.006 -1.8189 -2.6145 -2.3746
  670MPD2     N 9973   4.440   3.876  14.267 -0.3146 -0.2581 -0.1940
  670MPD2    H5 9974   4.464   3.801  14.332 -0.1048  2.0724  2.4396
  670MPD2    N1 9975   4.465   3.990  13.787  0.1614 -0.3519 -0.0974
  670MPD2    H7 9976   4.372   4.029  13.794  0.1247 -0.0507 -2.3135
  671TMC3    C1 9977   4.263   3.952  14.412  0.4571 -0.4733  0.4511
  671TMC3    C2 9978   4.317   3.851  14.491 -0.7880  0.3063 -0.5067
  671TMC3    C3 9979   4.248   3.738  14.503  0.1411 -0.3683  0.9716
  671TMC3    C4 9980   4.132   3.945  14.369 -0.4150 -0.0331  0.2801
  671TMC3    C5 9981   4.068   3.826  14.389 -0.0254  0.2216 -0.3654
  671TMC3    C6 9982   4.121   3.724  14.450  0.2814  0.4602 -0.3655
  671TMC3     C 9983   4.355   3.983  14.300  1.2496 -0.0570 -0.3159
  671TMC3     O 9984   4.331   4.077  14.224 -0.5074  0.0894 -0.1584
  671TMC3     H 9985   4.423   3.848  14.514 -1.1447 -0.7000  1.0281
  671TMC3    H1 9986   4.084   4.025  14.313  2.0048  0.3093 -1.3258
  671TMC3    H2 9987   4.076   3.625  14.448 -0.6079  0.8796 -1.4394
  671TMC3    C7 9988   3.963   3.779  14.299  0.6527  0.2389  0.0412
  671TMC3    C8 9989   4.327   3.619  14.490  0.0470 -0.0752  0.4198
  671TMC3    O1 9990   3.891   3.695  14.350  0.0525  0.2292  0.4800
  671TMC3    O2 9991   4.282   3.523  14.423  0.2543 -0.4766 -0.1001
  672MPD2     C 9992   4.291   4.511   0.627 -0.8056 -0.3398  0.6106
  672MPD2    C1 9993   4.412   4.460   0.567 -0.2109 -0.2892 -0.5035
  672MPD2    C2 9994   4.520   4.548   0.567  0.1439 -0.2991  0.8214
  672MPD2    C3 9995   4.496   4.686   0.587 -0.4006 -0.0214 -0.1119
  672MPD2    C4 9996   4.371   4.729   0.633 -0.0761  0.4052 -0.2929
  672MPD2    C5 9997   4.280   4.642   0.660 -0.2535 -0.0125  0.7525
  672MPD2     H 9998   4.621   4.520   0.540  0.3278 -0.9578  2.2044
  672MPD2    H1 9999   4.353   0.097   0.644  1.7571  0.7972 -1.0993
  672MPD2    H210000   4.192   4.465   0.627  0.3203 -2.7761 -3.4804
  672MPD2    H310001   4.189   4.679   0.704  0.5248  0.8011  1.6834
  672MPD2     N10002   4.589   0.053   0.551  0.7207 -0.3102  0.2291
  672MPD2    H510003   4.557   0.149   0.542  0.5208 -0.4012 -0.0610
  672MPD2    N110004   4.427   4.324   0.520 -0.2659 -0.0393  0.2491
  672MPD2    H710005   4.520   4.296   0.492  0.2890  2.0160 -0.0053
  673TMC3    C110006   4.348   4.108   0.458  0.5039 -1.2376  0.0586
  673TMC3    C210007   4.477   4.050   0.463  0.0592 -0.1415 -0.6068
  673TMC3    C310008   4.492   3.926   0.404 -0.3921  0.2695  0.3125
  673TMC3    C410009   4.248   4.046   0.388 -0.0853 -0.3248 -0.1392
  673TMC3    C510010   4.263   3.923   0.326  0.0872 -0.0145 -0.7282
  673TMC3    C610011   4.394   3.870   0.327  0.0561 -0.4227 -0.5467
  673TMC3     C10012   4.318   4.241   0.511  1.0678  0.4104  0.2432
  673TMC3     O10013   4.199   4.269   0.506 -0.8160 -0.5719 -0.0012
  673TMC3     H10014   4.546   4.097   0.532  0.6683  1.5590 -2.3839
  673TMC3    H110015   4.147   4.087   0.384  0.0607 -0.1016 -1.9564
  673TMC3    H210016   4.417   3.782   0.266  1.8892 -0.5072  0.2700
  673TMC3    C710017   4.168   3.866   0.226 -0.7877  0.8202  1.1659
  673TMC3    C810018   4.620   3.856   0.408 -0.2164 -0.6807  0.0346
  673TMC3    O110019   4.186   3.753   0.182 -0.0300  0.2355  0.6053
  673TMC3    O210020   4.623   3.735   0.387 -0.6049 -0.7278 -0.4194
  674MPD2     C10021   3.874   3.414  17.501 -0.0686 -0.0631 -0.2329
  674MPD2    C110022   3.880   3.454  17.629  0.0001  0.2860 -0.2576
  674MPD2    C210023   3.767   3.471  17.701  0.1233 -0.2473 -0.3435
  674MPD2    C310024   3.647   3.471  17.635  0.3581 -0.6922 -0.7782
  674MPD2    C410025   3.635   3.447  17.501 -0.4147 -0.5326 -0.1678
  674MPD2    C510026   3.752   3.420  17.434 -0.5496 -0.2258  0.4390
  674MPD2     H10027   3.784   3.498   0.055 -0.2894  0.8405 -0.5550
  674MPD2    H110028   3.545   3.450  17.441 -0.3664  1.3299 -0.1436
  674MPD2    H210029   3.960   3.382  17.445 -0.6612 -0.9754 -0.6226
  674MPD2    H310030   3.748   3.373  17.336  3.2106  1.4978 -0.5465
  674MPD2     N10031   3.542   3.514  17.717 -0.4107 -0.2508 -0.3156
  674MPD2    H510032   3.565   3.543   0.062 -0.9552  0.2629 -0.3431
  674MPD2    N110033   3.998   3.473  17.703  0.2498 -0.3726  0.1343
  674MPD2    H710034   3.998   3.496   0.052  0.2082  2.3387 -0.4767
  675TMC3    C110035   4.228   3.501  17.739 -0.2440  0.0581  0.7683
  675TMC3    C210036   4.219   3.460   0.118 -0.0153  0.6757 -0.0034
  675TMC3    C310037   4.322   3.485   0.202 -0.4150 -0.4493  0.5268
  675TMC3    C410038   4.334   3.573  17.695  0.0900  0.4325  0.0421
  675TMC3    C510039   4.438   3.589   0.032  0.8537  0.0015  0.0848
  675TMC3    C610040   4.437   3.548   0.164  0.4880  0.0770  0.9433
  675TMC3     C10041   4.122   3.480  17.645  0.6237  0.1577 -0.1744
  675TMC3     O10042   4.154   3.489  17.525 -0.5492 -0.0733 -0.3800
  675TMC3     H10043   4.134   3.401   0.151  1.1785 -0.6091  0.7516
  675TMC3    H110044   4.337   3.607  17.592 -0.5987  1.3232  0.3134
  675TMC3    H210045   4.507   3.581   0.240 -0.4706  1.8983  1.0341
  675TMC3    C710046   4.531   3.700  17.749  0.2790 -0.0969  0.5062
  675TMC3    C810047   4.273   3.498   0.339 -0.7571 -0.2163 -0.2183
  675TMC3    O110048   4.504   3.759  17.649  0.6267  0.1316 -0.0117
  675TMC3    O210049   4.150   3.488   0.352  0.0156  0.4794  0.0558
  676MPD2     C10050   2.538   2.087  10.725  0.3728  0.3189  0.2328
  676MPD2    C110051   2.400   2.069  10.761 -0.0636  0.8781 -0.5849
  676MPD2    C210052   2.348   1.950  10.804 -0.5054 -0.3219 -0.7136
  676MPD2    C310053   2.434   1.843  10.827  1.1032 -0.5554 -0.2600
  676MPD2    C410054   2.572   1.863  10.797 -0.4676  0.5842 -0.1883
  676MPD2    C510055   2.619   1.981  10.742  0.1657 -0.2361  0.4163
  676MPD2     H10056   2.244   1.948  10.833 -1.2969  1.7775 -3.4009
  676MPD2    H110057   2.639   1.778  10.808  0.4582  1.3986  0.4816
  676MPD2    H210058   2.579   2.184  10.701 -0.7973  0.0737 -2.7234
  676MPD2    H310059   2.722   1.997  10.711  0.5001 -1.0405  1.1134
  676MPD2     N10060   2.400   1.725  10.903  0.1695 -0.7820  0.0283
  676MPD2    H510061   2.464   1.648  10.918  0.8467 -0.3890 -0.8423
  676MPD2    N110062   2.304   2.172  10.783 -0.2356 -0.0480 -0.1073
  676MPD2    H710063   2.208   2.147  10.807  0.5349  0.0777  3.1469
  677TMC3    C110064   2.218   2.383  10.829  0.0155 -0.2473 -0.1123
  677TMC3    C210065   2.108   2.315  10.867  0.8675 -0.1884 -0.1974
  677TMC3    C310066   2.004   2.388  10.905 -0.3241  0.4465  0.0716
  677TMC3    C410067   2.241   2.517  10.864 -0.6194  0.2957  0.0128
  677TMC3    C510068   2.128   2.576  10.919 -0.0657 -0.3571 -0.6182
  677TMC3    C610069   2.006   2.519  10.938  1.1519 -0.3182 -0.1655
  677TMC3     C10070   2.334   2.304  10.779  0.1900  0.2863  0.4879
  677TMC3     O10071   2.439   2.364  10.752  0.1147  0.1232  0.5187
  677TMC3     H10072   2.076   2.212  10.850  0.4355 -0.2845  1.2108
  677TMC3    H110073   2.324   2.578  10.830  0.4400 -0.0674  1.9655
  677TMC3    H210074   1.916   2.568  10.972  0.5924 -1.2899 -0.2386
  677TMC3    C710075   2.138   2.703  10.989  0.7071 -0.3716 -0.1844
  677TMC3    C810076   1.873   2.335  10.922 -1.1820 -0.3143 -0.1808
  677TMC3    O110077   2.038   2.730  11.053  0.0995 -0.2953  0.1059
  677TMC3    O210078   1.782   2.401  10.870 -0.0299 -0.1117  0.1222
  678MPD2     C10079   3.805   2.540   1.054  0.1401 -0.4848  0.0131
  678MPD2    C110080   3.759   2.419   1.004  0.1156  0.4494 -0.1097
  678MPD2    C210081   3.620   2.405   0.994 -0.1594 -0.0194 -0.2540
  678MPD2    C310082   3.528   2.502   1.041 -0.1646 -0.1538 -0.3535
  678MPD2    C410083   3.581   2.618   1.107 -0.4950  0.2652  0.4298
  678MPD2    C510084   3.723   2.633   1.109 -0.8361 -0.7082 -0.5899
  678MPD2     H10085   3.587   2.320   0.937  1.2612 -1.3239  0.8656
  678MPD2    H110086   3.522   2.699   1.150 -1.1170 -0.2390  0.5108
  678MPD2    H210087   3.911   2.557   1.066  0.0165 -0.6018  1.2757
  678MPD2    H310088   3.779   2.718   1.146 -2.1923  0.8988 -2.1987
  678MPD2     N10089   3.393   2.475   1.020  0.1686 -1.2682  0.0645
  678MPD2    H510090   3.377   2.387   0.971 -0.5076 -0.3862 -1.2942
  678MPD2    N110091   3.836   2.314   0.965  0.4061  0.3733  0.5989
  678MPD2    H710092   3.793   2.234   0.921  1.0233  0.1427  0.4193
  679TMC3    C110093   4.014   1.964   0.836 -0.1428  0.1766 -0.4107
  679TMC3    C210094   3.950   2.076   0.879  0.2541  0.2966 -0.1565
  679TMC3    C310095   4.029   2.175   0.932 -0.6579  0.0332  0.3983
  679TMC3    C410096   4.152   1.959   0.819 -0.2454 -0.3749 -0.1626
  679TMC3    C510097   4.224   2.057   0.874  0.5829  0.4769 -0.1504
  679TMC3    C610098   4.165   2.166   0.923  0.5508  0.2279 -0.3848
  679TMC3     C10099   3.941   1.839   0.799 -0.3433 -0.7875  0.2233
  679TMC3     O10100   4.002   1.750   0.739 -0.6132  0.5421  0.3909
  679TMC3     H10101   3.842   2.089   0.876  0.3440  1.7808  3.3807
  679TMC3    H110102   4.206   1.873   0.779 -0.4556  0.3114 -1.9160
  679TMC3    H210103   4.220   2.236   0.986 -2.5272  0.6340  1.8490
  679TMC3    C710104   4.358   2.070   0.824 -0.0376 -0.5393 -0.3283
  679TMC3    C810105   3.975   2.304   0.965  0.0324 -0.1248 -0.3627
  679TMC3    O110106   4.432   1.973   0.799  0.1215  0.0249 -0.0203
  679TMC3    O210107   4.051   2.395   1.001 -0.1171 -0.8569  0.1211
  680MPD2     C10108   4.023   1.465  13.757 -0.3589 -0.3138 -0.2935
  680MPD2    C110109   4.102   1.413  13.852 -0.6966 -0.3816 -0.2210
  680MPD2    C210110   4.236   1.450  13.852  0.3841  0.5613 -1.1418
  680MPD2    C310111   4.293   1.548  13.771 -0.4170 -0.8226 -0.0978
  680MPD2    C410112   4.209   1.597  13.675 -0.4467  0.7829  0.4575
  680MPD2    C510113   4.082   1.550  13.663 -0.2899 -0.2860 -0.8847
  680MPD2     H10114   4.296   1.411  13.934  1.1295  1.3797 -1.2876
  680MPD2    H110115   4.245   1.670  13.603  2.3061 -0.0748  0.9509
  680MPD2    H210116   3.922   1.432  13.734  1.1282 -2.1248 -4.2635
  680MPD2    H310117   4.017   1.582  13.583 -1.6036  0.5174  0.4845
  680MPD2     N10118   4.422   1.604  13.775  0.8913  0.1229  0.3087
  680MPD2    H510119   4.442   1.679  13.710  0.9582 -1.6221 -1.7057
  680MPD2    N110120   4.054   1.317  13.946  0.3800  0.0344  0.0412
  680MPD2    H710121   4.119   1.283  14.017 -0.8826  0.0185  1.1928
  681TMC3    C110122   3.923   1.149  14.046  0.3133 -0.1050 -0.4190
  681TMC3    C210123   4.004   1.145  14.156 -0.2509 -0.3834  0.2190
  681TMC3    C310124   4.001   1.036  14.238  0.6594  0.2495 -0.1305
  681TMC3    C410125   3.833   1.047  14.022  0.4792  0.6349 -0.8195
  681TMC3    C510126   3.841   0.932  14.093 -0.2797  0.0894 -0.4666
  681TMC3    C610127   3.920   0.927  14.205  0.3082 -0.4334  0.0256
  681TMC3     C10128   3.930   1.253  13.944 -0.1090  0.4615 -0.1924
  681TMC3     O10129   3.838   1.262  13.866 -0.3282  0.8821 -0.0045
  681TMC3     H10130   4.063   1.234  14.178  0.0317 -0.6405  0.4954
  681TMC3    H110131   3.762   1.055  13.940 -0.8753  2.3517  0.5125
  681TMC3    H210132   3.935   0.831  14.254 -0.0894 -0.2855  0.4357
  681TMC3    C710133   3.816   0.804  14.026 -0.0538  0.2575  0.0033
  681TMC3    C810134   4.092   1.024  14.351  0.1509 -0.6095 -0.4132
  681TMC3    O110135   3.810   0.700  14.091 -0.5716  0.1251  0.0944
  681TMC3    O210136   4.063   0.940  14.435 -0.2543 -0.3086  0.0297
  682MPD2     C10137   1.004   2.708  10.495  0.2057  0.1770  0.0666
  682MPD2    C110138   0.911   2.614  10.545 -0.6397 -0.6084 -0.0384
  682MPD2    C210139   0.864   2.634  10.675  0.0571  0.5174  0.1954
  682MPD2    C310140   0.898   2.747  10.750  0.2642  0.5811 -0.3320
  682MPD2    C410141   0.988   2.834  10.701  0.4459 -0.1347 -0.0206
  682MPD2    C510142   1.038   2.818  10.571  0.2321 -0.1721  0.2418
  682MPD2     H10143   0.798   2.555  10.708  1.8962 -0.9201  0.4122
  682MPD2    H110144   1.021   2.922  10.755  0.5815  0.2644 -0.7504
  682MPD2    H210145   1.051   2.698  10.397 -0.0853  2.4843 -0.3173
  682MPD2    H310146   1.117   2.881  10.532  1.0519 -1.0510  0.4804
  682MPD2     N10147   0.854   2.775  10.882  0.0532  0.2132  0.3889
  682MPD2    H510148   0.901   2.848  10.937  0.4764  1.5257 -1.7227
  682MPD2    N110149   0.875   2.495  10.472 -0.3040 -0.7830  0.2808
  682MPD2    H710150   0.831   2.421  10.527 -1.1191  0.5761  1.4447
  683TMC3    C110151   0.871   2.806  11.279  0.4847  0.1780  0.0956
  683TMC3    C210152   0.773   2.741  11.356  0.1125  0.1038 -0.3694
  683TMC3    C310153   0.673   2.675  11.298 -0.6295 -0.2629  0.1129
  683TMC3    C410154   0.862   2.806  11.142 -0.3596  0.6390 -0.1510
  683TMC3    C510155   0.751   2.746  11.087  0.2044  0.2495  0.3297
  683TMC3    C610156   0.664   2.671  11.164 -0.4444  0.2035 -0.1507
  683TMC3     C10157   0.983   2.875  11.347 -0.6210  0.1720 -0.3582
  683TMC3     O10158   1.019   2.978  11.301 -0.3175  0.2325  0.2701
  683TMC3     H10159   0.775   2.739  11.465  0.8613  3.2400 -0.3426
  683TMC3    H110160   0.946   2.854  11.093 -0.0566 -1.8607 -2.0992
  683TMC3    H210161   0.601   2.603  11.109 -0.8303  0.8004 -0.4442
  683TMC3    C710162   0.766   2.695  10.954  0.0653  0.2775  0.8805
  683TMC3    C810163   0.610   2.568  11.372 -0.7546  0.4478 -0.2569
  683TMC3    O110164   0.707   2.592  10.917 -0.3988 -0.7813  0.1523
  683TMC3    O210165   0.577   2.596  11.488  0.0920 -0.7379  0.1617
  684MPD2     C10166   4.478   1.854  16.059  0.1613 -0.3388  0.2236
  684MPD2    C110167   4.421   1.934  15.965  0.1501 -0.6230 -0.2898
  684MPD2    C210168   4.307   2.008  15.994 -0.1386 -0.2544  0.3405
  684MPD2    C310169   4.249   2.000  16.118 -0.3226 -0.2903  0.1052
  684MPD2    C410170   4.313   1.924  16.212 -0.0897 -0.5004  0.0905
  684MPD2    C510171   4.428   1.849  16.185  0.2020 -0.2859  0.2601
  684MPD2     H10172   4.271   2.086  15.928  0.1907  0.2064  0.6992
  684MPD2    H110173   4.282   1.928  16.316  0.9064  1.1027  0.3369
  684MPD2    H210174   4.568   1.798  16.035 -0.7330 -2.0788  0.8812
  684MPD2    H310175   4.475   1.789  16.262 -1.9824 -1.6423  0.5386
  684MPD2     N10176   4.140   2.080  16.157 -0.3876  0.0641 -0.0012
  684MPD2    H510177   4.114   2.082  16.256 -0.7513  2.7630 -0.1572
  684MPD2    N110178   4.462   1.933  15.832 -0.1824 -0.7109 -0.3058
  684MPD2    H710179   4.398   1.968  15.761 -1.5927 -0.3926  1.1307
  685TMC3    C110180   4.564   1.848  15.647 -0.4579  0.5190  0.2476
  685TMC3    C210181   4.472   1.752  15.625 -0.0094 -0.6100 -0.4422
  685TMC3    C310182   4.513   1.639  15.564 -0.4307 -0.0876 -0.2254
  685TMC3    C410183   4.692   1.835  15.601 -0.1104 -0.3135 -0.1759
  685TMC3    C510184   4.736   1.716  15.559  0.0851  0.0684 -0.5202
  685TMC3    C610185   4.644   1.617  15.536 -0.1589 -0.2411 -0.2452
  685TMC3     C10186   4.577   1.876  15.786 -0.6372  0.0218 -0.1885
  685TMC3     O10187   4.685   1.885  15.841  0.7481 -0.2130  0.1334
  685TMC3     H10188   4.372   1.764  15.664  0.4776  1.7161  0.0847
  685TMC3    H110189   0.024   1.917  15.594 -0.9295  0.3752 -0.1505
  685TMC3    H210190   4.668   1.516  15.505 -0.8913 -0.3343 -0.5264
  685TMC3    C710191   0.114   1.662  15.616  0.3140 -0.7341 -0.1786
  685TMC3    C810192   4.419   1.567  15.483  0.3930 -0.5461  0.1397
  685TMC3    O110193   0.113   1.546  15.646  0.0296  0.0392  1.1235
  685TMC3    O210194   4.456   1.492  15.395  0.1780 -0.5782 -0.0515
  686MPD2     C10195   1.264   1.579  15.818  0.5525 -0.1677  0.8405
  686MPD2    C110196   1.156   1.495  15.799 -0.0875 -0.4115  0.4943
  686MPD2    C210197   1.133   1.452  15.676 -0.0538 -0.6761 -0.1484
  686MPD2    C310198   1.217   1.477  15.573  0.1362  0.0066  0.2937
  686MPD2    C410199   1.323   1.554  15.595  1.6060 -1.0203  0.3244
  686MPD2    C510200   1.344   1.609  15.716  0.3318  0.2513  0.0944
  686MPD2     H10201   1.035   1.405  15.668  0.0331 -1.0876  1.1845
  686MPD2    H110202   1.395   1.572  15.516 -0.0900 -2.9343 -1.6373
  686MPD2    H210203   1.296   1.611  15.916 -0.1740 -1.6925  1.5715
  686MPD2    H310204   1.431   1.671  15.733  0.6975 -0.1782 -0.1852
  686MPD2     N10205   1.210   1.400  15.445  0.3754 -0.1646  0.1282
  686MPD2    H510206   1.296   1.395  15.390  0.9327  3.5770  0.6170
  686MPD2    N110207   1.089   1.436  15.909 -0.1050 -0.1460 -0.2870
  686MPD2    H710208   1.003   1.396  15.875 -0.0792 -2.0012  1.8015
  687TMC3    C110209   1.132   1.178  15.452  0.3635  0.2379  0.8961
  687TMC3    C210210   1.008   1.134  15.478 -0.2514  0.6870  0.2224
  687TMC3    C310211   0.976   1.085  15.603 -0.1286  0.7436 -0.4960
  687TMC3    C410212   1.235   1.162  15.544  0.5488 -0.0521 -0.0687
  687TMC3    C510213   1.201   1.113  15.667 -0.6078 -0.2826 -0.0358
  687TMC3    C610214   1.070   1.069  15.701  0.7889 -0.1357 -0.1082
  687TMC3     C10215   1.110   1.319  15.415  0.4065  0.1443 -0.2107
  687TMC3     O10216   0.992   1.350  15.417 -0.3335 -0.1501  0.8618
  687TMC3     H10217   0.933   1.142  15.401 -2.2412  0.0843  2.1090
  687TMC3    H110218   1.338   1.192  15.523  0.8312  0.2117  1.6308
  687TMC3    H210219   1.037   1.047  15.802  0.8405  0.6501  0.0813
  687TMC3    C710220   1.296   1.143  15.767 -0.2171 -0.7940  0.1498
  687TMC3    C810221   0.849   1.126  15.658 -0.0984 -0.0744 -0.0898
  687TMC3    O110222   1.259   1.086  15.870 -1.0882  0.4313 -0.0444
  687TMC3    O210223   0.814   1.075  15.766 -0.1489 -0.0082  0.4762
  688MPD2     C10224   0.089   0.352  17.338 -0.0803  0.8917  0.4661
  688MPD2    C110225   0.058   0.220  17.324  0.7695  0.0343  0.5723
  688MPD2    C210226   0.150   0.136  17.264 -0.9798 -0.3707  0.4733
  688MPD2    C310227   0.272   0.189  17.213  0.4245 -0.3865  0.6384
  688MPD2    C410228   0.302   0.322  17.233 -0.0826 -0.0518  0.2454
  688MPD2    C510229   0.207   0.399  17.293  0.2305  0.6904 -0.2826
  688MPD2     H10230   0.119   0.036  17.234  2.1475 -0.5324 -2.1974
  688MPD2    H110231   0.391   0.376  17.203  0.6334 -0.5405  1.4938
  688MPD2    H210232   0.024   0.423  17.387  0.8940  1.2991  1.1716
  688MPD2    H310233   0.233   0.504  17.298  0.3804  0.7245 -1.7546
  688MPD2     N10234   0.374   0.116  17.148 -0.3033  0.7261  0.3712
  688MPD2    H510235   0.470   0.148  17.144 -0.1015 -0.1727 -1.8844
  688MPD2    N110236   4.680   0.161  17.387  0.1631  0.3672  0.2466
  688MPD2    H710237   4.673   0.060  17.382  0.9900  0.2576  1.1721
  689TMC3    C110238   4.474   0.160  17.517  0.0130  0.5324 -0.2757
  689TMC3    C210239   4.359   0.229  17.562  0.5349  0.1576  0.7800
  689TMC3    C310240   4.261   0.157  17.629 -0.2215  0.2720 -0.2735
  689TMC3    C410241   4.487   0.021  17.543  0.0326 -0.9712 -0.0165
  689TMC3    C510242   4.388   4.702  17.616  0.0798  0.2296  0.1055
  689TMC3    C610243   4.279   0.031  17.665  0.1841 -0.5241  0.1593
  689TMC3     C10244   4.579   0.236  17.447  0.3122  0.5117  0.3368
  689TMC3     O10245   4.556   0.357  17.434 -0.0089  0.4267 -0.2534
  689TMC3     H10246   4.350   0.335  17.541  2.5077  0.2488  0.3669
  689TMC3    H110247   4.581   4.711  17.521 -1.1714 -3.2318 -0.2108
  689TMC3    H210248   4.207   4.723  17.732  0.0345 -1.3937 -0.5851
  689TMC3    C710249   4.408   4.570  17.665  0.0020 -0.4451 -0.1050
  689TMC3    C810250   4.176   0.238  17.719  0.6279  0.0609  0.0437
  689TMC3    O110251   4.504   4.553  17.740 -0.8449 -0.1803 -0.1758
  689TMC3    O210252   4.203   0.358  17.712 -0.5594  0.1804  0.0075
  690MPD2     C10253   2.818   2.468  15.556 -0.1319  0.6048 -1.0521
  690MPD2    C110254   2.724   2.464  15.449 -0.0953  0.3219  0.1604
  690MPD2    C210255   2.757   2.522  15.324  0.1429 -0.4071 -0.1244
  690MPD2    C310256   2.884   2.574  15.308 -0.7325 -0.4212  0.1987
  690MPD2    C410257   2.965   2.588  15.414  0.1050  0.7372 -0.2678
  690MPD2    C510258   2.931   2.534  15.535  0.5106 -0.0421 -0.2239
  690MPD2     H10259   2.684   2.504  15.246 -1.4748 -1.1665  1.5810
  690MPD2    H110260   3.059   2.642  15.412  1.2456 -1.2425 -0.2411
  690MPD2    H210261   2.796   2.441  15.659  0.2246  0.4574 -1.0137
  690MPD2    H310262   2.988   2.557  15.624  1.5446 -1.0322 -0.6225
  690MPD2     N10263   2.921   2.623  15.175  0.2627 -0.0041 -0.1908
  690MPD2    H510264   2.848   2.627  15.104  0.3590 -1.2870 -0.3713
  690MPD2    N110265   2.598   2.395  15.466 -0.4040  0.5856  0.6143
  690MPD2    H710266   2.528   2.408  15.394 -1.9866  2.5592  2.5339
  691TMC3    C110267   2.472   2.209  15.525 -0.2996 -0.0383 -0.2244
  691TMC3    C210268   2.384   2.248  15.428  0.1363  0.2217 -0.3373
  691TMC3    C310269   2.318   2.161  15.348 -0.0359 -0.8246 -0.1922
  691TMC3    C410270   2.504   2.079  15.534 -0.4007  0.1925 -0.5109
  691TMC3    C510271   2.434   1.998  15.453 -1.2121 -0.2123 -0.5308
  691TMC3    C610272   2.337   2.029  15.362  0.4393 -0.3638 -1.2872
  691TMC3     C10273   2.585   2.292  15.559 -0.4679 -0.1765  0.1235
  691TMC3     O10274   2.652   2.251  15.653  0.3420  1.0029 -0.2457
  691TMC3     H10275   2.353   2.351  15.446  0.5088  0.4672 -1.0813
  691TMC3    H110276   2.588   2.046  15.594 -1.1986  1.0713  1.0811
  691TMC3    H210277   2.294   1.959  15.292 -0.2091  0.7115 -1.9753
  691TMC3    C710278   2.457   1.859  15.484 -0.2291 -0.1376  0.0705
  691TMC3    C810279   2.210   2.208  15.261 -0.1639 -0.3382  0.1402
  691TMC3    O110280   2.564   1.822  15.514 -0.0555  0.1698  0.4422
  691TMC3    O210281   2.190   2.137  15.165  0.1359 -0.1616  0.3368
  692TMC3    C110282   3.574   3.266  15.464 -0.9353 -0.0649 -0.2607
  692TMC3    C210283   3.672   3.349  15.416 -0.6170 -0.4377  0.7505
  692TMC3    C310284   3.794   3.298  15.420  0.5070 -0.1572 -0.3784
  692TMC3    C410285   3.597   3.140  15.507 -0.3232  0.1187 -0.2445
  692TMC3    C510286   3.723   3.097  15.514 -0.0143  0.0935 -0.3068
  692TMC3    C610287   3.824   3.171  15.461 -0.7454 -0.3240  0.0665
  692TMC3     C10288   3.449   3.332  15.503  0.1936  0.3662  0.3589
  692TMC3     O10289   3.382   3.286  15.597  0.2161  0.2906 -0.2140
  692TMC3     H10290   3.643   3.448  15.384  3.7247 -0.2776 -2.6555
  692TMC3    H110291   3.519   3.077  15.548  0.3543 -0.7481 -0.3007
  692TMC3    H210292   3.925   3.134  15.474 -0.7344 -0.9390 -1.8574
  692TMC3    C710293   3.734   2.956  15.497 -0.1438 -0.2560 -0.4200
  692TMC3    C810294   3.885   3.396  15.475 -0.5255 -0.3156 -0.0043
  692TMC3    O110295   3.638   2.908  15.446  0.1080 -0.0538  0.3342
  692TMC3    O210296   3.998   3.364  15.492  1.0545  0.2341  0.2421
  693MPD2     C10297   3.591   0.607  11.234 -0.1927  0.2597 -0.2149
  693MPD2    C110298   3.565   0.665  11.109 -1.2066 -0.3873 -0.2403
  693MPD2    C210299   3.667   0.674  11.017 -0.4328  1.4014  0.0877
  693MPD2    C310300   3.796   0.635  11.053  0.1627 -0.1129  0.0300
  693MPD2    C410301   3.821   0.577  11.176  0.2493 -0.8232 -0.4090
  693MPD2    C510302   3.716   0.554  11.264 -0.4901  0.2053 -0.0063
  693MPD2     H10303   3.653   0.701  10.913  0.8457  0.1552 -0.4043
  693MPD2    H110304   3.920   0.537  11.198  1.4176  2.7675  0.7585
  693MPD2    H210305   3.514   0.574  11.303  0.5968  0.8788  0.9565
  693MPD2    H310306   3.727   0.501  11.358  1.3580 -1.5247 -1.1962
  693MPD2     N10307   3.904   0.641  10.966  0.3708  0.2966 -0.1195
  693MPD2    H510308   3.992   0.603  11.002  1.2221  3.1270  0.7568
  693MPD2    N110309   3.430   0.698  11.074 -0.0040 -0.2023  0.6643
  693MPD2    H710310   3.365   0.680  11.150  1.9736 -1.8294  1.9548
  694TMC3    C110311   3.233   0.763  10.968 -0.4773  0.3349  0.1271
  694TMC3    C210312   3.156   0.738  10.861 -0.7595  0.3344  0.5691
  694TMC3    C310313   3.020   0.726  10.869  0.2123  0.0988  0.3103
  694TMC3    C410314   3.175   0.760  11.094 -0.4978  0.7805 -0.4339
  694TMC3    C510315   3.035   0.754  11.103  0.8444  1.0429  0.0280
  694TMC3    C610316   2.957   0.742  10.990  0.2793 -0.2652  0.2402
  694TMC3     C10317   3.375   0.740  10.957 -0.1201 -0.7277 -0.6722
  694TMC3     O10318   3.423   0.760  10.846  0.0960 -0.0230  0.0892
  694TMC3     H10319   3.202   0.710  10.767  2.2324 -2.4972  2.8479
  694TMC3    H110320   3.235   0.778  11.182  1.4147 -1.1475 -1.3434
  694TMC3    H210321   2.850   0.754  10.987  0.5676  2.6740  1.8604
  694TMC3    C710322   2.976   0.717  11.232  0.6671  0.2854 -0.0503
  694TMC3    C810323   2.943   0.677  10.755 -0.4628  0.6997  0.2601
  694TMC3    O110324   3.056   0.715  11.323  0.3066  0.2286 -0.0755
  694TMC3    O210325   2.825   0.647  10.775  0.3082  0.1804 -0.4666
  695MPD2     C10326   4.398   3.071  13.584  0.1537 -0.0836  0.3435
  695MPD2    C110327   4.367   3.074  13.718 -0.4075 -0.0841  0.2852
  695MPD2    C210328   4.237   3.055  13.765 -0.4665  0.0249  0.0035
  695MPD2    C310329   4.131   3.067  13.680  0.7332  0.0715 -0.7500
  695MPD2    C410330   4.160   3.074  13.539  0.0779  0.5138 -0.1402
  695MPD2    C510331   4.294   3.071  13.497 -0.2274  0.2205 -0.1324
  695MPD2     H10332   4.218   3.052  13.872  0.5056 -1.9137  0.1194
  695MPD2    H110333   4.080   3.083  13.467 -0.5358  1.0950  0.6088
  695MPD2    H210334   4.497   3.084  13.542  0.2362 -0.7544  0.3438
  695MPD2    H310335   4.308   3.094  13.392  1.0966 -0.2154 -0.0556
  695MPD2     N10336   4.001   3.081  13.735  0.7309 -0.5480 -0.0979
  695MPD2    H510337   4.004   3.109  13.832 -0.4194  0.8184 -0.4475
  695MPD2    N110338   4.469   3.076  13.820 -0.1408  0.1166 -0.2292
  695MPD2    H710339   4.440   3.097  13.915  1.6806  0.9631  0.1363
  696TMC3    C110340   3.783   3.161  13.716  0.1283  0.2032  0.0406
  696TMC3    C210341   3.802   3.219  13.839  0.0230 -0.3391  0.1709
  696TMC3    C310342   3.695   3.276  13.895 -0.7051 -0.1967 -0.7534
  696TMC3    C410343   3.670   3.166  13.642  0.0540 -0.2344 -0.4958
  696TMC3    C510344   3.566   3.241  13.700  0.4327  0.1841  0.9831
  696TMC3    C610345   3.575   3.294  13.828  0.2626  0.0582  0.0380
  696TMC3     C10346   3.886   3.091  13.653  0.1742  0.1015 -0.0488
  696TMC3     O10347   3.867   3.041  13.546 -0.3067  0.0120  0.1845
  696TMC3     H10348   3.895   3.237  13.891 -0.5969 -0.1852  1.2269
  696TMC3    H110349   3.670   3.135  13.538  2.0595 -0.2593 -0.4958
  696TMC3    H210350   3.494   3.340  13.883 -0.3638 -1.1969  0.1400
  696TMC3    C710351   3.505   3.333  13.600  0.0604  0.5055  0.1169
  696TMC3    C810352   3.737   3.393  13.974  0.7555 -0.3391 -0.6840
  696TMC3    O110353   3.515   3.299  13.485 -0.3056  0.1958 -0.2355
  696TMC3    O210354   3.808   3.379  14.070 -0.6002  0.8068  0.3124
  697MPD2     C10355   3.894   0.266  15.559 -0.0434  0.5039  0.3118
  697MPD2    C110356   3.855   0.260  15.431  0.7942 -0.0038  0.1839
  697MPD2    C210357   3.858   0.370  15.342 -0.7859 -0.5551  0.2748
  697MPD2    C310358   3.894   0.487  15.392 -0.4550 -0.9669  0.1006
  697MPD2    C410359   3.933   0.498  15.529 -0.4480 -0.6104 -0.1390
  697MPD2    C510360   3.927   0.385  15.605  0.0277  0.4360 -0.4649
  697MPD2     H10361   3.848   0.371  15.234 -2.8115 -2.2566  0.4598
  697MPD2    H110362   3.944   0.598  15.570  1.5898 -1.0619  0.4321
  697MPD2    H210363   3.889   0.185  15.631 -1.0188 -0.5342 -0.9310
  697MPD2    H310364   3.950   0.402  15.709  0.8415  0.6332 -0.6806
  697MPD2     N10365   3.870   0.599  15.314  0.0198  0.4023  0.2346
  697MPD2    H510366   3.838   0.589  15.218 -2.6042 -0.8216  1.2360
  697MPD2    N110367   3.793   0.148  15.380 -0.5196 -0.6611  0.0366
  697MPD2    H710368   3.772   0.145  15.280  0.3020  0.8444 -0.1849
  698TMC3    C110369   3.861   0.820  15.244  0.0969 -0.0569 -0.7098
  698TMC3    C210370   3.932   0.934  15.223  0.0343  1.0635 -0.5322
  698TMC3    C310371   3.885   1.009  15.120  0.0082 -0.0042 -0.3885
  698TMC3    C410372   3.740   0.783  15.181  0.6044  0.6091  0.1566
  698TMC3    C510373   3.698   0.863  15.074 -0.6122 -0.3848  0.2711
  698TMC3    C610374   3.775   0.970  15.041  0.7560 -0.0535 -0.6500
  698TMC3     C10375   3.909   0.729  15.345 -0.5294 -0.1008 -0.3844
  698TMC3     O10376   3.970   0.766  15.448 -0.4286 -0.0983 -0.0252
  698TMC3     H10377   4.027   0.942  15.275 -0.4091  2.1888  0.1102
  698TMC3    H110378   3.675   0.705  15.218  1.9841 -0.4228  0.4083
  698TMC3    H210379   3.749   1.029  14.954  0.4277 -0.3048 -0.7243
  698TMC3    C710380   3.610   0.804  14.978  0.1861  0.2019  0.0851
  698TMC3    C810381   3.935   1.141  15.083 -0.6875 -0.3282 -0.6016
  698TMC3    O110382   3.624   0.849  14.866 -0.0271 -0.4142 -0.1826
  698TMC3    O210383   3.845   1.207  15.033  0.4666 -0.1732  0.1682
  699TMC3    C110384   3.820   2.935  12.678 -0.1228 -0.5254  0.0108
  699TMC3    C210385   3.896   2.844  12.754 -0.0706  0.1407 -0.0410
  699TMC3    C310386   3.828   2.736  12.806  0.4153 -0.0375 -1.0461
  699TMC3    C410387   3.688   2.910  12.644  0.8873  0.2747  0.1448
  699TMC3    C510388   3.627   2.800  12.700 -0.1297 -0.1835 -0.0294
  699TMC3    C610389   3.692   2.710  12.784  0.4908 -0.1627  0.2108
  699TMC3     C10390   3.875   3.061  12.637 -0.2857  0.1326 -0.6779
  699TMC3     O10391   3.839   3.105  12.529  0.7786  0.0699 -0.3648
  699TMC3     H10392   3.998   2.867  12.783  0.4174 -2.6875  0.5887
  699TMC3    H110393   3.626   2.992  12.608 -0.4248 -0.2151  1.2681
  699TMC3    H210394   3.644   2.620  12.821 -0.6835  0.3317 -0.1383
  699TMC3    C710395   3.481   2.818  12.718 -0.3152 -0.4598 -0.1724
  699TMC3    C810396   3.897   2.629  12.874 -0.0239 -0.5020  0.6067
  699TMC3    O110397   3.448   2.934  12.735  0.1030  0.0787  0.0493
  699TMC3    O210398   3.833   2.536  12.927  0.6182  0.1536  0.2353
  700TMC3    C110399   2.776   0.501  17.219  0.3946  0.4546  0.9266
  700TMC3    C210400   2.870   0.447  17.138 -0.3890  0.2730 -0.3174
  700TMC3    C310401   2.911   0.324  17.169  0.1637  0.2606  0.2609
  700TMC3    C410402   2.735   0.438  17.339  1.0890  0.8957 -0.1900
  700TMC3    C510403   2.799   0.330  17.374  0.5213 -0.7320 -0.1877
  700TMC3    C610404   2.881   0.266  17.288  0.1301 -0.1720  0.7646
  700TMC3     C10405   2.725   0.634  17.185  0.0227  0.2753  0.1914
  700TMC3     O10406   2.623   0.668  17.242 -0.7100  0.2448 -0.4006
  700TMC3     H10407   2.889   0.475  17.035 -0.3190  1.0032 -0.1127
  700TMC3    H110408   2.672   0.493  17.408 -0.6949 -0.9597 -0.3261
  700TMC3    H210409   2.932   0.179  17.329 -0.0119  0.3180  1.9967
  700TMC3    C710410   2.729   0.248  17.476  0.8726  0.0674  0.1237
  700TMC3    C810411   2.997   0.250  17.085 -0.1265  0.4749 -0.4640
  700TMC3    O110412   2.697   0.136  17.446 -0.1530  0.0431  0.7489
  700TMC3    O210413   3.091   0.307  17.033  0.6519 -0.6587 -0.3382
  701TMC3    C110414   2.654   4.312  15.298 -0.0048  0.0782 -0.5377
  701TMC3    C210415   2.608   4.349  15.175 -1.0230 -0.0580  0.0497
  701TMC3    C310416   2.595   4.484  15.139 -0.3979 -0.0981  0.3104
  701TMC3    C410417   2.673   4.409  15.392 -0.3354  0.0593 -0.3501
  701TMC3    C510418   2.642   4.544  15.361 -0.3943  0.3215  0.2891
  701TMC3    C610419   2.612   4.585  15.230  0.1754  0.4553  0.2562
  701TMC3     C10420   2.700   4.181  15.322 -0.4427  0.0455  0.4674
  701TMC3     O10421   2.708   4.149  15.438 -0.6184 -0.3394 -0.4666
  701TMC3     H10422   2.589   4.268  15.105 -1.1847  0.2155 -0.2268
  701TMC3    H110423   2.726   4.379  15.482  0.2370  2.0836 -0.0101
  701TMC3    H210424   2.571   4.683  15.211 -2.4097 -0.4691  1.1367
  701TMC3    C710425   2.615   4.640  15.464  0.1466 -0.8080  0.0708
  701TMC3    C810426   2.549   4.527  15.008  0.1579  0.7266  0.3880
  701TMC3    O110427   2.581   0.015  15.424 -0.1846  0.7875  0.4938
  701TMC3    O210428   2.544   4.645  14.982 -0.0430 -0.4391  0.1484
  702MPD2     C10429   2.123   1.335  10.546  0.1248 -0.7123 -0.5484
  702MPD2    C110430   2.122   1.453  10.618  0.6069 -0.3921  0.4070
  702MPD2    C210431   2.073   1.572  10.568  0.1753 -0.2884 -0.2467
  702MPD2    C310432   2.014   1.577  10.450 -0.2423  0.0319 -0.3129
  702MPD2    C410433   2.014   1.466  10.371  0.3035 -0.8545 -0.8464
  702MPD2    C510434   2.060   1.346  10.425 -0.2224  0.1026  0.3416
  702MPD2     H10435   2.085   1.663  10.625  1.6800 -0.8697  0.3445
  702MPD2    H110436   1.975   1.468  10.270 -0.6687 -0.6684 -0.4677
  702MPD2    H210437   2.154   1.239  10.587 -0.4580 -1.1938 -1.2211
  702MPD2    H310438   2.056   1.256  10.364  0.3015 -1.0576  2.0466
  702MPD2     N10439   1.960   1.688  10.389 -0.3493  0.0739 -0.2420
  702MPD2    H510440   1.913   1.674  10.301  1.8776  0.4907 -1.4989
  702MPD2    N110441   2.163   1.449  10.752  0.0721  0.6400 -0.1177
  702MPD2    H710442   2.151   1.541  10.793  2.7055  0.4995  0.9500
  703TMC3    C110443   1.884   1.908  10.366  0.0971  0.4271 -1.1039
  703TMC3    C210444   1.752   1.874  10.318  0.5619 -0.7758 -0.1277
  703TMC3    C310445   1.679   1.962  10.247 -0.3020  0.0274  0.5811
  703TMC3    C410446   1.921   2.044  10.355  0.0765  0.6961 -0.3639
  703TMC3    C510447   1.843   2.130  10.283  0.0899  0.3487  0.8901
  703TMC3    C610448   1.733   2.085  10.216 -0.6514  0.6454  0.0876
  703TMC3     C10449   1.971   1.819  10.435  0.1957  0.6397 -0.4684
  703TMC3     O10450   2.039   1.864  10.528  0.1126  0.1444  0.4687
  703TMC3     H10451   1.722   1.770  10.325 -0.6741 -0.4959 -1.2766
  703TMC3    H110452   2.010   2.083  10.403 -0.0018 -1.0175  1.1551
  703TMC3    H210453   1.675   2.150  10.152 -1.7888 -0.9278 -0.4788
  703TMC3    C710454   1.890   2.267  10.279  0.2995  0.2749  0.6690
  703TMC3    C810455   1.538   1.942  10.253  0.0835 -0.1176  0.3412
  703TMC3    O110456   1.877   2.328  10.173  0.5190 -0.4188  0.0834
  703TMC3    O210457   1.506   1.822  10.248  0.7617 -0.6792 -0.4547
  704TMC3    C110458   4.717   0.548  12.818 -0.3077  0.4851  0.5464
  704TMC3    C210459   0.111   0.557  12.786  0.3882 -0.1353 -0.1031
  704TMC3    C310460   0.206   0.474  12.837  0.1259  0.3302  0.1090
  704TMC3    C410461   4.682   0.441  12.898 -0.2119  0.8245 -0.3188
  704TMC3    C510462   0.028   0.336  12.916  0.1920 -0.8063 -0.2463
  704TMC3    C610463   0.159   0.353  12.891 -0.0430  0.0883 -0.6971
  704TMC3     C10464   4.628   0.538  12.702  0.1771  0.0746 -0.4428
  704TMC3     O10465   4.511   0.512  12.722  0.2764  0.3640 -0.2234
  704TMC3     H10466   0.149   0.636  12.721 -2.4725  1.4891  0.1890
  704TMC3    H110467   4.579   0.430  12.929 -0.4974  1.4884 -1.0273
  704TMC3    H210468   0.238   0.281  12.910  0.5475  0.6377 -1.1043
  704TMC3    C710469   4.724   0.200  12.885 -0.3640 -0.2828  0.6393
  704TMC3    C810470   0.305   0.447  12.734 -0.0947 -0.1023 -0.3225
  704TMC3    O110471   0.071   0.114  12.888  0.5903 -0.0036 -0.3067
  704TMC3    O210472   0.271   0.441  12.616 -0.3773 -0.6055  0.4350
  705MPD2     C10473   3.690   2.984  15.902 -0.2679 -0.4409  0.0738
  705MPD2    C110474   3.741   3.083  15.988 -0.1154  0.0134 -1.3341
  705MPD2    C210475   3.669   3.113  16.098 -0.5361 -0.0557 -0.4652
  705MPD2    C310476   3.548   3.051  16.122 -0.2229  0.3424 -0.5805
  705MPD2    C410477   3.495   2.950  16.037  0.5273  0.1836 -0.3755
  705MPD2    C510478   3.574   2.915  15.932 -0.5130 -0.4204  0.0814
  705MPD2     H10479   3.703   3.182  16.175 -1.1070  0.0889 -0.3448
  705MPD2    H110480   3.393   2.914  16.046  1.0175 -1.1838 -0.3136
  705MPD2    H210481   3.744   2.954  15.813 -0.5547  1.0685 -0.6024
  705MPD2    H310482   3.536   2.848  15.855  0.0614  0.7822 -1.2661
  705MPD2     N10483   3.476   3.077  16.239 -0.2657 -0.4912  0.1965
  705MPD2    H510484   3.407   3.007  16.263 -0.0957 -0.8077 -0.2377
  705MPD2    N110485   3.859   3.156  15.955 -0.0817 -0.4393 -0.1524
  705MPD2    H710486   3.885   3.234  16.015 -0.2364 -0.8437  0.4440
  706TMC3    C110487   4.282   3.188  15.934  0.5052 -0.1981 -0.2792
  706TMC3    C210488   4.273   3.311  15.997  0.6191  1.0858  0.4016
  706TMC3    C310489   4.156   3.381  16.001 -0.2829 -0.3777  0.5648
  706TMC3    C410490   4.171   3.145  15.862  0.0195 -0.3754 -0.3337
  706TMC3    C510491   4.056   3.212  15.861 -0.3087  0.7061  0.5193
  706TMC3    C610492   4.049   3.329  15.939 -0.3773  0.9989  0.7649
  706TMC3     C10493   4.403   3.105  15.941  0.3079  0.0334 -0.4990
  706TMC3     O10494   4.458   3.079  16.047 -0.0456  0.3882  0.3530
  706TMC3     H10495   4.360   3.341  16.053  0.4123  4.0599 -0.8601
  706TMC3    H110496   4.165   3.044  15.824  1.7153 -1.2408  1.6832
  706TMC3    H210497   3.962   3.393  15.942 -2.2256 -1.4393 -1.1859
  706TMC3    C710498   3.942   3.128  15.854  0.2023 -0.3872 -0.1466
  706TMC3    C810499   4.147   3.520  16.038 -0.4557 -0.0823  0.1996
  706TMC3    O110500   3.952   3.030  15.776 -0.0620 -0.5396  0.4794
  706TMC3    O210501   4.048   3.590  16.029  0.6842 -0.3046 -0.0529
  707TMC3    C110502   0.970   2.112   0.668  0.0774  0.5015 -0.1054
  707TMC3    C210503   0.966   1.999   0.738  0.0115  0.4277  1.0495
  707TMC3    C310504   0.876   1.900   0.700  0.1700 -0.0283  0.2883
  707TMC3    C410505   0.890   2.138   0.556  0.9312 -0.7480 -0.0594
  707TMC3    C510506   0.799   2.038   0.533  0.1623 -0.0654  0.3903
  707TMC3    C610507   0.791   1.918   0.598  0.0141  0.1293  0.1340
  707TMC3     C10508   1.086   2.205   0.698  0.2176  0.0249 -0.2035
  707TMC3     O10509   1.157   2.179   0.797  0.0173  0.4204 -0.2220
  707TMC3     H10510   1.037   1.998   0.819 -0.9185  0.5966  1.8649
  707TMC3    H110511   0.865   2.239   0.525 -0.6797 -1.1446 -0.0932
  707TMC3    H210512   0.734   1.831   0.567 -0.7411 -0.5655  3.4227
  707TMC3    C710513   0.689   2.068   0.450 -0.5876 -0.8681 -0.3852
  707TMC3    C810514   0.921   1.760   0.720 -0.0649 -0.3313  0.1712
  707TMC3    O110515   0.582   2.017   0.485 -0.0957 -0.2668  0.3220
  707TMC3    O210516   0.836   1.671   0.706  0.0997  0.2946  0.2161
  708MPD2     C10517   2.890   1.959  13.641 -0.2342  0.3411 -0.0060
  708MPD2    C110518   2.875   1.822  13.616  0.2501  0.2609  0.6674
  708MPD2    C210519   2.938   1.726  13.694 -0.1302  0.0551 -0.2988
  708MPD2    C310520   3.025   1.764  13.787 -0.3762 -0.1473  0.7959
  708MPD2    C410521   3.054   1.897  13.800 -0.3961 -0.5658  0.4952
  708MPD2    C510522   2.991   1.989  13.729  0.0246  0.3795  0.2800
  708MPD2     H10523   2.917   1.619  13.689 -1.5684  0.3464 -0.4398
  708MPD2    H110524   3.131   1.932  13.868  0.0512  1.1165 -0.8671
  708MPD2    H210525   2.849   2.032  13.572 -1.1986  0.1013  0.3086
  708MPD2    H310526   3.000   2.096  13.745  0.8377  0.0794  1.8203
  708MPD2     N10527   3.086   1.673  13.875  0.7745  0.6376 -0.8029
  708MPD2    H510528   3.164   1.702  13.933 -0.8039 -0.4944  1.9175
  708MPD2    N110529   2.782   1.790  13.515  0.3200  0.5260  0.4947
  708MPD2    H710530   2.722   1.866  13.484  1.2066  0.7638 -0.6294
  709TMC3    C110531   2.660   1.645  13.368 -0.1709  0.2601  0.0277
  709TMC3    C210532   2.677   1.541  13.289 -0.4419  0.0983  0.5107
  709TMC3    C310533   2.614   1.421  13.325 -0.0450 -0.8837 -0.3207
  709TMC3    C410534   2.556   1.645  13.460  0.6228  0.1831 -0.1207
  709TMC3    C510535   2.506   1.526  13.505  0.7337 -0.0462  0.1977
  709TMC3    C610536   2.529   1.415  13.433 -0.2254  0.7962 -0.5039
  709TMC3     C10537   2.784   1.676  13.443 -0.4153  0.0164 -0.1999
  709TMC3     O10538   2.873   1.591  13.437  0.2619  0.2385  0.2653
  709TMC3     H10539   2.757   1.544  13.217 -0.8788 -1.6982 -0.0657
  709TMC3    H110540   2.538   1.742  13.505  1.5253  0.2900  0.0191
  709TMC3    H210541   2.485   1.322  13.466  1.7554 -0.2163 -0.6810
  709TMC3    C710542   2.511   1.523  13.647  0.2831 -0.8501  0.4307
  709TMC3    C810543   2.614   1.317  13.236 -0.0486  0.0658  0.5015
  709TMC3    O110544   2.573   1.423  13.682 -0.4739 -0.4154 -0.0792
  709TMC3    O210545   2.582   1.208  13.283 -0.0279  0.2594 -0.0412
  710TMC3    C110546   4.179   2.836   0.273 -0.0557  0.6906  0.9383
  710TMC3    C210547   4.235   2.790   0.162  0.4529 -0.4675 -0.3427
  710TMC3    C310548   4.343   2.706   0.166 -0.7498  0.6211  0.0705
  710TMC3    C410549   4.244   2.807   0.392 -0.6713  0.3778  0.4812
  710TMC3    C510550   4.351   2.724   0.391 -0.1230  0.5723 -0.2842
  710TMC3    C610551   4.410   2.676   0.276  0.0232  0.0198 -0.5584
  710TMC3     C10552   4.035   2.833   0.269  0.0796  0.4763 -0.8872
  710TMC3     O10553   3.988   2.781   0.170  0.1556  0.2596 -0.3253
  710TMC3     H10554   4.191   2.805   0.064  0.7855 -0.9563 -0.5650
  710TMC3    H110555   4.179   2.813   0.479  0.5306  3.3947  1.1526
  710TMC3    H210556   4.505   2.624   0.285 -0.0679 -0.6135 -3.1339
  710TMC3    C710557   4.370   2.641   0.512 -0.3498 -0.0514  0.0321
  710TMC3    C810558   4.376   2.640   0.045 -0.5684 -1.0526 -0.5428
  710TMC3    O110559   4.266   2.629   0.578 -0.1673 -0.1946  0.6031
  710TMC3    O210560   4.353   2.685  17.685  0.1453  0.4720 -0.6915
  711TMC3    C110561   3.522   4.128  14.875 -0.2767 -0.1784 -0.0403
  711TMC3    C210562   3.573   4.223  14.963  0.5273 -0.9208 -0.5580
  711TMC3    C310563   3.642   4.180  15.064 -0.7206 -0.2600 -0.2297
  711TMC3    C410564   3.551   3.996  14.885  0.0846  0.3729 -0.0664
  711TMC3    C510565   3.632   3.963  14.990  0.2159 -0.0636  0.6643
  711TMC3    C610566   3.691   4.051  15.076  0.5786  0.1857 -0.3620
  711TMC3     C10567   3.401   4.160  14.805  0.2785 -0.4161 -0.2352
  711TMC3     O10568   3.317   4.218  14.871  0.2807  0.0733  0.1212
  711TMC3     H10569   3.532   4.323  14.971  3.1460  0.0481  0.6144
  711TMC3    H110570   3.507   3.922  14.820  0.7931 -1.2439  1.2901
  711TMC3    H210571   3.764   4.030  15.154  0.2716  0.7205  0.0754
  711TMC3    C710572   3.687   3.826  15.007 -0.2910  0.1424  0.5730
  711TMC3    C810573   3.585   4.226  15.194 -0.0785 -0.7539  1.0199
  711TMC3    O110574   3.795   3.822  15.061  0.1481  0.5428 -0.1049
  711TMC3    O210575   3.471   4.265  15.187  0.0701  0.0909 -0.1308
  712MPD2     C10576   4.721   0.115  13.998  0.2142  0.3040  0.3366
  712MPD2    C110577   4.621   0.191  13.933  0.1088 -0.2338  0.2908
  712MPD2    C210578   4.654   0.306  13.871 -0.7123  0.4767  0.6848
  712MPD2    C310579   0.044   0.354  13.869  0.8582  0.3147 -0.2502
  712MPD2    C410580   0.140   0.286  13.949 -0.3452  0.3394 -0.1403
  712MPD2    C510581   0.110   0.165  14.011 -0.4244 -0.6396  0.7822
  712MPD2     H10582   4.566   0.352  13.828  0.7497 -0.3569 -3.2089
  712MPD2    H110583   0.243   0.320  13.955 -0.6088  0.7620  2.1929
  712MPD2    H210584   4.699   0.013  14.028  0.8951 -0.0167 -0.2501
  712MPD2    H310585   0.190   0.105  14.053  0.3967  0.7522  1.2330
  712MPD2     N10586   0.092   0.471  13.800 -0.1330 -0.2846 -0.2342
  712MPD2    H510587   0.184   0.511  13.816  0.7616 -3.2006  1.9249
  712MPD2    N110588   4.485   0.156  13.916 -0.3082  0.0411 -0.1749
  712MPD2    H710589   4.430   0.220  13.860 -0.7995  1.4937  1.9306
  713TMC3    C110590   0.087   0.630  13.634  0.1398  0.2246 -0.6005
  713TMC3    C210591   0.221   0.663  13.657  0.3069 -0.4810 -0.0140
  713TMC3    C310592   0.263   0.789  13.638  0.6523  0.4873 -0.0520
  713TMC3    C410593   0.002   0.731  13.597  0.0109 -0.5251 -0.1953
  713TMC3    C510594   0.046   0.857  13.584  0.5613  0.4765  0.5644
  713TMC3    C610595   0.177   0.886  13.595 -0.6466  0.0060  0.1428
  713TMC3     C10596   0.022   0.523  13.699 -0.0038 -0.1125  0.0219
  713TMC3     O10597   4.653   0.487  13.648  0.3126  0.3942  0.4639
  713TMC3     H10598   0.283   0.577  13.680  1.3667  0.6587  1.3839
  713TMC3    H110599   4.636   0.699  13.593 -0.1359 -0.1133  0.3908
  713TMC3    H210600   0.216   0.981  13.559 -1.0282 -0.0410 -0.4098
  713TMC3    C710601   4.681   0.952  13.535 -0.2602  0.3495  0.0825
  713TMC3    C810602   0.399   0.812  13.622  0.0134  0.2557 -0.2307
  713TMC3    O110603   4.578   0.904  13.490 -0.4369  1.0065 -0.1160
  713TMC3    O210604   0.426   0.924  13.569  0.5414  1.0354  0.3598
  714MPD2     C10605   2.485   3.221   1.025 -0.8221  0.4955  0.4634
  714MPD2    C110606   2.518   3.317   1.117  0.4015  0.5085 -0.1574
  714MPD2    C210607   2.417   3.377   1.194  0.1076  0.1983 -0.4049
  714MPD2    C310608   2.284   3.333   1.183  0.6898 -0.2951 -0.8197
  714MPD2    C410609   2.259   3.223   1.095 -0.4332 -0.2854  0.0753
  714MPD2    C510610   2.355   3.173   1.014 -0.8116 -0.4678 -0.8992
  714MPD2     H10611   2.437   3.461   1.259  0.0863 -1.0576  1.1981
  714MPD2    H110612   2.161   3.178   1.083 -0.3113  0.1304 -2.3364
  714MPD2    H210613   2.555   3.176   0.956 -2.1232 -0.8033 -0.0195
  714MPD2    H310614   2.333   3.095   0.942 -1.3455  0.2665 -1.5365
  714MPD2     N10615   2.186   3.397   1.263  0.1220  0.0093 -0.3852
  714MPD2    H510616   2.223   3.439   1.348  0.4210 -0.6470 -0.1926
  714MPD2    N110617   2.658   3.359   1.124 -0.1112 -0.5827 -0.3945
  714MPD2    H710618   2.721   3.335   1.049 -0.3538 -1.3826 -0.3441
  715TMC3    C110619   2.846   3.454   1.220  0.1146  0.0479  0.4231
  715TMC3    C210620   2.933   3.366   1.157  0.1988 -0.7270  0.4737
  715TMC3    C310621   3.066   3.404   1.139  0.0969  0.2995  0.4676
  715TMC3    C410622   2.894   3.574   1.267  0.6589  0.4122 -0.3756
  715TMC3    C510623   3.024   3.609   1.255  0.3982  0.0988 -0.3335
  715TMC3    C610624   3.110   3.526   1.186  0.3463 -0.5138 -0.2646
  715TMC3     C10625   2.705   3.438   1.226  0.3649  0.1647 -0.2373
  715TMC3     O10626   2.648   3.483   1.322 -0.1957 -0.2950 -0.2952
  715TMC3     H10627   2.901   3.270   1.119 -2.0412 -1.1094  3.3403
  715TMC3    H110628   2.832   3.642   1.324 -0.0479 -1.7300  1.4251
  715TMC3    H210629   3.200   3.573   1.147  0.9909  0.8102  2.8238
  715TMC3    C710630   3.086   3.707   1.344  0.1198  0.4390  0.6322
  715TMC3    C810631   3.163   3.315   1.082 -0.8583  0.4130 -0.6458
  715TMC3    O110632   3.201   3.735   1.325 -0.0631 -0.2770  0.0773
  715TMC3    O210633   3.119   3.231   1.005 -0.0251 -0.0491 -0.4535
  716MPD2     C10634   2.270   2.316  10.245 -0.1818 -0.0668  1.1324
  716MPD2    C110635   2.223   2.246  10.138  0.1853 -0.5389 -0.9695
  716MPD2    C210636   2.237   2.107  10.150 -0.1361 -0.0978  0.1793
  716MPD2    C310637   2.299   2.042  10.256 -0.3490  0.3310  0.1021
  716MPD2    C410638   2.347   2.117  10.363 -0.3064 -1.0583  0.0350
  716MPD2    C510639   2.325   2.251  10.355  0.0703  0.2640  0.5792
  716MPD2     H10640   2.189   2.045  10.074  1.1079 -2.2901  1.1923
  716MPD2    H110641   2.390   2.080  10.456  0.0915 -1.0137 -0.1335
  716MPD2    H210642   2.262   2.424  10.243 -5.3047 -0.4280  0.2893
  716MPD2    H310643   2.365   2.312  10.435  1.5158 -1.6595  1.3330
  716MPD2     N10644   2.306   1.897  10.264 -0.2541 -0.3150  0.6075
  716MPD2    H510645   2.253   1.842  10.197  2.1616  0.5090 -1.9743
  716MPD2    N110646   2.163   2.318  10.028 -0.3486  0.3517 -0.0884
  716MPD2    H710647   2.152   2.419  10.036  1.2537  0.4282  1.1995
  717TMC3    C110648   2.384   1.675  10.327 -0.1929  0.3617 -0.5158
  717TMC3    C210649   2.334   1.627  10.206 -1.2745  0.9130  0.1375
  717TMC3    C310650   2.337   1.489  10.193 -0.5246  0.3431 -0.3350
  717TMC3    C410651   2.432   1.602  10.428 -0.6464 -0.4445  0.1423
  717TMC3    C510652   2.434   1.465  10.405  0.0112 -0.2076 -0.4182
  717TMC3    C610653   2.392   1.411  10.287  0.3538 -0.5670 -0.4598
  717TMC3     C10654   2.383   1.820  10.354  0.2312 -0.4030  0.2694
  717TMC3     O10655   2.462   1.861  10.441  0.1931 -0.2170  0.0274
  717TMC3     H10656   2.293   1.696  10.133 -0.5685  3.2723  1.9601
  717TMC3    H110657   2.415   1.631  10.531 -2.1996 -1.0801  0.0669
  717TMC3    H210658   2.395   1.303  10.293  0.8219 -0.5224  0.0615
  717TMC3    C710659   2.460   1.378  10.510 -0.7690  0.6081 -0.1338
  717TMC3    C810660   2.245   1.432  10.091 -0.1854 -0.1296  0.5185
  717TMC3    O110661   2.413   1.261  10.515  0.1732  0.4850  0.3738
  717TMC3    O210662   2.155   1.503  10.046 -0.1714 -0.2810 -0.0984
  718MPD2     C10663   1.063   0.797  12.863 -0.5606 -0.0206 -0.0881
  718MPD2    C110664   1.161   0.704  12.828  0.2174  0.0149  0.2829
  718MPD2    C210665   1.141   0.570  12.862  0.2720  0.5346 -0.2407
  718MPD2    C310666   1.039   0.533  12.942  0.1665 -0.8167 -0.7468
  718MPD2    C410667   0.951   0.623  12.985 -0.2477  0.2052 -0.6281
  718MPD2    C510668   0.959   0.758  12.950 -0.2519  0.2001 -0.6394
  718MPD2     H10669   1.198   0.488  12.819 -1.6166  0.9015 -3.5310
  718MPD2    H110670   0.863   0.587  13.038  0.1116  0.9543  0.4716
  718MPD2    H210671   1.072   0.903  12.840  0.2645 -0.2928 -1.0146
  718MPD2    H310672   0.875   0.823  12.971  0.5333  1.4077 -1.2135
  718MPD2     N10673   1.026   0.395  12.964 -0.3488 -0.1506 -0.0568
  718MPD2    H510674   1.087   0.332  12.912 -0.4467 -0.4932  0.2450
  718MPD2    N110675   1.256   0.751  12.737  0.4585 -0.3419 -0.0748
  718MPD2    H710676   1.257   0.851  12.721 -0.3928 -0.3053  0.1277
  719TMC3    C110677   1.433   0.751  12.588 -0.3652  0.3446  0.6097
  719TMC3    C210678   1.350   0.784  12.485  0.4488  0.2125 -0.5239
  719TMC3    C310679   1.358   0.703  12.371 -0.2316  0.1379 -0.3971
  719TMC3    C410680   1.550   0.681  12.566 -0.4467 -0.3110 -0.0129
  719TMC3    C510681   1.575   0.619  12.449  0.2236  0.3274 -0.0124
  719TMC3    C610682   1.475   0.627  12.353  0.3865 -0.7332  1.1816
  719TMC3     C10683   1.358   0.674  12.686  0.0584  0.0256  0.1391
  719TMC3     O10684   1.394   0.558  12.708 -0.3387  0.0629  0.5568
  719TMC3     H10685   1.260   0.841  12.508  1.7054  2.0875 -0.2918
  719TMC3    H110686   1.606   0.653  12.654 -0.9100  3.4214  1.4608
  719TMC3    H210687   1.495   0.572  12.262  1.0858  1.1607  0.1952
  719TMC3    C710688   1.706   0.563  12.433  0.3056 -0.3152  0.0941
  719TMC3    C810689   1.224   0.652  12.330  0.2768 -0.0857  0.3327
  719TMC3    O110690   1.726   0.493  12.336  0.3923  0.0653  0.3010
  719TMC3    O210691   1.121   0.704  12.376  0.1730  0.3434 -0.4735
  720MPD2     C10692   0.254   2.385  13.934 -0.1754 -0.5861  0.6262
  720MPD2    C110693   0.364   2.422  13.855  0.3675 -0.0937  0.4343
  720MPD2    C210694   0.490   2.408  13.911  0.1965 -0.6826 -0.3261
  720MPD2    C310695   0.506   2.347  14.037  0.3010 -0.2686 -0.0180
  720MPD2    C410696   0.397   2.302  14.106 -0.3244  0.0447 -0.3866
  720MPD2    C510697   0.273   2.329  14.055  0.1578 -0.4972  0.3675
  720MPD2     H10698   0.577   2.428  13.849 -0.0297  0.6160 -0.2226
  720MPD2    H110699   0.401   2.263  14.207 -0.2523 -0.6585 -0.6618
  720MPD2    H210700   0.152   2.396  13.901  0.4923  0.2055 -1.1471
  720MPD2    H310701   0.180   2.313  14.109 -0.5066 -1.5623 -1.1178
  720MPD2     N10702   0.640   2.339  14.087 -0.0452  0.2132 -0.1570
  720MPD2    H510703   0.716   2.364  14.024 -0.2645 -0.8061 -0.8371
  720MPD2    N110704   0.350   2.462  13.718 -0.1609 -1.1455 -0.9829
  720MPD2    H710705   0.439   2.481  13.674  0.8730  0.0904  1.6491
  721TMC3    C110706   0.807   2.283  14.242  0.9063  0.4712  0.1203
  721TMC3    C210707   0.841   2.267  14.371  0.0005 -0.0995 -0.7629
  721TMC3    C310708   0.968   2.279  14.413  0.7427  0.5739 -0.1128
  721TMC3    C410709   0.902   2.301  14.146 -0.8557 -0.8846  0.4294
  721TMC3    C510710   1.031   2.310  14.194 -0.1471  0.1895  0.3112
  721TMC3    C610711   1.069   2.314  14.326  0.7246 -0.3036 -0.3227
  721TMC3     C10712   0.667   2.278  14.211 -0.2664 -0.3479  0.1005
  721TMC3     O10713   0.592   2.247  14.301  0.9807 -0.0869  0.2499
  721TMC3     H10714   0.766   2.250  14.447 -1.1687 -0.5581 -2.0086
  721TMC3    H110715   0.884   2.280  14.041 -0.9119  1.1565  0.0315
  721TMC3    H210716   1.175   2.309  14.351  0.4156 -2.8246  0.4322
  721TMC3    C710717   1.147   2.301  14.115  0.1275 -0.9110 -0.2519
  721TMC3    C810718   1.010   2.256  14.548 -1.1893 -0.5195 -0.5537
  721TMC3    O110719   1.199   2.400  14.063 -0.1858 -0.7170  0.2490
  721TMC3    O210720   1.101   2.329  14.585  0.0536 -1.0373  1.1142
  722MPD2     C10721   3.657   0.883  13.391  0.1432  0.7164  0.6215
  722MPD2    C110722   3.648   0.998  13.319  0.4779  0.0852 -0.3714
  722MPD2    C210723   3.540   1.017  13.238  0.2214  0.4491 -0.3702
  722MPD2    C310724   3.452   0.914  13.211  0.3817  0.0793 -0.7960
  722MPD2    C410725   3.469   0.790  13.274 -0.5972 -0.3053  0.1422
  722MPD2    C510726   3.576   0.775  13.359 -0.0469 -0.1478  0.6976
  722MPD2     H10727   3.533   1.114  13.190  1.3406  0.1267 -1.1820
  722MPD2    H110728   3.412   0.699  13.260 -2.8769  1.4275 -1.7609
  722MPD2    H210729   3.719   0.858  13.477  1.3834  1.0683 -0.1897
  722MPD2    H310730   3.595   0.677  13.400 -0.6656 -0.6310 -0.1858
  722MPD2     N10731   3.346   0.932  13.116  0.0741 -0.5611 -0.2424
  722MPD2    H510732   3.346   1.021  13.066  0.2884 -1.4966 -1.9097
  722MPD2    N110733   3.737   1.105  13.341 -0.1911  0.7132 -0.1871
  722MPD2    H710734   3.726   1.190  13.287  1.4035  0.5528 -0.7567
  723TMC3    C110735   3.163   0.889  12.973 -0.2555  0.2473  0.8546
  723TMC3    C210736   3.119   0.785  12.886 -1.2271 -1.0199  0.2392
  723TMC3    C310737   3.033   0.819  12.781 -0.2231  0.4207 -0.0313
  723TMC3    C410738   3.117   1.014  12.966 -0.0356  0.0895  0.6653
  723TMC3    C510739   3.026   1.039  12.874 -0.9769 -0.5450 -0.6087
  723TMC3    C610740   2.987   0.949  12.776  0.4798  0.2293  0.0640
  723TMC3     C10741   3.248   0.838  13.079  0.6685 -0.4713  0.2704
  723TMC3     O10742   3.239   0.725  13.118 -0.1264 -0.1684 -0.1727
  723TMC3     H10743   3.176   0.694  12.892  0.1189 -0.4037 -3.0964
  723TMC3    H110744   3.160   1.092  13.028  0.2496  0.3306  0.1666
  723TMC3    H210745   2.916   0.979  12.700  0.9305  2.1655  0.4072
  723TMC3    C710746   2.999   1.174  12.839  0.3872 -0.2359  1.0982
  723TMC3    C810747   2.999   0.723  12.675 -0.3291 -0.7307 -0.3391
  723TMC3    O110748   2.975   1.200  12.720  0.0897 -0.2542 -0.5130
  723TMC3    O210749   2.964   0.766  12.570  0.5219 -0.1217  0.0545
  724TMC3    C110750   4.118   3.856   9.901 -0.5140 -0.1321  0.0473
  724TMC3    C210751   4.129   3.924   9.782 -0.2310 -0.1238 -0.1907
  724TMC3    C310752   4.176   4.054   9.788 -0.1358 -1.4635  0.2691
  724TMC3    C410753   4.142   3.910  10.024  0.2883  0.3198 -0.0773
  724TMC3    C510754   4.209   4.028  10.017 -0.6971 -0.9710  0.1598
  724TMC3    C610755   4.229   4.103   9.904 -0.2349 -0.2703 -1.1461
  724TMC3     C10756   4.037   3.734   9.910 -0.3387 -0.0761 -0.0066
  724TMC3     O10757   4.042   3.669  10.015  0.3520 -0.0058 -0.3849
  724TMC3     H10758   4.141   3.869   9.690  1.0480 -1.7302  0.9344
  724TMC3    H110759   4.124   3.848  10.111 -1.7269 -0.8442 -1.3227
  724TMC3    H210760   4.284   4.196   9.897  1.7910 -1.5671 -2.6528
  724TMC3    C710761   4.245   4.101  10.138  0.4620  0.2607 -0.3615
  724TMC3    C810762   4.221   4.111   9.662 -0.5632 -0.1034 -0.2588
  724TMC3    O110763   4.267   4.222  10.131  0.2297 -0.0697 -0.1727
  724TMC3    O210764   4.217   4.038   9.562  0.0531 -0.4119 -0.1829
  725TMC3    C110765   1.078   2.742  12.580  0.3611  0.6251  0.9081
  725TMC3    C210766   0.952   2.748  12.522 -0.1386  0.4057  0.4205
  725TMC3    C310767   0.882   2.625  12.515 -0.1178 -0.6059  0.2903
  725TMC3    C410768   1.146   2.621  12.587  0.1396  0.3302  0.1843
  725TMC3    C510769   1.073   2.505  12.569 -0.5065 -0.1532 -0.0135
  725TMC3    C610770   0.937   2.505  12.541  0.8675  0.1555  0.6030
  725TMC3     C10771   1.146   2.870  12.601 -0.1504 -0.6354 -0.5757
  725TMC3     O10772   1.078   2.973  12.618  0.3567 -0.2035  0.5047
  725TMC3     H10773   0.917   2.849  12.502  0.9988  0.6693 -0.2678
  725TMC3    H110774   1.251   2.618  12.617  0.7728 -0.3196 -2.1277
  725TMC3    H210775   0.886   2.411  12.521 -0.3238  1.2125 -1.3062
  725TMC3    C710776   1.153   2.384  12.577 -0.4884  0.5065  0.0595
  725TMC3    C810777   0.737   2.627  12.500  0.0590 -0.4136 -0.4829
  725TMC3    O110778   1.277   2.393  12.590  0.1057  0.0497  0.2593
  725TMC3    O210779   0.668   2.531  12.538 -0.0589 -0.1548 -0.0009
  726MPD2     C10780   3.558   4.291   9.529  0.4918 -0.1448 -0.0497
  726MPD2    C110781   3.551   4.292   9.667 -0.2205  0.0918 -0.3211
  726MPD2    C210782   3.481   4.187   9.722 -0.5361 -0.3559 -0.4088
  726MPD2    C310783   3.430   4.084   9.638 -0.4180  0.2156  0.5868
  726MPD2    C410784   3.444   4.089   9.503  0.7744 -0.2706 -0.1277
  726MPD2    C510785   3.513   4.193   9.443 -0.2437  0.2058  0.3176
  726MPD2     H10786   3.478   4.192   9.830  1.6203  2.5398 -0.4862
  726MPD2    H110787   3.407   4.005   9.445  1.2221 -1.5598  1.4386
  726MPD2    H210788   3.605   4.373   9.476 -1.3731  0.7657 -0.3001
  726MPD2    H310789   3.537   4.196   9.337 -0.8877  1.2953  0.1993
  726MPD2     N10790   3.350   3.975   9.681  0.1134 -0.4590 -0.7435
  726MPD2    H510791   3.311   3.911   9.614 -0.5823  1.1026 -1.8266
  726MPD2    N110792   3.600   4.403   9.749  0.1463  0.5979  0.1570
  726MPD2    H710793   3.583   4.393   9.848 -0.0288 -0.7517 -0.0089
  727TMC3    C110794   3.677   4.609   9.806  0.1869  0.5378  0.3568
  727TMC3    C210795   3.774   4.588   9.895 -0.0040  0.9327  0.9051
  727TMC3    C310796   3.814   4.694   9.971  0.9414  0.1379 -0.1812
  727TMC3    C410797   3.642   4.735   9.774  0.7480 -0.6562  0.0629
  727TMC3    C510798   3.679   0.106   9.849 -0.5078 -0.3076 -0.6760
  727TMC3    C610799   3.765   0.086   9.956 -0.0420  0.0125  0.2526
  727TMC3     C10800   3.657   4.512   9.701 -0.3236 -0.6299  0.1722
  727TMC3     O10801   3.666   4.552   9.586  0.6658  0.5327 -0.0252
  727TMC3     H10802   3.808   4.487   9.917 -2.0431 -0.1117 -0.7291
  727TMC3    H110803   3.590   0.007   9.679 -2.8660  0.1303  2.1516
  727TMC3    H210804   3.783   0.163  10.030  0.5072 -0.4600  0.6098
  727TMC3    C710805   3.623   0.243   9.826 -0.6333  0.4716 -1.1920
  727TMC3    C810806   3.914   4.665  10.065 -0.3293 -0.5800 -0.7779
  727TMC3    O110807   3.663   0.322   9.915  0.8856 -0.2693  0.1004
  727TMC3    O210808   3.926   4.549  10.104 -0.6931  0.6168  0.5091
  728TMC3    C110809   3.065   2.758  15.034  0.0492  0.2472  0.2594
  728TMC3    C210810   3.191   2.786  14.994 -0.3747 -0.1087 -0.0968
  728TMC3    C310811   3.204   2.883  14.895  0.3132  0.9715  0.2834
  728TMC3    C410812   2.955   2.816  14.972 -0.5916  0.6171 -0.7620
  728TMC3    C510813   2.974   2.908  14.879 -0.7583  0.4056 -0.1235
  728TMC3    C610814   3.096   2.952  14.839 -0.6782  0.1912  0.0090
  728TMC3     C10815   3.048   2.660  15.141  0.2502  0.3064  0.6356
  728TMC3     O10816   3.152   2.622  15.197 -0.2100  0.8993 -0.6575
  728TMC3     H10817   3.275   2.744  15.048 -0.2027  0.8406  0.3743
  728TMC3    H110818   2.855   2.786  15.001 -1.0550  1.4329 -1.5175
  728TMC3    H210819   3.117   3.006  14.748  2.3683  0.0136  0.6019
  728TMC3    C710820   2.855   2.942  14.803 -0.8976  0.3464  0.5280
  728TMC3    C810821   3.339   2.926  14.849  0.0740  0.1344 -0.4436
  728TMC3    O110822   2.761   2.864  14.813  0.2270 -0.1849  1.0227
  728TMC3    O210823   3.347   3.026  14.775  0.1547 -0.1764 -0.2411
  729MPD2     C10824   4.686   3.210  16.605  0.0541 -0.0152 -0.5913
  729MPD2    C110825   0.034   3.240  16.702 -0.4529  0.3956 -0.0070
  729MPD2    C210826   4.728   3.265  16.835  0.4606  0.5134 -0.3075
  729MPD2    C310827   4.591   3.269  16.855 -0.2129  0.1664 -0.3011
  729MPD2    C410828   4.508   3.236  16.752 -0.1322 -0.8836  0.4384
  729MPD2    C510829   4.552   3.208  16.626 -0.5507  0.2195 -0.1538
  729MPD2     H10830   0.059   3.294  16.913 -1.4390 -0.1327  1.6175
  729MPD2    H110831   4.402   3.235  16.778 -0.1328 -0.4915  0.4547
  729MPD2    H210832   4.719   3.195  16.503  1.5025  2.1478 -0.4371
  729MPD2    H310833   4.478   3.184  16.550 -0.5572  1.2741 -0.4900
  729MPD2     N10834   4.529   3.307  16.975  0.5247 -0.1706  0.4043
  729MPD2    H510835   4.436   3.348  16.970 -0.5039 -2.4987  0.8365
  729MPD2    N110836   0.167   3.250  16.657  0.1037 -0.6532  0.6590
  729MPD2    H710837   0.187   3.254  16.558  0.4932  2.3725  0.8797
  730TMC3    C110838   4.523   3.350  17.203  0.4987  0.1037 -0.4803
  730TMC3    C210839   4.555   3.303  17.324  0.0387 -0.1659  0.1314
  730TMC3    C310840   4.559   3.389  17.425 -0.2923 -0.1766  0.1750
  730TMC3    C410841   4.494   3.481  17.185  0.7254 -0.0838 -0.8787
  730TMC3    C510842   4.497   3.570  17.288  0.0498 -0.5721 -0.4592
  730TMC3    C610843   4.545   3.528  17.415  0.2956 -0.4828  0.1957
  730TMC3     C10844   4.594   3.294  17.095  0.3059  0.0997 -0.4696
  730TMC3     O10845   4.677   3.206  17.122  0.1247  0.1755 -0.2955
  730TMC3     H10846   4.573   3.197  17.342  1.3730 -0.0913 -0.7599
  730TMC3    H110847   4.481   3.517  17.083  1.2681  0.6990 -0.6717
  730TMC3    H210848   4.553   3.587  17.505 -1.0951  1.1332 -0.7374
  730TMC3    C710849   4.481   3.712  17.246 -0.7037  0.7202  0.2513
  730TMC3    C810850   4.600   3.333  17.547  0.3892 -0.7301 -0.2395
  730TMC3    O110851   4.486   3.728  17.130  0.1861  0.0582 -0.4080
  730TMC3    O210852   4.521   3.252  17.593  0.2102 -0.0682  0.0571
  731MPD2     C10853   0.078   2.376  12.431 -0.0124  1.1775  0.4038
  731MPD2    C110854   0.193   2.314  12.452 -1.1542 -0.6741 -1.1973
  731MPD2    C210855   0.217   2.231  12.558  0.4844  0.0711 -0.6146
  731MPD2    C310856   0.115   2.213  12.649  0.0916 -0.2433 -0.8590
  731MPD2    C410857   4.730   2.278  12.624 -0.1161 -0.0744 -0.3051
  731MPD2    C510858   4.709   2.364  12.520 -0.1306 -0.3008 -0.5257
  731MPD2     H10859   0.310   2.176  12.570 -0.4133 -1.2053  0.6417
  731MPD2    H110860   4.642   2.251  12.682 -0.0739  3.1733  1.2810
  731MPD2    H210861   0.068   2.439  12.343  0.1376 -0.3335 -0.7011
  731MPD2    H310862   4.612   2.408  12.501  0.4273 -0.0532 -2.7079
  731MPD2     N10863   0.138   2.145  12.767 -0.3099  1.0675 -0.0914
  731MPD2    H510864   0.225   2.093  12.773  0.1119  2.0623  2.5051
  731MPD2    N110865   0.292   2.338  12.356 -0.1347  0.6119  0.2273
  731MPD2    H710866   0.257   2.373  12.267 -0.2275  0.3764  0.1703
  732TMC3    C110867   0.505   2.354  12.244 -0.2323 -0.2276 -0.2058
  732TMC3    C210868   0.456   2.431  12.142 -0.3208 -0.1054  0.3224
  732TMC3    C310869   0.547   2.498  12.062 -0.5025  0.1256  0.1500
  732TMC3    C410870   0.643   2.345  12.260 -0.9703 -0.4022  0.3530
  732TMC3    C510871   0.728   2.423  12.188 -0.4028  0.4915 -0.2666
  732TMC3    C610872   0.682   2.504  12.087 -0.0962  0.2234 -0.4586
  732TMC3     C10873   0.427   2.308  12.361  0.5400 -0.2100  0.0525
  732TMC3     O10874   0.490   2.248  12.446  0.5758 -0.4535  0.1746
  732TMC3     H10875   0.350   2.445  12.122 -0.4074 -1.4356 -0.1504
  732TMC3    H110876   0.676   2.283  12.343 -0.7212 -0.8730 -0.0976
  732TMC3    H210877   0.749   2.564  12.026 -2.1146  2.6903 -0.2467
  732TMC3    C710878   0.867   2.416  12.214 -0.3801 -0.4623  0.2627
  732TMC3    C810879   0.492   2.542  11.941 -0.2688  0.3082 -0.7912
  732TMC3    O110880   0.903   2.309  12.271 -0.4071 -0.4792  0.0600
  732TMC3    O210881   0.535   2.645  11.893 -0.5201 -0.4928 -0.8053
  733TMC3    C110882   0.667   0.133  12.925  0.6459  0.0485  0.2222
  733TMC3    C210883   0.772   0.166  13.012 -0.6924  0.4774 -0.3894
  733TMC3    C310884   0.884   0.216  12.956 -0.0496 -0.0448 -0.0384
  733TMC3    C410885   0.674   0.162  12.795 -0.7325  0.3225 -0.3526
  733TMC3    C510886   0.784   0.227  12.743 -0.2920 -0.4947 -0.2083
  733TMC3    C610887   0.896   0.238  12.819  0.1690  0.5854  0.1687
  733TMC3     C10888   0.531   0.119  12.975 -0.3768  0.0790 -0.3752
  733TMC3     O10889   0.443   0.136  12.893 -0.5360 -0.2959 -0.1770
  733TMC3     H10890   0.766   0.136  13.116  2.3392 -1.9730 -0.9227
  733TMC3    H110891   0.591   0.161  12.726 -0.3024  0.3467 -0.8697
  733TMC3    H210892   0.996   0.245  12.778  0.6715 -0.2795  1.2566
  733TMC3    C710893   0.809   0.216  12.601  0.0623  0.0105 -0.1702
  733TMC3    C810894   0.930   0.334  13.026  0.5137  0.5276  0.0154
  733TMC3    O110895   0.750   0.136  12.534  0.1250  0.6173  0.3931
  733TMC3    O210896   0.868   0.364  13.126  0.1463  0.0676  0.3319
  734MPD2     C10897   3.100   2.722  12.147  0.2167 -0.0654  0.2816
  734MPD2    C110898   3.000   2.662  12.087 -0.1389  0.4566 -0.6568
  734MPD2    C210899   2.966   2.707  11.963 -0.3233 -0.1544  0.3707
  734MPD2    C310900   3.039   2.800  11.895 -0.0275 -0.7371 -0.3611
  734MPD2    C410901   3.146   2.860  11.955 -0.3506  0.4677 -0.0007
  734MPD2    C510902   3.175   2.820  12.080  0.1641 -0.0430  0.0075
  734MPD2     H10903   2.881   2.672  11.906  0.4756  0.0642 -0.9440
  734MPD2    H110904   3.200   2.945  11.914  3.0116 -0.9930  1.3266
  734MPD2    H210905   3.127   2.695  12.248  0.0202 -1.6376 -0.0909
  734MPD2    H310906   3.262   2.860  12.131 -1.3592  2.8285  0.3901
  734MPD2     N10907   2.990   2.846  11.772  0.2112 -0.2058  0.2382
  734MPD2    H510908   2.905   2.808  11.734 -1.0549 -0.1090  2.9493
  734MPD2    N110909   2.933   2.561  12.146 -0.0656 -0.7151 -0.7637
  734MPD2    H710910   2.942   2.540  12.245  1.0035  0.4294 -0.6203
  735TMC3    C110911   2.803   2.359  12.176 -0.1775  0.1225 -0.0917
  735TMC3    C210912   2.704   2.309  12.091  0.5351  0.8838  0.6519
  735TMC3    C310913   2.690   2.177  12.064  0.3532 -0.1752 -0.4104
  735TMC3    C410914   2.908   2.271  12.215 -0.8058  0.5115 -0.6682
  735TMC3    C510915   2.890   2.138  12.183 -0.1866  0.5445 -0.1339
  735TMC3    C610916   2.781   2.089  12.111 -0.0450 -1.1427 -0.0271
  735TMC3     C10917   2.846   2.470  12.092 -1.0211 -0.0792  0.3164
  735TMC3     O10918   2.814   2.458  11.973  0.2519 -0.0119  0.4061
  735TMC3     H10919   2.626   2.381  12.070 -0.2412 -0.6278 -1.6457
  735TMC3    H110920   3.004   2.300  12.255  0.1917  0.1630 -2.8632
  735TMC3    H210921   2.777   1.982  12.095  0.2798 -1.2462  0.5786
  735TMC3    C710922   3.008   2.047  12.188 -0.2557 -0.4815 -0.7266
  735TMC3    C810923   2.636   2.158  11.931 -0.9614 -0.3802 -0.7589
  735TMC3    O110924   2.983   1.927  12.196  0.0564  0.0504  0.4310
  735TMC3    O210925   2.612   2.044  11.895 -0.5650 -0.2003  0.6362
  736MPD2     C10926   3.282   1.912  12.184 -0.2482  0.0517 -0.2605
  736MPD2    C110927   3.255   2.039  12.135 -0.4300 -0.2889  0.2915
  736MPD2    C210928   3.349   2.117  12.077  0.1679  0.1298 -0.1390
  736MPD2    C310929   3.474   2.066  12.052 -0.2565  0.0238 -0.5006
  736MPD2    C410930   3.512   1.943  12.104 -0.6228 -0.2537  0.0733
  736MPD2    C510931   3.411   1.873  12.176 -0.6110  0.4918 -0.2331
  736MPD2     H10932   3.315   2.210  12.032 -0.6866  0.4896  1.2074
  736MPD2    H110933   3.613   1.907  12.088 -1.2586 -0.1857 -4.0197
  736MPD2    H210934   3.208   1.861  12.246 -0.9940  1.2052 -0.2052
  736MPD2    H310935   3.429   1.779  12.228  2.0861  1.6013  0.8747
  736MPD2     N10936   3.574   2.134  11.968  0.4406  0.3788 -0.0684
  736MPD2    H510937   3.653   2.078  11.939 -0.2860 -1.3107  1.1906
  736MPD2    N110938   3.130   2.099  12.143 -0.4688  0.2014  0.3043
  736MPD2    H710939   3.107   2.192  12.109 -0.6492 -0.3609 -1.0878
  737TMC3    C110940   3.681   2.261  11.799 -0.1944 -0.0714  0.6186
  737TMC3    C210941   3.669   2.365  11.706 -0.3520 -0.4830  0.2898
  737TMC3    C310942   3.778   2.402  11.637  0.3016  0.1540  0.3248
  737TMC3    C410943   3.798   2.195  11.820 -0.6869 -0.4281  0.7491
  737TMC3    C510944   3.910   2.250  11.756 -0.3317  0.5749  0.6801
  737TMC3    C610945   3.897   2.345  11.656 -0.1171  0.1491 -0.2035
  737TMC3     C10946   3.569   2.246  11.897 -0.1878  0.7009  0.3215
  737TMC3     O10947   3.470   2.321  11.883  0.4976 -0.2107  0.0096
  737TMC3     H10948   3.571   2.410  11.699  0.4207  1.2742  0.9233
  737TMC3    H110949   3.816   2.126  11.901  4.5965 -1.6127 -1.4616
  737TMC3    H210950   3.987   2.396  11.622  0.1816  0.4698  1.0643
  737TMC3    C710951   4.016   2.157  11.748  0.2967 -0.6646  0.2301
  737TMC3    C810952   3.780   2.513  11.536 -0.3689 -0.3964 -0.0856
  737TMC3    O110953   4.054   2.104  11.849 -0.4971  0.3570  0.2176
  737TMC3    O210954   3.883   2.530  11.476  0.3331 -0.3100  0.3080
  738MPD2     C10955   4.081   1.348  14.950 -0.3204  0.3879  0.0286
  738MPD2    C110956   4.145   1.238  14.995  0.3798  0.3165 -0.0088
  738MPD2    C210957   4.279   1.216  14.963 -0.0768  0.0701  0.1106
  738MPD2    C310958   4.343   1.317  14.892 -0.6217  0.1020 -0.4124
  738MPD2    C410959   4.280   1.427  14.842 -0.3911  0.3556 -0.3143
  738MPD2    C510960   4.150   1.444  14.875  0.7086 -0.0022  0.0100
  738MPD2     H10961   4.344   1.138  15.003  0.6202  0.1484 -0.8686
  738MPD2    H110962   4.329   1.499  14.777  0.0945  0.5466  0.2614
  738MPD2    H210963   3.986   1.384  14.988 -0.9826 -0.3960 -0.8782
  738MPD2    H310964   4.105   1.540  14.850 -0.8102 -0.7792 -0.2589
  738MPD2     N10965   4.481   1.302  14.858 -0.1159 -0.7444 -0.0456
  738MPD2    H510966   4.522   1.383  14.813 -0.5912 -0.4890 -0.0218
  738MPD2    N110967   4.074   1.150  15.077 -0.4632  0.0159  0.3970
  738MPD2    H710968   4.126   1.072  15.117  1.5860  2.0301  1.7119
  739TMC3    C110969   4.706   1.223  14.854  0.2890 -0.5301  0.1417
  739TMC3    C210970   0.001   1.332  14.777 -0.4313  0.0325  0.9939
  739TMC3    C310971   0.134   1.341  14.743 -0.1232 -0.2538  0.1223
  739TMC3    C410972   0.065   1.138  14.902  1.3232 -0.2702 -0.0242
  739TMC3    C510973   0.196   1.148  14.857  0.2178 -0.0636  0.6506
  739TMC3    C610974   0.230   1.253  14.779 -0.0624  0.2635  0.0939
  739TMC3     C10975   4.565   1.194  14.878 -0.3772 -0.6128 -0.1887
  739TMC3     O10976   4.546   1.078  14.918  0.1009  0.1026 -0.0434
  739TMC3     H10977   4.668   1.395  14.724 -0.1557  0.3847  1.0457
  739TMC3    H110978   0.042   1.058  14.973 -0.1565 -0.7070 -0.9867
  739TMC3    H210979   0.327   1.251  14.730 -0.2141  1.8617 -0.2802
  739TMC3    C710980   0.312   1.063  14.893  0.5638  0.2179 -0.3046
  739TMC3    C810981   0.158   1.408  14.616  0.1063 -0.2332 -0.2898
  739TMC3    O110982   0.426   1.105  14.873 -0.3563  0.5894  0.0207
  739TMC3    O210983   0.066   1.431  14.539 -0.7402 -0.5001 -0.1872
  740TMC3    C110984   0.001   2.578  14.406 -0.1590  0.6661 -0.6108
  740TMC3    C210985   0.051   2.564  14.528  0.3650  0.8611 -0.1555
  740TMC3    C310986   0.183   2.595  14.547 -0.6818 -0.4198  0.0726
  740TMC3    C410987   0.077   2.612  14.295 -0.2210  0.0485  0.0479
  740TMC3    C510988   0.212   2.635  14.319  0.2632 -0.2614  0.5726
  740TMC3    C610989   0.263   2.624  14.443  0.0772  0.0083  0.3227
  740TMC3     C10990   4.601   2.610  14.387 -0.5261  0.7330 -0.1967
  740TMC3     O10991   4.553   2.687  14.302 -0.0987 -0.3219 -0.0255
  740TMC3     H10992   4.728   2.556  14.617  2.1037  2.4504  1.1790
  740TMC3    H110993   0.022   2.631  14.203  1.2527  2.2765 -0.3592
  740TMC3    H210994   0.369   2.642  14.458 -0.0218  1.1797 -0.3798
  740TMC3    C710995   0.299   2.662  14.214  0.5948  0.3826 -0.3298
  740TMC3    C810996   0.242   2.586  14.682 -0.5977 -0.8445 -0.2518
  740TMC3    O110997   0.416   2.660  14.248 -0.8105  0.1638  0.4276
  740TMC3    O210998   0.174   2.585  14.783  0.1697 -0.5204 -0.1951
  741TMC3    C110999   4.608   1.864  14.294 -0.3698 -0.1992  0.2717
  741TMC3    C211000   4.486   1.802  14.270  0.0506 -1.0140  0.1372
  741TMC3    C311001   4.432   1.730  14.374  0.2418 -0.6215 -0.4985
  741TMC3    C411002   4.653   1.874  14.424  0.3603 -0.2019 -1.0578
  741TMC3    C511003   4.588   1.814  14.532  0.1498 -0.7995 -0.4073
  741TMC3    C611004   4.473   1.747  14.500  0.4654 -0.1032  0.7063
  741TMC3     C11005   4.681   1.951  14.197  0.4751  0.5764  1.5154
  741TMC3     O11006   0.052   1.991  14.233 -0.5384 -0.2214 -0.1417
  741TMC3     H11007   4.461   1.789  14.165  1.1265  2.4551 -0.5612
  741TMC3    H111008   4.734   1.944  14.445 -0.6001  0.5711  0.0519
  741TMC3    H211009   4.436   1.677  14.574 -0.0892 -1.9830 -1.3578
  741TMC3    C711010   4.669   1.781  14.653  0.5627  0.1702 -0.2898
  741TMC3    C811011   4.313   1.660  14.330  0.0976  0.5884  0.0242
  741TMC3    O111012   0.047   1.819  14.653 -0.1351  0.1214 -0.1664
  741TMC3    O211013   4.256   1.697  14.228 -0.6686 -0.0190 -0.2157
  742TMC3    C111014   4.251   0.588  15.712  0.5947 -0.3476 -0.1961
  742TMC3    C211015   4.243   0.589  15.573 -0.7019 -0.1350  0.2303
  742TMC3    C311016   4.267   0.463  15.510  0.2485 -0.9022 -0.4322
  742TMC3    C411017   4.289   0.471  15.773  0.0046  0.3888 -0.2185
  742TMC3    C511018   4.312   0.354  15.704  0.4013 -1.0381  0.3247
  742TMC3    C611019   4.304   0.342  15.568  0.0896 -0.6770 -0.4760
  742TMC3     C11020   4.233   0.716  15.788 -0.1883  0.0498  0.5951
  742TMC3     O11021   4.265   0.723  15.908  0.2592  0.2276 -0.3580
  742TMC3     H11022   4.184   0.663  15.521  2.5164  1.1774 -1.5225
  742TMC3    H111023   4.297   0.469  15.881  1.2099 -1.0492 -0.3455
  742TMC3    H211024   4.312   0.253  15.507  0.7756 -0.6856 -0.3752
  742TMC3    C711025   4.350   0.233  15.776 -0.3061 -0.4160 -0.3508
  742TMC3    C811026   4.222   0.457  15.369 -0.1851  0.0312 -0.0459
  742TMC3    O111027   4.293   0.222  15.885 -0.1146 -0.2093  0.1606
  742TMC3    O211028   4.192   0.346  15.329 -0.1074 -0.1017  0.1697
  743MPD2     C11029   1.777   1.874   1.569  0.0068  0.1054  0.0444
  743MPD2    C111030   1.869   1.827   1.470 -0.5321  0.0865 -0.5146
  743MPD2    C211031   2.005   1.856   1.492  0.6534  0.2006 -0.7030
  743MPD2    C311032   2.047   1.947   1.585  0.3286 -0.5226  0.2642
  743MPD2    C411033   1.950   2.000   1.673  0.4447  0.0104 -0.4932
  743MPD2    C511034   1.822   1.954   1.675  0.2636  0.0009  0.2741
  743MPD2     H11035   2.084   1.809   1.435 -1.3000 -2.1757 -1.4595
  743MPD2    H111036   1.985   2.066   1.753 -2.5180  1.9142 -0.7506
  743MPD2    H211037   1.674   1.843   1.574  0.0261  0.2730  1.6632
  743MPD2    H311038   1.753   1.991   1.750  0.2834  0.2945  0.1450
  743MPD2     N11039   2.188   1.973   1.591 -0.0419 -0.2223 -0.5120
  743MPD2    H511040   2.242   1.912   1.530 -0.4318 -1.1379  0.0598
  743MPD2    N111041   1.828   1.741   1.365 -0.0143 -0.2331 -0.4470
  743MPD2    H711042   1.729   1.721   1.361  0.3608 -1.9241 -1.1051
  744TMC3    C111043   1.838   1.608   1.160 -0.0505  0.6946  0.2285
  744TMC3    C211044   1.707   1.632   1.140 -0.3368  0.7040 -0.1837
  744TMC3    C311045   1.651   1.576   1.030 -0.2902 -0.4111  0.3438
  744TMC3    C411046   1.913   1.523   1.087  0.4087 -0.3222 -0.5448
  744TMC3    C511047   1.848   1.465   0.984 -0.0724 -0.3517  0.3014
  744TMC3    C611048   1.720   1.504   0.943 -0.6118  0.6572 -0.5517
  744TMC3     C11049   1.911   1.674   1.267  0.0658  0.2103 -0.1844
  744TMC3     O11050   2.034   1.672   1.263 -0.3847 -0.0576  0.1704
  744TMC3     H11051   1.649   1.705   1.195 -0.5156 -1.5354  2.5792
  744TMC3    H111052   2.013   1.489   1.110 -0.0307 -1.8901 -0.9784
  744TMC3    H211053   1.686   1.466   0.847 -1.3855  0.1549 -0.0735
  744TMC3    C711054   1.911   1.361   0.910 -0.4823  0.4117  0.2855
  744TMC3    C811055   1.523   1.629   0.987  0.3374 -0.3294  0.7332
  744TMC3    O111056   2.033   1.359   0.917  0.1485  0.5335 -0.2623
  744TMC3    O211057   1.488   1.742   1.017 -0.2496 -0.1774  0.1828
  745TMC3    C111058   4.279   0.070  13.930  0.1640  0.1400  0.5568
  745TMC3    C211059   4.197   0.023  14.026  0.0924 -0.0313  0.2698
  745TMC3    C311060   4.078   0.099  14.046 -0.4125 -0.4709  0.8848
  745TMC3    C411061   4.245   0.157  13.830  0.2845 -0.3851 -0.6808
  745TMC3    C511062   4.124   0.218  13.847  0.3947  0.3700 -0.5727
  745TMC3    C611063   4.035   0.186  13.944  0.0130  0.0345  0.0797
  745TMC3     C11064   4.419   0.047  13.957  0.2751  0.5834 -0.0152
  745TMC3     O11065   4.454   4.688  14.019  0.5662 -0.6116 -0.1024
  745TMC3     H11066   4.236   4.695  14.103 -0.6033 -1.1442 -0.3234
  745TMC3    H111067   4.317   0.185  13.754  0.2631 -1.5648 -1.1404
  745TMC3    H211068   3.942   0.242  13.945  0.6610  1.0887  1.4547
  745TMC3    C711069   4.126   0.364  13.809 -0.3928  0.4203  0.2485
  745TMC3    C811070   4.070   0.153  14.181  0.4087 -0.5528 -0.1402
  745TMC3    O111071   4.072   0.443  13.887  0.1928 -0.6190 -0.0948
  745TMC3    O211072   4.129   0.095  14.269  0.4864 -0.1793  0.0584
  746TMC3    C111073   2.270   1.585  11.047  0.2555  1.0023 -0.0502
  746TMC3    C211074   2.289   1.478  10.963 -0.5748  0.4921 -0.0384
  746TMC3    C311075   2.205   1.378  10.970 -0.0759 -0.1526 -0.2067
  746TMC3    C411076   2.174   1.591  11.146 -0.2230  0.2940  0.4506
  746TMC3    C511077   2.088   1.483  11.147  0.5175  0.3992  0.1563
  746TMC3    C611078   2.102   1.377  11.060 -0.1229  0.1014 -0.2274
  746TMC3     C11079   2.290   1.712  10.980 -0.5515 -0.7014 -0.5943
  746TMC3     O11080   2.206   1.794  11.012 -0.0116  0.3676  0.5875
  746TMC3     H11081   2.358   1.471  10.880 -1.3687 -2.7854 -0.4378
  746TMC3    H111082   2.149   1.684  11.196 -1.6384  0.6449 -0.9297
  746TMC3    H211083   2.025   1.301  11.053  0.8033 -0.8451 -0.1501
  746TMC3    C711084   1.951   1.531  11.125 -0.2975 -0.4685  0.4440
  746TMC3    C811085   2.170   1.338  10.837 -0.0181  0.3137  0.7133
  746TMC3    O111086   1.859   1.453  11.134  0.0455  0.1652 -0.5417
  746TMC3    O211087   2.108   1.232  10.827  1.0676  0.3426  0.7162
  747TMC3    C111088   4.280   2.062  10.875  0.1040 -0.4661 -0.0591
  747TMC3    C211089   4.279   1.945  10.941 -0.3569  0.3747 -0.7131
  747TMC3    C311090   4.367   1.943  11.048  0.1686 -0.2686 -0.1750
  747TMC3    C411091   4.365   2.166  10.896  0.1261  0.0078  0.3931
  747TMC3    C511092   4.448   2.148  11.001  1.0832 -0.1154 -0.1427
  747TMC3    C611093   4.455   2.042  11.081 -0.2904  0.5852 -0.8366
  747TMC3     C11094   4.166   2.101  10.801 -0.6577 -0.3426  0.0803
  747TMC3     O11095   4.138   2.217  10.801 -0.0208 -0.4200 -0.0611
  747TMC3     H11096   4.198   1.873  10.939  0.2035 -0.2878  0.3638
  747TMC3    H111097   4.368   2.252  10.831  0.1516 -0.3967 -0.1462
  747TMC3    H211098   4.516   2.016  11.167 -2.2441 -3.5743 -0.6764
  747TMC3    C711099   4.565   2.243  11.002  0.0730 -0.5788  0.0030
  747TMC3    C811100   4.321   1.868  11.164  0.5347  0.4589  0.1095
  747TMC3    O111101   4.557   2.335  10.924 -0.1209 -0.5417 -0.4287
  747TMC3    O211102   4.383   1.768  11.193  0.6068  0.1482 -0.4408
  748MPD2     C11103   1.697   2.526   2.123  0.6436  0.2170  0.0817
  748MPD2    C111104   1.751   2.437   2.038 -0.0397 -0.9347  0.3738
  748MPD2    C211105   1.726   2.442   1.902  0.6919  0.6893  0.4464
  748MPD2    C311106   1.638   2.531   1.848 -0.3848  0.2289  0.2730
  748MPD2    C411107   1.585   2.616   1.932  0.2400  0.2391  0.2081
  748MPD2    C511108   1.614   2.620   2.067 -0.1652  0.7254 -0.8087
  748MPD2     H11109   1.763   2.364   1.836  3.6694 -0.6134  3.6104
  748MPD2    H111110   1.500   2.673   1.894  0.7441 -1.3451 -3.2406
  748MPD2    H211111   1.721   2.518   2.228 -0.8709  0.3908  0.4438
  748MPD2    H311112   1.555   2.688   2.127 -0.7954 -1.1179  0.6550
  748MPD2     N11113   1.606   2.515   1.707  0.4611 -0.0321 -0.1400
  748MPD2    H511114   1.638   2.430   1.663  0.8331  0.1150 -0.1567
  748MPD2    N111115   1.845   2.344   2.098 -0.2268 -0.0613 -0.1124
  748MPD2    H711116   1.868   2.358   2.196 -0.4540 -0.3694 -0.0149
  749TMC3    C111117   1.541   2.593   1.495 -0.3270  0.5143  1.2132
  749TMC3    C211118   1.570   2.465   1.453 -0.0291 -0.2649 -0.4128
  749TMC3    C311119   1.661   2.445   1.350 -0.9327 -0.2599 -0.1981
  749TMC3    C411120   1.593   2.691   1.424 -0.4333  0.6187 -0.0863
  749TMC3    C511121   1.679   2.667   1.317  0.3958 -0.4315 -0.9600
  749TMC3    C611122   1.718   2.543   1.283  0.2468 -0.3540 -0.0689
  749TMC3     C11123   1.543   2.616   1.639  0.6314  0.9609 -0.2944
  749TMC3     O11124   1.532   2.734   1.676  0.1566 -0.0575 -0.0784
  749TMC3     H11125   1.535   2.381   1.513 -0.5524  0.1823 -0.0990
  749TMC3    H111126   1.560   2.791   1.447  1.3311  0.9628  0.9422
  749TMC3    H211127   1.785   2.513   1.203 -0.3408  0.7801 -0.9844
  749TMC3    C711128   1.731   2.780   1.238  0.0068 -0.5050  0.5224
  749TMC3    C811129   1.705   2.306   1.335 -0.0154  0.1947  0.2488
  749TMC3    O111130   1.678   2.892   1.246  0.7679  0.3320 -0.2329
  749TMC3    O211131   1.617   2.222   1.352  0.2298  0.0680  0.1598
  750MPD2     C11132   2.293   3.769  11.220  0.1155  0.1457 -0.3082
  750MPD2    C111133   2.202   3.680  11.276  0.5312  0.2892  0.3678
  750MPD2    C211134   2.118   3.613  11.187 -0.2156 -0.0271  0.0152
  750MPD2    C311135   2.135   3.626  11.053 -0.2711  0.3718  0.4143
  750MPD2    C411136   2.223   3.717  11.004  0.2157 -0.2765 -0.5598
  750MPD2    C511137   2.307   3.785  11.086 -0.6097  0.3255 -0.1857
  750MPD2     H11138   2.037   3.555  11.230 -1.0868 -0.5845 -2.3845
  750MPD2    H111139   2.216   3.742  10.898 -4.3898  1.5097  0.1675
  750MPD2    H211140   2.359   3.830  11.281 -0.1031 -2.5472  2.6726
  750MPD2    H311141   2.380   3.850  11.039 -0.5195  0.3888  0.0386
  750MPD2     N11142   2.048   3.557  10.963 -0.5662  0.0814  0.3180
  750MPD2    H511143   2.052   3.602  10.872  0.4719 -1.1750 -0.2568
  750MPD2    N111144   2.181   3.647  11.409 -0.7887 -0.1114  0.4961
  750MPD2    H711145   2.123   3.566  11.428 -1.8825  0.1772 -1.6538
  751TMC3    C111146   1.891   3.402  10.880 -0.0790 -0.1131  0.1492
  751TMC3    C211147   1.781   3.329  10.916  0.1904 -0.0053 -0.5735
  751TMC3    C311148   1.668   3.331  10.837 -0.1523  0.2945  0.1495
  751TMC3    C411149   1.895   3.467  10.758  0.0596 -0.4317 -0.4259
  751TMC3    C511150   1.781   3.463  10.683 -0.1469 -0.3235  0.3518
  751TMC3    C611151   1.667   3.397  10.718  0.4506  0.2330  0.2959
  751TMC3     C11152   1.976   3.441  10.989  0.2549  0.3493 -0.0392
  751TMC3     O11153   1.970   3.377  11.094  1.0361 -0.3437 -0.5573
  751TMC3     H11154   1.787   3.267  11.005 -0.2147 -0.1575 -0.6517
  751TMC3    H111155   1.991   3.491  10.714  0.9653 -0.3800  1.6009
  751TMC3    H211156   1.589   3.386  10.643  0.5843 -0.0188  0.1971
  751TMC3    C711157   1.801   3.499  10.539  0.0102  0.5996 -0.1288
  751TMC3    C811158   1.554   3.244  10.860  0.1222 -0.0371  0.1553
  751TMC3    O111159   1.918   3.515  10.497 -0.2169 -0.5501 -0.7699
  751TMC3    O211160   1.483   3.209  10.767 -0.4860 -0.2966 -0.5226
  752TMC3    C111161   0.954   2.844  17.389 -0.0609  0.5023 -0.0871
  752TMC3    C211162   1.002   2.731  17.447 -0.3814  0.0327 -0.4352
  752TMC3    C311163   0.947   2.685  17.564  0.2270  0.5874 -0.0326
  752TMC3    C411164   0.846   2.910  17.441  0.1740  0.9556 -0.4696
  752TMC3    C511165   0.793   2.857  17.559 -0.0741 -0.4105 -0.2552
  752TMC3    C611166   0.846   2.745  17.624  0.5346  0.1011 -0.1977
  752TMC3     C11167   1.015   2.870  17.256  0.3259  0.2480  0.1401
  752TMC3     O11168   1.109   2.801  17.223 -0.1495  0.3097 -0.1768
  752TMC3     H11169   1.067   2.665  17.392  1.2172  1.3890 -0.1638
  752TMC3    H111170   0.821   3.010  17.408  0.1640  0.7704 -1.0379
  752TMC3    H211171   0.802   2.715  17.718  0.8713 -1.3286 -0.5062
  752TMC3    C711172   0.661   2.893  17.616  0.7907  0.7349  0.0833
  752TMC3    C811173   0.969   2.550  17.604  0.5242  0.0256 -0.3722
  752TMC3    O111174   0.650   2.891  17.738  0.0114 -0.6838 -0.2031
  752TMC3    O211175   0.868   2.493  17.644 -0.6999 -0.3992 -0.2582
  753TMC3    C111176   2.975   4.449  13.510  0.0861 -0.1927 -0.1924
  753TMC3    C211177   3.039   4.477  13.625  0.0613  0.0830 -0.4342
  753TMC3    C311178   3.146   4.403  13.655 -0.1501  0.4335 -0.1316
  753TMC3    C411179   3.005   4.347  13.426  0.0657  0.4444 -0.0289
  753TMC3    C511180   3.117   4.280  13.462  0.2839 -0.2283 -0.6093
  753TMC3    C611181   3.189   4.304  13.573 -1.5775  0.4751  0.3610
  753TMC3     C11182   2.912   4.565  13.439 -0.1342 -0.0460 -0.1022
  753TMC3     O11183   2.885   4.560  13.320  0.1247  0.2336  0.6776
  753TMC3     H11184   2.994   4.548  13.694  0.0045 -2.5480  2.2663
  753TMC3    H111185   2.950   4.326  13.336  0.9486  1.5336 -0.8287
  753TMC3    H211186   3.280   4.247  13.592 -0.1601  2.2726 -0.9941
  753TMC3    C711187   3.145   4.154  13.399  0.0062  0.2447 -0.3064
  753TMC3    C811188   3.237   4.429  13.767  0.6421  0.1275 -0.1386
  753TMC3    O111189   3.259   4.112  13.390  0.2385  0.3079 -0.2719
  753TMC3    O211190   3.312   4.337  13.798 -0.2459 -0.2829  0.2031
  754MPD2     C11191   1.971   3.838  13.071 -0.3453  0.3486  0.0152
  754MPD2    C111192   1.897   3.727  13.050 -0.0456  0.2301  0.3226
  754MPD2    C211193   1.807   3.717  12.943  0.0494 -0.1555 -0.3205
  754MPD2    C311194   1.796   3.826  12.859 -0.4546  0.3557 -0.0671
  754MPD2    C411195   1.862   3.945  12.886  0.1443 -0.2861  0.8343
  754MPD2    C511196   1.957   3.952  12.990  0.1182 -0.1009  1.2607
  754MPD2     H11197   1.742   3.630  12.933 -1.1857  0.8815 -1.3288
  754MPD2    H111198   1.858   4.028  12.816  0.1849 -0.7277  0.3062
  754MPD2    H211199   2.037   3.856  13.156 -0.3226 -0.4186  0.1608
  754MPD2    H311200   2.010   4.041  13.019  2.4565 -0.9062 -0.6238
  754MPD2     N11201   1.708   3.819  12.748 -0.3803 -0.2070  0.6099
  754MPD2    H511202   1.661   3.907  12.726 -0.0548 -0.1144  0.2939
  754MPD2    N111203   1.905   3.632  13.153  0.1527  0.4375  0.2082
  754MPD2    H711204   1.966   3.650  13.232  0.8791 -1.4048  0.0628
  755MPD2     C11205   1.036   4.250  13.011 -0.1941  0.3546 -0.1042
  755MPD2    C111206   1.015   4.138  13.084  0.0458  0.2899  0.3036
  755MPD2    C211207   1.083   4.026  13.053  0.2149  0.7056 -0.6321
  755MPD2    C311208   1.183   4.030  12.957 -0.3159 -0.5443 -0.0281
  755MPD2    C411209   1.198   4.145  12.883  0.4977  0.4659  0.7064
  755MPD2    C511210   1.127   4.259  12.905 -0.6681  0.4617  0.6068
  755MPD2     H11211   1.054   3.936  13.107  2.4235 -0.7424 -1.8435
  755MPD2    H111212   1.275   4.160  12.808  0.4705 -0.9314  0.4019
  755MPD2    H211213   0.984   4.342  13.037  1.5462  0.7353  2.0597
  755MPD2    H311214   1.135   4.356  12.859 -0.3371 -0.7924 -1.9854
  755MPD2     N11215   1.257   3.918  12.913 -0.4973  0.4865 -0.1957
  755MPD2    H511216   1.318   3.931  12.833  1.5752 -3.1203  0.8135
  755MPD2    N111217   0.914   4.135  13.182  0.5293  0.3333  0.1626
  755MPD2    H711218   0.898   4.046  13.228 -0.1104  1.5609  2.3049
  756MPD2     C11219   1.811   4.450   9.802  0.2690  0.3563  0.0363
  756MPD2    C111220   1.737   4.354   9.859  0.3406  0.2440  0.1552
  756MPD2    C211221   1.609   4.326   9.814  0.2093  0.0276 -0.1352
  756MPD2    C311222   1.565   4.378   9.698 -0.6504 -0.2517  0.0587
  756MPD2    C411223   1.649   4.467   9.630 -0.0405  0.7358  0.1540
  756MPD2    C511224   1.765   4.511   9.689  0.1354 -0.2356  0.4511
  756MPD2     H11225   1.545   4.253   9.863 -0.3984  0.8792  0.3271
  756MPD2    H111226   1.634   4.517   9.534 -1.6684  0.4596  0.2723
  756MPD2    H211227   1.908   4.477   9.843  1.3134 -2.5856 -0.4625
  756MPD2    H311228   1.811   4.598   9.644  1.5856  0.1321  2.6323
  756MPD2     N11229   1.437   4.335   9.658  0.2808  0.2829  0.2657
  756MPD2    H511230   1.386   4.286   9.731  1.2869 -2.5467 -0.9122
  756MPD2    N111231   1.776   4.285   9.977 -0.1721 -0.3816 -0.6552
  756MPD2    H711232   1.706   4.223  10.015 -0.2761  0.4619  0.5167
  757MPD2     C11233   0.919   3.779  10.091  0.8241  0.6009  0.3608
  757MPD2    C111234   0.869   3.753   9.969 -0.2973  1.0376  0.3105
  757MPD2    C211235   0.893   3.842   9.866  0.3738 -0.4973 -0.5719
  757MPD2    C311236   0.954   3.964   9.886  0.1933  0.7768  0.5312
  757MPD2    C411237   1.011   3.984  10.013 -0.8538  0.5617  0.6642
  757MPD2    C511238   0.994   3.891  10.112  0.3060 -0.3852  0.2701
  757MPD2     H11239   0.853   3.822   9.767  1.0778  1.4104 -1.2536
  757MPD2    H111240   1.069   4.070  10.043  1.1307 -0.5247 -0.0375
  757MPD2    H211241   0.909   3.709  10.173  0.2629  1.8120  1.3224
  757MPD2    H311242   1.039   3.914  10.208  2.3029  0.2549 -0.8199
  757MPD2     N11243   0.976   4.064   9.794  0.5832 -0.4151  0.0774
  757MPD2    H511244   0.962   4.044   9.696 -0.1383 -1.5636  0.4107
  757MPD2    N111245   0.807   3.621   9.953 -0.5300 -0.1162 -0.1637
  757MPD2    H711246   0.811   3.557  10.031 -0.2197  2.0259  1.5712
  758MPD2     C11247   1.894   2.914  15.815  0.4206  0.6460 -0.5122
  758MPD2    C111248   1.962   2.828  15.903  0.2910  0.2074  0.5481
  758MPD2    C211249   1.917   2.818  16.033 -0.4514  0.9598  0.1424
  758MPD2    C311250   1.807   2.885  16.083  0.3141 -0.0745  0.2542
  758MPD2    C411251   1.734   2.957  15.995 -0.0099  1.1366  0.0308
  758MPD2    C511252   1.783   2.978  15.865  0.6690 -0.9690 -0.3945
  758MPD2     H11253   1.972   2.751  16.097 -2.2211 -2.3471 -1.8240
  758MPD2    H111254   1.643   3.008  16.025 -0.2686 -0.1914  1.4913
  758MPD2    H211255   1.924   2.933  15.713  3.1799 -0.0536  0.1678
  758MPD2    H311256   1.735   3.046  15.794  0.1557  0.0583  0.9289
  758MPD2     N11257   1.759   2.879  16.211 -0.1934 -0.3031  0.3361
  758MPD2    H511258   1.664   2.915  16.218 -1.1064 -2.7503  0.4817
  758MPD2    N111259   2.082   2.770  15.851 -0.0575  0.1121 -0.3832
  758MPD2    H711260   2.111   2.819  15.768 -0.8417  0.8307 -0.2366
  759MPD2     C11261   0.706   0.944  10.205 -0.1237  0.0327 -0.3512
  759MPD2    C111262   0.610   1.040  10.194 -0.0243 -0.4131  0.0973
  759MPD2    C211263   0.637   1.154  10.128  0.5304 -0.2964 -0.1722
  759MPD2    C311264   0.761   1.171  10.059 -0.1707  0.0657  0.0391
  759MPD2    C411265   0.864   1.085  10.086 -0.5937  0.3488 -1.1242
  759MPD2    C511266   0.832   0.974  10.152 -0.2888  0.7019  0.1755
  759MPD2     H11267   0.562   1.230  10.111  1.0615 -0.1579 -1.9078
  759MPD2    H111268   0.966   1.106  10.055 -0.3126  2.0179  0.9304
  759MPD2    H211269   0.697   0.857  10.269  0.5105  0.6619  0.5912
  759MPD2    H311270   0.910   0.903  10.177 -0.0247  1.0135  0.2386
  759MPD2     N11271   0.773   1.295   9.986 -0.0549 -0.5975 -0.4569
  759MPD2    H511272   0.689   1.351   9.978  0.1571 -0.2607 -0.3549
  759MPD2    N111273   0.474   1.015  10.243  0.2291 -0.2176  0.7945
  759MPD2    H711274   0.414   1.096  10.239  0.6487  0.2118  2.8925
  760MPD2     C11275   0.236   3.983  12.142  0.6909 -0.2143 -0.2718
  760MPD2    C111276   0.300   3.937  12.029 -0.2601  0.0682 -0.1513
  760MPD2    C211277   0.295   3.805  11.988 -0.7033 -0.1116 -0.5392
  760MPD2    C311278   0.232   3.709  12.069 -0.7859  0.3194  0.6721
  760MPD2    C411279   0.166   3.752  12.183  0.2001 -0.2359  0.0660
  760MPD2    C511280   0.167   3.888  12.220 -0.4179  0.5366 -0.6755
  760MPD2     H11281   0.344   3.771  11.898 -0.2127 -0.0865 -0.2833
  760MPD2    H111282   0.105   3.684  12.241 -0.0892  0.2701  0.3597
  760MPD2    H211283   0.230   4.088  12.168 -0.1531  0.2446 -2.3479
  760MPD2    H311284   0.114   3.927  12.306  1.4046  1.9794 -0.2071
  760MPD2     N11285   0.230   3.567  12.044  0.1162  0.5272 -0.0372
  760MPD2    H511286   0.201   3.507  12.120 -0.4089  0.8606  0.0249
  760MPD2    N111287   0.373   4.033  11.954  0.3342  0.5122 -0.1031
  760MPD2    H711288   0.371   4.132  11.977  0.4661  0.3254  0.6917
  761MPD2     C11289   1.352   2.926  11.222 -0.1144  0.3738 -0.2653
  761MPD2    C111290   1.361   2.911  11.085  0.8946  0.7800  0.4076
  761MPD2    C211291   1.425   3.003  11.003  0.7199 -0.2224  0.6332
  761MPD2    C311292   1.476   3.121  11.059 -0.7418  0.2646  0.1560
  761MPD2    C411293   1.464   3.137  11.194  0.0644  0.5760 -0.0605
  761MPD2    C511294   1.396   3.045  11.271  0.1141 -0.1155 -0.2900
  761MPD2     H11295   1.437   2.978  10.898 -0.5000  0.6560  0.2858
  761MPD2    H111296   1.493   3.228  11.245 -0.5690  1.3258 -1.0368
  761MPD2    H211297   1.294   2.857  11.283 -0.3845  0.7555 -0.0934
  761MPD2    H311298   1.376   3.069  11.375  0.6776  0.3897 -0.2939
  761MPD2     N11299   1.542   3.228  10.989 -0.5318  0.5512 -0.1705
  761MPD2    H511300   1.592   3.286  11.055  0.4751  0.6149 -0.9876
  761MPD2    N111301   1.314   2.785  11.035  0.9204  0.0572 -0.4115
  761MPD2    H711302   1.293   2.714  11.105  0.6979 -1.3897 -1.9520
  762MPD2     C11303   1.118   2.025  10.531 -0.7579 -0.9045 -0.6020
  762MPD2    C111304   1.177   2.147  10.517  0.0692 -0.5991 -0.3160
  762MPD2    C211305   1.296   2.156  10.439  0.7013  0.0819 -0.3008
  762MPD2    C311306   1.342   2.045  10.372 -0.6019 -0.0651 -0.5212
  762MPD2    C411307   1.258   1.934  10.367  0.2365  0.1113 -1.4384
  762MPD2    C511308   1.152   1.926  10.450  0.4120 -0.1965 -0.5810
  762MPD2     H11309   1.369   2.236  10.438  1.9194 -1.0218  0.4817
  762MPD2    H111310   1.287   1.847  10.308 -1.9601 -1.0688 -0.7838
  762MPD2    H211311   1.033   2.012  10.597 -0.0828  0.2890  0.4982
  762MPD2    H311312   1.098   1.832  10.458  0.3095  0.0514  1.5219
  762MPD2     N11313   1.465   2.051  10.300  0.2143  0.7397 -0.1271
  762MPD2    H511314   1.510   2.141  10.306  0.9439  0.4094 -0.6575
  762MPD2    N111315   1.136   2.249  10.607 -0.0493  0.8057  0.2823
  762MPD2    H711316   1.052   2.231  10.663  0.9522  1.1550  1.9032
  763MPD2     C11317   3.180   3.118  16.007  0.3158 -0.1266  0.1439
  763MPD2    C111318   3.257   3.167  15.902 -0.0897 -0.0100 -0.3508
  763MPD2    C211319   3.300   3.300  15.905  0.8897  0.2331 -0.9631
  763MPD2    C311320   3.281   3.376  16.019 -0.4069  0.3875  0.2193
  763MPD2    C411321   3.203   3.328  16.119  0.4530 -0.1836  0.9015
  763MPD2    C511322   3.157   3.200  16.114 -0.7801  0.2602 -0.2221
  763MPD2     H11323   3.348   3.341  15.817  1.8908  2.5699  0.6783
  763MPD2    H111324   3.197   3.379  16.214 -3.4237  1.7960 -0.4162
  763MPD2    H211325   3.148   3.014  16.005 -3.1092  0.9701 -0.7181
  763MPD2    H311326   3.081   3.176  16.187  0.4353  1.8696  1.5989
  763MPD2     N11327   3.324   3.514  16.021  0.6198 -0.4340  1.2390
  763MPD2    H511328   3.295   3.570  16.100 -2.3864  0.6026 -0.6176
  763MPD2    N111329   3.275   3.103  15.775  0.1107 -0.0052 -0.3751
  763MPD2    H711330   3.314   3.166  15.706 -1.0915  0.8673 -0.2572
  764MPD2     C11331   1.142   4.504   0.095  0.5821 -0.4456 -0.0651
  764MPD2    C111332   1.149   4.367   0.104  0.1711 -0.2519  0.3175
  764MPD2    C211333   1.227   4.316   0.206 -0.0703  0.0722 -0.3812
  764MPD2    C311334   1.279   4.390   0.310 -0.2177  0.7824  0.7525
  764MPD2    C411335   1.279   4.527   0.290 -0.3073  0.0602 -0.0649
  764MPD2    C511336   1.208   4.584   0.190 -0.1081  0.4243  0.0316
  764MPD2     H11337   1.238   4.208   0.207  1.0376  0.1815 -0.0640
  764MPD2    H111338   1.305   4.594   0.372 -0.1225  0.8498 -0.7774
  764MPD2    H211339   1.078   4.552   0.022  0.1864 -2.3668 -0.9995
  764MPD2    H311340   1.194   4.691   0.180 -0.3190  0.4466  0.5581
  764MPD2     N11341   1.329   4.321   0.423 -0.6926  0.3347 -0.1870
  764MPD2    H511342   1.328   4.219   0.419 -1.2724  0.3634 -0.8455
  764MPD2    N111343   1.087   4.276   0.013 -0.0379  0.5368 -0.4883
  764MPD2    H711344   1.130   4.184   0.016 -1.2825 -0.0791 -1.3166
  765MPD2     C11345   1.756   2.418  15.180  0.2545  0.0905 -0.4922
  765MPD2    C111346   1.789   2.428  15.306  0.4592  1.2109  0.2882
  765MPD2    C211347   1.920   2.398  15.355  0.2436  0.0150  0.4793
  765MPD2    C311348   2.020   2.353  15.268 -0.1310 -0.1840 -0.8049
  765MPD2    C411349   1.977   2.347  15.133 -0.6231  0.1434  0.1566
  765MPD2    C511350   1.853   2.380  15.090 -0.7022 -0.7464  0.5853
  765MPD2     H11351   1.936   2.396  15.463  2.6125 -0.5658  0.1309
  765MPD2    H111352   2.047   2.311  15.059  0.3108 -0.1668  1.1849
  765MPD2    H211353   1.652   2.435  15.156  0.5950  2.9462 -0.0024
  765MPD2    H311354   1.827   2.384  14.985  1.5455 -0.0104  0.0606
  765MPD2     N11355   2.137   2.300  15.321 -0.1219  0.4656  1.0534
  765MPD2    H511356   2.166   2.318  15.416 -2.7462 -2.4744  2.3799
  765MPD2    N111357   1.683   2.475  15.386 -0.5797 -0.1361 -0.0458
  765MPD2    H711358   1.586   2.472  15.356 -0.3728  0.8722 -0.8090
  766MPD2     C11359   1.142   2.490  15.099 -1.3837 -0.8402  0.1588
  766MPD2    C111360   1.237   2.589  15.111 -0.3005  0.3554  0.0011
  766MPD2    C211361   1.281   2.651  14.998  0.1670  1.0662  0.3915
  766MPD2    C311362   1.244   2.611  14.875  0.2443 -0.3911 -1.2048
  766MPD2    C411363   1.140   2.517  14.866  0.1716  0.8735  0.0643
  766MPD2    C511364   1.087   2.457  14.979  0.6339  0.0213  0.8496
  766MPD2     H11365   1.354   2.731  15.008  3.0198 -1.6105  0.9935
  766MPD2    H111366   1.101   2.490  14.769  2.4786 -3.0634  0.2227
  766MPD2    H211367   1.081   2.457  15.183 -0.6643 -0.2003  0.9410
  766MPD2    H311368   1.012   2.379  14.970  1.4083 -0.5716 -0.4377
  766MPD2     N11369   1.302   2.661  14.755 -0.0265  0.0619 -0.2249
  766MPD2    H511370   1.252   2.646  14.668 -0.0893  0.7515 -0.3109
  766MPD2    N111371   1.276   2.637  15.238 -0.9502 -0.5908 -0.0546
  766MPD2    H711372   1.342   2.715  15.234 -0.3181 -1.1753 -1.0789
  767MPD2     C11373   0.867   2.834  14.822 -0.2629  0.3967  0.2491
  767MPD2    C111374   0.978   2.897  14.783  0.1860  0.2992  0.5470
  767MPD2    C211375   0.999   2.891  14.647  0.4028  0.0925  0.1160
  767MPD2    C311376   0.934   2.795  14.566  0.0516  0.2077  0.2140
  767MPD2    C411377   0.837   2.713  14.616  0.6343  0.3733 -0.5507
  767MPD2    C511378   0.798   2.746  14.746 -0.4787 -0.2975  0.3560
  767MPD2     H11379   1.081   2.951  14.612 -0.3202 -0.7961 -3.1154
  767MPD2    H111380   0.784   2.633  14.564 -0.0908  1.0963 -0.9249
  767MPD2    H211381   0.836   2.834  14.926  0.7647  0.3181  0.5648
  767MPD2    H311382   0.716   2.689  14.790  0.8193 -1.7793  0.8526
  767MPD2     N11383   0.973   2.776  14.432  0.1970  0.0064  0.2608
  767MPD2    H511384   1.058   2.830  14.415  0.5719 -0.6990 -0.1172
  767MPD2    N111385   1.043   2.983  14.872 -0.1081  0.3144 -0.2044
  767MPD2    H711386   1.025   2.989  14.972  2.7448  0.1682  0.3040
  768MPD2     C11387   1.280   0.942  10.886  0.7991 -0.2076  0.0889
  768MPD2    C111388   1.338   1.059  10.930  0.1064  0.0271 -0.3002
  768MPD2    C211389   1.452   1.054  11.010 -1.3644  0.2011 -0.6834
  768MPD2    C311390   1.496   0.930  11.055 -0.3635 -0.1113  0.7131
  768MPD2    C411391   1.443   0.816  11.011 -0.4835 -1.0851  0.5862
  768MPD2    C511392   1.335   0.824  10.926 -0.1957  0.0649 -0.1511
  768MPD2     H11393   1.508   1.145  11.031 -0.7426  0.0048 -1.5013
  768MPD2    H111394   1.477   0.719  11.045 -1.0338 -1.7130 -0.6561
  768MPD2    H211395   1.193   0.944  10.822 -0.7987  0.8214  2.2909
  768MPD2    H311396   1.287   0.732  10.896  0.4465 -0.0432 -0.8501
  768MPD2     N11397   1.612   0.918  11.144  0.1904  0.2247 -0.1517
  768MPD2    H511398   1.629   0.822  11.171  1.0021 -0.1824 -2.0966
  768MPD2    N111399   1.292   1.190  10.894  0.2425 -0.9147  0.0993
  768MPD2    H711400   1.355   1.259  10.933 -0.9407 -0.1040  0.5684
  769MPD2     C11401   2.221   4.490  14.606  0.0053 -0.2776  0.5863
  769MPD2    C111402   2.293   4.369  14.622 -0.4711  0.5256 -0.5837
  769MPD2    C211403   2.380   4.356  14.729  0.1718 -0.5858  0.2795
  769MPD2    C311404   2.398   4.456  14.823  0.2641  0.1720 -0.6608
  769MPD2    C411405   2.339   4.573  14.800 -0.9844  0.5849 -0.3407
  769MPD2    C511406   2.256   4.589  14.690 -0.5519  0.2598 -0.0275
  769MPD2     H11407   2.410   4.256  14.759  1.2432  0.0091  1.2124
  769MPD2    H111408   2.354   4.657  14.867  1.2182 -1.0736  1.2796
  769MPD2    H211409   2.157   4.505  14.520  0.0446  1.8869  0.9395
  769MPD2    H311410   2.222   4.690  14.671  1.7160  1.0658  0.2137
  769MPD2     N11411   2.490   4.430  14.929 -0.0509  0.1666 -0.4067
  769MPD2    H511412   2.510   4.332  14.946  1.8650  0.4490 -1.0347
  769MPD2    N111413   2.278   4.264  14.523  0.2088 -0.6195 -0.4771
  769MPD2    H711414   2.202   4.283  14.458  1.1404 -1.2559 -1.7406
  770MPD2     C11415   2.226   3.270  14.461 -0.8315 -0.1298  0.0018
  770MPD2    C111416   2.272   3.357  14.553  0.3482  0.4525 -0.5899
  770MPD2    C211417   2.309   3.483  14.513 -0.4026  0.3568 -0.2164
  770MPD2    C311418   2.288   3.529  14.379  0.4636  0.0209  0.6821
  770MPD2    C411419   2.235   3.442  14.287  0.3121 -0.1297 -0.2883
  770MPD2    C511420   2.207   3.311  14.334 -0.3752 -0.8449 -0.3493
  770MPD2     H11421   2.339   3.561  14.582 -2.0326  0.0163  0.8681
  770MPD2    H111422   2.224   3.451  14.179 -0.7133 -2.6739 -0.3990
  770MPD2    H211423   2.208   3.164  14.471  1.5786 -0.3550  1.8993
  770MPD2    H311424   2.189   3.236  14.258  1.3854 -0.0328 -1.5752
  770MPD2     N11425   2.330   3.655  14.348 -0.5798  0.2263 -0.2516
  770MPD2    H511426   2.362   3.717  14.422 -1.8639 -1.4885  1.7297
  770MPD2    N111427   2.282   3.309  14.681  0.0036  0.3439 -0.3962
  770MPD2    H711428   2.248   3.214  14.694 -0.2961  0.4287 -0.5727
  771MPD2     C11429   3.811   1.824  13.663  0.0769  0.7301 -1.0305
  771MPD2    C111430   3.764   1.953  13.667  0.5456 -0.3288 -0.2228
  771MPD2    C211431   3.630   1.978  13.640 -0.7340 -0.0214 -0.6339
  771MPD2    C311432   3.547   1.879  13.588  0.0401 -0.0771 -0.6823
  771MPD2    C411433   3.588   1.752  13.608 -0.5836  0.1935  0.0897
  771MPD2    C511434   3.718   1.724  13.634  0.3501  0.0138 -0.0379
  771MPD2     H11435   3.604   2.082  13.625 -2.4885 -0.1907  1.2506
  771MPD2    H111436   3.524   1.668  13.585  1.6757 -2.8798  5.0859
  771MPD2    H211437   3.909   1.788  13.692 -0.4716 -0.3769 -0.5429
  771MPD2    H311438   3.755   1.622  13.644 -1.0071 -0.3649  1.2063
  771MPD2     N11439   3.422   1.910  13.541  0.6590 -0.4588 -0.2205
  771MPD2    H511440   3.412   2.001  13.495 -0.8191  0.1014  1.1845
  771MPD2    N111441   3.851   2.068  13.680 -0.5733 -0.7421  0.3923
  771MPD2    H711442   3.808   2.157  13.702  1.3134  0.9201 -2.5969
  772MPD2     C11443   3.804   2.751  13.868 -0.2424  0.0841  0.0027
  772MPD2    C111444   3.751   2.638  13.816 -0.8143  0.4124 -0.1547
  772MPD2    C211445   3.618   2.617  13.836 -0.9975 -0.3584 -0.5558
  772MPD2    C311446   3.537   2.712  13.895 -0.0840  0.6092  1.0341
  772MPD2    C411447   3.592   2.829  13.949 -0.1809 -0.9494 -0.1979
  772MPD2    C511448   3.727   2.843  13.935  0.6715  0.3700 -0.1219
  772MPD2     H11449   3.576   2.526  13.793  0.6265 -1.9685  1.2742
  772MPD2    H111450   3.536   2.905  14.001  1.2157  0.4777 -0.7764
  772MPD2    H211451   3.908   2.770  13.844  0.3471  0.3214  2.7463
  772MPD2    H311452   3.782   2.928  13.975 -0.1006  0.4033  0.8463
  772MPD2     N11453   3.394   2.707  13.894  0.9278  0.3119 -0.6258
  772MPD2    H511454   3.348   2.783  13.944  0.0326 -1.5982  1.4396
  772MPD2    N111455   3.833   2.538  13.760  0.6115 -0.0543 -0.3300
  772MPD2    H711456   3.773   2.463  13.728  1.6074 -0.7617 -0.5385
  773MPD2     C11457   2.783   3.092   0.442  0.1221 -0.3247  0.0959
  773MPD2    C111458   2.740   2.979   0.380 -0.4518  0.6546  0.1681
  773MPD2    C211459   2.839   2.884   0.348  0.6668 -0.0587 -0.0287
  773MPD2    C311460   2.965   2.898   0.386 -0.1020  0.1839  0.0971
  773MPD2    C411461   3.006   3.014   0.455 -0.1518  0.8701 -0.1114
  773MPD2    C511462   2.916   3.111   0.471  0.1671  1.0530 -0.0067
  773MPD2     H11463   2.815   2.795   0.290  1.2524  1.6197 -2.8064
  773MPD2    H111464   3.107   3.044   0.481  0.3120 -0.3804 -0.4450
  773MPD2    H211465   2.707   3.166   0.464  2.0319  1.2455  1.4638
  773MPD2    H311466   2.946   3.204   0.518 -1.3139  0.9826  1.0697
  773MPD2     N11467   3.050   2.794   0.347  0.2593 -0.9380 -0.0394
  773MPD2    H511468   3.015   2.726   0.281  1.1399  0.6439 -2.1158
  773MPD2    N111469   2.609   2.958   0.329 -0.4363  0.4368  0.1020
  773MPD2    H711470   2.599   2.872   0.276  0.0231  1.7225 -2.0672
  774MPD2     C11471   1.621   2.632  13.536 -0.1530 -0.4677 -0.6847
  774MPD2    C111472   1.714   2.686  13.621 -0.0410  0.4342 -0.3112
  774MPD2    C211473   1.744   2.822  13.596 -0.0650  0.9214  0.1919
  774MPD2    C311474   1.701   2.890  13.486 -0.2580  0.5715 -0.3463
  774MPD2    C411475   1.610   2.828  13.404 -0.3180  0.1056  0.1120
  774MPD2    C511476   1.572   2.705  13.432 -0.2682 -0.2964 -0.4408
  774MPD2     H11477   1.799   2.880  13.669  1.7078  0.5158 -0.8221
  774MPD2    H111478   1.563   2.881  13.322 -0.0554  0.5770  0.2692
  774MPD2    H211479   1.583   2.531  13.538 -1.1994 -0.0269  1.7594
  774MPD2    H311480   1.494   2.660  13.372  1.4234 -1.0479 -2.0575
  774MPD2     N11481   1.743   3.025  13.467 -0.4764  0.0262  0.2570
  774MPD2    H511482   1.783   3.078  13.544  0.9932 -0.7461  0.0129
  774MPD2    N111483   1.774   2.610  13.722  0.1345 -0.0300 -1.0149
  774MPD2    H711484   1.731   2.520  13.744  0.1432 -0.4715 -2.7848
  775MPD2     C11485   3.004   4.151  15.436 -0.2851 -0.1002 -0.8451
  775MPD2    C111486   3.024   4.262  15.516 -0.4933 -0.0487  0.4609
  775MPD2    C211487   3.118   4.358  15.478  0.6717  0.0169 -0.4672
  775MPD2    C311488   3.189   4.346  15.362  0.2450  0.4493 -0.4173
  775MPD2    C411489   3.170   4.237  15.280  0.3169  0.9073 -1.4146
  775MPD2    C511490   3.082   4.135  15.323 -0.4542 -0.5413  0.2364
  775MPD2     H11491   3.146   4.435  15.549 -1.1608  2.2975 -2.2006
  775MPD2    H111492   3.228   4.228  15.188  0.5022  1.3399 -1.3383
  775MPD2    H211493   2.925   4.082  15.464  0.3989 -0.4936  0.1162
  775MPD2    H311494   3.078   4.042  15.269  0.5154  0.5853 -1.7981
  775MPD2     N11495   3.284   4.438  15.323  0.5363 -0.3085  0.5296
  775MPD2    H511496   3.333   4.409  15.240  0.6525  3.9350 -0.8991
  775MPD2    N111497   2.950   4.270  15.636 -0.5881  0.1167 -0.1494
  775MPD2    H711498   2.915   4.181  15.669 -1.7934  0.2234 -1.1488
  776MPD2     C11499   1.758   4.099  11.713 -0.3427 -0.1256  0.5315
  776MPD2    C111500   1.896   4.074  11.731 -0.1122 -0.2020  0.1130
  776MPD2    C211501   1.998   4.158  11.680 -0.0569 -0.1975  0.0456
  776MPD2    C311502   1.958   4.271  11.622  0.8555 -0.0971 -0.1897
  776MPD2    C411503   1.826   4.308  11.613 -0.2379  0.6541 -0.4486
  776MPD2    C511504   1.722   4.222  11.658  0.0560  0.5177 -0.4884
  776MPD2     H11505   2.100   4.123  11.675 -0.5614 -1.7358  0.3215
  776MPD2    H111506   1.796   4.393  11.552  0.9416  0.3767 -1.4113
  776MPD2    H211507   1.679   4.035  11.750 -1.0240 -0.0717 -0.8052
  776MPD2    H311508   1.615   4.240  11.654  0.2620  2.3268  2.3472
  776MPD2     N11509   2.045   4.351  11.542 -0.3177 -0.0576 -0.0209
  776MPD2    H511510   2.008   4.437  11.503 -2.8764 -1.1970 -0.0886
  776MPD2    N111511   1.937   3.955  11.792 -0.2470  0.2520 -0.1923
  776MPD2    H711512   1.868   3.881  11.788  0.8748 -0.8337  0.8940
  777MPD2     C11513   2.808   1.881   0.560 -0.5147 -0.4901 -0.0517
  777MPD2    C111514   2.703   1.848   0.632  0.0284  0.6652  0.3561
  777MPD2    C211515   2.628   1.735   0.590 -0.4052  0.4017 -0.0713
  777MPD2    C311516   2.651   1.669   0.470  0.1647  0.0321 -0.9092
  777MPD2    C411517   2.753   1.721   0.391 -0.6415 -0.1832  0.2582
  777MPD2    C511518   2.827   1.825   0.435 -0.0008  0.3834  0.2536
  777MPD2     H11519   2.558   1.696   0.664 -1.3196  1.4659 -0.3709
  777MPD2    H111520   2.782   1.679   0.296 -1.9171 -3.6718  1.3898
  777MPD2    H211521   2.866   1.967   0.591 -1.8325  0.6061 -0.6377
  777MPD2    H311522   2.906   1.859   0.369  1.7931 -0.3188  2.0410
  777MPD2     N11523   2.569   1.560   0.430 -0.3006  0.6160  0.1131
  777MPD2    H511524   2.503   1.533   0.502 -1.1614 -1.3679 -1.3993
  777MPD2    N111525   2.672   1.920   0.747 -0.2277  0.1543 -0.3099
  777MPD2    H711526   2.740   1.988   0.780  2.1519 -1.7589 -1.2749
  778MPD2     C11527   3.779   2.286  14.622 -0.5841 -0.0661 -0.4611
  778MPD2    C111528   3.839   2.163  14.619  0.5199  1.0469  0.7266
  778MPD2    C211529   3.956   2.138  14.551  0.3126 -0.1596  0.1316
  778MPD2    C311530   4.019   2.248  14.487  0.0665  0.4874 -0.6348
  778MPD2    C411531   3.951   2.375  14.486  0.3448 -0.3635 -0.1764
  778MPD2    C511532   3.841   2.393  14.557 -1.1739 -1.0418 -0.1957
  778MPD2     H11533   3.997   2.038  14.549  0.3189 -0.1672  0.5540
  778MPD2    H111534   3.996   2.455  14.429  1.1820 -0.3315  0.5261
  778MPD2    H211535   3.674   2.302  14.645 -0.5246 -1.0970  0.5504
  778MPD2    H311536   3.785   2.486  14.556  0.3251 -0.1365  0.5745
  778MPD2     N11537   4.146   2.230  14.432 -0.3806  0.2840 -0.3933
  778MPD2    H511538   4.200   2.150  14.462 -0.2641  0.2351 -0.7339
  778MPD2    N111539   3.759   2.049  14.651  0.2908  0.2537 -0.5713
  778MPD2    H711540   3.799   1.960  14.624  0.0637 -0.6818  2.2499
  779MPD2     C11541   3.446   0.861  13.777 -0.1915 -1.8423 -0.0946
  779MPD2    C111542   3.460   0.872  13.908 -0.0982  0.1023  0.5703
  779MPD2    C211543   3.492   0.999  13.964  0.1841 -0.5813  0.5789
  779MPD2    C311544   3.497   1.109  13.882 -0.1140  0.0063  0.1201
  779MPD2    C411545   3.473   1.095  13.749  0.5967  0.4278  0.4117
  779MPD2    C511546   3.449   0.972  13.698 -0.1855  0.0816 -0.5394
  779MPD2     H11547   3.510   0.997  14.071 -3.2324 -0.4008  1.1391
  779MPD2    H111548   3.480   1.177  13.679  3.2657 -1.2602 -1.2832
  779MPD2    H211549   3.448   0.762  13.734 -0.5631 -2.1184  0.5267
  779MPD2    H311550   3.448   0.959  13.591  2.7112  0.2326 -0.6000
  779MPD2     N11551   3.526   1.238  13.940  0.0801  1.0808 -0.2522
  779MPD2    H511552   3.556   1.237  14.037 -0.1135 -0.8326 -0.2056
  779MPD2    N111553   3.421   0.759  13.990 -0.0573  0.3596  0.5744
  779MPD2    H711554   3.384   0.684  13.932  0.1798  1.0643 -0.5050
  780MPD2     C11555   2.688   1.038   1.028  0.8434  0.4496  0.7701
  780MPD2    C111556   2.659   0.923   0.951 -0.0443  0.0983 -0.2071
  780MPD2    C211557   2.732   0.909   0.831  0.5241 -0.4812 -0.2886
  780MPD2    C311558   2.837   0.991   0.799 -0.1333 -0.0140 -0.2456
  780MPD2    C411559   2.869   1.102   0.885 -0.1671  0.1256 -0.1387
  780MPD2    C511560   2.795   1.119   1.002 -0.6776  0.5777  0.2930
  780MPD2     H11561   2.719   0.819   0.772  0.6642 -0.4745 -0.3288
  780MPD2    H111562   2.954   1.166   0.867 -0.4486  0.2033 -1.1877
  780MPD2    H211563   2.616   1.060   1.106  0.1700  0.3595  0.1800
  780MPD2    H311564   2.800   1.199   1.074  2.1376  0.5946  0.0932
  780MPD2     N11565   2.915   0.958   0.685  0.6881  0.0416 -0.4471
  780MPD2    H511566   2.885   0.870   0.645  1.5162  0.3905 -1.8081
  780MPD2    N111567   2.552   0.835   0.991 -0.2052 -0.2720 -0.0195
  780MPD2    H711568   2.484   0.849   1.066 -0.2035 -0.4284  0.0122
  781MPD2     C11569   4.605   3.363  11.798 -0.4422 -0.9209 -1.1846
  781MPD2    C111570   4.629   3.229  11.796  0.0530 -0.5793  0.8246
  781MPD2    C211571   4.711   3.173  11.700  0.8569 -0.1177 -0.4986
  781MPD2    C311572   0.020   3.251  11.599  0.3397  0.7405  0.5642
  781MPD2    C411573   4.702   3.377  11.584 -0.7014 -0.2877  0.3533
  781MPD2    C511574   4.625   3.436  11.689  0.3359  0.1182  0.0688
  781MPD2     H11575   0.009   3.071  11.712 -0.6885 -0.3974  1.5878
  781MPD2    H111576   4.713   3.447  11.501 -0.4238  1.1075  1.5517
  781MPD2    H211577   4.549   3.418  11.873  0.9772  0.7070 -1.3080
  781MPD2    H311578   4.586   3.537  11.685  0.1955  0.1513  1.9509
  781MPD2     N11579   0.095   3.199  11.485  0.4781 -0.1490 -0.7811
  781MPD2    H511580   0.105   3.259  11.404 -1.7398  2.2759  0.7365
  781MPD2    N111581   4.599   3.152  11.908  0.0481  0.3031  0.5844
  781MPD2    H711582   4.620   3.053  11.902 -0.3536  0.1186  2.2330
  782MPD2     C11583   2.428   3.636   9.489  0.1024 -0.0605 -0.2831
  782MPD2    C111584   2.461   3.563   9.597  0.0597  0.0241  0.1950
  782MPD2    C211585   2.587   3.586   9.649  0.0872 -0.1075 -0.0640
  782MPD2    C311586   2.678   3.681   9.602  0.3596 -0.7060 -0.2124
  782MPD2    C411587   2.641   3.757   9.492  0.6172 -0.1348 -0.7657
  782MPD2    C511588   2.519   3.724   9.432 -0.6076  0.2048 -0.4581
  782MPD2     H11589   2.618   3.535   9.740  1.0173 -0.7255 -0.7350
  782MPD2    H111590   2.715   3.826   9.453 -0.1712  0.1496 -1.7581
  782MPD2    H211591   2.329   3.638   9.445 -0.1299  2.0645  0.3544
  782MPD2    H311592   2.496   3.781   9.343 -0.9122  1.8979  0.7077
  782MPD2     N11593   2.804   3.699   9.667 -0.2247  0.4761 -0.5651
  782MPD2    H511594   2.816   3.642   9.750  1.4397  0.0360 -1.0969
  782MPD2    N111595   2.374   3.468   9.668  0.1017  0.3301  0.1264
  782MPD2    H711596   2.398   3.434   9.761 -3.6701  1.3366  1.4972
  783MPD2     C11597   1.555   3.527  10.264 -0.7342  0.0988  0.6299
  783MPD2    C111598   1.679   3.505  10.325 -0.4844 -0.0342  0.6374
  783MPD2    C211599   1.786   3.458  10.246  0.1162 -0.2874  0.5893
  783MPD2    C311600   1.767   3.454  10.108 -0.1694  0.6155 -0.1164
  783MPD2    C411601   1.653   3.505  10.051  0.2854 -0.2532 -0.0357
  783MPD2    C511602   1.545   3.520  10.128 -0.2382  0.2045 -0.1867
  783MPD2     H11603   1.881   3.424  10.285  0.5428  0.1707 -0.0451
  783MPD2    H111604   1.641   3.501   9.943  2.1933 -1.5819 -0.2121
  783MPD2    H211605   1.470   3.575  10.311  0.2029  0.3708  2.0814
  783MPD2    H311606   1.455   3.556  10.079 -0.0426  2.8168  1.4058
  783MPD2     N11607   1.881   3.410  10.031  0.3154  0.6946 -0.0940
  783MPD2    H511608   1.963   3.395  10.090 -0.3344 -0.2494  0.5758
  783MPD2    N111609   1.684   3.503  10.468  0.4762 -0.0125  0.5018
  783MPD2    H711610   1.600   3.536  10.516 -0.4211  1.1054 -1.8343
  784MPD2     C11611   0.377   3.844   0.515 -0.5728  1.0382  0.8410
  784MPD2    C111612   0.348   3.968   0.465 -0.2425  0.3961  0.2840
  784MPD2    C211613   0.215   4.003   0.446 -0.1263  0.5725 -0.3641
  784MPD2    C311614   0.117   3.909   0.466 -0.5871 -0.3662  0.3743
  784MPD2    C411615   0.153   3.785   0.516  0.1631 -0.4956  0.6289
  784MPD2    C511616   0.278   3.752   0.549 -0.4323  0.2809 -0.0169
  784MPD2     H11617   0.192   4.101   0.405  0.6436  1.5615  1.5510
  784MPD2    H111618   0.075   3.710   0.526 -1.1357  0.7968  0.1074
  784MPD2    H211619   0.476   3.801   0.515  0.0658  2.5368  1.2786
  784MPD2    H311620   0.313   3.651   0.567  1.5828  1.2554  1.4855
  784MPD2     N11621   4.723   3.939   0.422  0.3745 -0.1460 -0.1670
  784MPD2    H511622   4.702   4.037   0.405  0.2376 -0.0595  0.4968
  784MPD2    N111623   0.448   4.059   0.418 -0.6978  0.2334 -0.2977
  784MPD2    H711624   0.407   4.148   0.393  0.3278  0.8707  0.2681
  785MPD2     C11625   0.434   1.618  10.660  0.8383  0.6176  0.1954
  785MPD2    C111626   0.325   1.701  10.674  0.1319  0.1321 -0.1309
  785MPD2    C211627   0.206   1.654  10.620  0.4975  0.8561 -0.5814
  785MPD2    C311628   0.195   1.523  10.564 -0.7257 -1.0442  0.2852
  785MPD2    C411629   0.300   1.441  10.569  0.4095  0.1408  0.1543
  785MPD2    C511630   0.420   1.491  10.611  0.7445  0.2774 -0.4147
  785MPD2     H11631   0.120   1.717  10.606 -0.0835 -0.0175 -0.9608
  785MPD2    H111632   0.298   1.336  10.539  0.0783 -0.2614  1.5901
  785MPD2    H211633   0.530   1.654  10.695 -0.1175  3.9923 -0.6532
  785MPD2    H311634   0.508   1.429  10.600  0.9519  0.2194  1.6225
  785MPD2     N11635   0.070   1.504  10.494  0.2663  0.3592  0.5810
  785MPD2    H511636   0.001   1.577  10.502 -1.5554 -1.1217 -1.3709
  785MPD2    N111637   0.342   1.830  10.722  0.0379 -0.1580  0.0983
  785MPD2    H711638   0.437   1.861  10.741 -0.2543  0.7822  0.0364
  786MPD2     C11639   4.069   0.655  14.915  0.4324 -0.0095  0.0035
  786MPD2    C111640   4.090   0.524  14.948  0.8421 -0.1964 -0.2725
  786MPD2    C211641   4.133   0.493  15.078  0.7604  0.2320  0.3425
  786MPD2    C311642   4.182   0.591  15.164 -0.0947  0.0278  0.2484
  786MPD2    C411643   4.172   0.720  15.118 -0.3007  0.2512 -0.3323
  786MPD2    C511644   4.113   0.752  14.996 -0.0941 -0.2471 -0.0213
  786MPD2     H11645   4.149   0.393  15.115 -2.3643 -0.3614  0.1163
  786MPD2    H111646   4.202   0.796  15.190 -3.6986  0.2977  1.0565
  786MPD2    H211647   4.021   0.690  14.824 -1.9253 -0.3264  1.1299
  786MPD2    H311648   4.086   0.854  14.974 -1.4853 -0.6719 -0.2706
  786MPD2     N11649   4.226   0.572  15.300  0.4804 -0.2487 -0.1782
  786MPD2    H511650   4.261   0.657  15.344  0.8114 -0.4668 -0.0230
  786MPD2    N111651   4.076   0.407  14.865 -0.1593  0.7092 -0.5816
  786MPD2    H711652   4.107   0.324  14.915  0.1609  0.2181 -1.6147
  787MPD2     C11653   4.168   4.716  15.191  1.0219  0.3765 -0.3894
  787MPD2    C111654   4.137   4.637  15.080  0.7271 -0.2062  0.0874
  787MPD2    C211655   4.164   4.502  15.085 -0.1822  0.1391  0.9479
  787MPD2    C311656   4.228   4.441  15.196  0.1215 -0.2780 -0.4912
  787MPD2    C411657   4.264   4.524  15.299 -0.3001  0.5657 -0.9964
  787MPD2    C511658   4.235   4.658  15.300  0.5526 -0.0385  0.5763
  787MPD2     H11659   4.132   4.444  15.000  0.4394  2.3760 -0.7987
  787MPD2    H111660   4.303   4.485  15.392  1.4350 -1.0340 -2.4031
  787MPD2    H211661   4.151   0.085  15.192 -0.7448  0.0938 -0.1049
  787MPD2    H311662   4.246   4.714  15.392  0.9514  0.7896  0.0353
  787MPD2     N11663   4.275   4.307  15.192 -0.2763 -0.0070 -0.0032
  787MPD2    H511664   4.271   4.264  15.100 -2.6860 -0.0610  0.1125
  787MPD2    N111665   4.080   4.701  14.967  0.2913 -0.5637  0.2517
  787MPD2    H711666   4.035   0.052  14.985 -0.7195 -0.2930 -3.4275
  788MPD2     C11667   1.066   3.190   1.232 -0.3621 -0.1205 -0.9392
  788MPD2    C111668   1.013   3.096   1.159  0.0587 -0.8941 -0.1991
  788MPD2    C211669   0.965   3.123   1.034  0.3236 -0.3859 -0.4983
  788MPD2    C311670   0.988   3.248   0.978 -0.3023 -0.5642  0.2355
  788MPD2    C411671   1.045   3.346   1.058  0.1373  0.5316 -0.4627
  788MPD2    C511672   1.089   3.310   1.185 -0.4915 -0.3061 -0.7501
  788MPD2     H11673   0.926   3.046   0.968 -0.3923  0.0161 -0.5412
  788MPD2    H111674   1.068   3.447   1.025 -1.9803  2.0433  2.7275
  788MPD2    H211675   1.097   3.159   1.332 -0.9291 -0.8167 -0.9799
  788MPD2    H311676   1.131   3.386   1.251  0.5032 -0.1215 -1.5979
  788MPD2     N11677   0.947   3.273   0.849 -0.2132 -0.2495  0.4233
  788MPD2    H511678   0.903   3.197   0.797  1.3906 -1.3740  0.7163
  788MPD2    N111679   0.995   2.974   1.213 -0.4434  0.4391  0.5540
  788MPD2    H711680   1.027   2.970   1.309 -1.0422 -0.9760  0.6885
  789MPD2     C11681   1.423   2.615  16.522 -0.3178 -0.1332  0.3195
  789MPD2    C111682   1.363   2.536  16.617 -0.0654 -0.6154  0.2523
  789MPD2    C211683   1.235   2.573  16.647 -0.4707 -0.8379  0.1050
  789MPD2    C311684   1.168   2.686  16.606 -0.7133  1.1691  0.3574
  789MPD2    C411685   1.232   2.757  16.509  0.2026 -0.2467 -0.3793
  789MPD2    C511686   1.359   2.723  16.463 -0.4136  0.1436  0.3771
  789MPD2     H11687   1.188   2.514  16.725 -2.7318  0.4900 -0.2581
  789MPD2    H111688   1.189   2.842  16.457  1.3524  0.4480 -0.2021
  789MPD2    H211689   1.523   2.585  16.493 -0.1720  0.6615  0.0125
  789MPD2    H311690   1.399   2.787  16.386 -0.9346 -0.0016 -0.0121
  789MPD2     N11691   1.042   2.729  16.665 -0.5928 -0.6346 -0.0117
  789MPD2    H511692   1.001   2.816  16.633  3.0866  0.0051 -3.0109
  789MPD2    N111693   1.421   2.426  16.682 -0.0390  0.2772  0.1037
  789MPD2    H711694   1.364   2.375  16.749  0.8739 -0.4101  0.3641
  790MPD2     C11695   2.134   4.454  13.759 -0.4255  0.4824 -0.5606
  790MPD2    C111696   2.186   4.351  13.690 -0.4876  0.3913 -0.0318
  790MPD2    C211697   2.191   4.360  13.552  0.3324  0.9293 -0.7210
  790MPD2    C311698   2.135   4.472  13.486 -0.2831  0.4106  0.1847
  790MPD2    C411699   2.087   4.583  13.562  0.8000  0.9294 -0.2936
  790MPD2    C511700   2.090   4.570  13.700  0.1414 -0.4594 -0.4170
  790MPD2     H11701   2.222   4.278  13.488  0.5998 -0.9231  1.7710
  790MPD2    H111702   2.057   4.675  13.513  0.0474  1.6430  1.5101
  790MPD2    H211703   2.137   4.447  13.867 -2.0387  1.5903 -0.4427
  790MPD2    H311704   2.035   4.642  13.759  2.0758  1.7052 -1.2800
  790MPD2     N11705   2.135   4.477  13.347 -0.9781  0.2206  0.2398
  790MPD2    H511706   2.164   4.391  13.301  1.0846  0.4917  1.0416
  790MPD2    N111707   2.221   4.228  13.754 -0.2402  0.2061  0.2631
  790MPD2    H711708   2.232   4.222  13.855 -1.0626  0.2804  0.3603
  791MPD2     C11709   1.584   4.712  12.815  0.6709 -0.0078 -0.4531
  791MPD2    C111710   1.608   4.578  12.834 -0.4431 -0.3894 -0.1655
  791MPD2    C211711   1.548   4.478  12.761  0.2376 -0.7161 -0.0931
  791MPD2    C311712   1.443   4.514  12.681  0.3176 -0.1365  0.2162
  791MPD2    C411713   1.411   4.646  12.664 -0.5380  0.2873  0.0785
  791MPD2    C511714   1.478   0.013  12.737 -0.1954  0.5925  0.0520
  791MPD2     H11715   1.577   4.374  12.762 -1.6729 -1.2317  1.2545
  791MPD2    H111716   1.332   4.669  12.593 -0.2093  1.0331 -0.0415
  791MPD2    H211717   1.647   0.056  12.846  1.2224 -0.0771 -1.4182
  791MPD2    H311718   1.454   0.117  12.719  2.0049  0.8937 -1.1093
  791MPD2     N11719   1.377   4.403  12.620 -0.0360  0.1260  0.2520
  791MPD2    H511720   1.395   4.311  12.660 -0.2953 -0.2998 -0.6034
  791MPD2    N111721   1.726   4.553  12.913 -0.3250  0.3472 -0.0622
  791MPD2    H711722   1.769   4.631  12.962 -2.2641  0.4660  1.4431
  792MPD2     C11723   2.626   4.165  11.243  0.2110 -0.9245  0.5964
  792MPD2    C111724   2.534   4.199  11.151 -0.5819  0.0410  0.3308
  792MPD2    C211725   2.402   4.162  11.180 -0.1033  0.7507  0.3655
  792MPD2    C311726   2.365   4.101  11.297 -0.7226  0.4333 -0.1903
  792MPD2    C411727   2.460   4.064  11.391  0.0247  0.2262  0.6402
  792MPD2    C511728   2.589   4.099  11.359 -0.4922 -0.2160 -0.8169
  792MPD2     H11729   2.330   4.184  11.101  0.9854 -0.9026 -1.0982
  792MPD2    H111730   2.441   4.010  11.483  0.1971 -0.6186  0.1891
  792MPD2    H211731   2.732   4.184  11.228  0.2844 -2.5669 -0.9545
  792MPD2    H311732   2.663   4.078  11.435  0.6745  0.1413 -1.8656
  792MPD2     N11733   2.226   4.068  11.319 -0.1939 -0.3185 -0.3223
  792MPD2    H511734   2.211   3.986  11.377  0.5032 -0.3605 -0.2028
  792MPD2    N111735   2.573   4.248  11.025 -0.2683 -0.3658  0.4381
  792MPD2    H711736   2.670   4.229  11.000  0.0773 -0.1327  1.5880
  793MPD2     C11737   1.521   4.177  10.693 -0.0195  0.3406 -0.4602
  793MPD2    C111738   1.652   4.152  10.700  0.5418 -0.1477  0.3101
  793MPD2    C211739   1.710   4.138  10.823  0.6716 -0.6159 -0.0412
  793MPD2    C311740   1.640   4.170  10.939  0.2239 -0.6938  0.2507
  793MPD2    C411741   1.506   4.179  10.932  0.3983  0.0684  0.1535
  793MPD2    C511742   1.446   4.182  10.805 -0.5307 -0.6168 -0.1158
  793MPD2     H11743   1.815   4.112  10.824  0.4509 -1.5446 -0.7851
  793MPD2    H111744   1.445   4.194  11.020  1.9922 -2.1663  1.6225
  793MPD2    H211745   1.468   4.189  10.599 -0.9993  1.8127  0.2715
  793MPD2    H311746   1.338   4.193  10.801 -0.6318 -0.5447  2.3283
  793MPD2     N11747   1.709   4.164  11.063  0.2392  0.5420 -0.1879
  793MPD2    H511748   1.808   4.147  11.049 -0.1863 -0.1652 -2.2802
  793MPD2    N111749   1.740   4.130  10.588 -0.4820 -0.1113 -0.7901
  793MPD2    H711750   1.841   4.131  10.595 -0.5530  2.5457 -0.0318
  794MPD2     C11751   1.904   3.379   0.012  0.1198 -0.8467  0.6485
  794MPD2    C111752   1.946   3.274  17.674 -0.6752  0.0932  0.2395
  794MPD2    C211753   1.870   3.261  17.557 -0.4564 -0.4004  0.1303
  794MPD2    C311754   1.765   3.344  17.527  0.3278 -0.3795  0.4376
  794MPD2    C411755   1.725   3.436  17.622  0.1078 -0.7172  0.1156
  794MPD2    C511756   1.793   3.459  17.731 -0.0112 -0.3612 -0.1436
  794MPD2     H11757   1.911   3.192  17.484 -1.4976  0.8142 -1.5868
  794MPD2    H111758   1.638   3.495  17.600  0.9272  0.7362  0.7894
  794MPD2    H211759   1.958   3.407   0.102  0.5202 -0.7316  0.3724
  794MPD2    H311760   1.762   3.531   0.056  0.3424 -1.8161  1.4248
  794MPD2     N11761   1.698   3.356  17.402  0.0754 -0.4979 -0.0446
  794MPD2    H511762   1.640   3.438  17.388 -1.1894 -1.7759 -2.3329
  794MPD2    N111763   2.061   3.196  17.708  0.4351  0.1625  0.5022
  794MPD2    H711764   2.096   3.123  17.646 -1.4459 -0.2653 -0.0482
  795MPD2     C11765   4.503   1.429  13.457 -0.1493  0.1042 -0.5475
  795MPD2    C111766   4.438   1.305  13.447 -0.2142  0.1897 -0.3977
  795MPD2    C211767   4.509   1.188  13.479  0.0334  0.0453 -0.0231
  795MPD2    C311768   4.635   1.199  13.522 -0.7389  0.2285  0.3171
  795MPD2    C411769   4.697   1.323  13.524 -0.0970  0.3368  0.0177
  795MPD2    C511770   4.637   1.432  13.489 -0.1157 -0.2421  0.1085
  795MPD2     H11771   4.462   1.092  13.463  0.1816 -0.0304 -0.0007
  795MPD2    H111772   0.065   1.330  13.548 -0.3500 -4.2114  2.3567
  795MPD2    H211773   4.460   1.526  13.435 -0.6898  0.4072  1.8237
  795MPD2    H311774   4.702   1.517  13.474  0.5530 -0.6922  0.4366
  795MPD2     N11775   4.713   1.086  13.560  0.4689 -0.0509  0.2434
  795MPD2    H511776   0.067   1.109  13.597  0.4297 -2.7987  1.9959
  795MPD2    N111777   4.302   1.292  13.404  0.2250 -0.1868  0.7720
  795MPD2    H711778   4.265   1.200  13.384  0.8457  0.7112 -4.5106
  796MPD2     C11779   3.912   2.484  15.609 -0.8640  0.4001 -0.0929
  796MPD2    C111780   3.950   2.576  15.700 -0.5686 -0.5543 -0.1832
  796MPD2    C211781   3.927   2.711  15.692  0.5685 -0.6835  0.3299
  796MPD2    C311782   3.858   2.757  15.580 -0.3930  0.0028 -0.1027
  796MPD2    C411783   3.806   2.668  15.488 -0.1193  0.6270  0.1876
  796MPD2    C511784   3.823   2.527  15.514  0.4856 -0.4451  0.3041
  796MPD2     H11785   3.952   2.791  15.761  1.3175  0.3121 -1.0973
  796MPD2    H111786   3.743   2.698  15.405  0.5599  0.7731 -0.2757
  796MPD2    H211787   3.937   2.379  15.613  1.8026  1.1075  2.2560
  796MPD2    H311788   3.771   2.467  15.440 -0.6304  2.0375 -0.9347
  796MPD2     N11789   3.830   2.894  15.575 -0.3419 -0.0651  0.1748
  796MPD2    H511790   3.874   2.952  15.645 -0.1240 -0.1329  0.0924
  796MPD2    N111791   3.987   2.525  15.825 -0.7256 -0.6368  0.2050
  796MPD2    H711792   4.009   2.426  15.825  1.3508 -0.1822 -1.3549
  797MPD2     C11793   0.666   1.934  17.054  0.0187 -0.4980 -0.0858
  797MPD2    C111794   0.531   1.959  17.073 -0.2113  0.4004 -0.9939
  797MPD2    C211795   0.461   2.003  16.967  0.1228  0.5066 -0.8914
  797MPD2    C311796   0.514   2.033  16.835  0.1990  0.0915 -0.2141
  797MPD2    C411797   0.646   2.006  16.819  0.5524  0.6939  0.3510
  797MPD2    C511798   0.721   1.950  16.928  0.4220  0.4362 -0.0085
  797MPD2     H11799   0.359   2.037  16.987 -0.2522 -2.0630  1.5132
  797MPD2    H111800   0.698   2.025  16.725  0.6913 -1.5492 -0.0319
  797MPD2    H211801   0.729   1.896  17.134  1.6066  0.5544 -0.8591
  797MPD2    H311802   0.826   1.923  16.917  0.7501  0.6972  2.4435
  797MPD2     N11803   0.423   2.077  16.739  0.0279 -0.0696 -0.0049
  797MPD2    H511804   0.331   2.089  16.778 -0.2619 -1.0045 -0.3956
  797MPD2    N111805   0.464   1.938  17.197  0.0693  0.2228 -0.0327
  797MPD2    H711806   0.364   1.956  17.195  0.0028 -0.1741 -0.2425
  798MPD2     C11807   4.666   2.397  17.083  0.0045 -0.1011  0.1714
  798MPD2    C111808   0.005   2.297  17.025 -0.0546 -0.2078 -0.4102
  798MPD2    C211809   0.059   2.200  17.111  0.1607 -0.6371  0.4703
  798MPD2    C311810   0.041   2.211  17.247  0.7778 -0.2908  0.5016
  798MPD2    C411811   4.711   2.311  17.307 -0.0034 -0.6231  0.0209
  798MPD2    C511812   4.642   2.403  17.222  0.2982  0.2704 -0.1704
  798MPD2     H11813   0.107   2.108  17.081  0.6853 -0.4300  0.6682
  798MPD2    H111814   4.707   2.318  17.415 -1.0387  1.2401 -0.1322
  798MPD2    H211815   4.620   2.466  17.014 -1.7651 -1.4468 -0.0153
  798MPD2    H311816   4.568   2.468  17.266  0.4968  0.8632 -0.7308
  798MPD2     N11817   0.109   2.109  17.319  0.0179  0.2312  0.2044
  798MPD2    H511818   0.166   2.043  17.267 -0.7577  1.5462 -2.3236
  798MPD2    N111819   0.020   2.293  16.887 -0.3623  0.8504  0.0635
  798MPD2    H711820   4.699   2.356  16.833 -1.2500 -0.1416 -0.1336
  799MPD2     C11821   3.997   4.140  14.630 -0.0553  0.0938 -0.2481
  799MPD2    C111822   3.909   4.035  14.596 -0.3436  0.6288 -0.0313
  799MPD2    C211823   3.834   4.055  14.482  0.5092  0.5584  0.5855
  799MPD2    C311824   3.835   4.175  14.407  0.6062 -0.0783  0.1289
  799MPD2    C411825   3.924   4.275  14.443  0.6782 -0.3069  0.4078
  799MPD2    C511826   3.998   4.254  14.554 -0.2429  0.3973 -0.1418
  799MPD2     H11827   3.766   3.981  14.442  2.2675 -1.1663  0.7529
  799MPD2    H111828   3.931   4.374  14.398 -0.1230 -0.0316  0.8957
  799MPD2    H211829   4.057   4.134  14.720 -1.6142 -1.6038  0.6963
  799MPD2    H311830   4.067   4.331  14.585 -0.2134  0.4417 -0.3166
  799MPD2     N11831   3.758   4.190  14.285 -0.3138 -0.6706 -0.0844
  799MPD2    H511832   3.775   4.279  14.241 -0.4630 -0.9856 -0.7837
  799MPD2    N111833   3.894   3.907  14.664  0.4205  0.1134  0.0698
  799MPD2    H711834   3.826   3.839  14.631 -1.5399  2.3418 -0.4777
  800MPD2     C11835   4.221   0.602  14.394 -0.5950 -0.0586 -0.0962
  800MPD2    C111836   4.294   0.494  14.356 -0.0035  0.0251  0.0089
  800MPD2    C211837   4.228   0.378  14.301 -0.0484 -0.0119 -0.7057
  800MPD2    C311838   4.089   0.387  14.261  0.5657 -0.1578 -0.2298
  800MPD2    C411839   4.028   0.508  14.285 -0.4661 -0.1623  0.6717
  800MPD2    C511840   4.085   0.604  14.367 -0.2243  0.2257 -0.0836
  800MPD2     H11841   4.286   0.294  14.264 -4.4287 -2.6331 -1.5182
  800MPD2    H111842   3.925   0.531  14.261 -0.2861 -1.3607 -1.2247
  800MPD2    H211843   4.260   0.680  14.458  0.3614  0.6150 -1.5073
  800MPD2    H311844   4.028   0.686  14.409 -0.2663 -0.1906  0.6957
  800MPD2     N11845   4.035   0.290  14.175 -0.0683 -0.3424  0.0274
  800MPD2    H511846   3.972   0.316  14.099  1.8116 -0.6540 -1.6127
  800MPD2    N111847   4.436   0.514  14.358  0.0939  0.6696 -0.3085
  800MPD2    H711848   4.482   0.604  14.351  1.0685  0.2931  1.2024
  801MPD2     C11849   4.562   0.948  13.882 -0.4437  0.1475 -0.4095
  801MPD2    C111850   4.675   0.929  13.964 -0.1355 -0.4419  0.2096
  801MPD2    C211851   0.024   1.032  13.988  0.2567  0.1527 -0.2910
  801MPD2    C311852   4.731   1.159  13.939 -0.4618  0.4690  0.0874
  801MPD2    C411853   4.627   1.176  13.856  0.4367 -0.4173 -0.6214
  801MPD2    C511854   4.542   1.075  13.841 -0.4197  0.3246 -0.0790
  801MPD2     H11855   0.115   1.015  14.044 -0.4872  0.1293  0.9052
  801MPD2    H111856   4.598   1.274  13.821 -1.0688  0.1488  2.2586
  801MPD2    H211857   4.491   0.872  13.853  0.4041 -0.0810 -1.8693
  801MPD2    H311858   4.451   1.092  13.786 -0.4356  2.2433  0.5460
  801MPD2     N11859   0.085   1.263  13.927 -0.4242  0.0676 -0.2638
  801MPD2    H511860   0.058   1.329  13.855  0.3170  0.6467 -0.0155
  801MPD2    N111861   4.680   0.796  14.020 -0.4566  0.1668 -0.2255
  801MPD2    H711862   4.615   0.729  13.979 -0.2709 -0.1212 -0.0522
  802MPD2     C11863   3.731   0.251  17.084  0.6072 -0.0638  0.1581
  802MPD2    C111864   3.861   0.300  17.089 -0.2810 -0.0409 -0.6327
  802MPD2    C211865   3.955   0.224  17.022  0.7122  0.4202  0.8258
  802MPD2    C311866   3.921   0.111  16.949 -0.5247  0.0914 -0.6698
  802MPD2    C411867   3.793   0.074  16.933  0.0735  0.9097  0.7883
  802MPD2    C511868   3.701   0.152  16.992  0.0253  0.2288 -0.0547
  802MPD2     H11869   4.058   0.256  17.031  1.5305 -2.3520  1.5241
  802MPD2    H111870   3.770   4.731  16.865  0.2911  2.3919 -1.0675
  802MPD2    H211871   3.649   0.299  17.136  0.1395 -0.7083  0.0147
  802MPD2    H311872   3.597   0.126  16.974  0.0986 -0.5168  0.5798
  802MPD2     N11873   4.023   0.036  16.884 -0.6273 -0.6383  0.0621
  802MPD2    H511874   4.115   0.080  16.883 -0.7390 -0.3800  1.2622
  802MPD2    N111875   3.891   0.427  17.150 -0.1887 -0.2306 -0.0639
  802MPD2    H711876   3.987   0.457  17.135 -0.8262  1.0255 -1.5738
  803MPD2     C11877   0.276   0.205  11.856  0.0858 -0.1002 -0.5039
  803MPD2    C111878   0.364   0.172  11.954 -1.0056  0.8465  0.5241
  803MPD2    C211879   0.331   0.077  12.053  0.1336  0.2089  0.2113
  803MPD2    C311880   0.211   0.002  12.038  0.0731  0.5173 -0.5984
  803MPD2    C411881   0.129   0.027  11.932 -0.4380  0.3780  0.6916
  803MPD2    C511882   0.165   0.119  11.840 -0.1051  0.2104 -0.1102
  803MPD2     H11883   0.409   0.060  12.126  0.0834  1.0665  0.4701
  803MPD2    H111884   0.038   4.709  11.914 -0.1005 -1.0394  3.4067
  803MPD2    H211885   0.294   0.280  11.780  1.5031  0.3942  0.3186
  803MPD2    H311886   0.101   0.146  11.757 -0.4780  1.6435  0.6420
  803MPD2     N11887   0.162   4.648  12.135 -0.1330  0.0210 -0.2799
  803MPD2    H511888   0.078   4.597  12.107 -0.9051  0.3116  1.5006
  803MPD2    N111889   0.482   0.240  11.975 -0.4644  0.5431  0.2269
  803MPD2    H711890   0.538   0.199  12.048 -1.0223 -0.1208  0.2751
  804MPD2     C11891   4.614   0.533  16.939  1.0869 -0.2332  0.0387
  804MPD2    C111892   4.591   0.496  17.074  0.3289  0.0994 -0.0949
  804MPD2    C211893   4.629   0.583  17.174  0.0827  0.4516  0.2595
  804MPD2    C311894   4.719   0.684  17.148 -0.0436  0.3312  0.2589
  804MPD2    C411895   0.022   0.703  17.013  0.4907 -0.1257  0.1497
  804MPD2    C511896   4.699   0.636  16.909 -0.1805  0.7390  0.0729
  804MPD2     H11897   4.608   0.561  17.278  1.4362  1.4209  0.7457
  804MPD2    H111898   0.098   0.775  16.986 -1.6224  1.7913 -0.7487
  804MPD2    H211899   4.561   0.479  16.861  1.1571  0.5556 -0.5491
  804MPD2    H311900   4.710   0.664  16.805 -1.7489 -0.3569 -0.3844
  804MPD2     N11901   0.041   0.765  17.244 -0.0608 -0.6670 -0.5464
  804MPD2    H511902   0.101   0.841  17.216 -2.2224  1.3325  0.2693
  804MPD2    N111903   4.518   0.387  17.117  0.7491  0.6848 -0.0765
  804MPD2    H711904   4.517   0.379  17.218 -0.4356 -0.1447 -0.1556
  805MPD2     C11905   3.494   4.238  15.475 -0.6444  1.0030 -0.1643
  805MPD2    C111906   3.624   4.231  15.433 -0.3756  0.3556 -0.7082
  805MPD2    C211907   3.724   4.238  15.535 -0.1964 -0.4042 -0.2121
  805MPD2    C311908   3.692   4.262  15.669  0.4451  0.6421  0.2319
  805MPD2    C411909   3.559   4.272  15.693  0.2826  0.0784  0.0664
  805MPD2    C511910   3.458   4.263  15.606  0.2921  0.5800  0.6218
  805MPD2     H11911   3.827   4.240  15.499  0.5324  0.0520  1.9265
  805MPD2    H111912   3.534   4.302  15.794  1.0048  0.2427  0.1984
  805MPD2    H211913   3.418   4.228  15.398  0.0963  5.2475 -1.4120
  805MPD2    H311914   3.355   4.286  15.629 -0.7021 -3.0086 -0.2509
  805MPD2     N11915   3.796   4.279  15.769 -0.5300 -0.0548  0.6057
  805MPD2    H511916   3.892   4.280  15.736 -0.5342 -2.0936  0.5252
  805MPD2    N111917   3.662   4.206  15.302 -0.0700 -0.2252 -0.2490
  805MPD2    H711918   3.761   4.200  15.280 -0.1079 -1.6891 -0.0143
  806MPD2     C11919   4.274   3.636   0.827 -0.1261 -0.5939 -0.0564
  806MPD2    C111920   4.390   3.677   0.778  0.0719 -0.6431  0.7696
  806MPD2    C211921   4.419   3.639   0.645 -0.2709 -0.3363  0.3070
  806MPD2    C311922   4.336   3.560   0.573  1.0269  0.7147  0.5420
  806MPD2    C411923   4.217   3.518   0.632  0.2344  0.7555 -0.1823
  806MPD2    C511924   4.189   3.558   0.764  1.0460  0.0424  1.0297
  806MPD2     H11925   4.514   3.670   0.602  1.2399 -2.9040  1.7929
  806MPD2    H111926   4.147   3.450   0.585 -0.1563  0.7814  0.3620
  806MPD2    H211927   4.243   3.676   0.923 -0.2372 -1.7748  0.3971
  806MPD2    H311928   4.091   3.543   0.807 -0.1340 -2.1486 -2.4063
  806MPD2     N11929   4.370   3.531   0.434  0.1208  0.0091  0.7050
  806MPD2    H511930   4.465   3.554   0.406  0.0128  0.2864  0.5679
  806MPD2    N111931   4.477   3.758   0.853 -0.0521 -0.5013 -0.4161
  806MPD2    H711932   4.448   3.779   0.948 -1.5969 -1.8030 -0.6115
  807MPD2     C11933   4.401   4.153   1.416 -0.1483  0.1463  0.4534
  807MPD2    C111934   4.387   4.042   1.331  0.5729 -0.2479  0.1914
  807MPD2    C211935   4.276   3.968   1.347 -0.3362 -0.2272 -0.5993
  807MPD2    C311936   4.182   3.990   1.447  0.6682 -0.4048  0.5891
  807MPD2    C411937   4.191   4.101   1.523 -0.4612 -0.4471 -0.6624
  807MPD2    C511938   4.304   4.177   1.507  0.7209 -0.1824 -0.0775
  807MPD2     H11939   4.264   3.885   1.279 -1.0374 -1.3580  0.8984
  807MPD2    H111940   4.120   4.124   1.601  0.1685 -0.2381 -0.1487
  807MPD2    H211941   4.479   4.228   1.418 -0.0648  0.0846 -0.5133
  807MPD2    H311942   4.319   4.268   1.563 -0.8102  1.7657 -2.8334
  807MPD2     N11943   4.077   3.893   1.468  0.0802  0.4244  0.0948
  807MPD2    H511944   4.080   3.808   1.413 -1.1663 -0.6883  1.7642
  807MPD2    N111945   4.480   3.999   1.240  0.0397 -0.4033  0.0905
  807MPD2    H711946   4.467   3.910   1.193  0.3975  0.4238 -1.5574
  808MPD2     C11947   4.173   0.648   9.280  0.6807  0.2502 -0.2729
  808MPD2    C111948   4.201   0.669   9.414 -0.4859  0.0806  0.4141
  808MPD2    C211949   4.205   0.803   9.464 -0.2312 -0.8136 -0.0142
  808MPD2    C311950   4.197   0.908   9.374 -0.0258  0.4610  0.1605
  808MPD2    C411951   4.175   0.885   9.242  0.0846 -0.6021  0.2008
  808MPD2    C511952   4.168   0.757   9.194 -0.3758 -0.8261  1.0410
  808MPD2     H11953   4.230   0.828   9.566  2.1689 -0.4143 -0.6980
  808MPD2    H111954   4.186   0.972   9.178  0.7312 -1.1115 -0.3795
  808MPD2    H211955   4.178   0.553   9.228 -1.2300  0.0014 -0.0252
  808MPD2    H311956   4.151   0.743   9.088 -0.5183  2.7283  0.6126
  808MPD2     N11957   4.217   1.039   9.419  0.1938  0.8174 -0.5486
  808MPD2    H511958   4.236   1.109   9.348 -0.1737  0.4697 -0.9858
  808MPD2    N111959   4.218   0.564   9.507  0.3252 -0.5029 -0.5143
  808MPD2    H711960   4.240   0.594   9.601  1.0840  0.9390 -1.1441
  809MPD2     C11961   0.305   1.274   9.378  0.0497  0.6582 -0.2303
  809MPD2    C111962   0.257   1.221   9.498 -0.9908 -0.5854 -0.9072
  809MPD2    C211963   0.124   1.244   9.537 -0.2128  0.0412 -0.1877
  809MPD2    C311964   0.038   1.318   9.453 -0.5259  0.7442 -0.7441
  809MPD2    C411965   0.088   1.375   9.340  0.1587  0.4662  0.2069
  809MPD2    C511966   0.219   1.347   9.306 -0.0845  0.4415 -0.4339
  809MPD2     H11967   0.088   1.188   9.623 -3.5631  1.0419 -0.9572
  809MPD2    H111968   0.034   1.447   9.280 -0.9850 -0.7470 -0.2368
  809MPD2    H211969   0.405   1.254   9.341 -1.5571 -3.5736 -2.3633
  809MPD2    H311970   0.252   1.379   9.208  2.7662 -2.8503 -0.5256
  809MPD2     N11971   4.637   1.340   9.484  0.0771 -0.5560  0.2694
  809MPD2    H511972   4.583   1.381   9.409  1.7440 -0.7297 -1.0127
  809MPD2    N111973   0.337   1.157   9.593  0.1162 -0.4466 -0.1244
  809MPD2    H711974   0.290   1.129   9.679 -0.3338 -0.7489 -0.4722
  810MPD2     C11975   3.955   3.659  10.613  0.6390 -0.4661  0.2288
  810MPD2    C111976   3.955   3.762  10.527 -1.2755 -0.0770 -0.3196
  810MPD2    C211977   4.008   3.888  10.569 -0.4170  0.5331  0.0990
  810MPD2    C311978   4.075   3.904  10.688  0.0916  0.8490 -0.2691
  810MPD2    C411979   4.081   3.787  10.771  0.2491  0.4962  0.4200
  810MPD2    C511980   4.025   3.665  10.728  0.0064 -0.5392 -0.0782
  810MPD2     H11981   4.018   3.963  10.491 -0.8728  1.5986  1.0736
  810MPD2    H111982   4.129   3.801  10.867  0.5004  1.1430  0.1986
  810MPD2    H211983   3.897   3.571  10.587  0.8094 -0.8071  1.0071
  810MPD2    H311984   4.035   3.588  10.804  1.0076 -0.4223 -0.0930
  810MPD2     N11985   4.126   4.028  10.741  0.1291 -0.0628 -0.3153
  810MPD2    H511986   4.163   4.031  10.835 -0.8868 -0.8268  0.1168
  810MPD2    N111987   3.910   3.734  10.397  0.4870  0.3347 -0.6182
  810MPD2    H711988   3.886   3.636  10.382  1.6651  0.1481 -1.2342
  811MPD2     C11989   3.665   3.806   9.510 -0.0714  0.0514 -0.2881
  811MPD2    C111990   3.713   3.876   9.619  1.0572  0.2106 -0.1282
  811MPD2    C211991   3.799   3.976   9.588 -0.1122  0.6460 -0.1385
  811MPD2    C311992   3.817   4.025   9.459  0.2639 -0.0831  0.2275
  811MPD2    C411993   3.758   3.956   9.354 -0.2182 -0.1973  0.1970
  811MPD2    C511994   3.695   3.842   9.384  0.2487 -0.1063 -0.9609
  811MPD2     H11995   3.844   4.034   9.668  0.7169  0.4437 -0.4528
  811MPD2    H111996   3.778   3.983   9.252 -2.6588 -2.7929 -0.9748
  811MPD2    H211997   3.625   3.707   9.531 -0.9226  0.0691 -1.8107
  811MPD2    H311998   3.665   3.782   9.299  3.8694 -1.3023 -1.3686
  811MPD2     N11999   3.880   4.150   9.458  0.1933  0.3936  0.4002
  811MPD2    H512000   3.904   4.194   9.546  3.4568  1.1712 -0.9009
  811MPD2    N112001   3.691   3.822   9.752 -0.3719  0.2239 -0.0136
  811MPD2    H712002   3.653   3.728   9.753  1.6891 -0.6582 -2.4018
  812MPD2     C12003   2.689   3.996  12.344  0.1999 -0.2062 -0.5275
  812MPD2    C112004   2.779   4.102  12.345 -0.7250  0.1021 -0.2479
  812MPD2    C212005   2.885   4.095  12.424  0.7113  0.0590 -0.1249
  812MPD2    C312006   2.910   3.991  12.510  0.5261 -1.1108  0.9787
  812MPD2    C412007   2.822   3.882  12.511 -0.1222  0.4883 -0.3957
  812MPD2    C512008   2.714   3.889  12.428 -0.2616 -0.1526  0.1618
  812MPD2     H12009   2.951   4.181  12.420  2.7720 -1.4619  1.2712
  812MPD2    H112010   2.828   3.795  12.575  0.7900  0.9799  0.1996
  812MPD2    H212011   2.609   3.985  12.272  0.3715 -0.0323 -0.7454
  812MPD2    H312012   2.653   3.800  12.416 -0.2103 -0.2966  0.9806
  812MPD2     N12013   3.019   4.000  12.608  0.2312 -0.3854 -0.4407
  812MPD2    H512014   3.063   4.091  12.614  0.2180 -0.4820  1.2488
  812MPD2    N112015   2.739   4.215  12.263  0.5013 -0.0138 -0.6097
  812MPD2    H712016   2.655   4.201  12.208  0.4046 -1.8880 -0.0086
  813MPD2     C12017   2.062   1.208  12.512  0.6454  0.0228  0.0909
  813MPD2    C112018   2.149   1.316  12.509  0.5301 -0.2001  0.8390
  813MPD2    C212019   2.153   1.414  12.604  0.2675 -0.1255 -0.5092
  813MPD2    C312020   2.056   1.404  12.712  0.3586  0.0203 -0.5115
  813MPD2    C412021   1.966   1.296  12.710 -0.2361 -0.3679 -0.4241
  813MPD2    C512022   1.979   1.195  12.617  0.6580  0.0822  0.0263
  813MPD2     H12023   2.222   1.499  12.605 -1.5158  1.3153  0.6929
  813MPD2    H112024   1.892   1.285  12.788  0.1452  3.1742  0.4678
  813MPD2    H212025   2.068   1.136  12.431 -1.7302 -0.5858  0.4574
  813MPD2    H312026   1.912   1.110  12.626 -2.0513  2.3820  1.5710
  813MPD2     N12027   2.064   1.490  12.819 -0.1946 -0.4415  0.2230
  813MPD2    H512028   2.123   1.573  12.812 -0.7128  0.0097  1.1863
  813MPD2    N112029   2.246   1.341  12.405  0.0618 -0.1968  0.1464
  813MPD2    H712030   2.311   1.418  12.422  0.6234 -0.6330 -0.0342
  814MPD2     C12031   2.443   2.567  12.065 -0.0775  0.4933  0.4154
  814MPD2    C112032   2.509   2.642  11.973  0.3247 -0.0970 -0.0032
  814MPD2    C212033   2.590   2.747  12.009  0.1132 -0.6456  0.5291
  814MPD2    C312034   2.621   2.775  12.138 -0.7225 -1.1677 -1.0602
  814MPD2    C412035   2.573   2.689  12.231  0.3820  0.6882 -0.2360
  814MPD2    C512036   2.478   2.592  12.196  0.6480  0.3301 -0.0836
  814MPD2     H12037   2.635   2.810  11.933 -1.2173  0.5596  0.7549
  814MPD2    H112038   2.598   2.713  12.334  0.3042  0.8610 -0.2571
  814MPD2    H212039   2.370   2.489  12.046 -0.9214  1.2026  0.7394
  814MPD2    H312040   2.444   2.534  12.281 -1.5287  1.7614  0.0073
  814MPD2     N12041   2.696   2.891  12.174  0.0401  0.5013  0.3789
  814MPD2    H512042   2.713   2.896  12.274  0.3900  2.1096  0.2355
  814MPD2    N112043   2.479   2.622  11.834 -0.4652  0.0207 -0.3873
  814MPD2    H712044   2.534   2.683  11.774 -0.3042 -1.3850 -1.6960
  815MPD2     C12045   3.127   0.210  11.706  0.0483  0.1925  0.2309
  815MPD2    C112046   3.029   0.224  11.608 -0.1279 -0.0013  0.5422
  815MPD2    C212047   2.903   0.259  11.644 -0.2585 -0.2327 -0.0661
  815MPD2    C312048   2.868   0.274  11.777  0.3069 -0.5297 -0.4622
  815MPD2    C412049   2.971   0.279  11.871 -1.0622 -0.1293  0.2708
  815MPD2    C512050   3.094   0.230  11.834  0.6203  0.0999  0.0991
  815MPD2     H12051   2.831   0.273  11.564 -0.1845 -0.5398 -0.1864
  815MPD2    H112052   2.962   0.287  11.978 -1.3888  1.7375  0.1038
  815MPD2    H212053   3.231   0.201  11.676 -0.9803 -2.0454 -2.6272
  815MPD2    H312054   3.166   0.209  11.913  0.5651  2.0849  0.6863
  815MPD2     N12055   2.731   0.294  11.813  0.4447  0.3199 -0.4348
  815MPD2    H512056   2.657   0.285  11.745 -0.4565  0.7041  0.5021
  815MPD2    N112057   3.072   0.212  11.471  0.3565 -0.3425  0.7316
  815MPD2    H712058   3.163   0.169  11.457 -1.1508 -2.6849 -1.8842
  816MPD2     C12059   3.029   4.621  17.107 -0.3222 -0.0040  0.1220
  816MPD2    C112060   3.061   0.010  17.067  0.0899 -0.0421  0.5017
  816MPD2    C212061   3.159   0.028  16.962 -0.3009 -0.4746  0.5538
  816MPD2    C312062   3.237   4.657  16.923  0.1228 -0.0254  0.3159
  816MPD2    C412063   3.197   4.528  16.968 -0.4474 -0.1736 -0.6174
  816MPD2    C512064   3.092   4.517  17.054  0.1967  0.7242  0.4409
  816MPD2     H12065   3.189   0.127  16.927 -1.0720 -0.7210 -0.7979
  816MPD2    H112066   3.252   4.441  16.933  0.3350 -0.0920  0.4174
  816MPD2    H212067   2.945   4.606  17.174 -0.9044  1.3646 -0.2931
  816MPD2    H312068   3.076   4.419  17.097  2.8200  0.3086  0.4869
  816MPD2     N12069   3.348   4.680  16.835 -0.2537  0.3027  0.0304
  816MPD2    H512070   3.384   0.035  16.818 -1.2439  0.5963 -0.4313
  816MPD2    N112071   2.980   0.116  17.111 -0.3657  0.2958  0.0133
  816MPD2    H712072   2.896   0.091  17.163 -0.4808 -0.7701 -0.6961
  817MPD2     C12073   3.025   2.229  10.656  0.0315  0.6933  1.2398
  817MPD2    C112074   3.095   2.235  10.534  0.2017 -0.0918  1.7089
  817MPD2    C212075   3.032   2.278  10.421 -0.5869  0.5097 -0.2503
  817MPD2    C312076   2.897   2.301  10.424  0.3528  0.1266  0.2013
  817MPD2    C412077   2.827   2.278  10.548  0.3925  0.0625  0.9586
  817MPD2    C512078   2.894   2.253  10.656  0.3253 -0.0739  1.0208
  817MPD2     H12079   3.088   2.274  10.328  3.5519 -0.6780  2.3078
  817MPD2    H112080   2.723   2.304  10.560 -0.3375 -3.0105  1.0283
  817MPD2    H212081   3.072   2.201  10.750 -0.3365 -0.6611  1.0173
  817MPD2    H312082   2.834   2.244  10.746 -1.0038 -1.1355  0.0462
  817MPD2     N12083   2.831   2.328  10.295  0.3060  0.3762  0.5720
  817MPD2    H512084   2.889   2.313  10.213  1.1109 -0.9755  1.4014
  817MPD2    N112085   3.236   2.195  10.529 -0.2419  0.0777  0.3532
  817MPD2    H712086   3.289   2.211  10.445 -1.9641 -1.7855 -1.0712
  818MPD2     C12087   1.196   1.888   9.936  1.0882  0.5299  0.2992
  818MPD2    C112088   1.122   1.864  10.051  0.5778 -0.0415  0.1705
  818MPD2    C212089   1.111   1.747  10.114 -0.0575  0.3075 -0.6813
  818MPD2    C312090   1.185   1.639  10.064 -0.1334 -0.4611  0.4015
  818MPD2    C412091   1.277   1.662   9.965 -0.0740  0.5278 -0.0701
  818MPD2    C512092   1.293   1.787   9.904 -0.8776  0.2148  0.1362
  818MPD2     H12093   1.047   1.739  10.201  0.8089 -2.0074 -0.2507
  818MPD2    H112094   1.344   1.586   9.929 -0.2584  0.1166  0.4588
  818MPD2    H212095   1.206   1.983   9.884  1.6532 -0.2782 -1.0547
  818MPD2    H312096   1.365   1.809   9.826 -2.2138 -1.5780 -1.6035
  818MPD2     N12097   1.169   1.507  10.120 -0.4476  0.0662  0.2388
  818MPD2    H512098   1.246   1.442  10.104 -0.8089 -0.5766  1.1318
  818MPD2    N112099   1.040   1.966  10.105  0.2748 -0.2335 -0.6563
  818MPD2    H712100   0.978   1.941  10.182  0.3355 -0.5871 -0.7247
  819MPD2     C12101   4.371   3.545  15.675  0.3982  0.5428 -0.0698
  819MPD2    C112102   4.410   3.435  15.604 -0.2371  0.0734  0.5016
  819MPD2    C212103   4.500   3.350  15.665  0.3216  0.6288 -0.1961
  819MPD2    C312104   4.566   3.386  15.788  0.1165 -0.5868  0.6845
  819MPD2    C412105   4.527   3.503  15.849 -0.1966  0.0983 -0.0831
  819MPD2    C512106   4.432   3.579  15.791  0.2774  0.6110 -0.4574
  819MPD2     H12107   4.559   3.286  15.600  2.9891 -0.0127  2.8349
  819MPD2    H112108   4.577   3.548  15.934  0.6633 -0.4843 -0.2725
  819MPD2    H212109   4.306   3.622  15.635  1.4923  1.6304  0.2590
  819MPD2    H312110   4.398   3.671  15.837 -0.6978  1.1135 -2.1907
  819MPD2     N12111   4.663   3.304  15.845  0.6882  0.6215 -0.1001
  819MPD2    H512112   4.700   3.227  15.790  0.2370  1.1674 -1.1740
  819MPD2    N112113   4.355   3.409  15.476 -0.2550 -0.4449  0.1034
  819MPD2    H712114   4.291   3.483  15.445  0.9403  0.6393  0.2251
  820MPD2     C12115   3.505   3.514  14.953 -0.2625  0.1767 -0.1790
  820MPD2    C112116   3.612   3.590  15.000 -0.4863 -0.8957 -0.2108
  820MPD2    C212117   3.734   3.530  15.032 -0.1906 -0.2935  0.0353
  820MPD2    C312118   3.748   3.395  15.026 -0.3594 -0.2669  0.0822
  820MPD2    C412119   3.631   3.322  14.995 -0.2184  0.1838 -0.7594
  820MPD2    C512120   3.516   3.382  14.966  0.0133 -0.0132 -0.6387
  820MPD2     H12121   3.827   3.583  15.049  0.6331 -1.8810  0.5315
  820MPD2    H112122   3.614   3.215  14.991 -2.0815  0.4108  0.8226
  820MPD2    H212123   3.409   3.563  14.944 -1.1317 -1.4576  0.1417
  820MPD2    H312124   3.430   3.316  14.958 -0.2875  0.0873  1.9823
  820MPD2     N12125   3.873   3.335  15.064  0.0086 -0.2866 -0.9080
  820MPD2    H512126   3.868   3.233  15.063 -0.1511 -0.2768 -1.1359
  820MPD2    N112127   3.592   3.728  14.981  0.1905  0.0484  0.1817
  820MPD2    H712128   3.499   3.762  14.959 -0.2394 -0.2559  1.5361
  821MPD2     C12129   4.204   0.643  13.733 -0.4579  0.4478  0.1299
  821MPD2    C112130   4.227   0.531  13.653 -0.1055 -0.5618 -0.1921
  821MPD2    C212131   4.290   0.542  13.531 -0.3897  0.7531 -0.1420
  821MPD2    C312132   4.328   0.670  13.490 -0.0614  0.2099 -0.4590
  821MPD2    C412133   4.290   0.779  13.565 -0.0878 -0.4904  0.2751
  821MPD2    C512134   4.224   0.768  13.682  0.4604 -0.2136 -0.6573
  821MPD2     H12135   4.329   0.449  13.489 -1.7305  0.2444 -0.2761
  821MPD2    H112136   4.309   0.877  13.524 -1.3751  0.4708  1.9794
  821MPD2    H212137   4.154   0.645  13.829 -1.2949  0.5984 -0.3084
  821MPD2    H312138   4.194   0.851  13.744 -1.1055 -0.6691 -0.8026
  821MPD2     N12139   4.401   0.683  13.367 -0.6612  0.4214 -0.2812
  821MPD2    H512140   4.444   0.774  13.358 -0.6768  0.6874  2.3252
  821MPD2    N112141   4.190   0.397  13.689 -0.0869  0.4448 -0.3307
  821MPD2    H712142   4.220   0.323  13.626  0.6974  0.9151 -0.5212
  822MPD2     C12143   0.694   4.542  15.777 -0.7137 -0.0869 -0.3614
  822MPD2    C112144   0.674   4.529  15.910 -0.4684 -0.1605 -0.7680
  822MPD2    C212145   0.614   4.631  15.982 -0.8282 -0.4834  0.8024
  822MPD2    C312146   0.582   0.012  15.911 -0.2078  0.1587  0.0883
  822MPD2    C412147   0.591   0.015  15.770 -0.3944 -0.0624  0.5000
  822MPD2    C512148   0.646   4.646  15.706  0.1607  0.7256 -0.0319
  822MPD2     H12149   0.581   4.634  16.085  1.1908 -0.4397  1.4506
  822MPD2    H112150   0.561   0.105  15.716  0.7544  0.2308  0.3466
  822MPD2    H212151   0.733   4.462  15.715  1.1727  1.7043 -1.4694
  822MPD2    H312152   0.659   4.647  15.598 -1.0198 -0.2186 -0.1745
  822MPD2     N12153   0.510   0.104  15.989 -0.5857  0.1477 -0.1699
  822MPD2    H512154   0.496   0.078  16.086 -0.4073  2.0189  0.3670
  822MPD2    N112155   0.713   4.412  15.982 -0.2542 -0.5950  0.0686
  822MPD2    H712156   0.689   4.401  16.080  0.4096  3.8569  0.7598
  823MPD2     C12157   0.098   0.323  16.673 -0.3495 -0.1172 -0.6680
  823MPD2    C112158   0.135   0.224  16.582 -0.0526  0.3399  0.5441
  823MPD2    C212159   0.152   0.094  16.623  0.5132  0.2167 -0.7274
  823MPD2    C312160   0.143   0.065  16.756 -0.0157 -0.7029  0.0001
  823MPD2    C412161   0.109   0.167  16.846 -1.1631 -0.2159 -0.2638
  823MPD2    C512162   0.091   0.296  16.808  0.0452 -0.1238 -0.3738
  823MPD2     H12163   0.183   0.019  16.551 -0.1969 -0.5178 -0.2552
  823MPD2    H112164   0.106   0.157  16.954  0.6800 -1.3888 -0.3309
  823MPD2    H212165   0.083   0.425  16.642 -2.2147 -0.0113  0.5991
  823MPD2    H312166   0.059   0.372  16.879 -2.0065 -2.5591  1.3494
  823MPD2     N12167   0.175   4.670  16.814 -0.0891  0.1956 -0.3133
  823MPD2    H512168   0.165   4.667  16.914  1.4214  2.0101 -0.0992
  823MPD2    N112169   0.156   0.274  16.450  0.0697  0.1697 -0.1605
  823MPD2    H712170   0.165   0.375  16.448 -3.0736  0.4637  0.8274
  824MPD2     C12171   1.375   3.942  16.015 -0.0405  0.5005  0.2117
  824MPD2    C112172   1.279   3.937  15.921  0.1068 -0.2710 -0.2569
  824MPD2    C212173   1.321   3.912  15.791 -0.0999  0.7932  0.1768
  824MPD2    C312174   1.456   3.889  15.764  0.9870  0.0295  0.4752
  824MPD2    C412175   1.552   3.901  15.855  0.0033  0.0905  1.0709
  824MPD2    C512176   1.505   3.916  15.983  0.0233 -0.2200 -0.3652
  824MPD2     H12177   1.244   3.905  15.715 -0.8785 -3.5259  1.3947
  824MPD2    H112178   1.659   3.885  15.845 -0.0548  0.3386 -0.0020
  824MPD2    H212179   1.356   3.965  16.119 -2.0794 -0.8060  0.1304
  824MPD2    H312180   1.572   3.926  16.068 -1.6557  2.0355  0.7056
  824MPD2     N12181   1.488   3.844  15.640  0.0940  0.9077  0.2918
  824MPD2    H512182   1.420   3.802  15.579 -0.5235 -0.0549  1.6347
  824MPD2    N112183   1.139   3.965  15.941  0.0099  0.2236 -0.4153
  824MPD2    H712184   1.083   3.982  15.858  0.9989  1.6862 -0.7937
  825MPD2     C12185   1.963   3.959  14.860  0.4594 -0.1993 -0.6694
  825MPD2    C112186   1.889   4.023  14.957 -0.0292 -0.0766  0.6014
  825MPD2    C212187   1.884   4.163  14.961 -0.2967 -0.3383 -0.1684
  825MPD2    C312188   1.948   4.236  14.860 -0.9821 -0.4162 -0.0906
  825MPD2    C412189   2.007   4.165  14.753  0.4019  0.6745  0.9272
  825MPD2    C512190   2.022   4.029  14.756  0.6563 -0.2936 -0.3581
  825MPD2     H12191   1.826   4.218  15.034  0.6306 -0.4367  0.6337
  825MPD2    H112192   2.052   4.217  14.669  1.1773 -0.9084  0.3449
  825MPD2    H212193   1.952   3.852  14.846  0.7578 -0.3317  0.1052
  825MPD2    H312194   2.058   3.975  14.669  2.2746 -2.8734  1.9141
  825MPD2     N12195   1.954   4.375  14.856 -0.2886 -0.0316  0.0874
  825MPD2    H512196   1.969   4.423  14.767 -0.3581  0.1079  0.1508
  825MPD2    N112197   1.825   3.943  15.050 -0.5450  0.1984  0.9689
  825MPD2    H712198   1.846   3.844  15.052 -0.4652  0.2340  1.8297
  826MPD2     C12199   0.967   4.360  13.827 -0.0161 -0.3629 -0.0597
  826MPD2    C112200   0.963   4.399  13.698  0.1196 -0.4531 -0.8592
  826MPD2    C212201   0.852   4.474  13.653 -0.1787 -0.1733 -0.2090
  826MPD2    C312202   0.737   4.491  13.739 -0.0413 -0.3298  0.5906
  826MPD2    C412203   0.742   4.425  13.860  0.0736 -0.4131 -0.0965
  826MPD2    C512204   0.849   4.353  13.899 -0.0260  0.1169 -0.6781
  826MPD2     H12205   0.854   4.506  13.549 -0.1181 -1.4226 -0.5851
  826MPD2    H112206   0.651   4.432  13.919 -0.4432  0.1414 -0.9656
  826MPD2    H212207   1.056   4.308  13.860  0.4750  0.1328 -0.6223
  826MPD2    H312208   0.847   4.301  13.994 -0.1518 -2.5782 -2.1514
  826MPD2     N12209   0.630   4.576  13.710  0.7719 -1.1726  0.4246
  826MPD2    H512210   0.559   4.589  13.782 -0.4935  1.7044 -1.3205
  826MPD2    N112211   1.079   4.371  13.621 -0.0350  0.2429 -0.6098
  826MPD2    H712212   1.132   4.295  13.661 -3.4769 -1.8640  0.0058
  827MPD2     C12213   2.400   0.657   9.767  0.0832 -0.1238  0.5437
  827MPD2    C112214   2.285   0.630   9.846  0.3959  0.0645  0.4305
  827MPD2    C212215   2.160   0.638   9.780 -0.2655 -0.4425 -0.9648
  827MPD2    C312216   2.148   0.684   9.647  0.4141  0.0478  0.6002
  827MPD2    C412217   2.262   0.723   9.582  0.5201 -0.8291 -0.2123
  827MPD2    C512218   2.383   0.705   9.640  0.1376  0.9177 -0.5228
  827MPD2     H12219   2.066   0.622   9.832  0.2153 -1.5701 -0.4442
  827MPD2    H112220   2.271   0.758   9.480  1.8678 -0.0878  0.1565
  827MPD2    H212221   2.497   0.644   9.813  0.5186 -1.0455 -0.6348
  827MPD2    H312222   2.473   0.741   9.591 -2.2541  4.6656 -2.1494
  827MPD2     N12223   2.022   0.680   9.584 -0.6273  0.1114 -0.2704
  827MPD2    H512224   1.947   0.652   9.645  0.4508 -0.7961  0.6326
  827MPD2    N112225   2.309   0.594   9.982 -0.3382 -0.0089 -0.0806
  827MPD2    H712226   2.407   0.592  10.009 -0.7806 -1.5123  1.3620
  828MPD2     C12227   0.300   0.883  12.815 -0.3367 -0.6798  0.3293
  828MPD2    C112228   0.324   0.916  12.683 -0.0600 -0.1731 -0.1270
  828MPD2    C212229   0.452   0.944  12.655  0.2062  0.2225  0.9063
  828MPD2    C312230   0.559   0.928  12.740 -0.1946 -0.0680  0.0869
  828MPD2    C412231   0.532   0.883  12.865 -0.3950 -0.4501 -0.3912
  828MPD2    C512232   0.400   0.863  12.906  0.0861 -0.3372 -0.3453
  828MPD2     H12233   0.477   0.988  12.559 -1.5036  1.0007  0.8207
  828MPD2    H112234   0.606   0.870  12.942 -0.6058 -3.2782 -0.6696
  828MPD2    H212235   0.199   0.857  12.843 -0.0778 -0.3771  1.5469
  828MPD2    H312236   0.374   0.845  13.009  0.5378  0.9022 -0.0251
  828MPD2     N12237   0.693   0.959  12.700  0.7322 -0.1149  0.6354
  828MPD2    H512238   0.764   0.979  12.771 -0.4723  0.4131  1.6937
  828MPD2    N112239   0.225   0.931  12.583  0.0867 -0.2304 -0.0345
  828MPD2    H712240   0.253   0.968  12.492  0.2086 -2.2065 -0.8001
  829MPD2     C12241   0.439   1.173  11.810 -0.5019 -0.0789  0.5198
  829MPD2    C112242   0.351   1.073  11.781  0.3816  0.2137 -0.6348
  829MPD2    C212243   0.262   1.024  11.874  0.2222  0.1271 -0.1230
  829MPD2    C312244   0.266   1.068  12.003 -0.1000 -0.0878 -0.0777
  829MPD2    C412245   0.360   1.161  12.035  0.8152  0.5643 -0.1440
  829MPD2    C512246   0.442   1.215  11.941 -0.9168  0.0726  0.2446
  829MPD2     H12247   0.197   0.941  11.847  1.5356 -1.3549  1.3177
  829MPD2    H112248   0.367   1.192  12.139  1.0542 -2.1687  0.6575
  829MPD2    H212249   0.499   1.237  11.746 -0.5518 -0.2427  0.3094
  829MPD2    H312250   0.505   1.298  11.969  0.6953 -1.6850  1.8986
  829MPD2     N12251   0.200   1.016  12.113 -0.6451  0.2656 -0.7518
  829MPD2    H512252   0.223   1.056  12.204  1.5925 -1.5257 -0.5344
  829MPD2    N112253   0.348   1.045  11.645  0.9549  0.1866 -0.0024
  829MPD2    H712254   0.414   1.097  11.587  2.0706 -1.7434 -0.4399
  830MPD2     C12255   0.634   2.869  15.719  0.0619  0.3754  0.1528
  830MPD2    C112256   0.561   2.987  15.702 -0.6891 -0.0332  0.1106
  830MPD2    C212257   0.609   3.078  15.612 -0.1831 -0.1068 -0.5838
  830MPD2    C312258   0.726   3.063  15.544 -0.8599  0.0509 -0.2495
  830MPD2    C412259   0.805   2.955  15.577  0.1148 -0.0894 -0.3445
  830MPD2    C512260   0.760   2.857  15.661 -0.1486  0.1315 -1.1039
  830MPD2     H12261   0.551   3.167  15.591 -0.5644  0.5535  3.2398
  830MPD2    H112262   0.894   2.937  15.518 -0.6405 -4.1897 -0.2213
  830MPD2    H212263   0.589   2.793  15.781  0.2960  0.2966  0.2277
  830MPD2    H312264   0.812   2.762  15.668  0.4124  0.4487 -0.9635
  830MPD2     N12265   0.778   3.152  15.443  0.7662  0.2957  0.1873
  830MPD2    H512266   0.874   3.150  15.409  0.1745 -1.1291 -1.3821
  830MPD2    N112267   0.446   3.004  15.780 -0.8609 -0.2322 -0.3433
  830MPD2    H712268   0.430   2.933  15.851 -6.7621  1.2274 -0.2767
  831MPD2     C12269   0.711   0.114  16.417  0.1837  0.0667 -0.0283
  831MPD2    C112270   0.741   4.729  16.367 -0.6603  0.2257 -0.0812
  831MPD2    C212271   0.636   4.638  16.357 -0.6508 -0.7820 -0.5915
  831MPD2    C312272   0.503   4.676  16.378 -0.2908 -0.2367 -0.2621
  831MPD2    C412273   0.478   0.059  16.437  0.4669  0.3967  0.5932
  831MPD2    C512274   0.581   0.147  16.453 -0.6241  0.9554  0.1307
  831MPD2     H12275   0.660   4.541  16.314 -1.4556 -0.8713 -0.8337
  831MPD2    H112276   0.382   0.094  16.474  1.1784 -2.3525  5.0490
  831MPD2    H212277   0.780   0.197  16.423 -0.0604  0.3495 -1.1952
  831MPD2    H312278   0.558   0.247  16.488 -3.1589  0.4023  0.0869
  831MPD2     N12279   0.391   4.600  16.333  0.8217 -0.3295  0.5374
  831MPD2    H512280   0.298   4.638  16.345 -0.3568 -2.6431 -1.1614
  831MPD2    N112281   0.873   4.707  16.318 -0.1764  0.4198  0.3415
  831MPD2    H712282   0.933   0.051  16.320  0.7511 -0.2249 -1.3300
  832MPD2     C12283   3.989   0.725  16.926 -0.4200 -0.4825  0.1669
  832MPD2    C112284   4.000   0.861  16.948 -0.3085 -0.1417  0.0222
  832MPD2    C212285   3.886   0.935  16.957  0.1786  0.5821  0.3136
  832MPD2    C312286   3.767   0.878  16.913  0.2423 -0.2862  0.6283
  832MPD2    C412287   3.764   0.743  16.891  0.4765  0.3140  0.1941
  832MPD2    C512288   3.869   0.666  16.908  0.4631  0.1219 -0.1550
  832MPD2     H12289   3.889   1.041  16.977  1.1813  0.4477  0.8605
  832MPD2    H112290   3.673   0.703  16.848  0.4504  2.4131 -1.6869
  832MPD2    H212291   4.077   0.662  16.937  2.2707  3.4048  0.9828
  832MPD2    H312292   3.861   0.559  16.893  1.4685  0.1451 -0.8480
  832MPD2     N12293   3.643   0.944  16.904 -0.1876  0.8063  0.4880
  832MPD2    H512294   3.560   0.888  16.890 -0.1510  1.0786 -0.8144
  832MPD2    N112295   4.133   0.913  16.951 -0.0501 -0.3463 -0.1579
  832MPD2    H712296   4.203   0.842  16.933 -2.0302 -1.7351 -2.4057
  833MPD2     C12297   1.057   3.323  12.463  0.2279  0.4844 -0.4312
  833MPD2    C112298   1.054   3.462  12.439  0.0013 -0.0556  0.3054
  833MPD2    C212299   1.153   3.503  12.349  0.0094  0.5862  0.3536
  833MPD2    C312300   1.235   3.420  12.278 -0.4968  0.4835  0.1828
  833MPD2    C412301   1.238   3.288  12.308 -0.0090 -0.0057 -0.1336
  833MPD2    C512302   1.150   3.240  12.403 -0.1695  0.0515  0.2805
  833MPD2     H12303   1.150   3.603  12.308 -0.2013  0.0335 -0.9610
  833MPD2    H112304   1.300   3.216  12.256 -1.1617 -1.2594  0.2459
  833MPD2    H212305   0.983   3.281  12.530  0.5930 -0.3265 -0.5359
  833MPD2    H312306   1.144   3.134  12.423  0.6814  0.2039  1.3465
  833MPD2     N12307   1.313   3.447  12.165  0.0470  0.4249  0.3143
  833MPD2    H512308   1.378   3.373  12.143 -0.4643  0.6136 -1.8315
  833MPD2    N112309   0.959   3.548  12.498 -0.0804  0.5282  0.3722
  833MPD2    H712310   0.877   3.503  12.537  0.8517 -1.5744 -0.1038
  834MPD2     C12311   1.166   2.749  11.633 -0.3358 -0.0887  0.1271
  834MPD2    C112312   1.123   2.846  11.547 -0.3337 -0.2149  0.8285
  834MPD2    C212313   1.163   2.980  11.558  0.1079 -0.4507 -0.2812
  834MPD2    C312314   1.238   3.012  11.668 -0.9559  0.4421  0.7082
  834MPD2    C412315   1.292   2.914  11.743 -0.3279 -0.0946 -0.1070
  834MPD2    C512316   1.268   2.777  11.720  0.1503  0.3411  0.6428
  834MPD2     H12317   1.117   3.047  11.487 -0.3992 -0.8040 -0.2878
  834MPD2    H112318   1.351   2.935  11.831 -0.8047 -1.2393  0.4965
  834MPD2    H212319   1.132   2.646  11.627 -0.9987  0.0570  1.4688
  834MPD2    H312320   1.321   2.701  11.775  0.3303  1.0815  1.4832
  834MPD2     N12321   1.252   3.146  11.696 -0.1956 -0.1250  0.7174
  834MPD2    H512322   1.228   3.204  11.616  1.8970  1.0918  0.9915
  834MPD2    N112323   1.037   2.799  11.448 -0.0450  0.6031 -0.2266
  834MPD2    H712324   1.004   2.703  11.454 -0.5764  0.8574  0.9501
  835MPD2     C12325   1.393   0.922  11.407 -0.1492 -0.1722 -0.2062
  835MPD2    C112326   1.277   0.990  11.428  0.2669 -0.1443 -0.6970
  835MPD2    C212327   1.261   1.083  11.534  0.4712 -0.4556  0.0264
  835MPD2    C312328   1.368   1.094  11.623 -0.3519 -0.1619 -0.1264
  835MPD2    C412329   1.485   1.031  11.600  0.3019  0.1939 -0.4383
  835MPD2    C512330   1.499   0.945  11.493  0.0043 -0.8206  0.1793
  835MPD2     H12331   1.176   1.149  11.536  0.8671  0.0387  0.4555
  835MPD2    H112332   1.565   1.045  11.673 -0.8615  0.3450  0.8033
  835MPD2    H212333   1.399   0.869  11.313  2.4043  1.9900 -1.2370
  835MPD2    H312334   1.598   0.906  11.474  0.4594 -0.1437  1.1528
  835MPD2     N12335   1.356   1.183  11.731  0.3811 -0.1835 -0.1319
  835MPD2    H512336   1.437   1.189  11.792  1.0118 -0.3813 -0.9482
  835MPD2    N112337   1.171   0.986  11.335  0.6835  0.4593 -0.0209
  835MPD2    H712338   1.096   1.052  11.351  1.0237  0.6982  0.5826
  836MPD2     C12339   0.751   1.197  12.171 -0.0743  0.4408 -0.2820
  836MPD2    C112340   0.837   1.286  12.232  0.6982 -0.0643  0.9893
  836MPD2    C212341   0.803   1.331  12.360 -0.0179  0.1931 -0.2188
  836MPD2    C312342   0.684   1.293  12.422  0.3435  0.0856  0.1490
  836MPD2    C412343   0.595   1.209  12.352  0.1899  0.1352  0.6400
  836MPD2    C512344   0.637   1.163  12.231  0.5608  0.2161 -0.7274
  836MPD2     H12345   0.869   1.396  12.417  0.7647  0.1379 -1.0702
  836MPD2    H112346   0.497   1.172  12.381  1.3143 -3.2977  0.0212
  836MPD2    H212347   0.772   1.147  12.077 -1.6556 -2.2667  0.8025
  836MPD2    H312348   0.577   1.082  12.190 -2.0940  1.6304  0.3747
  836MPD2     N12349   0.648   1.323  12.554 -0.3109  0.1761  0.4556
  836MPD2    H512350   0.551   1.302  12.576 -0.2615  0.5913  1.0575
  836MPD2    N112351   0.957   1.315  12.166 -0.5016  0.4653 -0.5775
  836MPD2    H712352   0.961   1.283  12.070  1.0078  0.7553 -0.6193
  837MPD2     C12353   4.061   0.122   9.775  0.0211 -0.1899  0.6837
  837MPD2    C112354   3.972   0.111   9.670  0.1565 -0.3724  0.0875
  837MPD2    C212355   3.897   0.217   9.625 -0.2197  0.0155  0.7271
  837MPD2    C312356   3.918   0.335   9.689  0.3322  0.4618  0.4012
  837MPD2    C412357   4.007   0.350   9.791 -0.9354  0.0425  1.4464
  837MPD2    C512358   4.073   0.238   9.840 -0.3921  0.1186  0.4815
  837MPD2     H12359   3.824   0.219   9.544  1.5045  2.7845 -0.7819
  837MPD2    H112360   4.016   0.444   9.844 -1.5393  0.2570  1.1705
  837MPD2    H212361   4.125   0.039   9.805  0.0195 -1.0397 -1.7209
  837MPD2    H312362   4.147   0.242   9.919 -1.1732 -0.5040  1.2448
  837MPD2     N12363   3.847   0.444   9.628 -0.1424  0.0356  0.0634
  837MPD2    H512364   3.776   0.423   9.558  0.6734  1.5026 -1.1762
  837MPD2    N112365   3.954   4.736   9.591  0.0430 -0.1150  0.4838
  837MPD2    H712366   3.886   4.736   9.516  0.9834 -1.6299 -0.3620
  838MPD2     C12367   2.073   3.246  10.569  0.9138  0.0425  0.2977
  838MPD2    C112368   2.140   3.237  10.698  0.6316  0.5252  0.2973
  838MPD2    C212369   2.082   3.163  10.797  0.0472 -0.0896  0.4140
  838MPD2    C312370   1.961   3.090  10.774  0.1812 -0.1075 -0.0877
  838MPD2    C412371   1.900   3.105  10.650  0.5190 -0.7608 -0.2480
  838MPD2    C512372   1.955   3.188  10.549 -0.2362  0.0730  0.4867
  838MPD2     H12373   2.133   3.162  10.892  0.6406  1.2878  0.1092
  838MPD2    H112374   1.806   3.057  10.626  0.0900 -0.6945  1.2643
  838MPD2    H212375   2.106   3.312  10.490  1.1533 -0.7456 -0.2606
  838MPD2    H312376   1.897   3.210  10.459 -1.8075  1.7073  1.9084
  838MPD2     N12377   1.910   3.011  10.883  0.6761 -0.7901 -0.6796
  838MPD2    H512378   1.958   3.017  10.973 -0.5173 -1.3460 -0.0042
  838MPD2    N112379   2.254   3.326  10.724  0.5443  0.9606  0.1321
  838MPD2    H712380   2.309   3.307  10.807 -1.6535  0.0811  1.3602
  839MPD2     C12381   2.198   2.958  11.112 -0.2914  0.6090  0.1743
  839MPD2    C112382   2.271   2.912  11.004 -0.9460 -0.0569  0.5185
  839MPD2    C212383   2.371   2.993  10.952  0.0240  0.6933 -0.3548
  839MPD2    C312384   2.397   3.120  11.015  0.2310 -0.3072 -0.5626
  839MPD2    C412385   2.333   3.158  11.134  0.4355  0.1340 -0.0453
  839MPD2    C512386   2.228   3.074  11.177 -0.1400 -0.2285  0.1943
  839MPD2     H12387   2.432   2.967  10.866 -0.2924 -1.3455  0.0583
  839MPD2    H112388   2.372   3.246  11.184 -2.8912  1.3613  0.3801
  839MPD2    H212389   2.128   2.898  11.169  2.1411  1.3576  3.9823
  839MPD2    H312390   2.170   3.098  11.266  0.3396  3.4832 -0.4778
  839MPD2     N12391   2.497   3.208  10.968  0.4316 -0.0956  0.6299
  839MPD2    H512392   2.500   3.292  11.025  2.6807  0.1217  0.1954
  839MPD2    N112393   2.247   2.783  10.948 -0.8909 -0.9485  0.1999
  839MPD2    H712394   2.292   2.742  10.867 -1.7186 -0.0968 -0.6981
  840MPD2     C12395   2.845   0.680  10.256  0.0796  0.2848 -0.5625
  840MPD2    C112396   2.762   0.647  10.363 -0.1398 -0.2428 -0.3862
  840MPD2    C212397   2.815   0.668  10.490  0.6379 -0.0839  0.0820
  840MPD2    C312398   2.950   0.691  10.514  0.0576  0.0973  0.7046
  840MPD2    C412399   3.029   0.718  10.409  0.6498 -0.6587 -0.2985
  840MPD2    C512400   2.976   0.713  10.281  0.1147 -0.0506  0.3107
  840MPD2     H12401   2.748   0.646  10.573 -2.5736  2.1181 -1.9356
  840MPD2    H112402   3.133   0.745  10.422  1.0129 -2.1613 -0.0320
  840MPD2    H212403   2.820   0.673  10.151  1.7822  0.7177 -1.0032
  840MPD2    H312404   3.032   0.730  10.189  0.9924 -0.7412  0.7246
  840MPD2     N12405   3.002   0.706  10.640 -0.0109  0.1456 -0.5228
  840MPD2    H512406   3.101   0.726  10.636  0.7337 -2.9172  2.8250
  840MPD2    N112407   2.629   0.618  10.334 -0.3660 -0.0432 -0.0225
  840MPD2    H712408   2.597   0.632  10.239  0.1169 -0.4485 -0.2389
  841MPD2     C12409   2.048   1.131  14.617  0.5690  0.7618  0.6539
  841MPD2    C112410   2.081   1.036  14.522  0.1969  0.1357  0.3244
  841MPD2    C212411   2.197   1.061  14.448 -0.2608  0.5718  0.4665
  841MPD2    C312412   2.270   1.175  14.473  0.2810 -0.4322 -0.8016
  841MPD2    C412413   2.235   1.263  14.566 -0.1278 -0.5819  0.1049
  841MPD2    C512414   2.127   1.237  14.637  0.6107  0.4449 -0.1928
  841MPD2     H12415   2.228   1.001  14.363 -0.6200 -0.3777  1.0020
  841MPD2    H112416   2.289   1.354  14.591 -0.1915 -0.8794  1.3412
  841MPD2    H212417   1.967   1.121  14.688 -0.4194  1.2035 -0.4132
  841MPD2    H312418   2.102   1.311  14.712  0.9605  1.8264 -1.4134
  841MPD2     N12419   2.386   1.183  14.401 -0.3554  0.1396 -0.0474
  841MPD2    H512420   2.400   1.103  14.339  1.8654  1.2056 -0.9551
  841MPD2    N112421   2.008   0.924  14.486 -0.2641 -0.0102 -0.0569
  841MPD2    H712422   2.027   0.886  14.394  3.7747 -0.6661  1.0508
  842MPD2     C12423   3.330   1.600  16.782 -0.0983  0.4000  0.6708
  842MPD2    C112424   3.233   1.498  16.804  0.1763  0.3380 -0.8679
  842MPD2    C212425   3.253   1.408  16.909 -0.2850  0.4346  0.8884
  842MPD2    C312426   3.374   1.414  16.986  0.1698  0.8110  0.8546
  842MPD2    C412427   3.471   1.495  16.941 -0.2738 -0.0146 -0.1024
  842MPD2    C512428   3.447   1.587  16.837  0.3922  1.1634  1.1602
  842MPD2     H12429   3.183   1.328  16.931 -1.7701  1.4044 -0.2927
  842MPD2    H112430   3.560   1.513  16.999  0.6445  2.5418 -2.3034
  842MPD2    H212431   3.307   1.669  16.701  1.9654  0.7550  0.3963
  842MPD2    H312432   3.530   1.655  16.822 -0.2880  1.1241 -2.9158
  842MPD2     N12433   3.405   1.318  17.086  0.0724 -0.5082 -0.1872
  842MPD2    H512434   3.504   1.309  17.104  0.2664  1.9587  0.0666
  842MPD2    N112435   3.124   1.500  16.715 -0.1940 -0.2352  0.2642
  842MPD2    H712436   3.115   1.582  16.656 -0.5095  0.3046  1.0659
  843MPD2     C12437   0.001   1.690   0.491 -0.2582 -0.5739  0.9739
  843MPD2    C112438   0.046   1.761   0.384  0.5271  0.0747  0.0879
  843MPD2    C212439   0.133   1.866   0.406 -0.1319 -0.4366  0.2596
  843MPD2    C312440   0.163   1.913   0.536 -0.6201 -0.0580  0.7882
  843MPD2    C412441   0.124   1.829   0.638  0.4009  0.2027  0.5507
  843MPD2    C512442   0.049   1.722   0.622  0.2389  0.6315 -0.6603
  843MPD2     H12443   0.162   1.917   0.315  0.0410 -0.5476  0.2532
  843MPD2    H112444   0.151   1.870   0.734  0.8500  1.5853 -0.1688
  843MPD2    H212445   4.674   1.603   0.489 -1.1918  0.1184  0.9304
  843MPD2    H312446   0.021   1.662   0.708 -1.8933  2.4059 -0.1038
  843MPD2     N12447   0.237   2.029   0.570 -0.7057  0.2099 -0.4401
  843MPD2    H512448   0.262   2.046   0.667  0.0811  0.4612 -0.6851
  843MPD2    N112449   0.010   1.720   0.250 -0.2156  0.1338  0.2610
  843MPD2    H712450   0.070   1.735   0.169 -0.0565  2.2110  0.7543
  844MPD2     C12451   3.207   0.731  16.349 -0.0156 -0.5179 -0.1254
  844MPD2    C112452   3.305   0.680  16.264  0.0737 -0.1650 -0.0400
  844MPD2    C212453   3.429   0.695  16.310 -0.0874  0.3069  0.0522
  844MPD2    C312454   3.466   0.777  16.414  0.5656  0.2932 -0.5211
  844MPD2    C412455   3.370   0.833  16.492  0.1889  0.2644 -0.7117
  844MPD2    C512456   3.238   0.802  16.465 -0.1637 -0.3528 -0.5765
  844MPD2     H12457   3.506   0.634  16.264 -1.3062 -1.4831  0.3935
  844MPD2    H112458   3.393   0.889  16.581  2.3249 -1.2547 -0.3131
  844MPD2    H212459   3.104   0.709  16.327  0.6215 -1.8006 -1.7590
  844MPD2    H312460   3.166   0.853  16.527  1.7238  0.7360  0.7062
  844MPD2     N12461   3.602   0.786  16.447  0.1844 -0.0301 -0.0097
  844MPD2    H512462   3.665   0.711  16.418 -0.0141  0.3678 -1.4607
  844MPD2    N112463   3.276   0.601  16.152  0.3045 -0.0207 -0.2037
  844MPD2    H712464   3.358   0.570  16.100  1.3649 -0.8075  1.9304
  845MPD2     C12465   4.144   1.595  16.758  0.5536 -0.0202 -0.0247
  845MPD2    C112466   4.037   1.549  16.827 -0.4196  1.1088 -0.0488
  845MPD2    C212467   4.002   1.418  16.810 -0.9101 -0.2049 -0.4029
  845MPD2    C312468   4.068   1.337  16.724 -0.5512  0.1432  0.8075
  845MPD2    C412469   4.180   1.386  16.653 -0.2829 -0.2535 -0.4606
  845MPD2    C512470   4.220   1.510  16.688  0.8344 -0.9229 -1.3215
  845MPD2     H12471   3.914   1.374  16.856 -0.4637 -0.2220  0.4478
  845MPD2    H112472   4.242   1.336  16.579  1.5821  0.1777  0.8083
  845MPD2    H212473   4.172   1.698  16.775 -1.1116  0.2967  0.8518
  845MPD2    H312474   4.311   1.550  16.646  1.5828 -0.3646  0.8517
  845MPD2     N12475   4.008   1.210  16.688  0.1807 -0.4528 -0.4619
  845MPD2    H512476   3.918   1.182  16.726 -0.8994  0.9263 -2.0020
  845MPD2    N112477   3.979   1.642  16.911  0.1191 -0.6136  0.2165
  845MPD2    H712478   4.013   1.737  16.918  0.8308 -0.7305 -1.5273
  846MPD2     C12479   0.475   2.789  13.740  0.1795 -0.5228 -0.3410
  846MPD2    C112480   0.338   2.805  13.745  0.1003 -0.5957  0.1287
  846MPD2    C212481   0.259   2.786  13.856  0.8352 -0.0433 -0.5661
  846MPD2    C312482   0.319   2.745  13.977 -0.2079 -0.3111  0.4978
  846MPD2    C412483   0.451   2.721  13.965 -0.7115 -0.0107 -0.1838
  846MPD2    C512484   0.530   2.743  13.857 -0.0320 -0.5457 -0.4543
  846MPD2     H12485   0.152   2.782  13.837  0.6034 -0.9185  0.9171
  846MPD2    H112486   0.506   2.667  14.041 -1.5550 -1.0587 -0.3181
  846MPD2    H212487   0.544   2.805  13.657  0.1790  0.3657 -0.1665
  846MPD2    H312488   0.638   2.737  13.862 -0.1099 -1.6571 -0.0647
  846MPD2     N12489   0.246   2.708  14.093  0.6108  0.0774  0.1511
  846MPD2    H512490   0.147   2.728  14.093  1.0144  2.1129 -0.9867
  846MPD2    N112491   0.269   2.848  13.630 -0.3371  0.0389  0.6590
  846MPD2    H712492   0.172   2.872  13.646 -0.9134 -0.8688 -1.4431
  847MPD2     C12493   0.325   3.477  14.349 -0.1575 -0.3478  0.4551
  847MPD2    C112494   0.413   3.582  14.332  0.4173 -0.0366  0.3214
  847MPD2    C212495   0.551   3.571  14.349  0.1744 -0.1981 -0.0887
  847MPD2    C312496   0.605   3.445  14.369  0.2714 -0.0293  0.0869
  847MPD2    C412497   0.517   3.334  14.374 -0.8007  0.4181 -0.1034
  847MPD2    C512498   0.383   3.346  14.354  0.3445  0.4816  0.0829
  847MPD2     H12499   0.621   3.653  14.354 -0.9409  0.8155 -0.9523
  847MPD2    H112500   0.552   3.233  14.388 -0.2913  0.5565 -0.3858
  847MPD2    H212501   0.219   3.496  14.335  0.0010 -1.0871 -1.7100
  847MPD2    H312502   0.315   3.263  14.337  1.1207 -0.3553  1.0445
  847MPD2     N12503   0.745   3.436  14.401  0.1465 -0.1420 -0.9815
  847MPD2    H512504   0.774   3.533  14.406 -1.5745  0.2789  1.2848
  847MPD2    N112505   0.374   3.713  14.307  0.4200 -0.7712  0.2399
  847MPD2    H712506   0.449   3.781  14.313 -0.7227  0.4005  1.3754
  848MPD2     C12507   3.265   1.117  16.221 -0.5661 -0.2232 -0.5319
  848MPD2    C112508   3.303   1.213  16.312  0.2973 -0.1081 -0.4221
  848MPD2    C212509   3.280   1.340  16.267  0.8022 -0.0214 -0.0833
  848MPD2    C312510   3.247   1.367  16.139 -0.3952 -0.2338 -0.2549
  848MPD2    C412511   3.208   1.265  16.057 -0.1706 -0.1339  0.8619
  848MPD2    C512512   3.223   1.135  16.091  0.2971 -0.5539  0.4914
  848MPD2     H12513   3.278   1.428  16.331  2.1423 -2.2797  3.0428
  848MPD2    H112514   3.183   1.291  15.955 -1.8422 -1.5745  0.8951
  848MPD2    H212515   3.277   1.015  16.254  0.9540 -0.4473 -1.7523
  848MPD2    H312516   3.187   1.067  16.015 -0.5095  0.3950  0.0195
  848MPD2     N12517   3.249   1.502  16.089 -0.3541 -0.5208 -0.0161
  848MPD2    H512518   3.220   1.521  15.994  2.7050  1.4078 -0.5732
  848MPD2    N112519   3.327   1.175  16.443  0.2357 -0.0989 -0.3849
  848MPD2    H712520   3.322   1.075  16.456 -2.4945  0.0191 -0.3519
  849MPD2     C12521   2.394   1.736  13.928  0.1974 -0.1950 -0.1586
  849MPD2    C112522   2.483   1.655  13.854 -0.0479 -0.7689 -0.0625
  849MPD2    C212523   2.591   1.601  13.917 -0.3000  0.2187 -0.2921
  849MPD2    C312524   2.613   1.618  14.050 -0.2621 -0.1793  1.0744
  849MPD2    C412525   2.524   1.690  14.126  0.2380 -0.4233 -0.0975
  849MPD2    C512526   2.417   1.755  14.064 -0.0841  0.2268  0.1575
  849MPD2     H12527   2.663   1.543  13.860 -0.2592  1.6777 -1.7198
  849MPD2    H112528   2.541   1.702  14.232  0.0751  1.1345 -0.2396
  849MPD2    H212529   2.311   1.794  13.889 -0.4713  1.0584  3.0953
  849MPD2    H312530   2.350   1.822  14.117 -0.6525 -2.1150  2.3991
  849MPD2     N12531   2.734   1.558  14.109 -0.1933 -0.7034  0.6934
  849MPD2    H512532   2.791   1.513  14.038 -0.8490  1.0667 -0.9545
  849MPD2    N112533   2.463   1.630  13.719 -0.3087 -0.6958 -0.0565
  849MPD2    H712534   2.398   1.691  13.671 -1.3873 -2.9077 -1.4153
  850MPD2     C12535   0.397   0.133  15.307  0.4992 -0.9380 -0.5489
  850MPD2    C112536   0.462   0.014  15.346  0.0827  0.1439 -0.3884
  850MPD2    C212537   0.589   4.737  15.294 -0.7634 -0.0707  0.0472
  850MPD2    C312538   0.642   0.091  15.200 -0.5846 -0.5152  0.0904
  850MPD2    C412539   0.574   0.204  15.167  0.1532 -0.8451 -0.0243
  850MPD2    C512540   0.452   0.217  15.221 -0.0592  0.1580  0.2467
  850MPD2     H12541   0.662   4.670  15.336 -0.6377  0.9282  1.4319
  850MPD2    H112542   0.609   0.279  15.098 -0.5079  0.2126  0.7830
  850MPD2    H212543   0.299   0.158  15.348  0.1210 -2.0944 -0.7349
  850MPD2    H312544   0.400   0.308  15.192 -1.3497 -0.8011 -0.4360
  850MPD2     N12545   0.778   0.070  15.160  0.3960  0.1494 -0.2338
  850MPD2    H512546   0.826   4.731  15.206  1.1219  0.6339 -0.1853
  850MPD2    N112547   0.411   4.657  15.439 -0.2059 -0.0002  0.1024
  850MPD2    H712548   0.318   4.682  15.471 -0.2082 -1.8641  1.5608
  851MPD2     C12549   0.644   3.937  15.903  0.4758 -0.3093 -0.8526
  851MPD2    C112550   0.582   3.954  15.783 -0.1110 -0.1880 -0.2220
  851MPD2    C212551   0.610   3.865  15.681 -0.3862 -0.0810 -0.2506
  851MPD2    C312552   0.714   3.770  15.694  0.0035  0.3996 -0.4735
  851MPD2    C412553   0.776   3.753  15.818  0.0876 -0.5601  0.6407
  851MPD2    C512554   0.743   3.843  15.918 -0.5718  0.5409  0.0230
  851MPD2     H12555   0.556   3.874  15.588 -1.0270  1.3781  0.2561
  851MPD2    H112556   0.854   3.679  15.834 -0.8837 -1.9760 -1.1536
  851MPD2    H212557   0.615   4.002  15.985 -2.1858  0.9962 -2.8198
  851MPD2    H312558   0.796   3.838  16.013 -1.4400 -2.5880  0.3274
  851MPD2     N12559   0.733   3.686  15.589  0.7181  0.0788  0.0146
  851MPD2    H512560   0.673   3.691  15.507 -1.0211  2.0724  1.4228
  851MPD2    N112561   0.499   4.067  15.764  0.2875  0.0989 -1.1362
  851MPD2    H712562   0.472   4.114  15.850  0.7503 -0.5993 -0.6048
  852MPD2     C12563   0.123   1.549   9.747  0.2296  0.4442 -0.0687
  852MPD2    C112564   0.077   1.639   9.847 -0.4409 -0.0886  0.2532
  852MPD2    C212565   0.109   1.774   9.837  0.4108 -0.1193 -0.3459
  852MPD2    C312566   0.182   1.821   9.733 -0.5300  0.1076  0.5007
  852MPD2    C412567   0.227   1.727   9.641 -0.2750 -0.3364 -0.0586
  852MPD2    C512568   0.213   1.591   9.652  0.0159 -0.4428  0.5203
  852MPD2     H12569   0.082   1.846   9.913 -0.2820 -0.2914 -0.4251
  852MPD2    H112570   0.294   1.761   9.562 -0.8379 -2.5730 -1.4770
  852MPD2    H212571   0.102   1.444   9.765 -0.9605  0.5362 -0.9386
  852MPD2    H312572   0.260   1.527   9.578  0.9097  0.1488  0.5724
  852MPD2     N12573   0.228   1.953   9.731  0.1911 -0.0827  0.3917
  852MPD2    H512574   0.218   2.006   9.817  1.4688 -1.0345  1.1356
  852MPD2    N112575   4.736   1.580   9.953 -0.4347 -0.1107  0.1247
  852MPD2    H712576   4.726   1.480   9.965 -0.3333 -0.2334 -0.7554
  853MPD2     C12577   1.985   2.053  12.333 -0.1077 -0.6710  0.1848
  853MPD2    C112578   1.881   2.141  12.299 -0.2898 -0.0699  0.1649
  853MPD2    C212579   1.811   2.128  12.182  0.3184 -0.2644 -0.0738
  853MPD2    C312580   1.848   2.022  12.099 -0.3906 -0.2070  0.0525
  853MPD2    C412581   1.953   1.939  12.130 -0.0182  0.0997 -0.0627
  853MPD2    C512582   2.016   1.947  12.254  0.6717 -0.2431  0.1799
  853MPD2     H12583   1.740   2.198  12.139  2.3853  1.5094 -0.6378
  853MPD2    H112584   1.990   1.862  12.062  0.8921  0.3904  0.1040
  853MPD2    H212585   2.046   2.057  12.423  1.6820  1.0072 -1.1078
  853MPD2    H312586   2.097   1.878  12.275 -0.3101 -1.2058  0.7780
  853MPD2     N12587   1.791   2.002  11.968  0.1240  0.1937 -0.6825
  853MPD2    H512588   1.820   1.909  11.940  1.1493 -0.2626  1.9244
  853MPD2    N112589   1.866   2.248  12.390  0.2993  0.5104  0.0215
  853MPD2    H712590   1.925   2.249  12.473  2.9163  0.0099 -1.8137
  854MPD2     C12591   3.741   1.913  12.848 -0.2976  0.0578 -0.2911
  854MPD2    C112592   3.801   1.951  12.729 -0.0336  0.4220 -0.2100
  854MPD2    C212593   3.939   1.933  12.719 -0.2119  0.7517 -0.4944
  854MPD2    C312594   4.006   1.871  12.829 -0.1386 -0.1517 -0.0750
  854MPD2    C412595   3.938   1.833  12.944  0.1300 -0.0287 -0.7806
  854MPD2    C512596   3.801   1.853  12.950 -0.1636 -0.4185  0.2550
  854MPD2     H12597   3.993   1.974  12.634 -0.3614 -2.1581 -2.0069
  854MPD2    H112598   3.995   1.790  13.026  0.7574 -0.7354 -1.5960
  854MPD2    H212599   3.635   1.921  12.868 -0.3442 -0.6536 -0.2619
  854MPD2    H312600   3.748   1.815  13.036  0.6323  0.4809  1.1372
  854MPD2     N12601   4.150   1.863  12.843 -0.0413  0.6277 -0.2379
  854MPD2    H512602   4.185   1.817  12.926  4.2184  2.9362 -0.7786
  854MPD2    N112603   3.721   1.998  12.624  0.3224  0.4309 -0.5717
  854MPD2    H712604   3.620   1.991  12.633  0.3016  1.3851 -0.0468
  855MPD2     C12605   0.236   1.576  13.371  0.4666  0.2378  0.1662
  855MPD2    C112606   0.134   1.670  13.398  0.3509  0.7614  0.6783
  855MPD2    C212607   0.049   1.700  13.289 -0.9484 -0.2286  1.0602
  855MPD2    C312608   0.057   1.639  13.162  0.0339  0.3725 -0.4485
  855MPD2    C412609   0.161   1.554  13.145 -0.1420  0.1190 -0.3937
  855MPD2    C512610   0.244   1.523  13.249 -0.9385 -0.1614 -0.3878
  855MPD2     H12611   4.706   1.767  13.314 -0.2605  1.4739 -1.2310
  855MPD2    H112612   0.186   1.496  13.057  0.6652 -2.8776  1.8500
  855MPD2    H212613   0.297   1.539  13.453  0.4039 -1.0244 -0.3535
  855MPD2    H312614   0.330   1.460  13.233  0.0061  0.9259  0.3408
  855MPD2     N12615   4.714   1.677  13.049  0.1652  0.3632 -0.2098
  855MPD2    H512616   0.006   1.634  12.962 -0.5385  1.8655 -1.1859
  855MPD2    N112617   0.112   1.722  13.528 -0.4340  0.0857 -0.2129
  855MPD2    H712618   0.037   1.790  13.521  0.0589  0.5668 -0.7754
  856MPD2     C12619   1.124   3.108  13.583  0.7084 -0.8222 -0.2767
  856MPD2    C112620   1.152   3.185  13.695 -0.2680 -0.6695  0.6137
  856MPD2    C212621   1.064   3.279  13.743  0.0985 -0.1744 -0.3097
  856MPD2    C312622   0.951   3.309  13.673 -0.0247 -0.1911 -0.1085
  856MPD2    C412623   0.934   3.240  13.557  0.2532 -0.1692  0.3516
  856MPD2    C512624   1.016   3.138  13.511  0.4306 -0.5078  0.2802
  856MPD2     H12625   1.091   3.322  13.839  1.4470  0.5837 -1.0276
  856MPD2    H112626   0.844   3.252  13.499  1.2146  1.8549 -0.7141
  856MPD2    H212627   1.188   3.025  13.555  1.1188 -0.2756 -0.9242
  856MPD2    H312628   0.987   3.077  13.425 -0.3963 -0.0406  0.2279
  856MPD2     N12629   0.846   3.399  13.718  0.3198  0.1772  0.1695
  856MPD2    H512630   0.763   3.398  13.659  0.3377  0.4884  0.1386
  856MPD2    N112631   1.259   3.155  13.777  0.2813 -0.5161  0.1461
  856MPD2    H712632   1.272   3.211  13.862  1.8367  1.9533 -1.7154
  857MPD2     C12633   2.951   0.239  12.499  0.2971 -0.1264  0.1963
  857MPD2    C112634   2.981   0.236  12.629 -0.5973  0.7475  0.7173
  857MPD2    C212635   3.005   0.356  12.690  0.2177  0.4782  0.0189
  857MPD2    C312636   3.003   0.481  12.633 -0.4201 -0.0270 -0.1831
  857MPD2    C412637   2.975   0.484  12.497 -0.5276  0.3584 -0.6869
  857MPD2    C512638   2.947   0.364  12.435 -0.1349  0.5078  0.1506
  857MPD2     H12639   3.030   0.345  12.795 -0.2192 -1.1757 -0.0479
  857MPD2    H112640   2.976   0.575  12.438  1.0849 -0.4896 -1.9937
  857MPD2    H212641   2.919   0.157  12.436  1.1231  0.0034 -0.4026
  857MPD2    H312642   2.928   0.376  12.329  0.5186  1.5757  0.1548
  857MPD2     N12643   3.012   0.597  12.716 -0.4049 -0.4120 -0.0751
  857MPD2    H512644   3.036   0.578  12.813  1.2808 -1.0967 -0.6365
  857MPD2    N112645   3.009   0.108  12.687 -0.0602  0.6483  0.1892
  857MPD2    H712646   2.992   0.026  12.630  0.8388  0.1053  0.7070
  858MPD2     C12647   3.423   4.315  16.291  1.0165  0.1602  0.3411
  858MPD2    C112648   3.449   4.185  16.318 -1.1392 -0.2718 -0.3961
  858MPD2    C212649   3.464   4.151  16.454 -0.8637  0.3907  0.0109
  858MPD2    C312650   3.426   4.237  16.556 -0.1129 -0.0545 -0.2539
  858MPD2    C412651   3.392   4.366  16.521 -0.2456 -0.6340  0.0951
  858MPD2    C512652   3.390   4.403  16.391 -0.0210  0.1079 -0.1580
  858MPD2     H12653   3.524   4.065  16.480  0.6651  1.6106  0.4907
  858MPD2    H112654   3.373   4.444  16.594  0.6639 -0.6675  0.3690
  858MPD2    H212655   3.417   4.347  16.188 -0.0145  2.0573  0.9955
  858MPD2    H312656   3.364   4.503  16.359  1.5069  1.1318  1.7893
  858MPD2     N12657   3.443   4.209  16.694  0.6293 -0.5231 -0.6724
  858MPD2    H512658   3.438   4.288  16.758  0.1288  1.0139 -2.6270
  858MPD2    N112659   3.468   4.095  16.211  0.5694 -0.5632  0.2195
  858MPD2    H712660   3.450   4.129  16.117  0.7668 -0.4500  0.2222
  859MPD2     C12661   2.157   1.684  15.111  0.5976 -0.4484  0.1191
  859MPD2    C112662   2.262   1.611  15.070  0.0866  0.6028 -0.7716
  859MPD2    C212663   2.241   1.470  15.062  0.5207  0.1800 -0.2320
  859MPD2    C312664   2.116   1.416  15.086 -0.7215 -0.2939 -0.1836
  859MPD2    C412665   2.011   1.497  15.112  0.2838  0.0796  0.0049
  859MPD2    C512666   2.031   1.631  15.139 -0.1885  0.1633 -0.2283
  859MPD2     H12667   2.330   1.409  15.050 -0.2912 -1.2187  0.9472
  859MPD2    H112668   1.908   1.461  15.114  1.0962 -2.1312  0.8750
  859MPD2    H212669   2.170   1.792  15.120  2.7697 -0.5854 -1.3496
  859MPD2    H312670   1.952   1.702  15.165 -0.0780  0.6423 -1.1916
  859MPD2     N12671   2.079   1.286  15.050  0.9886 -0.6602  0.0322
  859MPD2    H512672   1.984   1.252  15.058  1.2569 -1.4399 -0.0299
  859MPD2    N112673   2.375   1.676  15.018  0.5251 -0.1750 -0.4519
  859MPD2    H712674   2.357   1.776  15.014 -1.8364 -0.5488  1.0881
  860MPD2     C12675   0.340   2.561  11.678 -0.0548  0.1827 -0.1980
  860MPD2    C112676   0.336   2.453  11.766  0.3870 -0.1558 -0.0901
  860MPD2    C212677   0.242   2.353  11.742 -0.5418  0.8521  0.2151
  860MPD2    C312678   0.168   2.348  11.628  0.2093  0.2353 -0.1817
  860MPD2    C412679   0.177   2.455  11.540  0.4344  0.1644  0.0767
  860MPD2    C512680   0.257   2.559  11.568 -0.6726  0.5050  0.6740
  860MPD2     H12681   0.248   2.263  11.802 -1.9391 -0.1136 -1.0986
  860MPD2    H112682   0.111   2.457  11.455 -1.0833  0.1229  1.2657
  860MPD2    H212683   0.412   2.641  11.688  1.2869 -0.9778 -0.6861
  860MPD2    H312684   0.266   2.628  11.485  2.9995  0.2739  0.9071
  860MPD2     N12685   0.055   2.255  11.621 -0.6972  0.3163  0.6220
  860MPD2    H512686   0.041   2.197  11.703  0.5195  2.1321  2.1187
  860MPD2    N112687   0.409   2.445  11.888 -0.2981  0.4839  0.0101
  860MPD2    H712688   0.407   2.358  11.940  1.1569  0.6159  0.2961
  861MPD2     C12689   3.943   4.574  10.775 -0.2270  1.0570 -0.2328
  861MPD2    C112690   3.865   4.468  10.738 -0.2328  0.1513 -0.0354
  861MPD2    C212691   3.805   4.481  10.608 -0.0989  0.8411 -0.8004
  861MPD2    C312692   3.819   4.598  10.535  0.0750 -0.0334 -0.1163
  861MPD2    C412693   3.901   4.697  10.581  0.1762  0.2204 -0.0883
  861MPD2    C512694   3.963   4.681  10.699 -0.3013  0.4286  0.3738
  861MPD2     H12695   3.744   4.399  10.572  1.4091 -1.0150  0.8884
  861MPD2    H112696   3.918   0.053  10.528  0.5730  0.3195  0.2168
  861MPD2    H212697   3.991   4.559  10.871  0.2916 -0.2498 -0.6967
  861MPD2    H312698   4.039   0.017  10.722  2.5781 -2.0722 -1.0826
  861MPD2     N12699   3.751   4.625  10.412 -0.2939 -0.1793 -0.0608
  861MPD2    H512700   3.773   4.715  10.370  0.9769  0.3171  1.7085
  861MPD2    N112701   3.847   4.355  10.824 -0.2586 -0.6415 -0.3596
  861MPD2    H712702   3.762   4.302  10.805 -1.6743  2.0219 -1.4688
  862MPD2     C12703   3.158   4.302   9.886  0.6061  0.1391 -0.0426
  862MPD2    C112704   3.234   4.297   9.998  0.3820  0.1178 -0.5425
  862MPD2    C212705   3.206   4.198  10.092  0.0124  0.7466  0.3309
  862MPD2    C312706   3.090   4.123  10.078 -0.8064 -0.7631 -0.0506
  862MPD2    C412707   3.020   4.134   9.962 -0.2099  0.2110 -0.3768
  862MPD2    C512708   3.056   4.214   9.863  0.6877  0.3107 -0.0819
  862MPD2     H12709   3.265   4.196  10.183  0.0317 -2.1609  0.2484
  862MPD2    H112710   2.931   4.076   9.938 -0.0296 -1.3450  2.6456
  862MPD2    H212711   3.174   4.381   9.814 -0.3398  1.8417  1.6077
  862MPD2    H312712   2.996   4.221   9.773  0.5132 -0.6254 -0.0330
  862MPD2     N12713   3.060   4.048  10.192 -0.5169 -0.3287 -0.3623
  862MPD2    H512714   3.119   4.055  10.274  2.1349  1.1274 -2.3724
  862MPD2    N112715   3.325   4.406  10.044  0.2018  0.0943  0.0909
  862MPD2    H712716   3.359   4.393  10.139 -0.2332  0.0701  0.2392
  863MPD2     C12717   2.005   2.349  16.746 -0.1189  0.0126  0.0283
  863MPD2    C112718   1.963   2.469  16.805 -0.2906  0.0646 -0.4040
  863MPD2    C212719   2.017   2.508  16.933 -0.4753 -0.4674  0.7033
  863MPD2    C312720   2.107   2.431  17.000  0.0374  0.4113 -0.3552
  863MPD2    C412721   2.139   2.306  16.940  0.2389 -0.1363  0.1912
  863MPD2    C512722   2.091   2.272  16.818  0.7845 -0.0492  0.3967
  863MPD2     H12723   1.981   2.603  16.969  1.7868  0.6992 -0.1061
  863MPD2    H112724   2.199   2.226  16.982  0.8760 -1.4919 -3.2777
  863MPD2    H212725   1.971   2.312  16.649  1.0117 -2.4599  0.5622
  863MPD2    H312726   2.117   2.172  16.786  0.9497  0.3499 -0.7325
  863MPD2     N12727   2.185   2.471  17.118 -0.2294 -0.0792 -0.0722
  863MPD2    H512728   2.254   2.405  17.152  2.1573  3.1220  1.2631
  863MPD2    N112729   1.872   2.555  16.733  0.5864  0.2267  0.1587
  863MPD2    H712730   1.856   2.526  16.637  0.1722 -1.0287  0.6167
  864MPD2     C12731   2.611   4.342  17.021  0.2740  0.3421 -0.2201
  864MPD2    C112732   2.692   4.262  16.945 -0.1202 -0.4168 -0.0248
  864MPD2    C212733   2.790   4.318  16.862  0.1203  0.5538 -0.0294
  864MPD2    C312734   2.807   4.456  16.861 -0.5039  0.9538  0.0026
  864MPD2    C412735   2.732   4.533  16.949  0.0968  0.3944 -0.1660
  864MPD2    C512736   2.635   4.477  17.023 -0.3871  0.4966  1.1240
  864MPD2     H12737   2.854   4.256  16.800 -0.3298 -1.3139  1.3939
  864MPD2    H112738   2.743   4.640  16.962 -1.7510  0.2864  2.2557
  864MPD2    H212739   2.527   4.314  17.084 -0.0322  0.8459 -0.4012
  864MPD2    H312740   2.584   4.544  17.092  0.3097  2.3832 -0.2034
  864MPD2     N12741   2.895   4.524  16.779 -0.3922  0.2796 -0.7558
  864MPD2    H512742   2.894   4.626  16.783 -1.7458  0.1050  3.3748
  864MPD2    N112743   2.653   4.129  16.940 -0.7843  0.1191  0.0125
  864MPD2    H712744   2.573   4.103  16.996 -0.5316 -0.8121 -0.0658
  865MPD2     C12745   2.551   4.510  16.449  0.9136 -0.2340  1.2006
  865MPD2    C112746   2.638   4.561  16.354 -0.5928 -0.1569 -0.2378
  865MPD2    C212747   2.717   4.673  16.404  0.7918 -0.1294  0.5039
  865MPD2    C312748   2.697   4.723  16.529 -0.1218 -0.2137  1.1498
  865MPD2    C412749   2.607   4.662  16.615 -0.0862 -0.0944 -0.0274
  865MPD2    C512750   2.533   4.560  16.573  0.3880 -0.1910 -0.1667
  865MPD2     H12751   2.799   4.709  16.343  0.7937  0.6726  0.9897
  865MPD2    H112752   2.576   4.709  16.708 -2.4780  3.3294 -2.5501
  865MPD2    H212753   2.494   4.420  16.430  0.4072  0.4968 -0.7698
  865MPD2    H312754   2.461   4.507  16.634  1.0218 -2.0055 -1.0134
  865MPD2     N12755   2.781   0.084  16.593 -0.7715  0.6067 -0.1532
  865MPD2    H512756   2.775   0.102  16.692  0.8772 -3.7073  0.6942
  865MPD2    N112757   2.657   4.494  16.228 -0.1310  0.4126  0.8649
  865MPD2    H712758   2.590   4.421  16.206  1.3140 -0.2929 -1.1128
  866MPD2     C12759   4.114   0.232  11.412 -0.3709 -0.5333  0.4437
  866MPD2    C112760   4.150   0.149  11.305  0.3983 -0.1443 -0.4514
  866MPD2    C212761   4.055   0.106  11.219 -0.1707 -0.2743  0.5885
  866MPD2    C312762   3.926   0.154  11.238  0.1449 -0.3874 -0.1589
  866MPD2    C412763   3.896   0.240  11.337  0.1096  0.1477 -0.2654
  866MPD2    C512764   3.990   0.283  11.424  0.4104 -0.0639  0.3331
  866MPD2     H12765   4.075   0.048  11.130 -0.1732 -0.5617  0.7765
  866MPD2    H112766   3.801   0.292  11.344 -0.7517 -1.2967 -1.3529
  866MPD2    H212767   4.179   0.268  11.491  0.3569  1.5001 -1.0990
  866MPD2    H312768   3.963   0.352  11.503  2.9419  0.8770  0.3863
  866MPD2     N12769   3.815   0.103  11.164  0.1020 -1.0419 -0.6483
  866MPD2    H512770   3.724   0.144  11.179  0.2700 -1.6423  2.0234
  866MPD2    N112771   4.289   0.118  11.288  0.4826  0.1287  0.3959
  866MPD2    H712772   4.354   0.145  11.362 -1.1363 -1.4322  2.3921
  867MPD2     C12773   1.147   3.727  16.905 -0.6359  0.3338  0.1190
  867MPD2    C112774   1.230   3.741  17.015  0.1265  0.1700  0.0618
  867MPD2    C212775   1.186   3.822  17.118  0.6106 -0.8045 -0.8734
  867MPD2    C312776   1.063   3.892  17.108 -0.9919 -0.6640  0.4551
  867MPD2    C412777   0.980   3.870  16.993 -0.1130  0.4168  0.3484
  867MPD2    C512778   1.027   3.792  16.887  0.2320  0.0132 -0.1100
  867MPD2     H12779   1.244   3.850  17.205 -1.3386 -0.8166  0.4486
  867MPD2    H112780   0.879   3.907  16.983  0.3397  1.0584 -1.9591
  867MPD2    H212781   1.178   3.658  16.827  2.2429  1.3624  0.3636
  867MPD2    H312782   0.979   3.780  16.791 -2.2399  1.1356  0.9951
  867MPD2     N12783   1.000   3.949  17.222  0.1371  0.4828 -0.5991
  867MPD2    H512784   0.901   3.964  17.205 -0.1148  1.1935  1.4410
  867MPD2    N112785   1.355   3.673  17.009 -0.0040  0.2248  0.1486
  867MPD2    H712786   1.379   3.623  16.924  0.5109 -1.0535  1.0542
  868MPD2     C12787   3.211   2.568  12.702  0.3721 -0.4020 -1.1589
  868MPD2    C112788   3.276   2.682  12.730 -0.0492  0.0466 -0.1377
  868MPD2    C212789   3.195   2.789  12.764  0.3560  0.2383 -0.6824
  868MPD2    C312790   3.058   2.785  12.765 -0.2348  0.1712  0.6856
  868MPD2    C412791   2.998   2.662  12.755 -0.4666 -0.7495 -0.0728
  868MPD2    C512792   3.078   2.554  12.727 -0.0651 -0.3650 -0.5312
  868MPD2     H12793   3.230   2.891  12.773  0.9687  0.0124 -0.5118
  868MPD2    H112794   2.890   2.650  12.753 -0.5130 -0.5016  0.7519
  868MPD2    H212795   3.253   2.471  12.679  0.1469 -0.8662  0.3810
  868MPD2    H312796   3.041   2.452  12.722  0.5494 -0.5921 -0.5037
  868MPD2     N12797   2.984   2.902  12.790 -0.2541  0.2604 -0.0892
  868MPD2    H512798   3.041   2.986  12.796  0.0356  0.2137 -2.0800
  868MPD2    N112799   3.412   2.696  12.704  0.6124 -0.0029  0.2212
  868MPD2    H712800   3.459   2.606  12.696  0.3908 -0.1184  0.2159
  869MPD2     C12801   3.270   0.622   0.661 -0.6898  0.2211  0.2768
  869MPD2    C112802   3.371   0.594   0.572 -0.3262 -0.0812  0.9451
  869MPD2    C212803   3.449   0.693   0.516  0.1038  0.9530  0.7853
  869MPD2    C312804   3.431   0.827   0.561 -0.2026  0.1750 -0.3961
  869MPD2    C412805   3.335   0.854   0.651 -0.1949 -0.2420  0.3973
  869MPD2    C512806   3.252   0.756   0.693 -0.8640 -0.0715 -0.0927
  869MPD2     H12807   3.544   0.669   0.468 -0.6791 -2.2287  0.8049
  869MPD2    H112808   3.323   0.952   0.697  1.1122 -0.2941  0.8508
  869MPD2    H212809   3.213   0.547   0.714 -0.6676 -1.5522 -2.1950
  869MPD2    H312810   3.179   0.772   0.771  2.1046  1.4328  2.3732
  869MPD2     N12811   3.504   0.938   0.517  0.0701 -0.8645 -0.5375
  869MPD2    H512812   3.473   1.029   0.550 -0.3036 -1.4385  0.7002
  869MPD2    N112813   3.379   0.457   0.544 -0.3548  0.5276 -0.3380
  869MPD2    H712814   3.318   0.398   0.600 -1.4194 -0.2005 -2.2775
  870MPD2     C12815   4.637   0.294   0.863 -0.1950  0.0962 -0.6558
  870MPD2    C112816   4.571   0.178   0.880 -0.1453  0.1891  0.0994
  870MPD2    C212817   4.438   0.174   0.891  0.2959  0.3108 -0.1659
  870MPD2    C312818   4.354   0.291   0.886 -0.3989  0.5814 -0.5603
  870MPD2    C412819   4.425   0.415   0.874  0.1707 -0.2988 -0.1749
  870MPD2    C512820   4.565   0.414   0.866  0.2029 -0.0046 -0.3662
  870MPD2     H12821   4.389   0.082   0.921 -1.1094 -0.0423 -3.5142
  870MPD2    H112822   4.383   0.514   0.863  0.8922 -0.1457 -1.5502
  870MPD2    H212823   0.007   0.293   0.854 -0.0554  2.2846  0.8581
  870MPD2    H312824   4.626   0.504   0.859 -0.4540  0.3384 -1.7768
  870MPD2     N12825   4.212   0.278   0.912  0.0606  0.1143  0.2578
  870MPD2    H512826   4.181   0.188   0.945  1.6094 -0.7416 -0.6000
  870MPD2    N112827   4.646   0.059   0.903 -0.5936 -0.4790 -0.3623
  870MPD2    H712828   0.001   0.063   0.861 -0.2838  2.2629  0.6139
  871MPD2     C12829   0.442   4.055  16.385 -0.6415 -0.3071  0.3410
  871MPD2    C112830   0.413   4.017  16.515 -0.0853  0.5048  0.2005
  871MPD2    C212831   0.416   3.884  16.556 -0.7664 -0.0405 -0.5132
  871MPD2    C312832   0.437   3.777  16.470  0.2630  0.6567 -0.4113
  871MPD2    C412833   0.453   3.820  16.339  0.2161 -0.0201 -0.1492
  871MPD2    C512834   0.452   3.955  16.299 -0.4224 -0.6996  0.7186
  871MPD2     H12835   0.409   3.858  16.661 -2.5101  0.1717 -0.5786
  871MPD2    H112836   0.460   3.748  16.259 -0.0888 -1.1946  0.8799
  871MPD2    H212837   0.431   4.153  16.338 -1.0638 -0.3369  0.3847
  871MPD2    H312838   0.468   3.971  16.193  0.7799 -2.8835  0.5868
  871MPD2     N12839   0.448   3.646  16.512  0.2478  0.3538  0.1318
  871MPD2    H512840   0.441   3.622  16.610  1.9937  0.2159  0.2137
  871MPD2    N112841   0.381   4.118  16.608  0.7419 -0.0271 -0.7754
  871MPD2    H712842   0.382   4.213  16.571  3.4157 -0.3285 -1.4466
  872MPD2     C12843   1.596   2.057  14.148 -0.4355  0.4500 -0.2584
  872MPD2    C112844   1.574   2.189  14.107  0.5154  0.1715 -0.1883
  872MPD2    C212845   1.438   2.225  14.097 -0.3346 -0.2466 -0.4140
  872MPD2    C312846   1.332   2.139  14.124  0.0295  1.0342 -0.3060
  872MPD2    C412847   1.363   2.017  14.162 -0.5551  0.0353  0.2295
  872MPD2    C512848   1.490   1.976  14.178 -0.3322  0.0157 -0.2909
  872MPD2     H12849   1.415   2.326  14.065  1.2625  0.4709  0.7362
  872MPD2    H112850   1.286   1.942  14.179 -0.7851 -0.0550 -1.1613
  872MPD2    H212851   1.696   2.021  14.168 -0.3932  0.8713  0.2975
  872MPD2    H312852   1.517   1.879  14.218 -3.5510 -0.9363 -0.3800
  872MPD2     N12853   1.198   2.174  14.129  0.0440 -0.2751 -0.1641
  872MPD2    H512854   1.130   2.118  14.179  0.6731 -0.7360  0.1655
  872MPD2    N112855   1.678   2.279  14.072 -0.3346 -0.1446 -0.2799
  872MPD2    H712856   1.645   2.370  14.043 -0.4979  0.2954  1.3116
  873MPD2     C12857   3.304   2.098   0.580 -0.1024  0.7490  0.0213
  873MPD2    C112858   3.188   2.100   0.652 -0.1144  0.3405 -0.2422
  873MPD2    C212859   3.123   1.977   0.667  0.6996 -0.1422  0.1115
  873MPD2    C312860   3.174   1.859   0.617  0.0951 -0.1937  0.7968
  873MPD2    C412861   3.291   1.859   0.537  1.2058  0.0617 -0.0867
  873MPD2    C512862   3.355   1.979   0.528  0.5637  0.3397  0.5104
  873MPD2     H12863   3.039   1.977   0.735 -0.8929 -2.4130 -1.8514
  873MPD2    H112864   3.337   1.767   0.504  0.2351 -0.2493 -0.5618
  873MPD2    H212865   3.352   2.195   0.566  2.6430 -0.7645 -1.0673
  873MPD2    H312866   3.443   1.984   0.465  0.4630 -0.5042  0.3048
  873MPD2     N12867   3.122   1.726   0.645 -0.3553 -0.0004  0.2405
  873MPD2    H512868   3.146   1.647   0.585 -1.4594 -0.3406  0.2472
  873MPD2    N112869   3.143   2.220   0.705  0.1374 -0.2872 -0.1932
  873MPD2    H712870   3.197   2.301   0.676  0.3018 -0.5783 -0.6873
  874MPD2     C12871   2.627   1.893  16.199 -0.0704 -0.3859  0.9902
  874MPD2    C112872   2.746   1.819  16.198 -0.3440 -0.3161  0.6427
  874MPD2    C212873   2.847   1.848  16.110  0.1186  0.2200  0.5714
  874MPD2    C312874   2.828   1.956  16.021  0.3645  0.0832  0.2993
  874MPD2    C412875   2.714   2.029  16.027  0.6295  0.0463 -0.4433
  874MPD2    C512876   2.620   2.002  16.122  0.2024  0.1760  0.4786
  874MPD2     H12877   2.928   1.777  16.099  0.7061  1.1416 -1.0278
  874MPD2    H112878   2.702   2.117  15.965  0.3824 -1.1260 -2.0581
  874MPD2    H212879   2.555   1.875  16.278 -0.5630  0.1598  0.6644
  874MPD2    H312880   2.537   2.070  16.135  0.6108  1.0271 -1.2783
  874MPD2     N12881   2.914   1.985  15.916  0.6630  0.4650  0.1084
  874MPD2    H512882   2.872   2.034  15.838  1.7716  0.0846 -0.7248
  874MPD2    N112883   2.769   1.732  16.309 -0.1379 -0.0045 -0.0375
  874MPD2    H712884   2.690   1.707  16.367 -1.4482  1.2169 -1.2911
  875MPD2     C12885   3.251   0.492  14.783 -0.1141  0.4209 -0.4199
  875MPD2    C112886   3.350   0.569  14.723 -0.1639 -0.6282  0.1772
  875MPD2    C212887   3.428   0.646  14.800  0.2420 -0.7308 -0.6133
  875MPD2    C312888   3.411   0.658  14.938 -0.3695 -0.2610 -0.8014
  875MPD2    C412889   3.311   0.588  14.996 -0.5383  0.1398 -0.1266
  875MPD2    C512890   3.228   0.510  14.922 -0.4103 -0.2462 -0.1038
  875MPD2     H12891   3.511   0.700  14.754 -0.8250  1.4302 -0.0101
  875MPD2    H112892   3.279   0.597  15.099 -1.0645 -2.2174 -0.0649
  875MPD2    H212893   3.193   0.415  14.733 -2.1369  2.0983 -0.6520
  875MPD2    H312894   3.139   0.461  14.958 -1.1434  1.6954  0.7352
  875MPD2     N12895   3.507   0.728  15.022 -0.2332  0.0611  0.0293
  875MPD2    H512896   3.487   0.740  15.120  3.8986  1.3582  0.7347
  875MPD2    N112897   3.369   0.564  14.582  0.4973 -0.0394  0.4050
  875MPD2    H712898   3.414   0.637  14.526 -1.2870  1.1114  0.4762
  876MPD2     C12899   2.628   1.728  15.813 -0.1676 -0.0645  0.4397
  876MPD2    C112900   2.754   1.688  15.772 -0.6405 -0.0893 -0.0579
  876MPD2    C212901   2.818   1.599  15.844  0.1710 -0.1734  0.2903
  876MPD2    C312902   2.756   1.536  15.950  0.4138 -0.5145  0.6357
  876MPD2    C412903   2.628   1.573  15.992  0.1434 -0.1355 -0.0935
  876MPD2    C512904   2.566   1.673  15.919 -0.2417  0.7297 -0.8510
  876MPD2     H12905   2.918   1.567  15.819  0.9104  1.2677  1.4057
  876MPD2    H112906   2.583   1.529  16.080 -0.9981 -1.1300 -1.1760
  876MPD2    H212907   2.580   1.810  15.761 -0.3439 -1.1519 -1.1028
  876MPD2    H312908   2.465   1.705  15.941  0.0468  0.5621  0.7125
  876MPD2     N12909   2.831   1.431  16.009  0.1930 -0.1568 -0.2342
  876MPD2    H512910   2.922   1.413  15.969 -0.5247  0.8302 -2.3347
  876MPD2    N112911   2.805   1.748  15.652  0.0410  0.3824  0.2177
  876MPD2    H712912   2.743   1.816  15.610  1.0370  1.7275  0.9118
  877MPD2     C12913   2.708   2.271  15.089 -0.0483 -0.1046  0.4948
  877MPD2    C112914   2.843   2.262  15.097 -0.6506  1.1783 -0.2475
  877MPD2    C212915   2.925   2.315  15.000 -0.5308 -0.2443  0.1933
  877MPD2    C312916   2.867   2.378  14.889  0.2485  0.5653  0.9418
  877MPD2    C412917   2.726   2.370  14.880  0.1901  0.7953 -0.3545
  877MPD2    C512918   2.650   2.304  14.972  0.1738 -0.6095  0.1432
  877MPD2     H12919   3.031   2.316  15.021 -0.8743 -1.4096  2.0233
  877MPD2    H112920   2.682   2.412  14.791  2.1756  0.5710 -1.4248
  877MPD2    H212921   2.646   2.241  15.172  0.7433 -0.6153  0.8991
  877MPD2    H312922   2.543   2.296  14.956  0.2885 -1.9721 -0.0060
  877MPD2     N12923   2.941   2.436  14.785 -0.5673  0.0698 -0.2371
  877MPD2    H512924   2.882   2.469  14.709 -1.3967 -0.6920  0.0784
  877MPD2    N112925   2.902   2.201  15.213 -0.3737 -0.3050  0.2381
  877MPD2    H712926   3.001   2.218  15.228 -0.7222  2.0271 -0.0552
  878MPD2     C12927   2.651   1.079  12.778  0.1492 -0.3518  1.1540
  878MPD2    C112928   2.620   1.210  12.754 -0.4488  0.1043 -0.1445
  878MPD2    C212929   2.619   1.295  12.861 -0.1232 -0.0885 -0.1008
  878MPD2    C312930   2.633   1.248  12.993  0.0636  0.3574 -0.2461
  878MPD2    C412931   2.647   1.115  13.016 -0.2739  0.3895 -0.1090
  878MPD2    C512932   2.670   1.035  12.908 -0.1523 -0.7240 -0.0970
  878MPD2     H12933   2.606   1.401  12.846 -0.0128 -0.5261 -3.2963
  878MPD2    H112934   2.686   1.074  13.108 -0.0131 -1.6411 -1.1260
  878MPD2    H212935   2.665   1.008  12.697 -1.3562  2.0634 -1.2165
  878MPD2    H312936   2.699   0.933  12.929 -0.3320 -0.5928  0.7966
  878MPD2     N12937   2.637   1.346  13.102 -0.4549 -0.1027 -0.6661
  878MPD2    H512938   2.630   1.445  13.081  0.6686 -0.0722 -0.8947
  878MPD2    N112939   2.611   1.255  12.619 -0.2778  0.2489  0.7615
  878MPD2    H712940   2.613   1.185  12.545  0.0110  0.3255  0.6942
  879MPD2     C12941   2.416   2.762  16.992  0.1641 -0.1349 -0.4797
  879MPD2    C112942   2.531   2.704  17.041 -0.6668 -0.3018 -0.8381
  879MPD2    C212943   2.566   2.575  16.994 -0.0530  0.6194 -0.3713
  879MPD2    C312944   2.487   2.517  16.895  0.3111 -0.0917 -0.0071
  879MPD2    C412945   2.368   2.573  16.847  0.2578  1.1964 -0.6107
  879MPD2    C512946   2.340   2.701  16.895  0.3602 -0.0291  0.6630
  879MPD2     H12947   2.660   2.538  17.032 -1.3337  1.7718  3.9634
  879MPD2    H112948   2.298   2.521  16.783  2.1970 -2.5873  0.3675
  879MPD2    H212949   2.385   2.861  17.022  0.6839 -0.1019 -0.0462
  879MPD2    H312950   2.251   2.753  16.862  0.3818  0.2509  1.0364
  879MPD2     N12951   2.525   2.391  16.830  0.5595 -0.4441 -0.1499
  879MPD2    H512952   2.472   2.356  16.750 -0.3900  1.0270 -0.1780
  879MPD2    N112953   2.618   2.785  17.120 -0.7907  0.3505  0.1360
  879MPD2    H712954   2.592   2.882  17.135 -0.7083  0.7504 -2.3583
  880MPD2     C12955   3.759   3.969  17.650  0.7531 -0.4654  0.1327
  880MPD2    C112956   3.778   4.061   0.011 -0.5129  0.5396 -0.1812
  880MPD2    C212957   3.880   4.040   0.095  0.0666  0.0659 -0.5865
  880MPD2    C312958   3.969   3.937   0.092 -0.0433 -0.0160  0.2718
  880MPD2    C412959   3.953   3.848  17.736  0.6476  0.5433  1.1019
  880MPD2    C512960   3.848   3.863  17.647 -0.4209  1.0112 -0.3093
  880MPD2     H12961   3.903   4.124   0.159 -1.4714 -0.0553  0.1088
  880MPD2    H112962   4.028   3.771  17.718  1.5355  1.6919 -0.0883
  880MPD2    H212963   3.677   3.973  17.580  2.2075 -0.2159 -1.5509
  880MPD2    H312964   3.846   3.800  17.559 -0.2106 -0.5586  0.8115
  880MPD2     N12965   4.076   3.958   0.187 -0.4129 -0.3855 -0.1795
  880MPD2    H512966   4.073   4.044   0.239 -0.4888 -2.1106  2.6775
  880MPD2    N112967   3.696   4.179   0.024  1.0515  0.2678  0.1137
  880MPD2    H712968   3.719   4.237   0.103  0.1239 -0.7631  1.1408
  881MPD2     C12969   4.006   0.336  17.492 -0.0961  0.8808 -0.0874
  881MPD2    C112970   3.996   0.222  17.415  0.3852  0.0085  0.2514
  881MPD2    C212971   3.897   0.130  17.455  0.4088  0.1073  0.4993
  881MPD2    C312972   3.800   0.162  17.551  0.0685 -0.0637  0.9093
  881MPD2    C412973   3.810   0.291  17.612 -0.1206 -0.0273  0.2243
  881MPD2    C512974   3.908   0.377  17.572 -0.2838  0.3626 -0.2074
  881MPD2     H12975   3.886   0.032  17.411 -0.3077 -0.7208  2.5529
  881MPD2    H112976   3.739   0.317  17.690 -0.8637 -0.6623 -0.2390
  881MPD2    H212977   4.070   0.419  17.463 -0.6815  1.7359  1.0690
  881MPD2    H312978   3.912   0.474  17.621 -1.3154  0.0909  0.4168
  881MPD2     N12979   3.706   0.067  17.603  0.0811 -0.0120  0.8816
  881MPD2    H512980   3.643   0.118  17.665  0.8604 -0.5116  2.0949
  881MPD2    N112981   4.110   0.190  17.344  0.5531  0.5289  0.0961
  881MPD2    H712982   4.178   0.263  17.324  0.5119  0.5229 -0.0638
  882MPD2     C12983   3.026   2.064  14.177 -0.3970  0.5354  0.1763
  882MPD2    C112984   2.969   2.180  14.229  0.5688 -0.6243  0.2930
  882MPD2    C212985   2.831   2.177  14.252 -0.6082  0.4525  0.1774
  882MPD2    C312986   2.751   2.066  14.232  0.3574  0.1766 -0.6539
  882MPD2    C412987   2.808   1.958  14.160  0.6652 -0.6909  0.1283
  882MPD2    C512988   2.944   1.963  14.134  0.5426 -0.2076  0.3191
  882MPD2     H12989   2.785   2.270  14.285 -0.7231  0.7580 -0.8255
  882MPD2    H112990   2.750   1.875  14.122 -2.5343  1.4289  0.4755
  882MPD2    H212991   3.132   2.063  14.156 -0.7186  0.2867 -1.4362
  882MPD2    H312992   2.993   1.882  14.081  0.6203 -0.7242  1.1785
  882MPD2     N12993   2.610   2.065  14.250  0.4815 -0.5574 -0.6396
  882MPD2    H512994   2.565   1.979  14.219  1.2522 -0.4590 -2.0139
  882MPD2    N112995   3.048   2.291  14.276 -0.0449 -0.1442  0.6166
  882MPD2    H712996   3.148   2.286  14.287 -0.2067 -0.6168  1.8392
  883MPD2     C12997   4.603   2.167  16.285  0.0926  0.2228 -0.5139
  883MPD2    C112998   4.679   2.172  16.169 -0.7624  0.4566 -0.1776
  883MPD2    C212999   0.064   2.113  16.161 -0.4609 -0.1231 -0.0392
  883MPD2    C313000   0.107   2.036  16.262  0.1646 -0.1423  0.0434
  883MPD2    C413001   0.028   2.008  16.370  0.1818  0.1854 -0.3550
  883MPD2    C513002   4.640   2.077  16.384  0.0269 -0.7214 -0.0543
  883MPD2     H13003   0.120   2.119  16.068 -0.3035  0.8542  0.1141
  883MPD2    H113004   0.062   1.952  16.457  0.8495  3.9300  1.7957
  883MPD2    H213005   4.503   2.208  16.296 -0.2569 -0.6772 -0.3373
  883MPD2    H313006   4.580   2.043  16.468  0.7383 -0.9635  0.3560
  883MPD2     N13007   0.242   1.975  16.251 -0.5072 -0.3821  0.6152
  883MPD2    H513008   0.291   1.995  16.164 -0.4722  0.6202  0.8705
  883MPD2    N113009   4.638   2.243  16.059 -0.5745 -0.0493  0.0765
  883MPD2    H713010   4.710   2.263  15.991 -1.0280  0.1056 -0.3588
  884MPD2     C13011   1.952   2.864  15.150 -0.5134  0.3663 -0.3402
  884MPD2    C113012   1.942   2.989  15.095  0.9346  0.1823  0.4848
  884MPD2    C213013   1.816   3.050  15.092 -0.0108  0.6470  0.5112
  884MPD2    C313014   1.702   2.986  15.136  0.0712 -0.2358 -0.0388
  884MPD2    C413015   1.714   2.849  15.159 -0.2656  0.9694  1.0297
  884MPD2    C513016   1.831   2.792  15.168 -0.4656  0.0315 -0.3565
  884MPD2     H13017   1.825   3.153  15.060  1.7207 -0.0219 -1.1239
  884MPD2    H113018   1.623   2.790  15.170  0.6506 -0.5534  0.4033
  884MPD2    H213019   2.046   2.811  15.159 -0.6601  0.7036  2.9210
  884MPD2    H313020   1.839   2.686  15.191  0.0896 -0.2654 -1.9450
  884MPD2     N13021   1.574   3.056  15.145 -0.1349  0.1762  0.1043
  884MPD2    H513022   1.587   3.150  15.107  0.1109  0.6341  1.3110
  884MPD2    N113023   2.056   3.054  15.049 -0.2482  0.6059  0.0725
  884MPD2    H713024   2.046   3.155  15.035 -1.9069  0.7394  2.2230
  885MPD2     C13025   4.473   3.104   0.496 -0.4365  0.0399  0.8325
  885MPD2    C113026   4.582   3.024   0.460  0.0627  0.3264 -1.2910
  885MPD2    C213027   4.599   2.991   0.327  0.2263 -0.0065  0.1360
  885MPD2    C313028   4.500   3.032   0.232 -0.3890 -0.1599 -0.4908
  885MPD2    C413029   4.393   3.103   0.270  0.0269  0.5551  0.0530
  885MPD2    C513030   4.383   3.141   0.397  0.0865  0.3755  0.7090
  885MPD2     H13031   4.681   2.924   0.307  0.7776  0.6665  0.1281
  885MPD2    H113032   4.325   3.145   0.198  0.6953  0.5128 -0.6017
  885MPD2    H213033   4.459   3.141   0.597  1.5952 -1.5623  1.6967
  885MPD2    H313034   4.300   3.204   0.427  0.6634  1.3747  0.2002
  885MPD2     N13035   4.505   2.995   0.099  0.3368  0.3705  0.1219
  885MPD2    H513036   4.432   3.023   0.034  0.9879  2.2073  0.1941
  885MPD2    N113037   4.678   2.973   0.554  0.2258 -0.0316  0.5631
  885MPD2    H713038   4.729   2.887   0.535 -0.1683  0.5130 -2.9321
  886MPD2     C13039   1.399   1.611  15.184 -0.5010  0.2714  0.3789
  886MPD2    C113040   1.534   1.598  15.151  0.7919 -0.9193 -0.1833
  886MPD2    C213041   1.583   1.701  15.065 -0.7437 -0.2955 -0.1448
  886MPD2    C313042   1.501   1.807  15.020 -1.1864  0.2870 -0.0467
  886MPD2    C413043   1.370   1.802  15.043 -0.2063 -0.2478  0.1612
  886MPD2    C513044   1.324   1.702  15.125  0.1076 -0.4347 -0.3198
  886MPD2     H13045   1.687   1.701  15.034 -0.2135  1.1020  1.6301
  886MPD2    H113046   1.296   1.869  15.001 -0.7762 -0.9357  0.0421
  886MPD2    H213047   1.343   1.533  15.234  1.3854 -1.6961 -0.5247
  886MPD2    H313048   1.221   1.708  15.159  1.3160  2.6846  2.8138
  886MPD2     N13049   1.565   1.901  14.943  0.1782 -0.2356  0.1327
  886MPD2    H513050   1.667   1.896  14.938  0.2386  0.1606  0.7962
  886MPD2    N113051   1.618   1.492  15.194 -0.1434  0.1691 -0.2649
  886MPD2    H713052   1.713   1.495  15.157 -0.8703  0.3577 -2.0949
  887MPD2     C13053   2.296   1.374  15.499  0.0094 -0.9613 -0.4035
  887MPD2    C113054   2.183   1.448  15.468  0.2250 -0.2226 -0.3627
  887MPD2    C213055   2.205   1.586  15.455  0.2314 -0.4883 -0.5688
  887MPD2    C313056   2.332   1.638  15.466  0.1660  0.5110 -0.0524
  887MPD2    C413057   2.441   1.555  15.476 -0.0340  0.0643  0.7262
  887MPD2    C513058   2.424   1.425  15.505  0.3461  0.2774  0.5918
  887MPD2     H13059   2.121   1.644  15.422 -1.3103 -2.9686 -1.0289
  887MPD2    H113060   2.545   1.586  15.473  0.0986 -0.6107 -1.8781
  887MPD2    H213061   2.285   1.270  15.528  0.7152 -0.8457  0.2853
  887MPD2    H313062   2.507   1.356  15.516 -1.0266 -1.0821  2.3725
  887MPD2     N13063   2.343   1.787  15.469 -0.4671 -0.8368  0.1216
  887MPD2    H513064   2.259   1.844  15.458 -0.4420 -0.9845 -0.8934
  887MPD2    N113065   2.050   1.394  15.469  0.2631  0.3535  0.0823
  887MPD2    H713066   1.973   1.459  15.460 -0.8518 -0.7263  1.9125
  888MPD2     C13067   3.721   1.501  14.785  0.1247  0.0219 -0.3721
  888MPD2    C113068   3.723   1.535  14.925 -0.2056 -0.4685  0.1842
  888MPD2    C213069   3.794   1.642  14.968 -0.4422 -0.3114 -0.4562
  888MPD2    C313070   3.852   1.730  14.878 -0.0559  0.1571 -0.3239
  888MPD2    C413071   3.841   1.706  14.746  0.6141 -0.0272 -0.0022
  888MPD2    C513072   3.793   1.581  14.700  0.3797  0.0819  0.3249
  888MPD2     H13073   3.801   1.651  15.076  2.5311 -1.0249 -0.5889
  888MPD2    H113074   3.880   1.770  14.668  2.8095 -1.9763 -0.4997
  888MPD2    H213075   3.688   1.408  14.740 -1.6166  0.7072 -0.4878
  888MPD2    H313076   3.775   1.569  14.593  0.0538 -0.4942  0.4470
  888MPD2     N13077   3.919   1.841  14.930 -0.2141  0.0706  0.0381
  888MPD2    H513078   3.912   1.848  15.031 -1.9484 -2.9304  0.1211
  888MPD2    N113079   3.646   1.455  15.018  0.4687 -0.1864 -0.6950
  888MPD2    H713080   3.652   1.486  15.115 -0.5162 -1.3402 -0.2532
  889MPD2     C13081   2.928   1.462  12.811 -0.5739  0.2211 -0.5433
  889MPD2    C113082   2.962   1.404  12.931 -0.1137  0.2557  1.0656
  889MPD2    C213083   3.017   1.486  13.029  0.1567  0.0052  0.2188
  889MPD2    C313084   2.979   1.618  13.049 -0.4990  0.2566  0.3476
  889MPD2    C413085   2.902   1.668  12.946 -0.1495  0.1026  0.2179
  889MPD2    C513086   2.889   1.593  12.829 -0.1614 -0.0822  0.4824
  889MPD2     H13087   3.064   1.442  13.117  2.9513  0.7402 -0.9131
  889MPD2    H113088   2.863   1.769  12.937  1.4601  0.9609  2.7704
  889MPD2    H213089   2.907   1.409  12.719  0.8338  0.3869 -0.9634
  889MPD2    H313090   2.839   1.648  12.750 -0.1369 -1.0259 -0.1878
  889MPD2     N13091   3.024   1.704  13.155  0.4173 -0.2672  0.4618
  889MPD2    H513092   3.084   1.657  13.223  0.3535  0.7268  1.2047
  889MPD2    N113093   2.998   1.267  12.942  0.5838 -0.1143  0.0636
  889MPD2    H713094   3.026   1.241  13.036 -0.4257 -0.6867  0.1997
  890MPD2     C13095   2.611   3.233  14.450 -0.5000  0.2526  0.9612
  890MPD2    C113096   2.731   3.295  14.478  0.0647 -0.9111  0.7475
  890MPD2    C213097   2.810   3.243  14.581 -0.8903  0.1634 -0.2380
  890MPD2    C313098   2.774   3.122  14.645  0.4418  0.3019 -0.5187
  890MPD2    C413099   2.654   3.067  14.615 -0.5547 -0.6123 -0.2805
  890MPD2    C513100   2.575   3.121  14.515  0.3759  0.1216  0.2095
  890MPD2     H13101   2.909   3.279  14.608 -1.2462  0.9871 -0.0197
  890MPD2    H113102   2.616   2.973  14.654 -2.8757  0.3644 -0.1672
  890MPD2    H213103   2.558   3.266  14.361 -0.1814  0.8043  0.9770
  890MPD2    H313104   2.498   3.057  14.474 -0.1235 -0.6330  2.3247
  890MPD2     N13105   2.861   3.064  14.739 -0.2255  0.1444 -0.1970
  890MPD2    H513106   2.937   3.121  14.773 -0.8567  0.8372  0.0466
  890MPD2    N113107   2.774   3.391  14.387 -0.3213  0.4625 -0.0757
  890MPD2    H713108   2.710   3.421  14.314  0.5685  0.0572 -1.0239
  891MPD2     C13109   1.084   1.542  16.506  0.6313  0.4465 -0.3710
  891MPD2    C113110   0.977   1.465  16.549 -0.3814 -0.0699 -0.5386
  891MPD2    C213111   0.987   1.388  16.668 -0.6186 -0.5646 -0.2766
  891MPD2    C313112   1.107   1.389  16.743  0.6173 -0.2042 -0.3695
  891MPD2    C413113   1.208   1.478  16.702 -0.3974  0.2097 -0.1355
  891MPD2    C513114   1.190   1.554  16.591  0.5213 -0.0288  0.3603
  891MPD2     H13115   0.907   1.322  16.702 -2.0710  0.4625 -1.7174
  891MPD2    H113116   1.305   1.487  16.750 -0.4896  1.5576 -0.2038
  891MPD2    H213117   1.074   1.613  16.425  0.1111  1.3289  0.4574
  891MPD2    H313118   1.269   1.627  16.576 -0.1415  0.1466 -2.3340
  891MPD2     N13119   1.122   1.288  16.841  0.0140 -0.2099 -0.3475
  891MPD2    H513120   1.041   1.230  16.861  0.3276 -1.4527 -2.6803
  891MPD2    N113121   0.859   1.469  16.467 -0.1818  0.2887  0.6482
  891MPD2    H713122   0.861   1.525  16.382  0.4458 -0.8988 -0.1185
  892MPD2     C13123   2.052   2.874  14.413  0.3801  0.1506 -0.6473
  892MPD2    C113124   1.975   2.770  14.458  0.6990  0.8653  0.0854
  892MPD2    C213125   2.029   2.639  14.457 -0.2328 -0.3314  0.5944
  892MPD2    C313126   2.146   2.608  14.388  0.0592 -0.8698  0.6945
  892MPD2    C413127   2.220   2.716  14.332 -0.3521  0.1544  0.3418
  892MPD2    C513128   2.174   2.848  14.360 -0.2449  0.4650 -0.1648
  892MPD2     H13129   1.984   2.553  14.505  0.8477 -2.0576 -1.4575
  892MPD2    H113130   2.318   2.694  14.291  0.1411  1.4927  0.7971
  892MPD2    H213131   2.015   2.976  14.419 -1.3600 -0.4019 -2.1956
  892MPD2    H313132   2.232   2.930  14.318 -3.0256  2.5645  0.1033
  892MPD2     N13133   2.185   2.475  14.359 -0.3072  0.3336  0.5615
  892MPD2    H513134   2.279   2.467  14.322 -0.6508  3.7227 -1.1503
  892MPD2    N113135   1.845   2.781  14.497  0.1406  0.5107 -0.1991
  892MPD2    H713136   1.805   2.705  14.552  1.3630  0.4013  0.5293
  893MPD2     C13137   2.727   1.052   1.525 -0.2969  0.2786  0.7816
  893MPD2    C113138   2.702   0.979   1.411 -0.1752 -1.2325  0.5397
  893MPD2    C213139   2.566   0.946   1.382 -0.0917 -0.4472 -0.1323
  893MPD2    C313140   2.459   0.995   1.456 -0.0374  0.2993  0.8703
  893MPD2    C413141   2.488   1.063   1.570  0.7192 -0.2874  0.3321
  893MPD2    C513142   2.620   1.089   1.603  0.3843 -0.0719  0.6039
  893MPD2     H13143   2.558   0.868   1.307 -0.6975  0.3266 -0.8758
  893MPD2    H113144   2.423   1.106   1.645  0.3467  0.5592 -0.4815
  893MPD2    H213145   2.825   1.084   1.558  0.1456 -1.4422  1.1308
  893MPD2    H313146   2.644   1.135   1.698  0.7899 -1.7295  1.3125
  893MPD2     N13147   2.328   0.965   1.413 -0.3944 -0.7548  0.6713
  893MPD2    H513148   2.254   0.973   1.482 -1.3141  1.6948 -0.5756
  893MPD2    N113149   2.808   0.919   1.337 -0.2558 -0.7383 -0.2944
  893MPD2    H713150   2.906   0.940   1.354 -0.4762 -0.0607  0.1199
  894MPD2     C13151   1.263   3.734   1.129 -0.0811  0.1883 -0.5373
  894MPD2    C113152   1.313   3.825   1.220  0.2797  0.3592  0.7587
  894MPD2    C213153   1.426   3.783   1.294  0.7604  0.4121 -0.3702
  894MPD2    C313154   1.477   3.658   1.277  0.1901 -0.0497 -0.1952
  894MPD2    C413155   1.430   3.567   1.186  0.5255 -0.0282  0.6492
  894MPD2    C513156   1.324   3.613   1.109  0.2246  0.3842  0.8356
  894MPD2     H13157   1.466   3.848   1.371  0.5454  1.7666 -1.4019
  894MPD2    H113158   1.464   3.466   1.169 -0.5112 -0.3167  0.2610
  894MPD2    H213159   1.183   3.762   1.062  1.4971 -0.9204 -2.8751
  894MPD2    H313160   1.284   3.553   1.027  2.0498 -0.3111  0.4442
  894MPD2     N13161   1.582   3.618   1.364 -0.3267  0.3354  1.1665
  894MPD2    H513162   1.621   3.699   1.412  0.7927  0.5560 -0.1256
  894MPD2    N113163   1.271   3.958   1.249  0.0199 -0.4179 -0.0395
  894MPD2    H713164   1.334   4.000   1.316 -0.9450  1.6907 -0.4522
  895MPD2     C13165   1.454   1.780  13.493 -0.2999  0.1225 -0.7280
  895MPD2    C113166   1.340   1.773  13.418  0.3629 -0.1939  1.1890
  895MPD2    C213167   1.290   1.644  13.399 -0.4832 -0.3386  0.3622
  895MPD2    C313168   1.347   1.528  13.443  0.6204 -0.0119  0.6857
  895MPD2    C413169   1.462   1.539  13.516 -0.2158 -0.6755  0.0565
  895MPD2    C513170   1.516   1.663  13.531 -0.3411 -0.2028  0.6070
  895MPD2     H13171   1.190   1.641  13.357  0.7386  0.7723 -2.6668
  895MPD2    H113172   1.525   1.454  13.539 -2.4553 -2.0738  0.9034
  895MPD2    H213173   1.503   1.873  13.523 -0.6615  0.5668 -1.5146
  895MPD2    H313174   1.607   1.670  13.589 -0.1890 -1.1283  0.4740
  895MPD2     N13175   1.296   1.402  13.400  0.8479  0.3245  0.3629
  895MPD2    H513176   1.213   1.407  13.342 -0.0019 -3.4992  1.2401
  895MPD2    N113177   1.263   1.881  13.378  0.0680  0.4897 -0.0168
  895MPD2    H713178   1.182   1.860  13.322  0.3569 -2.1313  0.5671
  896MPD2     C13179   3.446   4.517   1.424  0.0708 -0.0874 -0.3684
  896MPD2    C113180   3.394   4.461   1.308 -0.3453  0.3302  0.4268
  896MPD2    C213181   3.270   4.402   1.312 -0.3745  0.6351  0.0637
  896MPD2    C313182   3.202   4.390   1.431 -0.3436  0.1272 -0.5367
  896MPD2    C413183   3.256   4.446   1.553 -0.0054 -0.0109 -0.1885
  896MPD2    C513184   3.377   4.515   1.544  0.0404 -0.6011 -0.1911
  896MPD2     H13185   3.230   4.350   1.226  1.0210  0.7274 -0.6422
  896MPD2    H113186   3.204   4.435   1.647  1.6434 -0.6421  0.6440
  896MPD2    H213187   3.541   4.569   1.420  0.1608 -0.1597  0.7917
  896MPD2    H313188   3.416   4.556   1.637  0.6536 -1.8228  0.1051
  896MPD2     N13189   3.082   4.308   1.426 -0.5137 -0.1366 -0.0326
  896MPD2    H513190   3.059   4.267   1.336 -2.2468  0.1018  0.3092
  896MPD2    N113191   3.474   4.457   1.185 -0.3484 -0.4803  0.4784
  896MPD2    H713192   3.569   4.492   1.189 -0.0582 -0.7954 -3.7684
  897MPD2     C13193   4.144   1.054  10.084  0.1195  0.6872  0.0694
  897MPD2    C113194   4.064   1.110  10.176 -0.0347  0.3669 -0.2672
  897MPD2    C213195   4.072   1.060  10.307  0.1066 -0.1723  0.0533
  897MPD2    C313196   4.163   0.957  10.337  0.1564 -0.5427 -0.3316
  897MPD2    C413197   4.244   0.900  10.239 -0.1233 -0.1439  0.6252
  897MPD2    C513198   4.238   0.956  10.115  0.3961 -0.0466  0.3681
  897MPD2     H13199   4.008   1.099  10.385 -0.4206 -1.0810  0.0806
  897MPD2    H113200   4.319   0.825  10.259 -1.4715 -0.9182  2.8677
  897MPD2    H213201   4.120   1.083   9.982 -0.4112  1.1050  0.3136
  897MPD2    H313202   4.316   0.933  10.043 -0.2608 -3.1225  0.6328
  897MPD2     N13203   4.169   0.922  10.471 -0.4117 -0.2433 -0.3436
  897MPD2    H513204   4.116   0.972  10.542  0.8302 -2.4430  2.1294
  897MPD2    N113205   3.981   1.219  10.137  0.8849  0.0777  0.1581
  897MPD2    H713206   3.994   1.245  10.040  1.2875  1.6085  0.6188
  898MPD2     C13207   0.937   1.631   0.330  0.1355  0.3177  0.2870
  898MPD2    C113208   1.064   1.637   0.370 -0.2959  0.3582  0.1064
  898MPD2    C213209   1.126   1.763   0.392 -0.4372  0.9308 -0.8665
  898MPD2    C313210   1.073   1.875   0.340 -0.4893 -0.1997 -0.2026
  898MPD2    C413211   0.949   1.867   0.284  0.2915 -0.5159  0.2068
  898MPD2    C513212   0.883   1.745   0.290 -0.3581  0.2423  0.0643
  898MPD2     H13213   1.228   1.774   0.428 -0.6914  0.7959 -0.1078
  898MPD2    H113214   0.896   1.957   0.253  0.6889 -0.7191 -1.0441
  898MPD2    H213215   0.871   1.545   0.332  0.4760  0.0248 -1.1133
  898MPD2    H313216   0.780   1.747   0.255 -0.8360 -0.4891  1.4251
  898MPD2     N13217   1.144   1.997   0.348 -0.6720  0.6014 -0.0528
  898MPD2    H513218   1.230   2.005   0.402 -2.1629 -1.0533  2.5120
  898MPD2    N113219   1.141   1.525   0.413 -0.1007 -0.3833  0.2065
  898MPD2    H713220   1.233   1.556   0.442  0.4357 -3.2269  1.5791
  899MPD2     C13221   2.535   2.063  17.395  0.2693  0.5449 -0.4256
  899MPD2    C113222   2.561   2.174  17.470  0.1434 -0.6335 -0.4448
  899MPD2    C213223   2.639   2.167  17.584  0.9863 -0.2886 -0.4408
  899MPD2    C313224   2.692   2.041  17.618  1.1765 -0.1450  0.2408
  899MPD2    C413225   2.653   1.934  17.552 -0.3557 -0.4312 -0.8660
  899MPD2    C513226   2.586   1.942  17.434  0.5197 -0.0101 -0.4560
  899MPD2     H13227   2.638   2.249  17.655  1.6486 -1.3611  0.8085
  899MPD2    H113228   2.667   1.832  17.586 -1.4431 -0.1622  0.3874
  899MPD2    H213229   2.491   2.077  17.297  2.2765 -1.7063 -1.6275
  899MPD2    H313230   2.559   1.856  17.373 -0.3933 -0.5960  0.7891
  899MPD2     N13231   2.763   2.022  17.729 -0.8049 -0.4465  0.5239
  899MPD2    H513232   2.789   1.925  17.740  1.4680 -0.0326 -1.1961
  899MPD2    N113233   2.503   2.293  17.430  0.6356  0.2690  0.5689
  899MPD2    H713234   2.443   2.294  17.349  0.2264  0.2419  0.8674
  900MPD2     C13235   1.937   3.962  12.517  0.1723  0.0250  0.2291
  900MPD2    C113236   1.843   3.915  12.429 -0.1092  0.4001  1.0756
  900MPD2    C213237   1.762   4.006  12.360  0.1327  0.0713 -0.4336
  900MPD2    C313238   1.773   4.144  12.389 -0.2612  0.9000  0.2342
  900MPD2    C413239   1.871   4.182  12.479 -0.2762  0.3414  0.6217
  900MPD2    C513240   1.952   4.093  12.545 -0.4472 -0.3465  0.1162
  900MPD2     H13241   1.711   3.969  12.271  0.8414 -2.3743  0.1678
  900MPD2    H113242   1.882   4.286  12.511 -1.4415  0.7107 -0.1759
  900MPD2    H213243   2.001   3.895  12.573  1.2800 -0.0832 -1.1680
  900MPD2    H313244   2.028   4.126  12.615 -0.9328 -1.4068  1.1426
  900MPD2     N13245   1.676   4.234  12.332  0.0142 -0.4546 -0.1130
  900MPD2    H513246   1.600   4.192  12.279 -1.5729 -1.3907  2.9392
  900MPD2    N113247   1.829   3.773  12.414  0.1826 -0.3009 -0.0936
  900MPD2    H713248   1.893   3.717  12.469  0.0743 -0.4624 -0.1329
  901MPD2     C13249   1.577   2.766  12.051  0.0317  0.4326  0.7227
  901MPD2    C113250   1.712   2.781  12.072 -0.0047  0.0330  0.7462
  901MPD2    C213251   1.754   2.908  12.112  0.3920 -0.1926 -0.5308
  901MPD2    C313252   1.664   3.006  12.144  0.6520  0.5555 -0.1993
  901MPD2    C413253   1.529   2.987  12.134  0.1222  0.7950 -0.0151
  901MPD2    C513254   1.487   2.861  12.090 -0.0172  0.0661  0.1067
  901MPD2     H13255   1.860   2.929  12.116  0.9979 -3.1473 -0.7750
  901MPD2    H113256   1.452   3.058  12.162 -2.3513 -0.9964 -2.1454
  901MPD2    H213257   1.546   2.663  12.031  1.5063  0.4335 -1.5468
  901MPD2    H313258   1.381   2.838  12.088 -0.1240  0.7905 -1.9936
  901MPD2     N13259   1.727   3.126  12.185 -0.0697 -0.0827 -0.0311
  901MPD2    H513260   1.826   3.123  12.207  0.0028  0.8233 -0.2553
  901MPD2    N113261   1.793   2.670  12.042 -0.3825 -0.0479 -0.5447
  901MPD2    H713262   1.745   2.593  11.997 -1.3336  0.5776 -0.6063
  902MPD2     C13263   1.037   2.037  12.575  0.7347  0.3885  0.0277
  902MPD2    C113264   1.134   2.136  12.585 -1.0393 -0.8330 -0.0137
  902MPD2    C213265   1.272   2.101  12.594 -0.3107  0.4051  0.1573
  902MPD2    C313266   1.311   1.968  12.585 -0.0461 -0.6986 -0.4944
  902MPD2    C413267   1.214   1.871  12.566 -0.4401  0.0471  0.1382
  902MPD2    C513268   1.078   1.908  12.570 -0.7217 -0.0363  0.3054
  902MPD2     H13269   1.349   2.178  12.594 -0.8884  0.9768 -0.4582
  902MPD2    H113270   1.245   1.771  12.540 -0.6495 -0.0625  0.3196
  902MPD2    H213271   0.933   2.063  12.556  0.4849 -1.7728 -1.6018
  902MPD2    H313272   1.005   1.830  12.551  0.8279 -0.9385 -1.9377
  902MPD2     N13273   1.448   1.932  12.571 -0.8108 -0.2212  0.6232
  902MPD2    H513274   1.455   1.846  12.518 -0.5965 -0.4829  1.0785
  902MPD2    N113275   1.077   2.268  12.564  0.0638  0.0028  0.4553
  902MPD2    H713276   0.977   2.273  12.548  0.2445  2.2478 -0.0390
  903MPD2     C13277   1.343   2.621  12.308 -0.1485 -0.1844  0.3197
  903MPD2    C113278   1.298   2.487  12.275 -0.0631 -0.1904 -0.3865
  903MPD2    C213279   1.164   2.464  12.235 -0.4533 -0.1417  0.6748
  903MPD2    C313280   1.070   2.567  12.218 -0.8482  0.6287 -0.5035
  903MPD2    C413281   1.123   2.700  12.234  0.4643 -0.0832  0.4515
  903MPD2    C513282   1.247   2.725  12.280 -0.1058  0.4418  0.2551
  903MPD2     H13283   1.131   2.361  12.229 -1.6338  0.3692 -1.6157
  903MPD2    H113284   1.066   2.791  12.243 -0.7283 -0.7077 -0.7661
  903MPD2    H213285   1.441   2.641  12.349 -1.5549  2.3009  2.4463
  903MPD2    H313286   1.276   2.828  12.299  2.1690  0.0724 -1.1938
  903MPD2     N13287   0.930   2.540  12.197  0.4272 -0.2469  0.5435
  903MPD2    H513288   0.872   2.621  12.176  0.7819 -0.0037  0.5076
  903MPD2    N113289   1.381   2.374  12.284 -0.0963  0.1973 -0.0203
  903MPD2    H713290   1.464   2.385  12.341  1.4025  0.6649 -2.2994
  904MPD2     C13291   1.544   2.043  13.781  0.5396  0.3441  0.6513
  904MPD2    C113292   1.482   1.917  13.793  0.3189  0.4600  0.7412
  904MPD2    C213293   1.556   1.802  13.830 -1.2870  0.4171 -0.4548
  904MPD2    C313294   1.695   1.810  13.859 -0.0106 -0.3881  0.1966
  904MPD2    C413295   1.747   1.936  13.850 -0.0061  1.7713  0.1790
  904MPD2    C513296   1.675   2.045  13.808 -0.7945  0.2819  0.2513
  904MPD2     H13297   1.507   1.706  13.844 -1.1543  0.5708  1.0440
  904MPD2    H113298   1.851   1.945  13.879 -0.4522  0.6043  2.1345
  904MPD2    H213299   1.494   2.134  13.750 -0.8758 -0.5914  0.1773
  904MPD2    H313300   1.728   2.140  13.801  1.9485 -1.1647  1.3573
  904MPD2     N13301   1.761   1.697  13.913  0.0256 -0.2271  0.0460
  904MPD2    H513302   1.700   1.616  13.926 -0.0745 -0.0758  0.5123
  904MPD2    N113303   1.344   1.900  13.788  0.8037 -0.1756 -0.2123
  904MPD2    H713304   1.308   1.805  13.788  2.0920 -0.6499 -1.3560
  905MPD2     C13305   0.617   1.538  13.489  0.6865  0.0516  0.0685
  905MPD2    C113306   0.748   1.583  13.463 -0.4813  0.0469 -0.0930
  905MPD2    C213307   0.833   1.507  13.378  0.2614  0.5967  0.3771
  905MPD2    C313308   0.781   1.385  13.329  1.3316 -0.6343 -0.0484
  905MPD2    C413309   0.654   1.348  13.351 -0.1319  0.0376 -0.3716
  905MPD2    C513310   0.575   1.427  13.431 -0.5365 -0.0347  0.2207
  905MPD2     H13311   0.937   1.536  13.365  0.5372 -0.1864  0.8250
  905MPD2    H113312   0.607   1.257  13.315  0.2120 -0.8464  1.3790
  905MPD2    H213313   0.546   1.590  13.552  1.9433 -0.0723  1.6038
  905MPD2    H313314   0.475   1.391  13.452  0.5183 -2.3906  1.1471
  905MPD2     N13315   0.861   1.287  13.259  0.3777  0.1815 -0.2787
  905MPD2    H513316   0.817   1.196  13.252  1.8510 -0.7703  2.8271
  905MPD2    N113317   0.791   1.694  13.535 -0.0034  0.7391  0.7824
  905MPD2    H713318   0.723   1.752  13.584 -0.1962  1.8467 -0.7812
  906MPD2     C13319   2.841   0.631  11.484 -0.1466  0.5163 -0.4335
  906MPD2    C113320   2.789   0.616  11.356 -0.2782 -1.0378 -0.0560
  906MPD2    C213321   2.660   0.559  11.351  0.6165  0.1193 -0.0546
  906MPD2    C313322   2.583   0.535  11.467  0.0477  0.1592  0.4566
  906MPD2    C413323   2.643   0.550  11.592 -0.1648 -0.3377 -0.4656
  906MPD2    C513324   2.764   0.600  11.595 -0.0168  0.1533  0.1491
  906MPD2     H13325   2.622   0.537  11.251  0.5725 -1.5972  0.3276
  906MPD2    H113326   2.598   0.543  11.690 -1.7488 -0.7566 -1.2202
  906MPD2    H213327   2.937   0.678  11.503  0.2889 -1.6203  2.6757
  906MPD2    H313328   2.807   0.614  11.693  2.0681  2.0548 -1.0203
  906MPD2     N13329   2.446   0.496  11.469 -0.2690 -0.5777 -0.3465
  906MPD2    H513330   2.403   0.468  11.557 -0.9309  0.7686 -0.2316
  906MPD2    N113331   2.851   0.662  11.235 -0.8986  0.0986 -0.0978
  906MPD2    H713332   2.801   0.643  11.149 -1.0165 -0.1377  0.0243
  907MPD2     C13333   1.742   0.280  15.387  0.1483  0.4929  0.6223
  907MPD2    C113334   1.813   0.162  15.380 -0.2473  0.5748  0.2622
  907MPD2    C213335   1.869   0.118  15.495  0.3373  0.5894 -0.0937
  907MPD2    C313336   1.851   0.178  15.618 -0.5254 -0.3599  0.0958
  907MPD2    C413337   1.769   0.287  15.622  0.2293 -0.8317 -0.2292
  907MPD2    C513338   1.720   0.344  15.506  0.4137 -0.3570 -0.2871
  907MPD2     H13339   1.935   0.032  15.494  0.0522  0.3470  1.0892
  907MPD2    H113340   1.752   0.337  15.717  0.5569  0.7915 -1.0286
  907MPD2    H213341   1.691   0.325  15.303  0.1424 -0.7687 -0.0464
  907MPD2    H313342   1.677   0.443  15.513  0.2678 -0.5682  1.8885
  907MPD2     N13343   1.916   0.128  15.728 -0.0933 -0.1144 -0.6270
  907MPD2    H513344   1.986   0.061  15.699  0.0147 -1.0521  1.8309
  907MPD2    N113345   1.832   0.098  15.258 -0.0066  0.0702  0.3424
  907MPD2    H713346   1.880   0.009  15.260  0.8840  0.5469 -0.0754
  908MPD2     C13347   4.064   1.569   9.343 -0.8950  0.0240 -0.6677
  908MPD2    C113348   3.989   1.455   9.376 -0.3365  0.1240 -0.5908
  908MPD2    C213349   3.940   1.434   9.505  0.4080  0.3198 -0.0093
  908MPD2    C313350   3.969   1.531   9.600 -0.0206 -0.0769  0.6550
  908MPD2    C413351   4.050   1.635   9.570 -0.2323 -0.8344  0.2580
  908MPD2    C513352   4.091   1.656   9.441  0.2285 -0.4621  0.6732
  908MPD2     H13353   3.874   1.350   9.524 -1.0393  1.2267 -1.0466
  908MPD2    H113354   4.096   1.695   9.647 -1.2375 -1.5026  1.3767
  908MPD2    H213355   4.105   1.590   9.244 -1.2130 -1.1380 -1.0489
  908MPD2    H313356   4.158   1.739   9.417  0.9543 -1.8646 -2.1337
  908MPD2     N13357   3.916   1.509   9.734 -0.5347  0.3440  0.6070
  908MPD2    H513358   3.864   1.422   9.748 -0.5827  0.2361 -0.2444
  908MPD2    N113359   3.949   1.371   9.272 -0.3306  0.0817  0.1880
  908MPD2    H713360   3.995   1.380   9.182 -0.2357  0.3354  0.2600
  909MPD2     C13361   4.417   3.719  12.073  1.1739  0.0935 -0.1169
  909MPD2    C113362   4.428   3.836  11.994  0.0431  0.4221 -0.0612
  909MPD2    C213363   4.335   3.933  12.001 -0.6463 -0.2080  0.2175
  909MPD2    C313364   4.231   3.920  12.090  0.4893 -0.2193  0.3934
  909MPD2    C413365   4.222   3.811  12.173  0.0212  0.1732  0.3628
  909MPD2    C513366   4.319   3.718  12.166  0.7565 -0.1047  0.1276
  909MPD2     H13367   4.335   4.023  11.941  0.9320 -0.1837  0.2409
  909MPD2    H113368   4.138   3.790  12.239 -0.9353 -0.4493 -1.0680
  909MPD2    H213369   4.481   3.632  12.080  1.9918  0.4498 -3.2032
  909MPD2    H313370   4.309   3.630  12.229  2.1447 -0.8703 -0.7331
  909MPD2     N13371   4.128   4.019  12.090 -0.2628  0.2404  0.0259
  909MPD2    H513372   4.133   4.084  12.012  0.7833 -0.2137 -0.2881
  909MPD2    N113373   4.543   3.858  11.908 -0.6647 -0.3943 -0.5441
  909MPD2    H713374   4.558   3.951  11.870  1.2948 -0.7913 -0.7860
  910MPD2     C13375   0.656   0.643  15.800  0.3064  0.0562  0.3773
  910MPD2    C113376   0.766   0.656  15.718  0.8877 -0.4124 -0.1178
  910MPD2    C213377   0.753   0.724  15.593  0.1475 -0.8717 -0.1519
  910MPD2    C313378   0.632   0.779  15.557 -0.1465 -0.7820 -0.6797
  910MPD2    C413379   0.525   0.771  15.648 -0.1972 -0.3954 -0.0590
  910MPD2    C513380   0.538   0.707  15.764  0.6555  0.2045  0.9600
  910MPD2     H13381   0.835   0.729  15.523 -0.1389 -2.5535 -0.6084
  910MPD2    H113382   0.436   0.828  15.624  1.0350  2.0989  1.2668
  910MPD2    H213383   0.644   0.587  15.892 -0.4446  0.6775  0.6586
  910MPD2    H313384   0.465   0.711  15.844 -0.7766  0.5268 -0.3567
  910MPD2     N13385   0.613   0.857  15.444  0.0735  0.1881 -1.0413
  910MPD2    H513386   0.514   0.872  15.425 -0.0729  1.5496  0.8161
  910MPD2    N113387   0.891   0.600  15.740 -0.0705  0.3773  0.3707
  910MPD2    H713388   0.963   0.614  15.671  0.0175  0.7424  0.5405
  911MPD2     C13389   3.868   0.735  16.165 -0.7017  0.0051 -0.1994
  911MPD2    C113390   3.956   0.836  16.190  0.3531 -0.2942  0.6224
  911MPD2    C213391   3.913   0.968  16.168  0.2061  0.7051 -0.0577
  911MPD2    C313392   3.792   1.005  16.134 -0.2895  0.1136  0.2898
  911MPD2    C413393   3.699   0.901  16.101 -0.1858 -0.3597 -1.0309
  911MPD2    C513394   3.737   0.769  16.114 -0.4808  0.1147 -0.1154
  911MPD2     H13395   3.984   1.049  16.178 -1.0164  1.6832  0.6475
  911MPD2    H113396   3.597   0.927  16.080 -0.1691  1.1524  0.7553
  911MPD2    H213397   3.887   0.629  16.177 -2.8966 -0.3444  0.1063
  911MPD2    H313398   3.665   0.691  16.090  0.1217  0.0672 -1.7761
  911MPD2     N13399   3.747   1.131  16.104  0.1630  0.7374 -0.5961
  911MPD2    H513400   3.651   1.138  16.071  0.0362 -0.1764 -0.4357
  911MPD2    N113401   4.089   0.802  16.221  0.5326 -0.2439  0.2535
  911MPD2    H713402   4.118   0.704  16.223 -0.7276 -0.6756 -2.8118
  912MPD2     C13403   3.303   1.193  15.557  0.6433  0.6126  0.5888
  912MPD2    C113404   3.367   1.151  15.671 -0.5938 -0.4551  0.1680
  912MPD2    C213405   3.341   1.024  15.718 -0.1919  0.3407 -0.1217
  912MPD2    C313406   3.262   0.937  15.643 -0.4032  0.3489  0.0794
  912MPD2    C413407   3.198   0.974  15.528  0.1111 -0.4319  0.3100
  912MPD2    C513408   3.214   1.105  15.498  0.2937 -0.6948  0.3563
  912MPD2     H13409   3.396   0.981  15.801  0.1315 -3.3811 -2.2727
  912MPD2    H113410   3.143   0.906  15.464 -0.1905  1.1947 -1.1587
  912MPD2    H213411   3.299   1.297  15.526  0.4456  0.9869  1.8800
  912MPD2    H313412   3.155   1.139  15.414 -1.6005  0.6167  2.2258
  912MPD2     N13413   3.252   0.802  15.686 -0.0394 -0.5266 -0.2427
  912MPD2    H513414   3.260   0.794  15.786  0.5012 -1.5176 -0.3659
  912MPD2    N113415   3.440   1.245  15.749 -0.2293  0.4158  0.3137
  912MPD2    H713416   3.425   1.344  15.731 -0.5909 -0.1104 -2.2814
  913MPD2     C13417   3.902   2.830  10.062 -0.1412  0.0555 -0.5944
  913MPD2    C113418   4.018   2.891  10.084 -0.3692 -0.2198  0.7907
  913MPD2    C213419   4.051   2.988   9.996  0.0407  0.2632  0.6300
  913MPD2    C313420   3.975   3.023   9.891 -0.9965  0.2596 -0.8552
  913MPD2    C413421   3.865   2.949   9.860  0.5904  0.0468 -0.0552
  913MPD2    C513422   3.828   2.861   9.951  0.0227 -0.2637  0.9817
  913MPD2     H13423   4.141   3.047  10.008 -0.0341  0.1815  1.5783
  913MPD2    H113424   3.811   2.981   9.772 -0.2192  0.1803  0.4924
  913MPD2    H213425   3.873   2.743  10.121  1.3973 -0.7093 -0.9674
  913MPD2    H313426   3.735   2.809   9.931 -1.2461  1.2012  3.1783
  913MPD2     N13427   4.025   3.116   9.798 -0.1532  0.4616 -0.5088
  913MPD2    H513428   3.990   3.107   9.704 -0.0618  0.7297 -0.5693
  913MPD2    N113429   4.094   2.861  10.207 -0.1906 -0.3382 -0.3372
  913MPD2    H713430   4.065   2.779  10.260  0.5290 -1.0175 -0.9920
  914MPD2     C13431   1.736   2.353  11.322 -0.2997  0.5330  0.2601
  914MPD2    C113432   1.790   2.471  11.359 -0.2294  0.7629  0.1355
  914MPD2    C213433   1.865   2.480  11.473 -0.3859 -0.0827 -0.0921
  914MPD2    C313434   1.877   2.369  11.557  0.0862  0.0520  0.6314
  914MPD2    C413435   1.832   2.241  11.519  0.1552 -0.6376 -0.6125
  914MPD2    C513436   1.771   2.239  11.397 -0.6071  0.1025 -0.5644
  914MPD2     H13437   1.898   2.577  11.509  1.5383 -0.1671 -1.6694
  914MPD2    H113438   1.833   2.152  11.580 -1.1033 -0.6918 -0.6545
  914MPD2    H213439   1.699   2.340  11.221 -0.0119  1.9158 -0.0289
  914MPD2    H313440   1.741   2.141  11.361  0.4685 -1.3730  2.5245
  914MPD2     N13441   1.940   2.388  11.685  0.6951  0.7557  0.2352
  914MPD2    H513442   1.974   2.477  11.720 -0.4006  0.2979  2.4528
  914MPD2    N113443   1.756   2.591  11.301  0.2367  0.3939 -0.7057
  914MPD2    H713444   1.799   2.673  11.343  0.5472  0.0629 -0.3884
  915MPD2     C13445   0.067   2.855  15.737 -0.0493  0.1901 -0.2848
  915MPD2    C113446   0.019   2.947  15.648 -0.0625  0.1453  0.1357
  915MPD2    C213447   4.630   3.002  15.669  0.0859 -0.4167  0.3449
  915MPD2    C313448   4.567   2.990  15.798  0.4177 -0.2805  0.5455
  915MPD2    C413449   4.630   2.904  15.891 -0.1731 -0.2354  1.0765
  915MPD2    C513450   0.002   2.834  15.856  0.0357 -0.2785 -0.2291
  915MPD2     H13451   4.580   3.071  15.602  0.1727 -0.4558  0.2401
  915MPD2    H113452   4.594   2.879  15.990  0.1837 -2.3914  0.6448
  915MPD2    H213453   0.170   2.821  15.725  0.2579  1.3606 -0.9605
  915MPD2    H313454   0.052   2.782  15.937  0.5217 -0.1673 -0.4571
  915MPD2     N13455   4.444   3.065  15.817 -0.1268  0.1236 -0.6138
  915MPD2    H513456   4.407   3.121  15.741 -1.6506 -1.2448 -0.8980
  915MPD2    N113457   0.089   2.976  15.531 -0.2547  0.0387  0.0990
  915MPD2    H713458   0.180   2.932  15.524 -0.4156 -0.1454 -0.8719
  916MPD2     C13459   2.748   0.998  15.657 -0.1692 -0.1637 -0.7082
  916MPD2    C113460   2.739   0.940  15.779  0.0552  0.4588 -0.4228
  916MPD2    C213461   2.632   0.861  15.808 -0.6621 -0.0804 -0.2020
  916MPD2    C313462   2.548   0.826  15.705 -0.0177 -0.2489  1.2044
  916MPD2    C413463   2.561   0.871  15.577  0.3346  0.5987 -0.6025
  916MPD2    C513464   2.668   0.959  15.554 -0.3162  0.3421 -0.0909
  916MPD2     H13465   2.606   0.821  15.905  0.8142  1.9877  1.0520
  916MPD2    H113466   2.493   0.848  15.496 -1.1946 -1.4819  1.2566
  916MPD2    H213467   2.831   1.061  15.625  0.4722 -0.9672 -0.6513
  916MPD2    H313468   2.675   0.996  15.453  0.3033  0.2789 -0.0705
  916MPD2     N13469   2.451   0.737  15.742 -0.0713 -0.2943  0.1670
  916MPD2    H513470   2.480   0.686  15.825 -0.9315  0.9420  1.2356
  916MPD2    N113471   2.836   0.979  15.873  0.2276 -0.9913  0.3495
  916MPD2    H713472   2.907   1.044  15.842 -2.1924 -0.1184 -3.3454
  917MPD2     C13473   3.441   3.088  11.558  0.3023 -0.1961  0.2174
  917MPD2    C113474   3.410   3.215  11.567 -0.1437 -0.5503 -0.7556
  917MPD2    C213475   3.493   3.303  11.497 -0.2145  0.7970 -0.4033
  917MPD2    C313476   3.591   3.263  11.410 -0.4999 -0.2748  0.2052
  917MPD2    C413477   3.607   3.133  11.391 -1.4349  0.0421  0.0873
  917MPD2    C513478   3.535   3.042  11.475 -0.5421 -0.1058 -0.4562
  917MPD2     H13479   3.482   3.410  11.507  0.0248  0.6494  1.3108
  917MPD2    H113480   3.674   3.099  11.313  0.2871  0.3242  1.4293
  917MPD2    H213481   3.375   3.017  11.608 -0.6026 -0.0457 -0.7624
  917MPD2    H313482   3.554   2.937  11.459  0.6170  0.1798 -0.9718
  917MPD2     N13483   3.657   3.360  11.338  0.0177 -0.1614 -0.2433
  917MPD2    H513484   3.660   3.455  11.373 -0.6986 -0.1515 -0.2253
  917MPD2    N113485   3.292   3.256  11.634  0.3901 -0.6187  0.2029
  917MPD2    H713486   3.231   3.182  11.668 -1.7886  0.5264 -1.2575
  918MPD2     C13487   3.127   3.724  12.410 -0.8939  0.2025  0.2283
  918MPD2    C113488   3.225   3.746  12.317 -0.7996 -0.2039 -0.8700
  918MPD2    C213489   3.187   3.716  12.187  0.2662 -0.0267 -0.7929
  918MPD2    C313490   3.078   3.655  12.153 -0.1524 -0.6938 -0.2422
  918MPD2    C413491   2.985   3.628  12.251 -0.2117  0.1820  0.2093
  918MPD2    C513492   3.010   3.664  12.377  0.1537  0.6667 -0.0921
  918MPD2     H13493   3.261   3.727  12.108  0.3373  2.8377 -0.3249
  918MPD2    H113494   2.898   3.566  12.231 -1.7908  2.9743 -1.5654
  918MPD2    H213495   3.147   3.738  12.515 -2.2511  0.2828  0.4832
  918MPD2    H313496   2.926   3.656  12.445  1.4767 -1.1896  1.3092
  918MPD2     N13497   3.063   3.604  12.017  1.1932  0.0799 -0.3561
  918MPD2    H513498   3.140   3.622  11.953  1.8842  0.4823  0.5924
  918MPD2    N113499   3.351   3.819  12.335  0.8673 -0.0228  0.3450
  918MPD2    H713500   3.401   3.836  12.247  1.2021 -0.2555  0.4885
  919MPD2     C13501   3.715   2.726  11.358  0.0960 -0.1880  0.0532
  919MPD2    C113502   3.625   2.623  11.388 -0.0600 -0.3519 -0.3377
  919MPD2    C213503   3.518   2.609  11.312  0.1933  0.5007 -0.1065
  919MPD2    C313504   3.494   2.680  11.197 -0.2334 -0.7495  0.2421
  919MPD2    C413505   3.595   2.755  11.152  0.8630  1.0874  0.9339
  919MPD2    C513506   3.695   2.795  11.239  0.4638 -0.2663 -0.2593
  919MPD2     H13507   3.449   2.526  11.319  0.3825  0.1289 -2.4917
  919MPD2    H113508   3.583   2.809  11.059  0.5583 -0.6413 -0.0282
  919MPD2    H213509   3.799   2.755  11.420 -1.0184  3.5526 -0.1837
  919MPD2    H313510   3.770   2.870  11.219 -0.9472  0.8391 -1.4441
  919MPD2     N13511   3.370   2.673  11.123  0.0613 -0.0458 -0.8636
  919MPD2    H513512   3.374   2.713  11.030 -0.0983  2.0569  0.0449
  919MPD2    N113513   3.651   2.540  11.496  0.0064 -0.7560  0.0986
  919MPD2    H713514   3.575   2.483  11.530 -0.7256  0.2042  0.0551
  920MPD2     C13515   2.935   2.693  10.206  0.2986 -0.4394 -0.1584
  920MPD2    C113516   2.824   2.679  10.289  0.3687 -0.2017  1.2820
  920MPD2    C213517   2.843   2.653  10.426 -0.2284 -0.3731  0.1334
  920MPD2    C313518   2.968   2.646  10.475  0.4801  0.0778 -0.1471
  920MPD2    C413519   3.081   2.660  10.391 -0.0482  0.1773 -0.4000
  920MPD2    C513520   3.060   2.677  10.257  0.1040  0.0690 -0.4324
  920MPD2     H13521   2.766   2.645  10.501 -0.6312 -0.8180 -0.3332
  920MPD2    H113522   3.183   2.651  10.428 -0.5420 -1.0994  0.6401
  920MPD2    H213523   2.935   2.707  10.098  0.9398 -1.4513 -0.2886
  920MPD2    H313524   3.141   2.696  10.188 -0.2803 -3.4837 -1.8659
  920MPD2     N13525   2.978   2.616  10.619  0.4242 -0.5281 -0.2735
  920MPD2    H513526   2.892   2.597  10.671  1.6741 -3.0255  0.9120
  920MPD2    N113527   2.689   2.701  10.246 -0.2480  0.2988 -0.4510
  920MPD2    H713528   2.614   2.689  10.313  0.4282  1.3016  0.5052
  921MPD2     C13529   4.679   1.550  16.339  0.3420 -0.5052 -0.3360
  921MPD2    C113530   0.033   1.447  16.353  0.9737 -0.1700  0.5074
  921MPD2    C213531   4.731   1.322  16.364  0.7046  0.7907 -0.3943
  921MPD2    C313532   4.598   1.287  16.365  0.3248  0.1366  0.6330
  921MPD2    C413533   4.507   1.392  16.385 -0.0789  0.1319  0.2234
  921MPD2    C513534   4.549   1.517  16.350  0.3711  0.3828  0.3927
  921MPD2     H13535   0.069   1.244  16.357  0.2482  0.3560 -0.4751
  921MPD2    H113536   4.402   1.370  16.392 -0.1047  0.6320  1.3401
  921MPD2    H213537   4.714   1.649  16.314  0.7426 -0.8795 -1.2733
  921MPD2    H313538   4.483   1.603  16.346  0.4085  0.3357 -1.1729
  921MPD2     N13539   4.543   1.156  16.356 -0.5209 -0.4745 -0.4851
  921MPD2    H513540   4.442   1.147  16.354 -0.5630  0.1241 -0.9306
  921MPD2    N113541   0.169   1.484  16.339 -0.7441 -0.4702  0.0001
  921MPD2    H713542   0.176   1.584  16.323  2.3943 -0.7349 -0.2239
  922MPD2     C13543   0.146   3.354   0.226  0.2367 -0.6755  0.3199
  922MPD2    C113544   0.203   3.441   0.130 -0.2786 -0.3839  0.2296
  922MPD2    C213545   0.140   3.447   0.006  0.2284 -0.4337  0.2383
  922MPD2    C313546   0.022   3.385  17.727  0.5184  0.4555 -0.4672
  922MPD2    C413547   4.707   3.302   0.075  0.4156 -0.3024  0.2598
  922MPD2    C513548   0.022   3.286   0.201 -0.4157  0.1022 -0.4967
  922MPD2     H13549   0.189   3.498  17.674 -1.3433 -1.4653 -1.3407
  922MPD2    H113550   4.613   3.249   0.060  0.3376 -0.5942  1.7923
  922MPD2    H213551   0.193   3.332   0.321  2.5077 -1.7863 -1.0539
  922MPD2    H313552   4.708   3.227   0.276 -0.6058 -2.2333 -2.4856
  922MPD2     N13553   4.702   3.408  17.599  0.5317  0.0235 -0.6085
  922MPD2    H513554   0.016   3.471  17.539 -0.2516  2.0215  0.8037
  922MPD2    N113555   0.321   3.516   0.152  0.7059 -0.2734 -0.4358
  922MPD2    H713556   0.354   3.573   0.075  0.3848  0.6718  0.1220
  923MPD2     C13557   2.213   1.118   9.687 -0.3277 -0.5488  0.1796
  923MPD2    C113558   2.156   1.243   9.706  0.9990  0.1778 -0.4227
  923MPD2    C213559   2.197   1.320   9.817 -0.1804  0.1748  0.3989
  923MPD2    C313560   2.274   1.256   9.914  0.0053 -0.3481 -0.4009
  923MPD2    C413561   2.327   1.131   9.893  0.1851  0.8145  0.2682
  923MPD2    C513562   2.295   1.061   9.776 -0.2214  0.4981  0.1646
  923MPD2     H13563   2.161   1.420   9.832 -2.1567 -0.3652 -0.7877
  923MPD2    H113564   2.379   1.087   9.977 -0.6269  1.6482  1.2009
  923MPD2    H213565   2.215   1.064   9.593 -2.9074 -0.3897  0.0369
  923MPD2    H313566   2.334   0.961   9.758  0.9449  0.9065  0.4223
  923MPD2     N13567   2.303   1.321  10.031 -0.0231 -0.2692 -0.2760
  923MPD2    H513568   2.381   1.279  10.080  0.0424 -1.6438 -1.5793
  923MPD2    N113569   2.070   1.287   9.604 -0.5557  0.2487  0.2178
  923MPD2    H713570   2.058   1.231   9.520 -1.3441 -0.0964  0.5595
  924MPD2     C13571   2.185   4.549  15.294  0.5546 -0.0269 -0.1338
  924MPD2    C113572   2.127   4.479  15.396 -0.3641 -0.2674  0.1533
  924MPD2    C213573   2.136   4.522  15.524  0.2073 -0.4094 -0.0030
  924MPD2    C313574   2.204   4.641  15.551  0.0836 -0.1786  0.1795
  924MPD2    C413575   2.256   4.714  15.451  0.0854  0.4943 -0.2750
  924MPD2    C513576   2.253   4.666  15.325 -0.2623  0.4583  0.1534
  924MPD2     H13577   2.073   4.484  15.603 -1.1247  0.5852 -0.5813
  924MPD2    H113578   2.322   0.059  15.475  0.0979  0.8030 -1.3594
  924MPD2    H213579   2.175   4.509  15.194  1.1888  0.1199 -0.2583
  924MPD2    H313580   2.294   4.723  15.243 -0.0583  0.0802 -0.0040
  924MPD2     N13581   2.217   4.686  15.683 -0.3662  0.3618  0.3014
  924MPD2    H513582   2.258   0.040  15.695  0.4185 -0.1854  1.8865
  924MPD2    N113583   2.036   4.374  15.360  0.7722 -0.1323 -0.8318
  924MPD2    H713584   2.013   4.375  15.261  1.9630 -0.2136 -1.1133
  925MPD2     C13585   1.048   2.132  14.816  0.0641 -0.3449  0.0598
  925MPD2    C113586   0.931   2.120  14.743 -0.0549  0.4970 -0.0667
  925MPD2    C213587   0.822   2.064  14.808  0.0567  0.1233  0.6226
  925MPD2    C313588   0.828   2.023  14.941  0.6424  0.5810 -0.0781
  925MPD2    C413589   0.943   2.044  15.008  0.1606  0.1761 -0.3076
  925MPD2    C513590   1.051   2.092  14.946  0.1650 -0.0989  0.4331
  925MPD2     H13591   0.724   2.055  14.764  0.6938  0.8073 -0.9379
  925MPD2    H113592   0.956   2.016  15.111  0.5984 -3.0258 -1.2314
  925MPD2    H213593   1.140   2.163  14.767 -0.3272  2.0719  0.8470
  925MPD2    H313594   1.151   2.099  14.986  1.2095  0.0036 -2.2348
  925MPD2     N13595   0.726   1.951  15.011  0.3626  0.2954  0.3988
  925MPD2    H513596   0.738   1.916  15.105 -0.4821  0.2278  0.4818
  925MPD2    N113597   0.918   2.175  14.618  0.0624 -0.3053 -0.1691
  925MPD2    H713598   0.834   2.162  14.562 -0.7248  1.3703  0.5957
  926MPD2     C13599   3.791   0.588  13.816 -0.3383  0.5391  0.1673
  926MPD2    C113600   3.842   0.717  13.792  0.1469  0.3016 -0.7422
  926MPD2    C213601   3.885   0.746  13.667 -0.6592 -0.0909 -0.0614
  926MPD2    C313602   3.881   0.658  13.562 -0.2542 -0.5405 -0.0841
  926MPD2    C413603   3.828   0.532  13.586  0.2385 -0.6179 -0.3020
  926MPD2    C513604   3.774   0.505  13.708  0.2198 -0.0629 -0.2393
  926MPD2     H13605   3.936   0.839  13.645 -2.0113  1.4641  3.4116
  926MPD2    H113606   3.822   0.450  13.516  1.1381 -1.1062  0.1932
  926MPD2    H213607   3.769   0.561  13.919 -0.6044  0.3399  0.0567
  926MPD2    H313608   3.734   0.406  13.729 -2.0201  1.2137  1.4894
  926MPD2     N13609   3.944   0.688  13.441  0.3229 -0.4049 -0.5011
  926MPD2    H513610   3.987   0.781  13.440  0.5246 -0.4956 -0.2173
  926MPD2    N113611   3.840   0.815  13.892 -0.7572  0.4865 -0.0859
  926MPD2    H713612   3.867   0.904  13.852 -1.7150  1.0308  0.4838
  927MPD2     C13613   4.438   2.284   0.060 -0.1578 -0.4831  0.1439
  927MPD2    C113614   4.422   2.399  17.743 -0.0241  0.0133  0.5036
  927MPD2    C213615   4.402   2.391  17.606 -0.2968 -0.1674 -0.7522
  927MPD2    C313616   4.410   2.272  17.539 -0.2885 -0.3441  0.2585
  927MPD2    C413617   4.463   2.162  17.609  0.1354  0.0058  0.2568
  927MPD2    C513618   4.467   2.169  17.742 -0.8581 -0.0141  0.7735
  927MPD2     H13619   4.377   2.474  17.541 -1.6922 -0.9517 -1.2153
  927MPD2    H113620   4.499   2.072  17.561  2.9752  1.4690 -0.4444
  927MPD2    H213621   4.448   2.284   0.168 -0.5222 -0.5822  0.1755
  927MPD2    H313622   4.485   2.078   0.049  0.5622  1.5098  2.7640
  927MPD2     N13623   4.370   2.268  17.402 -0.1469 -0.2050 -0.4782
  927MPD2    H513624   4.346   2.363  17.374  0.0573 -0.0258 -0.0481
  927MPD2    N113625   4.402   2.513   0.074 -0.4319  0.7403  0.7520
  927MPD2    H713626   4.399   2.492   0.174 -1.4593 -0.5621  0.4380
  928MPD2     C13627   1.762   1.119   0.674  0.7560  0.7407  0.5657
  928MPD2    C113628   1.858   1.202   0.732  0.0756 -0.5890  0.4035
  928MPD2    C213629   1.982   1.203   0.668 -0.2101 -0.0632 -0.3180
  928MPD2    C313630   2.003   1.137   0.546  0.3281  0.1509 -0.1276
  928MPD2    C413631   1.900   1.052   0.500  0.5197  0.0863  0.2834
  928MPD2    C513632   1.781   1.052   0.563 -0.3982 -0.3071 -0.3411
  928MPD2     H13633   2.070   1.248   0.713  0.0065  0.7921 -1.5955
  928MPD2    H113634   1.914   0.993   0.410 -0.7758 -1.9793  1.4412
  928MPD2    H213635   1.657   1.121   0.702  0.4977  1.8057 -0.4870
  928MPD2    H313636   1.704   0.986   0.525 -0.8203 -0.2644  0.4424
  928MPD2     N13637   2.118   1.153   0.456 -0.6479 -0.6002  0.3871
  928MPD2    H513638   2.108   1.106   0.366 -1.7422  0.2340  0.0687
  928MPD2    N113639   1.825   1.283   0.843 -0.4985  0.3082 -0.2740
  928MPD2    H713640   1.728   1.280   0.871 -0.5657  0.1167 -0.5327
  929MPD2     C13641   1.781   1.366  10.703 -0.0102 -0.2990  0.6098
  929MPD2    C113642   1.718   1.244  10.714  0.6632  0.4471  0.3831
  929MPD2    C213643   1.601   1.222  10.640  0.1822 -0.1195 -0.0097
  929MPD2    C313644   1.547   1.328  10.566  1.3627 -0.2440  0.0450
  929MPD2    C413645   1.618   1.445  10.558 -0.3075  0.4112  0.3872
  929MPD2    C513646   1.736   1.464  10.626 -0.0077 -0.5679  0.2272
  929MPD2     H13647   1.546   1.131  10.661 -0.7515 -0.3551 -3.5550
  929MPD2    H113648   1.578   1.533  10.509 -0.2439  0.1217 -0.1864
  929MPD2    H213649   1.872   1.360  10.762  1.1335  0.4599 -1.0778
  929MPD2    H313650   1.794   1.556  10.632 -0.6893 -0.0562 -0.8667
  929MPD2     N13651   1.422   1.309  10.496  0.0576 -0.1901 -0.4636
  929MPD2    H513652   1.376   1.394  10.464 -1.4245 -1.5947 -2.0806
  929MPD2    N113653   1.773   1.150  10.801  1.0977  0.1970 -0.1516
  929MPD2    H713654   1.846   1.179  10.865  0.6479 -1.0779  0.9474
  930MPD2     C13655   3.892   3.888  13.962  0.4333  0.3098 -0.1268
  930MPD2    C113656   3.870   3.807  14.070 -0.3427  0.1628 -0.3352
  930MPD2    C213657   3.815   3.684  14.052 -0.2503 -0.0726  0.1223
  930MPD2    C313658   3.769   3.641  13.928 -0.2132 -0.0522  0.1069
  930MPD2    C413659   3.777   3.724  13.818  0.1718 -0.0293  0.8009
  930MPD2    C513660   3.836   3.844  13.846  0.4148 -0.2520  0.3835
  930MPD2     H13661   3.807   3.619  14.138  0.8531  0.8625  0.9375
  930MPD2    H113662   3.738   3.695  13.721 -1.8235 -0.9209  1.8701
  930MPD2    H213663   3.933   3.988  13.962  1.3830 -0.0770 -2.7368
  930MPD2    H313664   3.835   3.912  13.761  0.1814  0.5162  1.0019
  930MPD2     N13665   3.714   3.511  13.903 -0.1157 -0.3146  1.0112
  930MPD2    H513666   3.668   3.495  13.814  0.1423  0.8475  0.6604
  930MPD2    N113667   3.944   3.853  14.188  0.4859 -0.5591  0.4465
  930MPD2    H713668   4.005   3.933  14.172 -0.4191  0.0747  0.1354
  931MPD2     C13669   4.660   2.423   0.572  0.9414  0.0958  0.1326
  931MPD2    C113670   4.531   2.465   0.575  0.1639 -0.0047  0.2623
  931MPD2    C213671   4.439   2.391   0.654  0.3298 -0.0550  0.5019
  931MPD2    C313672   4.471   2.271   0.715  0.1857 -0.0778  0.5629
  931MPD2    C413673   4.593   2.218   0.695 -0.9124 -0.1545 -0.2960
  931MPD2    C513674   4.689   2.303   0.633  0.4073 -0.3980 -1.1760
  931MPD2     H13675   4.331   2.406   0.650  0.0776 -1.9649  0.3496
  931MPD2    H113676   4.622   2.120   0.732 -2.3405 -0.8164 -0.9415
  931MPD2    H213677   0.002   2.481   0.527  0.3811  0.0006 -0.9840
  931MPD2    H313678   0.051   2.265   0.613  0.1630 -0.8016 -1.6247
  931MPD2     N13679   4.367   2.208   0.787  0.2502 -0.4720 -0.2511
  931MPD2    H513680   4.291   2.274   0.802  1.0570  0.6494 -1.1494
  931MPD2    N113681   4.492   2.585   0.513 -0.0296 -0.1608  0.5978
  931MPD2    H713682   4.561   2.642   0.465 -0.6516 -0.2790 -0.4193
  932MPD2     C13683   0.557   2.308  11.497 -0.5005 -0.3504  0.0383
  932MPD2    C113684   0.631   2.324  11.386 -0.9348 -0.0394 -0.0864
  932MPD2    C213685   0.701   2.211  11.344  0.4717 -0.7739  0.2950
  932MPD2    C313686   0.713   2.097  11.421 -0.1139  0.2960  0.6241
  932MPD2    C413687   0.634   2.086  11.532 -0.2117  0.8356 -0.2401
  932MPD2    C513688   0.557   2.192  11.572  0.2455  0.0708 -0.0342
  932MPD2     H13689   0.764   2.229  11.257 -0.7866 -0.3053 -0.5128
  932MPD2    H113690   0.626   1.993  11.587 -2.0386  2.1012  1.6458
  932MPD2    H213691   0.505   2.391  11.545 -0.5300 -0.4302  0.1462
  932MPD2    H313692   0.498   2.189  11.664 -2.2881 -0.2376 -1.6608
  932MPD2     N13693   0.804   1.986  11.397 -0.5707 -0.7073  0.4265
  932MPD2    H513694   0.806   1.910  11.465 -1.2718 -1.8639 -0.8609
  932MPD2    N113695   0.642   2.445  11.321 -0.4219  0.1184  0.1579
  932MPD2    H713696   0.709   2.458  11.245 -1.8742  0.1046 -1.1103
  933MPD2     C13697   1.255   1.404   0.874  0.3030 -0.0150 -0.7829
  933MPD2    C113698   1.315   1.531   0.894  0.1750  0.1940  0.4553
  933MPD2    C213699   1.239   1.644   0.857 -0.1996  0.9645 -0.4568
  933MPD2    C313700   1.110   1.631   0.813 -0.7163 -0.7321 -0.1372
  933MPD2    C413701   1.052   1.507   0.813  0.2354  0.2954 -0.1489
  933MPD2    C513702   1.122   1.391   0.846 -0.0713 -0.5126 -0.2886
  933MPD2     H13703   1.284   1.742   0.866 -0.0675  0.9188 -0.6045
  933MPD2    H113704   0.950   1.486   0.780 -0.4244  2.5343  0.4464
  933MPD2    H213705   1.316   1.316   0.892 -0.6526 -0.5174  0.0091
  933MPD2    H313706   1.076   1.294   0.836 -1.5225  0.2489 -1.1282
  933MPD2     N13707   1.048   1.753   0.768  0.7088 -0.0785 -0.1166
  933MPD2    H513708   1.104   1.836   0.758  1.4227 -0.4185  1.0762
  933MPD2    N113709   1.448   1.525   0.941  0.2962  0.1858  0.2907
  933MPD2    H713710   1.492   1.434   0.945 -2.8867 -1.3681 -0.4052
  934MPD2     C13711   3.120   4.014   1.741  0.0572  0.3511 -0.5895
  934MPD2    C113712   3.203   3.996   1.632 -0.5795  0.1953  0.1674
  934MPD2    C213713   3.160   3.912   1.530 -0.4391 -0.3840 -0.4516
  934MPD2    C313714   3.047   3.834   1.547  0.0653  1.1010  0.3319
  934MPD2    C413715   2.961   3.861   1.650 -0.4370 -0.9612  0.6091
  934MPD2    C513716   3.003   3.947   1.748 -0.3988  0.5375 -0.0513
  934MPD2     H13717   3.221   3.920   1.441  1.9539 -0.7918  1.1555
  934MPD2    H113718   2.868   3.808   1.666 -2.0174  1.2786 -1.1534
  934MPD2    H213719   3.140   4.083   1.822 -0.9114  0.0488 -0.0981
  934MPD2    H313720   2.947   3.955   1.841  1.4052 -1.2313  1.1935
  934MPD2     N13721   3.005   3.734   1.453  0.4459 -0.1953 -0.2825
  934MPD2    H513722   2.913   3.691   1.459  0.4674 -0.2112 -0.0372
  934MPD2    N113723   3.321   4.068   1.599  0.1406  0.3129 -0.9193
  934MPD2    H713724   3.373   4.054   1.513 -0.3955 -0.4894 -1.1136
  935MPD2     C13725   3.644   3.119   1.036 -0.0989  0.3906 -0.2897
  935MPD2    C113726   3.525   3.086   0.976  0.2257  0.0282  0.3548
  935MPD2    C213727   3.412   3.165   1.003 -0.2367  0.5190  0.1047
  935MPD2    C313728   3.420   3.273   1.088  0.6415  0.4425 -0.0003
  935MPD2    C413729   3.538   3.309   1.150 -0.0945  0.8069  0.6281
  935MPD2    C513730   3.649   3.230   1.119  0.1968  0.3502 -0.0945
  935MPD2     H13731   3.317   3.126   0.970 -0.7236  0.4678  1.5488
  935MPD2    H113732   3.542   3.387   1.226 -0.6315 -1.2103  2.7078
  935MPD2    H213733   3.740   3.071   1.020 -0.9393 -1.5601  0.4340
  935MPD2    H313734   3.735   3.267   1.174  0.3459  4.0320 -2.8206
  935MPD2     N13735   3.296   3.343   1.121 -0.1707  0.6499  0.1414
  935MPD2    H513736   3.304   3.409   1.198 -2.0327  0.5429  0.4246
  935MPD2    N113737   3.513   2.966   0.891  0.0155 -0.3761  0.4326
  935MPD2    H713738   3.425   2.957   0.840 -0.5346 -1.7647  1.6174
  936MPD2     C13739   0.975   0.212  12.356 -0.1777  0.3013  0.5736
  936MPD2    C113740   0.978   0.316  12.443 -0.3499 -0.0927 -0.1795
  936MPD2    C213741   1.061   0.423  12.414  0.5602 -0.1506  0.2076
  936MPD2    C313742   1.136   0.425  12.302 -0.3092  0.1295 -0.0193
  936MPD2    C413743   1.140   0.314  12.220  0.5964  0.3661  0.4336
  936MPD2    C513744   1.059   0.213  12.249 -0.1350 -0.5624 -0.2899
  936MPD2     H13745   1.050   0.507  12.482  2.5534  1.0793 -1.0319
  936MPD2    H113746   1.212   0.307  12.139  1.3577 -0.2484  1.1578
  936MPD2    H213747   0.909   0.128  12.373 -2.7870  1.8618 -1.6940
  936MPD2    H313748   1.061   0.127  12.182 -2.5282 -2.3352  1.9261
  936MPD2     N13749   1.230   0.526  12.268  0.5449 -0.7248  0.2987
  936MPD2    H513750   1.300   0.510  12.196  0.9412  0.6958  0.3580
  936MPD2    N113751   0.897   0.312  12.564  0.1811 -0.6130  0.2074
  936MPD2    H713752   0.921   0.384  12.631  0.5555  0.0644 -0.6452
  937MPD2     C13753   4.163   1.926  11.640  0.9993 -0.8388  0.1122
  937MPD2    C113754   4.139   2.043  11.567 -0.1769 -0.0418  0.3025
  937MPD2    C213755   4.168   2.049  11.434 -0.5247 -0.2473 -0.1116
  937MPD2    C313756   4.230   1.943  11.372 -0.9008 -0.1465 -0.0155
  937MPD2    C413757   4.257   1.827  11.445 -0.7243  0.3629  0.2718
  937MPD2    C513758   4.219   1.817  11.574 -0.1642  0.2140 -0.1957
  937MPD2     H13759   4.149   2.143  11.384 -2.4159 -0.1006  0.8879
  937MPD2    H113760   4.285   1.734  11.397  0.1641  0.6419  0.2411
  937MPD2    H213761   4.131   1.914  11.743 -0.6887 -1.8623 -0.5312
  937MPD2    H313762   4.213   1.724  11.629 -2.9853  0.6897  0.3200
  937MPD2     N13763   4.252   1.958  11.239 -1.0779  0.1440  0.5773
  937MPD2    H513764   4.231   2.045  11.190 -0.4824  0.0983  0.2274
  937MPD2    N113765   4.054   2.147  11.618  0.5954  0.9253 -0.2103
  937MPD2    H713766   4.020   2.215  11.551 -1.6005 -0.1652 -0.2026
  938MPD2     C13767   2.075   2.945   0.885 -1.1551 -0.4336 -0.7601
  938MPD2    C113768   1.974   3.020   0.949  0.2464  0.1015 -0.4082
  938MPD2    C213769   1.889   2.954   1.040 -0.0405 -0.1946 -0.5003
  938MPD2    C313770   1.910   2.821   1.068  0.5143 -0.1313 -0.2905
  938MPD2    C413771   2.009   2.747   1.006  0.9765  0.4832 -0.6411
  938MPD2    C513772   2.085   2.813   0.914  0.0606 -0.0224 -0.6700
  938MPD2     H13773   1.820   3.011   1.101  0.9876  0.4676  0.0478
  938MPD2    H113774   2.025   2.642   1.027 -0.2350  0.3267 -0.5223
  938MPD2    H213775   2.151   2.981   0.817  0.5352 -0.0661  1.3328
  938MPD2    H313776   2.160   2.759   0.857 -0.1331  0.2294 -1.1667
  938MPD2     N13777   1.832   2.742   1.155 -0.3981 -0.5455  0.1144
  938MPD2    H513778   1.864   2.647   1.173 -0.9509 -1.3138 -2.8916
  938MPD2    N113779   1.964   3.160   0.918 -0.1951  0.4763 -0.3957
  938MPD2    H713780   1.891   3.198   0.978 -0.0662  0.8142 -0.4549
  939MPD2     C13781   3.213   4.128   0.770 -0.2372 -0.6718 -0.1656
  939MPD2    C113782   3.123   4.223   0.737  0.5482 -0.5769 -0.2411
  939MPD2    C213783   3.041   4.206   0.624 -0.2563 -0.5989  0.4436
  939MPD2    C313784   3.051   4.093   0.543 -0.1774 -0.0766 -0.6093
  939MPD2    C413785   3.141   3.995   0.586 -0.1258 -0.2305  0.1238
  939MPD2    C513786   3.224   4.013   0.695 -0.2626  0.1779 -0.0800
  939MPD2     H13787   2.961   4.273   0.595 -0.4409 -0.8893  0.2722
  939MPD2    H113788   3.166   3.907   0.528 -1.4053 -3.0985  3.9722
  939MPD2    H213789   3.282   4.151   0.850 -0.3069  1.7156 -0.7723
  939MPD2    H313790   3.290   3.933   0.727  3.2774  2.5105 -1.4699
  939MPD2     N13791   2.964   4.076   0.429  0.2915 -0.4391 -0.0588
  939MPD2    H513792   2.896   4.147   0.405  0.9433 -0.0957 -0.8808
  939MPD2    N113793   3.116   4.330   0.825  0.4458  0.3608  0.2184
  939MPD2    H713794   3.191   4.346   0.892  1.7791 -0.3290 -1.0972
  940MPD2     C13795   1.884   0.558  12.987  0.1005  0.2657 -0.1570
  940MPD2    C113796   1.947   0.451  13.043 -0.3066  0.1076  0.0733
  940MPD2    C213797   1.943   0.333  12.979 -0.7761  0.2450 -0.3008
  940MPD2    C313798   1.895   0.324  12.850 -0.1050 -0.2454  0.6609
  940MPD2    C413799   1.837   0.435  12.796  0.3798 -0.6591  0.0894
  940MPD2    C513800   1.822   0.547  12.871  0.3987  0.4371 -0.0641
  940MPD2     H13801   1.976   0.244  13.032 -0.7445  0.2283 -0.3484
  940MPD2    H113802   1.791   0.436  12.698 -0.0333 -2.1974  0.2798
  940MPD2    H213803   1.875   0.652  13.040 -2.3749 -0.7756  1.2822
  940MPD2    H313804   1.772   0.635  12.829  1.3797  0.2515 -1.6138
  940MPD2     N13805   1.901   0.209  12.774  0.7607 -0.4034 -0.0798
  940MPD2    H513806   1.865   0.218  12.679  1.3625 -2.1007 -0.4588
  940MPD2    N113807   2.008   0.467  13.170 -0.1240  0.0050 -0.3169
  940MPD2    H713808   2.045   0.379  13.206 -0.3838  0.8256  1.9646
  941MPD2     C13809   0.797   4.557  10.195 -0.2280 -0.1004  0.0930
  941MPD2    C113810   0.849   4.490  10.087 -0.0942  0.5059 -0.3608
  941MPD2    C213811   0.776   4.398  10.021 -0.1748  0.9334  0.2921
  941MPD2    C313812   0.646   4.370  10.064 -0.4245 -0.6383  0.1247
  941MPD2    C413813   0.597   4.444  10.167 -0.2832 -0.2026 -0.6511
  941MPD2    C513814   0.670   4.538  10.232 -0.2631  0.7129 -0.1290
  941MPD2     H13815   0.817   4.348   9.934  2.1207  1.4173  1.1047
  941MPD2    H113816   0.496   4.425  10.200  0.6292 -3.2385  0.3558
  941MPD2    H213817   0.849   4.637  10.247 -0.8527 -0.1971  0.8620
  941MPD2    H313818   0.637   4.591  10.321  0.9082 -0.2395  0.8795
  941MPD2     N13819   0.567   4.261  10.012  0.6741  0.8883  0.1723
  941MPD2    H513820   0.482   4.235  10.061  1.1161 -0.6419  0.1413
  941MPD2    N113821   0.987   4.490  10.054  0.1645 -0.2487  0.7706
  941MPD2    H713822   1.007   4.419   9.984  0.8137 -1.0753  1.7947
  942MPD2     C13823   1.688   1.130   9.547  0.3532 -0.4225  0.0946
  942MPD2    C113824   1.635   1.127   9.418  0.8154  0.3918 -0.2188
  942MPD2    C213825   1.718   1.089   9.307  0.0744  0.2278 -0.5592
  942MPD2    C313826   1.844   1.038   9.334  0.5627 -0.0440  0.2608
  942MPD2    C413827   1.881   1.020   9.463  1.0572 -0.3129  0.4747
  942MPD2    C513828   1.804   1.064   9.567 -0.0290 -0.6289 -0.5655
  942MPD2     H13829   1.685   1.104   9.204  0.9866  1.3324 -0.6967
  942MPD2    H113830   1.972   0.966   9.486  1.6557  0.8144  0.7336
  942MPD2    H213831   1.612   1.156   9.620 -0.7954  0.6399 -1.4472
  942MPD2    H313832   1.829   1.036   9.668  2.6256  0.3224 -0.9617
  942MPD2     N13833   1.941   0.999   9.237  0.2895  0.1733 -0.7207
  942MPD2    H513834   2.030   0.973   9.279  0.3930  1.7391  0.0462
  942MPD2    N113835   1.507   1.172   9.388 -0.9162 -0.0189 -0.0905
  942MPD2    H713836   1.479   1.164   9.291 -0.5031  0.7690 -0.2720
  943MPD2     C13837   0.077   0.159   9.826 -0.3286  0.0094  0.1372
  943MPD2    C113838   0.007   0.053   9.872  0.9200 -0.4904 -0.9949
  943MPD2    C213839   4.706   0.049  10.009  0.5697 -0.2846  0.5007
  943MPD2    C313840   0.026   0.143  10.096 -0.8216 -0.0959  0.9648
  943MPD2    C413841   0.107   0.236  10.046 -0.0910  0.1681 -0.5960
  943MPD2    C513842   0.130   0.250   9.914  0.0752  0.3903  0.0883
  943MPD2     H13843   4.645   4.707  10.051  0.4732 -1.4735 -1.9014
  943MPD2    H113844   0.161   0.302  10.114 -0.9907 -0.1706  0.4465
  943MPD2    H213845   0.093   0.180   9.721 -0.6212 -0.8518 -0.0760
  943MPD2    H313846   0.215   0.305   9.876  1.1899 -0.3483  1.5360
  943MPD2     N13847   0.019   0.127  10.236  0.5355  0.2602 -0.4229
  943MPD2    H513848   0.074   0.186  10.298 -0.7377  0.1469  0.8188
  943MPD2    N113849   4.718   4.690   9.782 -0.4311 -0.0616 -0.4975
  943MPD2    H713850   0.007   4.715   9.687 -0.3626 -2.6037 -1.1592
  944MPD2     C13851   4.407   3.749  10.956 -0.1113 -0.6385  0.0778
  944MPD2    C113852   4.320   3.675  11.033 -0.0764 -0.2814  0.0884
  944MPD2    C213853   4.258   3.741  11.140 -0.5840 -0.1683 -0.0642
  944MPD2    C313854   4.283   3.877  11.172  0.4047  0.1235 -0.3219
  944MPD2    C413855   4.362   3.951  11.086  0.6150  0.3041 -0.3474
  944MPD2    C513856   4.430   3.884  10.988 -0.1285 -0.2910 -0.2907
  944MPD2     H13857   4.186   3.689  11.202 -0.4268 -0.8055 -0.4154
  944MPD2    H113858   4.400   4.051  11.106  0.4218  0.6021 -1.4720
  944MPD2    H213859   4.447   3.724  10.858 -1.3350  0.8931 -0.8225
  944MPD2    H313860   4.506   3.939  10.934 -0.1108 -0.4744 -0.4528
  944MPD2     N13861   4.220   3.934  11.282  0.4626 -0.1820 -0.3230
  944MPD2    H513862   4.190   3.879  11.361  0.3799 -0.7156 -0.7289
  944MPD2    N113863   4.281   3.550  10.978 -0.0928  0.0240  0.5675
  944MPD2    H713864   4.328   3.519  10.893  2.9793 -0.3401  2.4155
    1TMC1    C113865   2.784   4.096  14.551 -0.3761 -0.3479 -0.0207
    1TMC1    C213866   2.697   4.025  14.470  0.2470 -0.3989 -0.3837
    1TMC1    C313867   2.710   3.887  14.481  0.2405  0.2274  0.1239
    1TMC1    C413868   2.864   4.037  14.646 -0.5042 -0.5941 -0.6125
    1TMC1    C513869   2.882   3.904  14.642  0.4020  0.2422  0.2577
    1TMC1    C613870   2.811   3.826  14.549 -0.3479 -0.0382 -1.7390
    1TMC1     C13871   2.739   4.232  14.585  0.1026 -0.3777 -0.0041
    1TMC1     O13872   2.780   4.271  14.694  0.3932 -0.4405 -0.0299
    1TMC1     H13873   2.621   4.069  14.407  2.7955  0.8490 -2.5977
    1TMC1    H113874   2.923   4.095  14.716  0.1899  0.0258 -1.7141
    1TMC1    H213875   2.825   3.719  14.548  2.1771  0.2860 -2.8477
    1TMC1    C713876   2.970   3.842  14.738  0.2160 -0.4148 -0.4466
    1TMC1    C813877   2.653   3.810  14.370 -0.5579 -0.0770  0.3441
    1TMC1    O113878   3.059   3.899  14.802 -0.2009 -0.0870 -0.0324
    1TMC1    O213879   2.609   3.698  14.385  0.2253  0.1959  0.0796
    1TMC1    O313880   2.927   3.714  14.765 -0.5568  0.5533  0.1075
    1TMC1    H313881   2.833   3.695  14.744 -0.3799  1.4590 -1.5118
    1TMC1    O513882   2.671   3.872  14.256  0.2200  0.3994  0.3155
    1TMC1    H513883   2.742   3.938  14.271  1.6068 -1.0654  0.2762
    2MPD2     C13884   2.579   4.698  14.456  0.3861 -0.3728 -0.1765
    2MPD2    C113885   2.591   4.616  14.345 -1.0990 -0.3668 -0.1317
    2MPD2    C213886   2.624   4.481  14.354  0.7109 -0.3742  0.3492
    2MPD2    C313887   2.655   4.429  14.477  0.7236  0.2776 -0.3155
    2MPD2    C413888   2.648   4.514  14.587 -0.2102 -0.1631 -1.0136
    2MPD2    C513889   2.599   4.643  14.579  0.4043 -0.3215 -0.3040
    2MPD2     H13890   2.617   4.414  14.269  0.9953  0.3764 -0.2695
    2MPD2    H113891   2.668   4.486  14.690 -1.2143 -0.1621 -0.8188
    2MPD2    H213892   2.541   0.062  14.453 -0.9964 -0.9074 -1.1631
    2MPD2    H313893   2.582   4.703  14.667 -1.4519 -1.7014  0.2697
    2MPD2     N13894   2.687   4.295  14.477  0.3290 -0.0460 -0.6094
    2MPD2    H513895   2.692   4.248  14.387 -0.4944 -1.9367  0.3446
    2MPD2    N113896   2.553   4.675  14.219  1.0834  0.2779 -0.3463
    2MPD2    H713897   2.524   0.034  14.224  0.3031  0.1123 -1.6376
    3TMC2    C113898   2.528   4.697  13.977  0.0568  0.5763 -0.1577
    3TMC2    C213899   2.540   0.096  13.989  0.8367  0.7359 -0.1778
    3TMC2    C313900   2.488   0.164  13.883  0.0536  0.0699  0.8506
    3TMC2    C413901   2.474   4.637  13.863 -0.2402 -0.1979  0.1885
    3TMC2    C513902   2.434   4.714  13.752 -0.9576 -0.0820  0.4953
    3TMC2    C613903   2.451   0.111  13.759 -0.3126  0.5066 -0.3045
    3TMC2     C13904   2.547   4.611  14.098 -0.0027  0.9693  0.0807
    3TMC2     O13905   2.546   4.491  14.069  0.8471 -0.1604 -0.3194
    3TMC2     H13906   2.606   0.147  14.059 -1.8970  2.2352  1.3277
    3TMC2    H113907   2.473   4.529  13.851 -1.0256  0.0552 -2.1910
    3TMC2    H213908   2.429   0.180  13.679  1.3699  2.5972  1.0215
    3TMC2    C713909   2.448   4.655  13.620 -0.1841  0.4455  0.1928
    3TMC2    C813910   2.483   0.306  13.886  1.1131 -0.5167 -0.4047
    3TMC2    O113911   2.512   4.547  13.634 -0.5057  0.3268  0.2955
    3TMC2    O213912   2.467   0.372  13.786  0.6951 -0.2621 -0.2916
    3TMC2    O513913   2.470   0.347  14.014  0.0919  0.2344  0.0206
    3TMC2    H513914   2.473   0.271  14.076 -1.8150  1.8370  2.0950
    4TMC2    C113915   2.267   0.454  12.753 -0.0617  0.1003 -0.4825
    4TMC2    C213916   2.287   0.372  12.647  0.3291  0.4993 -0.0640
    4TMC2    C313917   2.286   0.236  12.670 -0.5801  0.2395 -0.1999
    4TMC2    C413918   2.263   0.400  12.879  0.8042 -0.1343 -0.2363
    4TMC2    C513919   2.266   0.265  12.906 -0.4929 -0.5726 -0.3229
    4TMC2    C613920   2.267   0.186  12.796 -0.0594 -0.3679  0.2998
    4TMC2     C13921   2.293   0.594  12.749 -0.4325  0.5106 -0.4667
    4TMC2     O13922   2.395   0.633  12.692  0.2668  0.4325  0.5349
    4TMC2     H13923   2.315   0.421  12.555 -0.8587 -1.0210 -1.2341
    4TMC2    H113924   2.257   0.470  12.961  3.3217 -1.3648  0.9999
    4TMC2    H213925   2.228   0.085  12.805  1.3544 -1.1232 -2.1851
    4TMC2    C713926   2.301   0.223  13.040 -0.0882 -0.4769 -0.3779
    4TMC2    C813927   2.269   0.145  12.568  0.5202 -0.6443  0.9112
    4TMC2    O113928   2.279   0.303  13.131 -0.4048 -0.1732 -0.0519
    4TMC2    O213929   2.199   0.043  12.570  0.5325  0.2564  0.4499
    4TMC2    O513930   2.361   0.168  12.472  0.1751 -0.6560 -0.0819
    4TMC2    H513931   2.438   0.215  12.511 -0.1335  0.2241 -0.5180
    5MPD2     C13932   2.184   1.082  12.864 -1.0338  0.1546 -0.7032
    5MPD2    C113933   2.084   1.003  12.917 -0.1013 -0.2336  1.2089
    5MPD2    C213934   2.093   0.862  12.911 -0.0206  0.1582 -0.0312
    5MPD2    C313935   2.206   0.802  12.848  0.4575 -1.1082  0.2436
    5MPD2    C413936   2.305   0.882  12.803 -0.9828 -0.4309  0.2920
    5MPD2    C513937   2.287   1.017  12.812 -0.2247  0.7905  0.1868
    5MPD2     H13938   2.005   0.803  12.932  1.8627 -1.8971  2.1115
    5MPD2    H113939   2.398   0.836  12.773 -2.1640  0.3663 -4.6344
    5MPD2    H213940   2.176   1.190  12.869  0.0205  0.2227 -0.5103
    5MPD2    H313941   2.367   1.075  12.767  0.2807 -0.7622 -0.9304
    5MPD2     N13942   2.199   0.660  12.831 -0.4073  0.0237 -0.4304
    5MPD2    H513943   2.134   0.606  12.887 -0.6468  0.9430  0.1885
    5MPD2    N113944   1.981   1.067  12.982 -0.3649 -1.1139 -0.1704
    5MPD2    H713945   1.976   1.169  12.985 -0.0004 -1.0533 -1.8918
    6MPD1     C13946   1.292   2.871  12.937  0.0174  0.8050  0.6390
    6MPD1    C113947   1.405   2.861  13.017  0.0539 -0.5542  0.2810
    6MPD1    C213948   1.457   2.734  13.036 -0.4580 -0.2935  0.4301
    6MPD1    C313949   1.395   2.619  12.981 -0.4372 -0.0136 -0.5937
    6MPD1    C413950   1.270   2.641  12.914  0.0256 -0.2569  0.3961
    6MPD1    C513951   1.230   2.764  12.893 -0.1239 -0.1483  0.2061
    6MPD1     H13952   1.536   2.722  13.109 -0.0981  1.0423  0.2528
    6MPD1    H113953   1.210   2.559  12.875  1.0099 -0.1086 -1.4552
    6MPD1    H213954   1.236   2.964  12.934  0.4049  1.0233  0.0361
    6MPD1    H313955   1.134   2.786  12.848  0.4747 -1.2542 -1.5724
    6MPD1     N13956   1.427   2.479  12.998  0.6622 -0.4673 -0.3999
    6MPD1    H513957   1.352   2.413  12.980  1.3238 -1.0977 -0.7934
    6MPD1    N113958   1.452   2.967  13.102 -0.6844  0.2814 -0.1611
    6MPD1    H613959   1.421   3.062  13.081  0.7779  0.2861 -2.3511
    6MPD1    H713960   1.553   2.970  13.116 -0.3194  1.1709 -2.8139
    7MPD2     C13961   1.277   1.725  12.859 -0.2868 -0.1042  0.2356
    7MPD2    C113962   1.371   1.735  12.961 -0.2404  0.1411  0.0906
    7MPD2    C213963   1.435   1.621  13.006 -0.3181  0.2417 -0.3999
    7MPD2    C313964   1.417   1.494  12.956 -0.6891  0.3590  0.0578
    7MPD2    C413965   1.324   1.483  12.851 -0.3566  0.1638  0.2388
    7MPD2    C513966   1.264   1.601  12.806 -0.2405 -0.6133  0.8482
    7MPD2     H13967   1.503   1.641  13.088 -1.4007 -0.2916  0.6400
    7MPD2    H113968   1.314   1.389  12.798  0.9443 -0.0597  0.3769
    7MPD2    H213969   1.220   1.812  12.828  1.2944  1.0092  0.4092
    7MPD2    H313970   1.188   1.594  12.729 -0.9000 -1.5063  1.5701
    7MPD2     N13971   1.494   1.389  13.015  0.4185  0.0816 -0.1723
    7MPD2    H513972   1.553   1.416  13.092 -1.9938 -0.1107  1.7410
    7MPD2    N113973   1.411   1.862  13.011 -0.5176 -0.9746  0.2643
    7MPD2    H713974   1.506   1.867  13.048 -0.5503  0.5280  0.1157
    8TMC3    C113975   1.553   1.183  13.096  0.6030  0.1959  0.6206
    8TMC3    C213976   1.637   1.092  13.042 -0.2694  0.5855  0.0253
    8TMC3    C313977   1.770   1.088  13.088 -0.3859 -0.0965 -0.5248
    8TMC3    C413978   1.592   1.255  13.208  0.1712 -0.1642  0.1549
    8TMC3    C513979   1.723   1.253  13.246 -0.9876  0.4973  0.0479
    8TMC3    C613980   1.820   1.174  13.184  0.0106 -0.1737 -0.1726
    8TMC3     C13981   1.492   1.256  12.985 -0.3700  0.0206  0.2673
    8TMC3     O13982   1.485   1.211  12.872  0.3406  0.1784 -0.5963
    8TMC3     H13983   1.603   1.004  12.989  0.2678  0.2353  0.2518
    8TMC3    H113984   1.535   1.336  13.252 -1.7227 -2.1133  1.3070
    8TMC3    H213985   1.922   1.164  13.218 -0.6105  0.0402  1.7663
    8TMC3    C713986   1.757   1.393  13.258  0.5449  0.6429  0.4690
    8TMC3    C813987   1.860   1.008  13.007 -0.7247  0.2154  0.7388
    8TMC3    O113988   1.723   1.459  13.160  0.3447 -0.7277  0.0235
    8TMC3    O213989   1.820   0.897  12.973 -0.2701  0.0097  0.5108
    9TMC3    C113990   1.542   2.282  13.077 -0.5226  0.4376  0.1112
    9TMC3    C213991   1.626   2.240  13.177 -0.0203 -0.7329 -0.1642
    9TMC3    C313992   1.610   2.114  13.219 -0.1956 -0.2847  0.9096
    9TMC3    C413993   1.447   2.202  13.015 -0.1500  0.0709 -0.3206
    9TMC3    C513994   1.435   2.075  13.061 -0.1536 -0.6009  0.0413
    9TMC3    C613995   1.514   2.029  13.163 -0.6405  0.2662  0.6311
    9TMC3     C13996   1.539   2.426  13.049  0.3534 -0.2817 -0.5163
    9TMC3     O13997   1.632   2.500  13.080 -0.3141 -0.1109  0.3902
    9TMC3     H13998   1.688   2.305  13.237 -0.3185 -0.9199  0.3383
    9TMC3    H113999   1.411   2.223  12.915  1.3197  2.4462 -0.3554
    9TMC3    H214000   1.481   1.937  13.208 -0.2427  0.4376  1.2736
    9TMC3    C714001   1.351   1.983  13.002  0.0830 -0.2653 -1.1457
    9TMC3    C814002   1.695   2.052  13.325 -0.3851  0.3691  0.1760
    9TMC3    O114003   1.244   2.018  12.952 -0.0754  0.0864  0.1641
    9TMC3    O214004   1.729   2.131  13.414  0.3267  0.1160 -0.7975
   10MPD2     C14005   1.871   1.609  13.536 -0.2425  0.3474 -0.1585
   10MPD2    C114006   1.818   1.578  13.414 -0.2729  0.1201 -0.6301
   10MPD2    C214007   1.779   1.692  13.336  0.2901  0.0243  0.5143
   10MPD2    C314008   1.787   1.824  13.384  0.3704  0.2486  0.0748
   10MPD2    C414009   1.849   1.848  13.503 -0.6478 -0.1561  0.6636
   10MPD2    C514010   1.889   1.740  13.575 -0.0871 -0.5080  0.3579
   10MPD2     H14011   1.736   1.687  13.237  0.1726  0.4942  0.5419
   10MPD2    H114012   1.868   1.946  13.546  2.9093 -0.5430 -0.0749
   10MPD2    H214013   1.919   1.538  13.603 -0.0388 -0.1946 -0.8761
   10MPD2    H314014   1.929   1.765  13.673  0.7471 -4.4685  1.0080
   10MPD2     N14015   1.730   1.921  13.300  0.5821 -0.5075  0.1885
   10MPD2    H514016   1.706   1.890  13.206  2.0264  0.0426 -0.3646
   10MPD2    N114017   1.811   1.441  13.377  0.6093 -0.1227  0.0265
   10MPD2    H714018   1.852   1.375  13.442  1.2964 -1.6649 -1.9736
   11MPD2     C14019   2.520   4.601  13.346 -0.3571  0.0706  0.2792
   11MPD2    C114020   2.437   4.704  13.380 -0.4682 -0.4737  0.0019
   11MPD2    C214021   2.385   0.047  13.283 -0.5418 -0.0538  0.2425
   11MPD2    C314022   2.410   0.024  13.146  0.6930  0.0716 -0.2189
   11MPD2    C414023   2.482   4.652  13.116 -0.0371  0.6490 -0.1257
   11MPD2    C514024   2.539   4.573  13.214  0.7685 -0.2757  0.7430
   11MPD2     H14025   2.320   0.128  13.315 -1.9021 -0.6749 -0.9378
   11MPD2    H114026   2.512   4.634  13.013 -1.8847 -0.3073 -0.4960
   11MPD2    H214027   2.589   4.563  13.421  0.5850  2.4752  0.6405
   11MPD2    H314028   2.611   4.498  13.186 -0.1047 -0.7888 -0.1211
   11MPD2     N14029   2.363   0.101  13.037  0.1669  0.1706 -0.0611
   11MPD2    H514030   2.382   0.064  12.945 -1.0428  0.4185 -0.4121
   11MPD2    N114031   2.412   4.731  13.515  1.1422  0.2402 -0.2176
   11MPD2    H714032   2.359   0.075  13.547 -1.8563 -0.5418 -3.1658
    1MPD1     C14033   0.725   1.846  17.740  0.8316 -0.2228  0.2910
    1MPD1    C114034   0.846   1.811  17.680  0.3195  0.1799 -0.5367
    1MPD1    C214035   0.885   1.871  17.558  0.3558 -0.0477 -0.2614
    1MPD1    C314036   0.803   1.975  17.517 -0.5080  0.3642 -0.0717
    1MPD1    C414037   0.687   2.011  17.583 -0.1179 -0.0834 -0.2191
    1MPD1    C514038   0.648   1.949  17.692  0.2702  0.3993 -0.3994
    1MPD1     H14039   0.977   1.837  17.513  0.7477  0.1334  0.4044
    1MPD1    H114040   0.624   2.084  17.533 -0.2596 -0.4045 -0.5099
    1MPD1    H214041   0.692   1.796   0.081  0.0098 -2.6619 -1.3379
    1MPD1    H314042   0.559   1.993  17.736  0.6201  1.0732 -0.3727
    1MPD1     N14043   0.841   2.060  17.407 -0.2849  0.5230  0.3724
    1MPD1    H514044   0.795   2.151  17.407  0.6789  1.0159  3.1653
    1MPD1    N114045   0.913   1.693  17.725 -0.0600  0.1699 -0.0586
    1MPD1    H614046   1.011   1.711  17.706  0.4965 -1.2249  1.5297
    1MPD1    H714047   0.893   1.672   0.073 -0.2778  0.6084 -0.0100
    2MPD1     C14048   0.522   2.517  16.604 -0.3632  0.4097 -0.2524
    2MPD1    C114049   0.647   2.494  16.557  0.1236  0.1098 -0.8157
    2MPD1    C214050   0.730   2.424  16.648 -0.3128 -0.2336  0.0848
    2MPD1    C314051   0.691   2.389  16.775 -0.6065 -0.1532 -0.6883
    2MPD1    C414052   0.559   2.407  16.807  0.0448  0.0604 -0.3417
    2MPD1    C514053   0.477   2.472  16.721  0.3782  0.1342 -0.1774
    2MPD1     H14054   0.830   2.404  16.613 -1.2150 -2.4964 -1.1499
    2MPD1    H114055   0.510   2.401  16.904  2.1707 -1.2483  0.6620
    2MPD1    H214056   0.457   2.584  16.548 -0.9525  0.4275  0.4525
    2MPD1    H314057   0.373   2.485  16.749  0.3841 -0.7113  0.2406
    2MPD1     N14058   0.789   2.332  16.864  0.3078  0.3428  0.0579
    2MPD1    H514059   0.884   2.331  16.828  0.7065 -0.1999  1.1317
    2MPD1    N114060   0.689   2.527  16.431 -0.3501 -0.3226 -0.4802
    2MPD1    H614061   0.642   2.613  16.404 -0.2608 -0.4774 -1.1195
    2MPD1    H714062   0.790   2.538  16.423 -0.5710  0.9553 -1.4466
    3TMC3    C114063   0.880   2.232  17.048  0.1677 -0.3417 -0.3331
    3TMC3    C214064   1.005   2.268  17.008  0.4639 -0.2964  0.0876
    3TMC3    C314065   1.114   2.248  17.091 -0.1691 -0.2190 -0.0772
    3TMC3    C414066   0.856   2.186  17.178 -0.2607  0.4181 -0.1838
    3TMC3    C514067   0.967   2.159  17.249 -0.2186 -0.3248  0.6176
    3TMC3    C614068   1.103   2.184  17.211  0.3253 -0.5468  0.3462
    3TMC3     C14069   0.762   2.283  16.985 -0.6970  0.8759 -0.0870
    3TMC3     O14070   0.654   2.276  17.047  0.0294 -0.5194  0.3054
    3TMC3     H14071   1.012   2.327  16.917 -1.9381 -0.7529 -0.3879
    3TMC3    H114072   0.756   2.167  17.215 -1.0877  3.0782 -1.0367
    3TMC3    H214073   1.190   2.177  17.275  1.6463  0.3045 -1.3496
    3TMC3    C714074   0.952   2.047  17.330  0.3545 -0.1950  0.1400
    3TMC3    C814075   1.244   2.278  17.036  0.0351 -0.5096 -0.3747
    3TMC3    O114076   1.045   1.968  17.337  0.6300  0.0048 -0.3985
    3TMC3    O214077   1.243   2.352  16.935  0.1703 -0.1565 -0.2989
    4MPD1     C14078   1.738   2.281  17.009  0.6758 -0.1221  0.2550
    4MPD1    C114079   1.704   2.164  17.070 -0.2615  0.5154  0.6109
    4MPD1    C214080   1.570   2.146  17.107 -0.0808 -0.3468 -0.3559
    4MPD1    C314081   1.479   2.238  17.068 -0.0487 -0.5722  0.4525
    4MPD1    C414082   1.516   2.359  17.014  0.3627  0.1001 -0.1596
    4MPD1    C514083   1.647   2.380  16.979  0.3804  0.0890  0.0481
    4MPD1     H14084   1.547   2.059  17.168 -0.4234 -0.1497 -0.2046
    4MPD1    H114085   1.445   2.436  16.989 -1.7118 -1.3124  1.4744
    4MPD1    H214086   1.839   2.288  16.967  0.5898  0.2635  0.1080
    4MPD1    H314087   1.685   2.463  16.922  1.0034 -0.0016  0.3258
    4MPD1     N14088   1.342   2.205  17.090  0.1313 -0.0900 -0.0205
    4MPD1    H514089   1.317   2.136  17.160  2.7606 -0.8941  0.1201
    4MPD1    N114090   1.810   2.093  17.123 -0.2592 -0.2715  1.1583
    4MPD1    H614091   1.895   2.102  17.069 -1.0206 -1.2110 -0.1861
    4MPD1    H714092   1.783   1.995  17.122  0.4575 -0.4772  2.0205
    1TCq1    O114093   3.986   1.444  12.981 -0.4395  0.0086 -1.0320
    1TCq1    C114094   3.923   1.424  12.864 -0.3710  0.3301 -0.1069
    1TCq1    O214095   3.803   1.396  12.858  0.1485 -0.0177 -0.1812
    1TCq1    C214096   3.976   1.509  12.763 -0.3793  0.5970 -0.2285
    1TCq1    C314097   4.111   1.518  12.751 -0.2747  0.3767  0.1651
    1TCq1    C414098   4.162   1.585  12.641  0.2171  0.5387 -0.2303
    1TCq1    C514099   4.072   1.625  12.544 -0.3223 -0.3516 -0.2873
    1TCq1    C614100   3.937   1.618  12.561 -0.5173  0.1981  0.3184
    1TCq1    C714101   3.893   1.565  12.679 -0.4764 -0.3919 -0.4329
    1TCq1    C814102   3.858   1.607  12.446 -0.4741 -0.5617 -0.3943
    1TCq1    O414103   3.751   1.538  12.458  0.2143  0.7661  0.0869
    1TCq1    C914104   4.295   1.552  12.598 -0.0754 -0.6768  0.7887
    1TCq1    O514105   4.354   1.459  12.652 -0.3594  0.3474 -0.3003
    1TCq1    O614106   4.335   1.614  12.494 -0.5943  0.7350 -0.3688
    1TCq1    H114107   4.067   1.499  12.983  0.1309 -0.8686  0.0618
    1TCq1    H214108   4.180   1.461  12.812 -2.8760  0.6222  3.2976
    1TCq1    H314109   4.121   1.661  12.454  0.7996 -1.1418  0.0000
    1TCq1    H414110   3.787   1.542  12.689 -0.2408  0.1280  3.0471
    2MPD1     C14111   3.722   1.690  11.965 -0.0913  0.2242 -0.3101
    2MPD1    C114112   3.819   1.781  11.993  0.5822  0.1098 -0.3443
    2MPD1    C214113   3.863   1.790  12.123  0.1368 -0.3195  0.1113
    2MPD1    C314114   3.828   1.693  12.219  0.0508  0.0469 -0.4106
    2MPD1    C414115   3.739   1.596  12.184 -0.3426  0.1557  0.2834
    2MPD1    C514116   3.688   1.594  12.055  0.2323 -0.0620 -0.4114
    2MPD1     H14117   3.934   1.867  12.152 -2.0560  0.7552  2.6589
    2MPD1    H114118   3.692   1.524  12.250  1.9887 -3.3097 -1.8412
    2MPD1    H214119   3.676   1.684  11.867  1.4686 -0.9191 -0.9886
    2MPD1    H314120   3.624   1.515  12.016 -0.4303 -0.8185  2.2500
    2MPD1     N14121   3.895   1.685  12.342 -0.1795 -0.4344  0.3333
    2MPD1    H514122   3.959   1.761  12.359  1.1155 -0.9164 -2.3234
    2MPD1    N114123   3.857   1.878  11.899 -0.2016  0.3102 -0.0583
    2MPD1    H614124   3.847   1.855  11.800 -0.0692  1.1177 -0.2526
    2MPD1    H714125   3.936   1.937  11.920 -1.6023  1.8885  0.7742
    1TMC1    C114126   0.404   3.220   1.275  0.1634 -0.3087 -0.4017
    1TMC1    C214127   0.388   3.089   1.264 -0.0913  0.5638  0.2925
    1TMC1    C314128   0.480   3.001   1.297 -0.4434 -0.1368 -0.3916
    1TMC1    C414129   0.520   3.275   1.311  1.0043 -0.4256 -0.0605
    1TMC1    C514130   0.622   3.187   1.336  0.0923 -0.2896 -0.4513
    1TMC1    C614131   0.602   3.052   1.329  0.2363  0.5606  0.3473
    1TMC1     C14132   0.295   3.312   1.252 -0.8415 -0.0481  0.2614
    1TMC1     O14133   0.215   3.267   1.173  0.1522 -0.0452 -0.8179
    1TMC1     H14134   0.290   3.062   1.226  0.0474 -2.3472  1.9825
    1TMC1    H114135   0.539   3.382   1.301  1.2333 -0.5240 -0.6737
    1TMC1    H214136   0.684   2.982   1.331 -0.7936 -0.6000  2.0460
    1TMC1    C714137   0.753   3.235   1.376  0.6585 -0.6578  0.0222
    1TMC1    C814138   0.498   2.869   1.238 -0.2091  0.1199  0.5167
    1TMC1    O114139   0.789   3.349   1.367 -0.5862  0.2233 -0.2643
    1TMC1    O214140   0.603   2.821   1.196  0.2533 -0.3989 -0.1301
    1TMC1    O314141   0.822   3.146   1.447  0.3817 -0.4286 -0.2370
    1TMC1    H314142   0.767   3.070   1.478 -2.4747  0.5546 -2.8495
    1TMC1    O514143   0.371   2.822   1.212  0.2195 -0.1980  0.1651
    1TMC1    H514144   0.304   2.866   1.268  0.5536  0.5701 -0.0339
    2MPD1     C14145   4.737   3.713   1.329 -0.2992 -1.0891 -0.4014
    2MPD1    C114146   0.105   3.721   1.415  0.2695 -0.0015 -0.3286
    2MPD1    C214147   0.211   3.634   1.394  0.1358 -0.1514 -0.0648
    2MPD1    C314148   0.204   3.533   1.304  0.4121 -0.3383  0.4404
    2MPD1    C414149   0.095   3.528   1.220  0.5065 -0.1413 -0.6765
    2MPD1    C514150   4.731   3.620   1.227 -0.4826  0.3291 -0.0295
    2MPD1     H14151   0.286   3.636   1.473  0.2143  0.1142 -0.1442
    2MPD1    H114152   0.072   3.446   1.152  0.4947 -0.6144 -0.1011
    2MPD1    H214153   4.650   3.777   1.345  0.9537 -0.0110  2.1470
    2MPD1    H314154   4.639   3.616   1.169 -2.4788  0.0434  3.1596
    2MPD1     N14155   0.299   3.432   1.316  0.2568 -0.2828  0.0169
    2MPD1    H514156   0.361   3.439   1.396 -0.6889  2.3882  0.5034
    2MPD1    N114157   0.117   3.818   1.506 -0.9158 -0.4509 -0.0385
    2MPD1    H614158   0.032   3.865   1.537 -1.1536 -1.7088  1.2010
    2MPD1    H714159   0.177   3.792   1.585  2.4144  0.7764 -2.1477
    1MPD1     C14160   4.085   1.398  10.898 -0.4889 -0.2494 -0.3788
    1MPD1    C114161   4.118   1.404  11.037  0.7906  0.6241  0.7840
    1MPD1    C214162   4.078   1.521  11.096 -0.1511 -0.5528 -0.0396
    1MPD1    C314163   4.009   1.625  11.032 -0.2871 -0.4275  0.4096
    1MPD1    C414164   3.963   1.609  10.904  0.2616  0.4759 -0.1590
    1MPD1    C514165   4.014   1.499  10.838 -0.0554 -0.2118 -0.1579
    1MPD1     H14166   4.114   1.536  11.197  1.2830 -0.8046 -0.5119
    1MPD1    H114167   3.917   1.684  10.841  0.3149 -0.2542 -1.0802
    1MPD1    H214168   4.103   1.308  10.841 -1.0615  0.3536 -1.5011
    1MPD1    H314169   3.980   1.475  10.738  1.0567 -0.8569 -0.3767
    1MPD1     N14170   3.970   1.740  11.112 -0.0045  0.2402  0.4884
    1MPD1    H514171   3.991   1.742  11.212  2.3729  1.4470 -0.0233
    1MPD1    N114172   4.208   1.313  11.091  0.0679  0.1046  0.6833
    1MPD1    H614173   4.205   1.227  11.037 -0.9012  0.7760 -0.3299
    1MPD1    H714174   4.182   1.298  11.189  1.0189  1.0133  1.0795
    2MPD1     C14175   2.383   0.723  11.960  0.0058  0.0662  0.5075
    2MPD1    C114176   2.518   0.726  11.971  0.5006 -0.5300  0.8017
    2MPD1    C214177   2.583   0.793  11.870  0.1302  0.4630 -0.0332
    2MPD1    C314178   2.517   0.837  11.757  0.4416 -0.2051 -0.4890
    2MPD1    C414179   2.381   0.826  11.752  0.4402  0.3828 -0.2943
    2MPD1    C514180   2.307   0.770  11.855  0.0578  0.0329  0.2526
    2MPD1     H14181   2.690   0.810  11.869 -0.0768  1.7419  0.0717
    2MPD1    H114182   2.326   0.861  11.665  0.4434 -1.5075 -1.0608
    2MPD1    H214183   2.331   0.684  12.046  2.3596 -0.5460  1.6702
    2MPD1    H314184   2.199   0.757  11.851  0.1487 -0.8502  0.8215
    2MPD1     N14185   2.576   0.905  11.646 -0.0867  0.0259 -0.3825
    2MPD1    H514186   2.508   0.926  11.573 -2.3679 -0.8208  1.5130
    2MPD1    N114187   2.582   0.695  12.091  0.1002 -0.1043  0.2917
    2MPD1    H614188   2.681   0.676  12.078 -0.3450 -0.3462 -2.7485
    2MPD1    H714189   2.538   0.612  12.129 -1.0928 -0.0463 -0.9743
    3MPD1     C14190   2.584   0.816  10.682 -0.1492  0.3499 -0.4838
    3MPD1    C114191   2.672   0.922  10.688  0.0678  0.4871  0.2261
    3MPD1    C214192   2.690   0.975  10.811 -0.5375 -0.1287  0.4661
    3MPD1    C314193   2.631   0.930  10.925 -0.0743 -0.5630  0.1406
    3MPD1    C414194   2.533   0.836  10.910 -0.2260 -0.7038  0.1358
    3MPD1    C514195   2.508   0.780  10.789 -1.3781 -0.0028 -0.8075
    3MPD1     H14196   2.771   1.047  10.819 -1.4326  0.7461  1.7698
    3MPD1    H114197   2.495   0.778  10.993 -0.4161  0.4494  0.8550
    3MPD1    H214198   2.565   0.751  10.598  1.4226 -0.3139 -0.3155
    3MPD1    H314199   2.468   0.680  10.803 -0.3280 -0.1370  1.2449
    3MPD1     N14200   2.676   0.979  11.047  0.2281 -0.0724  0.6044
    3MPD1    H514201   2.768   1.022  11.047  1.2610 -2.3155 -1.7146
    3MPD1    N114202   2.737   0.967  10.573  0.1383  0.0088  0.3020
    3MPD1    H614203   2.826   1.000  10.610  0.0861  0.0196  0.4203
    3MPD1    H714204   2.770   0.887  10.519  0.0311 -0.6876  1.2583
    4MPD2     C14205   3.531   1.894  11.703 -0.1250  0.0870 -0.1228
    4MPD2    C114206   3.528   1.975  11.589 -0.0371  0.2733  0.1902
    4MPD2    C214207   3.409   2.045  11.553  0.1108  0.2084  0.4710
    4MPD2    C314208   3.290   2.013  11.619  0.0148  0.4134 -0.1873
    4MPD2    C414209   3.295   1.934  11.736 -0.5660  0.5059  0.0079
    4MPD2    C514210   3.411   1.870  11.769  0.2249 -0.6117  0.0436
    4MPD2     H14211   3.415   2.117  11.473 -1.3419  0.8288  0.9221
    4MPD2    H114212   3.208   1.921  11.798 -0.2856 -1.0821  0.0554
    4MPD2    H214213   3.620   1.844  11.738 -0.3086  0.8676  1.4842
    4MPD2    H314214   3.410   1.820  11.865  1.9518  1.1090  0.9839
    4MPD2     N14215   3.163   2.060  11.586 -0.5063  0.0164 -0.3456
    4MPD2    H514216   3.078   2.026  11.629  0.3933 -3.0936 -1.0804
    4MPD2    N114217   3.643   1.998  11.510  0.3201 -0.2350  0.3809
    4MPD2    H714218   3.636   2.066  11.435 -0.4918 -1.4958 -0.6883
    5TMC3    C114219   3.851   1.993  11.409 -0.7236 -0.3840  0.1776
    5TMC3    C214220   3.881   1.896  11.309 -0.6743  0.3808  0.5278
    5TMC3    C314221   3.879   1.942  11.178  0.5742 -0.2227  0.5166
    5TMC3    C414222   3.819   2.117  11.373  0.3529  0.5245  0.4255
    5TMC3    C514223   3.809   2.153  11.239  0.2065 -0.5674 -0.0284
    5TMC3    C614224   3.843   2.070  11.139  0.2976 -0.1029  0.4555
    5TMC3     C14225   3.768   1.939  11.515 -0.1021 -0.0921 -0.3525
    5TMC3     O14226   3.811   1.846  11.579  0.3265 -0.1316  0.1522
    5TMC3     H14227   3.883   1.791  11.333  0.4213 -0.1548 -1.9554
    5TMC3    H114228   3.777   2.187  11.445  0.1140  1.1402 -0.3069
    5TMC3    H214229   3.826   2.097  11.036  4.9439 -0.5030 -0.3805
    5TMC3    C714230   3.679   2.213  11.224 -0.7411  0.2051  0.7253
    5TMC3    C814231   3.898   1.849  11.068 -1.3428  0.5713  0.4842
    5TMC3    O114232   3.602   2.183  11.318 -0.5426 -0.5879 -0.1531
    5TMC3    O214233   3.849   1.879  10.963  0.3180  0.4282 -0.4908
    6TMC3    C114234   2.740   0.997  11.501  0.6795 -0.1424  0.3020
    6TMC3    C214235   2.696   0.931  11.394  0.0225  0.4860  0.6185
    6TMC3    C314236   2.722   0.986  11.274  0.3456  0.2948  0.5260
    6TMC3    C414237   2.816   1.110  11.504 -0.0688  0.3629  0.4886
    6TMC3    C514238   2.842   1.157  11.377  0.6273 -0.5146 -0.1930
    6TMC3    C614239   2.787   1.109  11.261  0.8383 -0.9237  0.4210
    6TMC3     C14240   2.708   0.945  11.633  1.2028 -0.0929 -0.1361
    6TMC3     O14241   2.789   0.955  11.723  0.3994  0.2532 -0.0272
    6TMC3     H14242   2.631   0.845  11.405  0.8987  0.0720  2.6230
    6TMC3    H114243   2.855   1.142  11.600 -1.4708 -0.5344  1.3459
    6TMC3    H214244   2.808   1.162  11.168 -0.7306  0.5767  0.9093
    6TMC3    C714245   2.917   1.283  11.380  0.5263 -0.6476 -0.0179
    6TMC3    C814246   2.623   0.949  11.172  0.2511  0.0933  0.1977
    6TMC3    O114247   2.898   1.365  11.468  0.4878  0.3338  0.0567
    6TMC3    O214248   2.524   0.888  11.201  0.2904 -0.3187 -0.9742
    7MPD2     C14249   3.301   2.300  10.932  0.0352  0.3433 -0.6077
    7MPD2    C114250   3.295   2.281  11.071 -0.4385 -0.8211  0.3043
    7MPD2    C214251   3.421   2.298  11.127 -0.4172 -0.2349 -0.0407
    7MPD2    C314252   3.538   2.303  11.053  0.0504 -0.3096 -0.6006
    7MPD2    C414253   3.528   2.343  10.924  0.1369 -0.2689  0.4816
    7MPD2    C514254   3.410   2.342  10.859  0.4312 -0.2775  0.7099
    7MPD2     H14255   3.420   2.277  11.233  0.1348  1.7374  0.3613
    7MPD2    H114256   3.621   2.346  10.869  0.5813 -0.0956  1.2449
    7MPD2    H214257   3.216   2.296  10.865 -0.1182  1.6690 -0.4888
    7MPD2    H314258   3.408   2.351  10.751  1.7535  0.3852  0.7396
    7MPD2     N14259   3.660   2.275  11.105 -0.0166 -0.0574  0.1869
    7MPD2    H514260   3.736   2.275  11.037 -0.9009 -0.6491 -0.7979
    7MPD2    N114261   3.187   2.250  11.152 -0.2291  0.4610  0.2701
    7MPD2    H714262   3.199   2.251  11.253  1.2427  1.8507  0.0768
    8TMC3    C114263   2.976   2.169  11.204  1.7387  0.2799 -0.0447
    8TMC3    C214264   2.951   2.027  11.190 -0.4395 -0.5269  0.6753
    8TMC3    C314265   2.947   1.959  11.305 -0.3214 -0.1240 -0.1625
    8TMC3    C414266   3.007   2.223  11.324  0.7203  0.2610  0.3018
    8TMC3    C514267   2.999   2.149  11.437 -0.1806  0.4723 -0.9390
    8TMC3    C614268   2.958   2.022  11.428 -0.0509  0.5535 -0.4540
    8TMC3     C14269   3.063   2.214  11.101  0.2641 -0.7303 -0.3672
    8TMC3     O14270   3.019   2.207  10.988  0.4477  0.1298 -0.5162
    8TMC3     H14271   2.960   1.979  11.094  1.0376  1.6353 -0.2691
    8TMC3    H114272   3.023   2.330  11.327 -1.3733  0.5932 -0.6068
    8TMC3    H214273   2.955   1.957  11.515  0.7687  0.7588 -0.2676
    8TMC3    C714274   3.134   2.158  11.493 -0.7056 -0.1879 -0.7904
    8TMC3    C814275   2.963   1.818  11.308  0.3927 -0.2182  0.3655
    8TMC3    O114276   3.210   2.228  11.427  0.1844 -0.3876  0.7886
    8TMC3    O214277   2.922   1.762  11.408  0.3454  0.1289  0.3905
    9MPD2     C14278   3.185   1.616  11.089 -0.5799  0.6252 -1.3343
    9MPD2    C114279   3.087   1.633  11.188  0.2782  0.0442 -0.0415
    9MPD2    C214280   3.038   1.524  11.257  0.4091 -0.0421  0.0424
    9MPD2    C314281   3.073   1.394  11.221  0.2156 -0.2005  0.5997
    9MPD2    C414282   3.164   1.376  11.121 -0.5985 -0.6273 -0.2040
    9MPD2    C514283   3.226   1.485  11.069 -0.3704 -0.3749 -0.3538
    9MPD2     H14284   2.963   1.529  11.335  1.1189  0.1166  0.7122
    9MPD2    H114285   3.191   1.280  11.079  0.1468  0.2795 -1.7742
    9MPD2    H214286   3.237   1.697  11.038  0.4376  1.4776  1.0380
    9MPD2    H314287   3.295   1.465  10.988  0.7267  0.9460  0.2582
    9MPD2     N14288   2.995   1.286  11.268 -0.6895 -0.5741  0.2028
    9MPD2    H514289   3.008   1.193  11.231 -0.1212  0.1084 -1.2885
    9MPD2    N114290   3.051   1.771  11.208 -0.0895 -0.4349 -0.1023
    9MPD2    H714291   3.094   1.841  11.148  0.5377  0.5583  1.4897
    1MPD1     C14292   2.907   0.411  15.588  0.5790  0.7708  0.6432
    1MPD1    C114293   2.827   0.522  15.606 -0.1679  0.0557 -0.6798
    1MPD1    C214294   2.778   0.541  15.733  0.1925 -0.3805  0.0217
    1MPD1    C314295   2.828   0.463  15.844  0.4958  0.5390 -0.0242
    1MPD1    C414296   2.921   0.363  15.820  0.2899 -0.5917 -0.5807
    1MPD1    C514297   2.955   0.332  15.694  0.1603 -0.2071 -0.9019
    1MPD1     H14298   2.712   0.624  15.754  0.7626  0.1085 -0.1001
    1MPD1    H114299   2.961   0.297  15.897  1.1836 -1.0317 -1.4216
    1MPD1    H214300   2.930   0.375  15.489  3.5112  1.6023  1.0200
    1MPD1    H314301   3.006   0.240  15.669  3.2203  1.2258  0.1610
    1MPD1     N14302   2.799   0.477  15.974 -0.7819 -0.1414  0.7941
    1MPD1    H514303   2.864   0.445  16.044 -0.6788 -1.1893  0.2187
    1MPD1    N114304   2.766   0.583  15.498 -0.6845 -0.2167  0.1659
    1MPD1    H614305   2.836   0.594  15.425  0.5141 -0.6847  1.2580
    1MPD1    H714306   2.737   0.679  15.516 -0.5357  0.4712 -3.1352
    2TMC2    C114307   2.558   0.516  16.356 -0.4697  0.2507  0.6974
    2TMC2    C214308   2.672   0.521  16.427 -0.0218  0.6027  0.1181
    2TMC2    C314309   2.787   0.534  16.356  0.1694  0.2005  0.0327
    2TMC2    C414310   2.566   0.543  16.219  0.1650  0.1650  1.1361
    2TMC2    C514311   2.686   0.559  16.160  0.3776  0.2199 -0.2562
    2TMC2    C614312   2.804   0.555  16.226  0.5797 -0.2137 -0.5176
    2TMC2     C14313   2.434   0.480  16.433  0.2913  0.2390  0.0478
    2TMC2     O14314   2.451   0.444  16.548 -0.3415 -0.1348 -0.0982
    2TMC2     H14315   2.671   0.494  16.532  1.8295 -0.5932 -0.1775
    2TMC2    H114316   2.474   0.543  16.161  0.2228 -0.3126  1.0405
    2TMC2    H214317   2.897   0.586  16.180  0.4122 -0.8355 -1.2788
    2TMC2    C714318   2.694   0.553  16.017  0.2998 -0.3116 -0.6322
    2TMC2    C814319   2.908   0.549  16.432 -0.4220 -0.0267 -0.8745
    2TMC2    O114320   2.593   0.583  15.957  0.3977  0.4046  0.2803
    2TMC2    O214321   2.909   0.571  16.554 -0.1964 -0.2543 -0.6277
    2TMC2    O514322   2.987   0.455  16.379 -0.3577 -0.3293 -0.3737
    2TMC2    H514323   2.973   0.409  16.294 -2.7800  0.5017 -0.4278
    3MPD1     C14324   1.943   0.358  16.475 -0.6677  0.7229  0.0225
    3MPD1    C114325   1.961   0.366  16.338  0.4606  0.0478 -0.7385
    3MPD1    C214326   2.093   0.397  16.307 -0.3016  0.4808  0.0209
    3MPD1    C314327   2.197   0.429  16.399 -0.5493 -0.1846  0.1455
    3MPD1    C414328   2.159   0.426  16.531  0.5592 -0.4651  0.1412
    3MPD1    C514329   2.035   0.389  16.575  0.0884 -0.5878  0.5524
    3MPD1     H14330   2.116   0.390  16.201  1.7702 -1.3476  0.5904
    3MPD1    H114331   2.231   0.439  16.611 -0.2009 -1.8823  1.0658
    3MPD1    H214332   1.851   0.323  16.519 -0.9267 -0.5477 -1.5332
    3MPD1    H314333   2.013   0.391  16.681 -0.7713 -0.6895  0.3749
    3MPD1     N14334   2.329   0.457  16.354 -0.4693  1.2435 -0.2426
    3MPD1    H514335   2.350   0.439  16.257 -0.7893  1.9732 -0.4476
    3MPD1    N114336   1.865   0.320  16.243 -0.5463  0.2597 -0.0518
    3MPD1    H614337   1.769   0.319  16.276 -0.2523 -0.3614  0.7753
    3MPD1    H714338   1.887   0.371  16.157 -1.8085  1.2580  0.2080
    1TMC1    C114339   0.555   4.370  12.806  0.3425  0.8703 -0.5670
    1TMC1    C214340   0.584   4.288  12.916 -0.4630 -0.0440  0.5806
    1TMC1    C314341   0.477   4.228  12.981 -0.2031  0.6157 -0.5419
    1TMC1    C414342   0.424   4.414  12.779  0.4370  0.0331 -0.3753
    1TMC1    C514343   0.325   4.355  12.848  0.5616 -0.4387  0.1726
    1TMC1    C614344   0.349   4.271  12.954 -0.1042 -0.1665 -0.6759
    1TMC1     C14345   0.661   4.459  12.765  0.3487  0.2198 -0.0079
    1TMC1     O14346   0.640   4.499  12.651  0.0042 -0.5196 -0.5082
    1TMC1     H14347   0.682   4.257  12.949 -1.9481 -5.7578 -0.2548
    1TMC1    H114348   0.403   4.469  12.688  0.5075  0.6909  0.0064
    1TMC1    H214349   0.260   4.242  13.009  1.5658 -1.2642  1.4525
    1TMC1    C714350   0.189   4.363  12.794 -0.2781 -0.4430  0.0334
    1TMC1    C814351   0.505   4.129  13.090 -0.0023  0.1544 -0.0793
    1TMC1    O114352   0.132   4.258  12.758  0.0873  0.5940 -0.1633
    1TMC1    O214353   0.608   4.063  13.097 -0.1411 -0.7154  0.0068
    1TMC1    O314354   0.177   4.479  12.729 -0.0550  0.1989  0.2651
    1TMC1    H314355   0.219   4.552  12.780 -0.0594  0.6735 -0.4066
    1TMC1    O514356   0.406   4.136  13.183 -0.5950 -0.0479 -0.0910
    1TMC1    H514357   0.342   4.203  13.151 -0.3157  0.6559  0.8522
    2MPD2     C14358   0.917   4.579  12.697 -0.0840  0.1669  0.0191
    2MPD2    C114359   0.886   4.550  12.830 -0.2064 -0.1950  0.1760
    2MPD2    C214360   0.961   4.600  12.934 -0.7483 -0.1898  0.0103
    2MPD2    C314361   1.069   4.685  12.907 -0.9322 -0.2673  0.6868
    2MPD2    C414362   1.102   4.708  12.775  0.8776 -0.6362  0.1277
    2MPD2    C514363   1.028   4.660  12.673 -0.6791  0.6610  0.6164
    2MPD2     H14364   0.933   4.582  13.037  0.8029 -0.8862  0.3093
    2MPD2    H114365   1.188   0.029  12.744  1.4087 -1.3867  0.1676
    2MPD2    H214366   0.860   4.530  12.620 -0.4976 -0.7586  0.9162
    2MPD2    H314367   1.043   4.698  12.572  0.1806 -1.5851 -0.0998
    2MPD2     N14368   1.144   0.003  13.012 -0.1238 -0.1242 -0.3422
    2MPD2    H514369   1.130   4.697  13.103  2.2194  1.0130  0.5816
    2MPD2    N114370   0.761   4.488  12.858 -0.5395  0.0150  0.0290
    2MPD2    H714371   0.744   4.477  12.958  0.4180 -1.0513  0.0709
    3TCq1    O114372   1.540   0.475  13.052 -0.3983  0.7854 -0.6471
    3TCq1    C114373   1.587   0.402  13.151 -0.8110  0.0213 -0.4997
    3TCq1    O214374   1.666   0.436  13.237 -0.2094  0.2171  0.2384
    3TCq1    C214375   1.516   0.273  13.153  0.1422 -0.8629 -0.4149
    3TCq1    C314376   1.544   0.178  13.245  0.6043 -0.0669 -0.2190
    3TCq1    C414377   1.469   0.067  13.267 -0.5186 -0.3027 -0.0181
    3TCq1    C514378   1.363   0.041  13.192 -0.5840  0.1781  0.0740
    3TCq1    C614379   1.325   0.132  13.093  0.3007 -0.4753  0.6334
    3TCq1    C714380   1.409   0.245  13.068 -0.6963  0.1997 -0.2895
    3TCq1    C814381   1.232   0.107  12.990  0.1618 -0.1193 -0.4808
    3TCq1    O414382   1.224   0.194  12.904 -0.2329  0.2126 -0.4344
    3TCq1    C914383   1.511   4.700  13.359 -0.6330  0.0636  0.1904
    3TCq1    O514384   1.438   4.601  13.381 -0.0232 -0.6695 -0.3408
    3TCq1    O614385   1.632   4.712  13.401  0.0950 -0.2434  0.0428
    3TCq1    H114386   1.515   0.422  12.974 -1.0494  0.2254 -0.0590
    3TCq1    H214387   1.627   0.193  13.313  1.3413  1.5515 -1.4764
    3TCq1    H314388   1.293   4.697  13.205 -0.6552  0.0715 -1.0265
    3TCq1    H414389   1.378   0.318  12.994 -0.2729  0.6643 -0.0064
    1MPD2     C14390   0.557   0.264  14.827 -0.3362  1.2181  0.3974
    1MPD2    C114391   0.437   0.320  14.798 -0.1273 -0.3639 -0.1907
    1MPD2    C214392   0.321   0.242  14.808 -0.0548  0.3434  0.2893
    1MPD2    C314393   0.325   0.111  14.850 -0.1407  0.5014  0.1959
    1MPD2    C414394   0.450   0.056  14.883 -0.6723  0.1683  0.1749
    1MPD2    C514395   0.563   0.135  14.871  0.4376 -0.1814  0.4707
    1MPD2     H14396   0.225   0.291  14.797  0.2632  1.0002  0.4467
    1MPD2    H114397   0.468   4.689  14.901 -0.6903  0.2138  0.4615
    1MPD2    H214398   0.650   0.318  14.818 -0.6840  1.4571 -1.6682
    1MPD2    H314399   0.661   0.091  14.892  2.9287  5.0317 -0.2823
    1MPD2     N14400   0.208   0.031  14.867 -0.5265 -0.1078 -0.2735
    1MPD2    H514401   0.214   4.670  14.888 -0.9100 -0.6618 -2.8066
    1MPD2    N114402   0.440   0.450  14.744 -0.5518  0.0509 -0.7013
    1MPD2    H714403   0.530   0.495  14.729 -1.4301  2.4764  1.4145
    2TMC3    C114404   0.343   0.651  14.651 -0.6910  0.0376 -0.1111
    2TMC3    C214405   0.229   0.722  14.654 -0.3657  0.4153 -0.5573
    2TMC3    C314406   0.177   0.768  14.539  0.2923  0.7710  0.6220
    2TMC3    C414407   0.419   0.644  14.536  0.9413  0.2812 -0.0540
    2TMC3    C514408   0.378   0.722  14.431  0.5575  0.4644 -0.3185
    2TMC3    C614409   0.254   0.780  14.423  0.1734 -0.2750 -0.2580
    2TMC3     C14410   0.327   0.531  14.728  0.0174 -0.3192 -0.3443
    2TMC3     O14411   0.207   0.516  14.756 -1.0636 -0.7738  0.2472
    2TMC3     H14412   0.176   0.736  14.747 -0.6494 -0.6128 -0.5628
    2TMC3    H114413   0.518   0.600  14.529  0.2264 -1.2948 -0.2894
    2TMC3    H214414   0.217   0.856  14.355  2.2520  0.0762 -0.9893
    2TMC3    C714415   0.479   0.743  14.331  0.0185  0.2780 -0.5984
    2TMC3    C814416   0.038   0.749  14.524 -0.3977 -0.0113 -0.3384
    2TMC3    O114417   0.591   0.695  14.350 -0.2151  0.6325  0.2883
    2TMC3    O214418   4.709   0.783  14.426 -0.4012 -0.0282  0.5849
    3TCq1    O114419   1.467   1.289  14.112 -0.5396  0.1474  0.2693
    3TCq1    C114420   1.346   1.312  14.063  0.2223 -0.2592  0.5416
    3TCq1    O214421   1.293   1.423  14.081 -0.1481  0.3821  0.1587
    3TCq1    C214422   1.287   1.177  14.046 -0.1362  0.8639 -0.1875
    3TCq1    C314423   1.349   1.068  14.103 -0.0115 -0.4332 -0.2204
    3TCq1    C414424   1.284   0.946  14.090  0.3683 -0.1079  0.1933
    3TCq1    C514425   1.153   0.934  14.053  0.2219  0.5557  0.5017
    3TCq1    C614426   1.089   1.054  14.015 -0.9250 -0.5348 -0.1056
    3TCq1    C714427   1.161   1.172  14.006  0.6056  0.1185  0.4860
    3TCq1    C814428   0.948   1.058  13.983 -1.1376 -0.3501  0.3884
    3TCq1    O414429   0.914   1.157  13.922  0.0586 -0.2478 -0.3700
    3TCq1    C914430   1.354   0.822  14.129 -0.1095 -0.2360 -0.6311
    3TCq1    O514431   1.289   0.717  14.130  0.4113  0.5043 -0.1049
    3TCq1    O614432   1.479   0.833  14.157  0.0311  0.0745 -0.0825
    3TCq1    H114433   1.522   1.233  14.053 -0.1542  1.1875 -0.3559
    3TCq1    H214434   1.451   1.060  14.137  0.6037 -0.3803 -2.0250
    3TCq1    H314435   1.103   0.837  14.052  1.4037 -0.0548  0.1301
    3TCq1    H414436   1.110   1.261  13.973 -0.6831 -0.7639  0.0815
    4MPD2     C14437   0.645   1.021  13.937 -0.4949 -0.0017 -0.4844
    4MPD2    C114438   0.722   0.958  14.032 -0.0540 -0.1497 -0.3804
    4MPD2    C214439   0.654   0.874  14.123  0.0608 -0.4155  0.3199
    4MPD2    C314440   0.511   0.855  14.109 -0.1231 -0.2372 -0.5200
    4MPD2    C414441   0.442   0.922  14.016  0.4389 -0.1636  0.2385
    4MPD2    C514442   0.513   0.995  13.928  0.1461  0.1261 -0.3735
    4MPD2     H14443   0.710   0.832  14.206  2.3714  2.3440  0.1459
    4MPD2    H114444   0.334   0.910  14.013  0.2651  0.9291  1.7504
    4MPD2    H214445   0.683   1.090  13.863  0.2355 -1.1185 -1.1380
    4MPD2    H314446   0.466   1.040  13.841 -0.6637  1.4707  0.7613
    4MPD2     N14447   0.430   0.793  14.216  0.5691 -0.2704 -0.0234
    4MPD2    H514448   0.329   0.802  14.206  0.9367  2.2107 -1.3243
    4MPD2    N114449   0.864   0.968  14.050 -0.0711  0.1570  0.1619
    4MPD2    H714450   0.906   0.903  14.116  0.3811  0.9437  0.6507
    5TMC2    C114451   4.484   0.071  14.894  0.0366 -0.2077  0.3107
    5TMC2    C214452   4.473   0.067  15.033 -0.1533  0.2290 -0.1492
    5TMC2    C314453   4.589   0.032  15.093  0.6070 -0.1795  0.2959
    5TMC2    C414454   4.594   0.028  14.827 -0.2096 -0.4475 -0.1150
    5TMC2    C514455   4.709   0.000  14.891 -0.2324  0.5521 -0.1138
    5TMC2    C614456   4.710   4.735  15.029  0.4020 -0.3173 -0.3257
    5TMC2     C14457   4.433   0.202  14.856  0.1671 -0.0526 -0.5336
    5TMC2     O14458   4.328   0.244  14.902 -0.0481  0.1601 -0.1841
    5TMC2     H14459   4.394   0.123  15.081 -0.1400 -0.0221  0.1689
    5TMC2    H114460   4.599   0.045  14.720  1.6139 -0.5097 -0.0464
    5TMC2    H214461   0.070   4.737  15.076  0.7346 -0.3126 -1.0223
    5TMC2    C714462   0.084   0.071  14.824  0.3086  0.0503 -0.0089
    5TMC2    C814463   4.603   0.068  15.233 -0.0718 -0.0176  0.5038
    5TMC2    O114464   0.045   0.177  14.773  0.3249 -0.4396 -0.3487
    5TMC2    O214465   4.606   0.183  15.265 -0.3184  0.0049 -0.3749
    5TMC2    O514466   4.690   4.719  15.289 -0.0913 -0.4287  0.3713
    5TMC2    H514467   4.676   4.628  15.255 -1.2828 -0.4939  1.0178
    6MPD2     C14468   4.496   0.655  14.637 -0.5047 -0.0903 -0.3583
    6MPD2    C114469   4.619   0.585  14.636 -0.7372 -0.4014 -0.0305
    6MPD2    C214470   4.621   0.461  14.690 -0.0772 -0.7811  0.7486
    6MPD2    C314471   4.511   0.402  14.744 -0.2325 -0.6962 -0.6588
    6MPD2    C414472   4.393   0.476  14.755 -0.1174  0.2971 -0.2288
    6MPD2    C514473   4.384   0.600  14.698 -0.1357 -0.5445 -0.2437
    6MPD2     H14474   4.717   0.409  14.686 -0.6004 -1.6062 -0.8596
    6MPD2    H114475   4.304   0.446  14.808  0.7280 -0.9658  0.4537
    6MPD2    H214476   4.485   0.753  14.591  0.7129  0.9145  1.4719
    6MPD2    H314477   4.291   0.657  14.701  0.0677 -0.0789 -2.2422
    6MPD2     N14478   4.527   0.267  14.785 -0.1079  0.9490 -0.6053
    6MPD2    H514479   4.620   0.225  14.779  0.3003  1.4803  2.3292
    6MPD2    N114480   0.006   0.642  14.605  0.3851 -0.1261 -0.3888
    6MPD2    H714481   0.085   0.588  14.638  1.0299  0.7409 -0.4816
  945NH3     N114482   2.467   4.725  17.522 -0.4562 -0.3524  0.1057
  945NH3     H214483   2.401   0.047  17.473  0.1971 -0.5514 -1.0220
  945NH3     H314484   2.555   0.023  17.486 -1.0161  0.4463 -0.4527
  945NH3     H414485   2.469   0.029  17.614  1.7926  1.4086 -0.7281
  946SOD     NA14486   2.179   0.979  15.556 -0.5122 -0.1570 -0.1401
  947SOD     NA14487   0.167   0.828  10.842  0.2731  0.1629 -0.2757
  948SOD     NA14488   0.041   2.228   2.221 -0.1656 -0.0880 -0.0637
  949SOD     NA14489   1.423   3.112   7.529 -0.3736 -0.3255 -0.2671
  950SOD     NA14490   2.588   1.426  11.829  0.3491 -0.0823  0.0093
  951SOD     NA14491   1.963   4.212   9.462 -0.1213 -0.2985  0.4366
  952SOD     NA14492   2.972   4.129  16.647  0.3670 -0.1272 -0.1858
  953SOD     NA14493   4.455   4.467  13.996  0.1828  0.1540 -0.2031
  954SOL     OW14494   0.101   0.320   7.529 -0.3927  0.8226 -0.1977
  954SOL    HW114495   0.134   0.231   7.543  1.1947  0.8540 -3.6782
  954SOL    HW214496   0.188   0.354   7.552  0.4879 -0.8105 -1.0895
  955SOL     OW14497   2.981   2.598   7.356 -0.3749  0.2709 -0.2463
  955SOL    HW114498   2.957   2.653   7.282 -1.1437 -0.1056 -0.2712
  955SOL    HW214499   3.068   2.574   7.323 -0.4213 -0.5628  0.2573
  956SOL     OW14500   1.599   3.407   3.168 -0.2866  0.8851  0.5089
  956SOL    HW114501   1.507   3.430   3.186 -0.5671 -1.1958  1.7461
  956SOL    HW214502   1.626   3.487   3.124  1.1902 -0.2498 -0.6309
  957SOL     OW14503   2.378   3.191   0.667  0.1599 -0.1461 -0.2450
  957SOL    HW114504   2.373   3.183   0.572  0.0152 -1.1705 -0.1526
  957SOL    HW214505   2.285   3.188   0.689  0.1705  0.2312 -0.1527
  958SOL     OW14506   2.080   4.671   2.300  0.0896 -0.4561  0.7443
  958SOL    HW114507   2.084   0.018   2.345  0.3406 -0.6705  1.1367
  958SOL    HW214508   2.090   4.698   2.209  0.9610 -0.2402  0.9027
  959SOL     OW14509   0.762   0.148   2.636  0.0243  0.1608  0.1097
  959SOL    HW114510   0.715   0.081   2.588  0.2998 -0.3042  0.4924
  959SOL    HW214511   0.694   0.207   2.668 -0.7738 -0.7589  0.0797
  960SOL     OW14512   0.522   3.115   5.397 -0.2338  0.1533  0.7831
  960SOL    HW114513   0.512   3.044   5.460  0.3856 -0.8387 -0.2322
  960SOL    HW214514   0.454   3.087   5.335  0.0602  0.0274  0.5159
  961SOL     OW14515   0.065   1.065   7.639 -0.3291  0.4208  0.8207
  961SOL    HW114516   4.734   1.119   7.679 -2.0484 -1.3703  0.3128
  961SOL    HW214517   0.138   1.062   7.700  0.8423 -1.1875 -0.6703
  962SOL     OW14518   1.715   4.173   8.446  0.4163 -0.0406 -0.1906
  962SOL    HW114519   1.799   4.127   8.450  0.8617  0.6609 -1.1623
  962SOL    HW214520   1.690   4.187   8.537  0.4595 -0.2564 -0.1470
  963SOL     OW14521   2.279   0.422   2.962  0.4422  0.3075 -0.5188
  963SOL    HW114522   2.329   0.373   3.028  0.7541  1.5420  0.1602
  963SOL    HW214523   2.203   0.442   3.016  0.3959  2.7910 -1.5446
  964SOL     OW14524   0.376   3.048   5.815  0.1901 -0.0910  0.3697
  964SOL    HW114525   0.438   3.120   5.800 -0.9401  1.2334  2.0161
  964SOL    HW214526   0.403   2.987   5.747  0.2229  0.9740 -0.5818
  965SOL     OW14527   2.514   2.588  16.248 -0.2515 -0.7162 -0.2323
  965SOL    HW114528   2.454   2.581  16.322 -2.4712 -0.1883 -1.9957
  965SOL    HW214529   2.541   2.496  16.253 -1.1938 -0.9713  0.2462
  966SOL     OW14530   2.156   2.296   2.480  0.0803  0.1225  0.0026
  966SOL    HW114531   2.074   2.252   2.505  0.7236  1.5834  4.6734
  966SOL    HW214532   2.209   2.251   2.545 -1.5242 -0.2088  1.0905
  967SOL     OW14533   4.030   4.266   8.375  0.0571  0.6041  0.5554
  967SOL    HW114534   4.025   4.348   8.325  1.6295  0.5967  0.4000
  967SOL    HW214535   3.948   4.288   8.420  0.2439 -0.8078  1.5754
  968SOL     OW14536   1.000   1.554   3.289 -0.0703  0.2830 -0.2309
  968SOL    HW114537   0.992   1.461   3.307 -0.2121  0.2502 -0.4723
  968SOL    HW214538   1.036   1.581   3.374 -1.5667 -0.2297  0.5696
  969SOL     OW14539   2.701   2.185   2.224 -0.1794  0.0800  0.5368
  969SOL    HW114540   2.624   2.188   2.167 -0.7078 -1.1551  1.1709
  969SOL    HW214541   2.723   2.277   2.215  1.5014 -0.1691  2.1279
  970SOL     OW14542   3.259   2.144  15.781 -0.3015 -0.4330 -0.1405
  970SOL    HW114543   3.258   2.218  15.721 -0.4993  0.4381  0.9211
  970SOL    HW214544   3.195   2.088  15.738  1.7637 -1.5114 -1.7762
  971SOL     OW14545   4.238   0.907   6.838  0.8022  0.6840  0.3028
  971SOL    HW114546   4.144   0.896   6.835  1.0409 -1.5119  1.2331
  971SOL    HW214547   4.250   0.984   6.782  1.1680 -0.0035 -0.5518
  972SOL     OW14548   1.647   1.476   5.102 -0.1970 -0.3823  0.2952
  972SOL    HW114549   1.698   1.422   5.163 -0.1905 -0.6661  0.0414
  972SOL    HW214550   1.694   1.464   5.019 -1.7787  1.5914 -0.8844
  973SOL     OW14551   4.459   4.532   1.438 -0.0740  0.0664  0.1237
  973SOL    HW114552   4.479   4.616   1.396  0.0958  0.5369  1.1629
  973SOL    HW214553   4.532   4.482   1.400 -0.2960  0.3922 -0.7493
  974SOL     OW14554   0.246   0.095  11.181 -0.2684 -0.2490 -0.1201
  974SOL    HW114555   0.223   0.154  11.253 -1.5642 -2.2892  1.1604
  974SOL    HW214556   0.226   0.155  11.109 -0.8821 -1.9496 -1.3529
  975SOL     OW14557   3.918   0.942   1.907  0.1562 -0.0006 -0.1831
  975SOL    HW114558   3.940   0.880   1.837  1.8329  1.4122 -0.8928
  975SOL    HW214559   3.837   0.974   1.868 -0.5765 -0.6435  0.7903
  976SOL     OW14560   1.988   3.947  16.691  0.1753 -0.7157 -0.4183
  976SOL    HW114561   1.960   3.874  16.637 -0.7011 -1.9012  1.6661
  976SOL    HW214562   1.907   3.962  16.739  0.8613 -0.1536  0.5663
  977SOL     OW14563   2.685   3.526   9.248 -0.6445  0.0008 -0.1461
  977SOL    HW114564   2.666   3.564   9.334 -1.7716 -1.6897  0.3399
  977SOL    HW214565   2.748   3.589   9.213  0.3514 -2.6899 -3.1934
  978SOL     OW14566   1.140   2.661   2.300  0.5346  0.2505  0.1515
  978SOL    HW114567   1.152   2.616   2.216 -0.0378  0.4459 -0.0349
  978SOL    HW214568   1.067   2.718   2.276  1.3133  1.0355 -0.3614
  979SOL     OW14569   3.441   3.640  14.651 -0.2572 -0.6725  0.0659
  979SOL    HW114570   3.500   3.566  14.668 -0.0798 -0.0796  1.9472
  979SOL    HW214571   3.361   3.589  14.647 -0.6075  0.0549 -2.4044
  980SOL     OW14572   1.182   4.025   0.057 -0.6261 -0.0762  0.4424
  980SOL    HW114573   1.171   3.942   0.009 -0.0437 -0.3974  0.8658
  980SOL    HW214574   1.184   3.986   0.144 -2.8297 -1.4148 -0.0960
  981SOL     OW14575   3.484   2.192  13.029 -0.7174  0.1030  0.0131
  981SOL    HW114576   3.444   2.278  13.045  1.2887  0.8906  0.7292
  981SOL    HW214577   3.409   2.146  12.991  0.9460 -1.2607 -1.6124
  982SOL     OW14578   4.046   1.605   2.262 -0.2875 -0.1135 -0.4312
  982SOL    HW114579   4.000   1.527   2.291  1.4604 -0.8926  0.2750
  982SOL    HW214580   4.112   1.624   2.329  0.5701 -1.9883 -0.7559
  983SOL     OW14581   1.888   1.914   4.089  0.0369 -0.2814  0.2207
  983SOL    HW114582   1.947   1.928   4.014  0.0910  1.0067  0.5023
  983SOL    HW214583   1.888   1.819   4.096 -1.7672 -0.4401 -1.9908
  984SOL     OW14584   3.238   1.670   7.058 -0.5510 -0.3752  0.2337
  984SOL    HW114585   3.232   1.669   7.154 -3.2044 -0.1757  0.0767
  984SOL    HW214586   3.315   1.616   7.036 -0.7975 -1.8276  2.8951
  985SOL     OW14587   4.259   4.624   3.209  0.3739 -0.3121  0.1586
  985SOL    HW114588   4.200   4.550   3.193 -0.1588  0.6240 -2.2318
  985SOL    HW214589   4.273   4.621   3.303  2.9728 -0.8082 -0.2396
  986SOL     OW14590   4.726   2.719  12.865 -0.4466 -0.4206  0.1439
  986SOL    HW114591   0.024   2.716  12.954  1.9106  1.4929 -0.7483
  986SOL    HW214592   4.691   2.631  12.874 -0.1865 -0.7862 -2.5149
  987SOL     OW14593   3.339   2.645   3.508 -0.5097  0.7157  0.0349
  987SOL    HW114594   3.280   2.623   3.580 -0.9838 -0.4516 -0.6980
  987SOL    HW214595   3.369   2.733   3.528 -0.9352  0.4632  1.7802
  988SOL     OW14596   2.523   0.075   7.857  0.0859 -0.8742 -0.0447
  988SOL    HW114597   2.547   0.165   7.880 -0.0566  0.3624 -4.8073
  988SOL    HW214598   2.540   0.028   7.939 -0.3133  0.7704  0.9652
  989SOL     OW14599   3.165   2.997  13.365  0.2683  0.1146 -1.0383
  989SOL    HW114600   3.258   3.018  13.354  1.0108 -1.3187  2.2963
  989SOL    HW214601   3.156   3.068  13.429  2.3542  1.4634 -2.2754
  990SOL     OW14602   4.472   0.946   5.951  0.1261 -0.1132  0.2130
  990SOL    HW114603   4.399   1.008   5.957 -0.1284 -0.3055 -0.9368
  990SOL    HW214604   4.536   0.990   6.007  0.8651  0.0497 -0.7629
  991SOL     OW14605   0.827   4.040   5.152 -0.1569  0.2242  0.1997
  991SOL    HW114606   0.832   4.113   5.089  1.2931 -0.3162 -0.3126
  991SOL    HW214607   0.821   4.079   5.239 -0.7051  0.6154 -0.0153
  992SOL     OW14608   1.268   1.416   9.790 -0.3596 -0.8791 -0.9518
  992SOL    HW114609   1.344   1.366   9.760 -1.8353 -3.6720 -0.0375
  992SOL    HW214610   1.234   1.349   9.850 -1.3285 -0.5093 -1.0971
  993SOL     OW14611   0.032   1.901   9.107 -0.3529 -0.4095  0.2143
  993SOL    HW114612   4.676   1.895   9.125 -0.5169 -1.6352 -1.0738
  993SOL    HW214613   0.028   1.947   9.023  0.4736 -2.3950 -0.9265
  994SOL     OW14614   2.095   0.958  13.250  0.3704 -0.4248 -0.6100
  994SOL    HW114615   2.146   0.943  13.170  0.3238 -1.6531 -0.4130
  994SOL    HW214616   2.040   0.879  13.252  2.7610 -2.1178 -1.5003
  995SOL     OW14617   0.055   0.836   6.305  0.1120 -0.2119  0.4131
  995SOL    HW114618   0.016   0.766   6.357  1.5482 -2.3160 -1.3174
  995SOL    HW214619   0.043   0.908   6.366  0.5914 -0.4613  0.7957
  996SOL     OW14620   1.643   2.052   3.139 -0.1062  0.1744 -0.0627
  996SOL    HW114621   1.609   2.034   3.051 -1.8300 -1.3212  0.9012
  996SOL    HW214622   1.697   2.130   3.137  0.3997 -0.1832 -0.4030
  997SOL     OW14623   2.056   2.071  17.694  0.0727  0.4185 -0.0259
  997SOL    HW114624   1.976   2.105  17.652  0.5193  0.8487 -0.5358
  997SOL    HW214625   2.050   2.103   0.034  0.7740 -1.0129  0.5150
  998SOL     OW14626   4.495   3.603   6.247 -0.2115 -0.5615 -0.2672
  998SOL    HW114627   4.409   3.579   6.281 -0.3054  1.5558  0.9396
  998SOL    HW214628   4.543   3.520   6.251 -0.7670 -0.9331 -1.1750
  999SOL     OW14629   1.037   1.876   8.808  0.6263  0.0751 -0.4097
  999SOL    HW114630   1.086   1.906   8.885  0.7433  0.6197 -0.6928
  999SOL    HW214631   1.098   1.806   8.786 -0.6447 -1.1097 -0.1470
 1000SOL     OW14632   2.244   2.556   3.097  0.1249 -0.2604  0.0039
 1000SOL    HW114633   2.294   2.619   3.046  1.1997  1.0266  2.6423
 1000SOL    HW214634   2.236   2.602   3.181 -1.1114  1.6303 -1.1440
 1001SOL     OW14635   3.867   4.172   8.150 -0.3252  0.0893 -0.1601
 1001SOL    HW114636   3.941   4.170   8.210 -0.1951  1.1368 -0.2858
 1001SOL    HW214637   3.786   4.175   8.201 -1.0301  1.8611 -1.3593
 1002SOL     OW14638   1.929   1.677  11.906 -0.2764  0.4259 -0.0896
 1002SOL    HW114639   2.024   1.687  11.909 -0.3482  1.8129 -2.4809
 1002SOL    HW214640   1.913   1.644  11.994 -2.4600  2.2109  0.2118
 1003SOL     OW14641   1.369   3.062   6.054  0.7960 -0.3241  0.0708
 1003SOL    HW114642   1.394   3.152   6.032 -0.7958  0.4649  1.4988
 1003SOL    HW214643   1.429   3.047   6.128 -0.1580  2.6112  1.4431
 1004SOL     OW14644   2.161   2.652  12.422  0.8503  0.2638  0.1794
 1004SOL    HW114645   2.108   2.689  12.493  1.2729 -1.5384  1.4180
 1004SOL    HW214646   2.117   2.701  12.352 -3.7579 -2.2321  1.3547
 1005SOL     OW14647   2.738   3.033   9.183  0.2856 -0.5214 -0.5020
 1005SOL    HW114648   2.724   2.941   9.206  0.3738 -0.3976  0.0690
 1005SOL    HW214649   2.796   3.075   9.247  1.4487 -0.3408 -1.6928
 1006SOL     OW14650   1.614   1.578   3.923 -0.6284  0.3626 -0.1450
 1006SOL    HW114651   1.679   1.526   3.971 -0.9527 -0.4391 -0.5873
 1006SOL    HW214652   1.533   1.553   3.968 -0.8675 -0.2921 -0.9434
 1007SOL     OW14653   3.843   1.966  13.993 -0.2352  0.2032  0.1074
 1007SOL    HW114654   3.924   1.921  14.017  0.8779  2.7976  1.1360
 1007SOL    HW214655   3.850   2.054  14.030 -0.7423 -0.0009  0.7014
 1008SOL     OW14656   2.227   2.338   1.438 -0.2655 -0.1814  0.1026
 1008SOL    HW114657   2.237   2.288   1.357  0.7859  0.3193 -0.0842
 1008SOL    HW214658   2.137   2.369   1.430  0.4705  1.5956 -1.3776
 1009SOL     OW14659   4.300   2.213   2.115 -0.2439  0.1431 -0.2767
 1009SOL    HW114660   4.228   2.150   2.108 -1.2436  1.0189  1.9106
 1009SOL    HW214661   4.280   2.291   2.064 -0.9587  0.4276  0.4483
 1010SOL     OW14662   2.460   3.754   4.398 -0.1888  0.1010  0.8623
 1010SOL    HW114663   2.439   3.782   4.487  0.1812 -0.4027  1.1068
 1010SOL    HW214664   2.371   3.737   4.366 -0.5684  1.2396  1.3338
 1011SOL     OW14665   2.266   4.595   0.186  0.1485 -0.0863 -0.5385
 1011SOL    HW114666   2.361   4.591   0.191  0.2353  1.9989 -0.6029
 1011SOL    HW214667   2.247   4.539   0.111 -1.3878  0.5838 -0.6510
 1012SOL     OW14668   1.013   4.128  15.473  0.0107 -0.0049 -0.3555
 1012SOL    HW114669   1.001   4.217  15.508 -2.0954 -0.9783  1.3216
 1012SOL    HW214670   0.926   4.107  15.441  0.0413 -0.9582  0.1796
 1013SOL     OW14671   1.102   2.711   8.754 -0.1590 -0.6241  0.1226
 1013SOL    HW114672   1.048   2.654   8.808 -1.8188  0.6891 -0.1833
 1013SOL    HW214673   1.190   2.673   8.759  0.7431  1.2622 -1.1613
 1014SOL     OW14674   1.955   2.877   1.999 -0.0499 -0.5308 -0.3483
 1014SOL    HW114675   2.048   2.891   1.983  0.0893 -0.1088  0.8701
 1014SOL    HW214676   1.921   2.832   1.921 -0.1875  1.1746 -1.2663
 1015SOL     OW14677   0.960   4.380  15.563 -0.1458  0.2222  0.2837
 1015SOL    HW114678   1.036   4.433  15.587 -0.1177 -0.2639  1.2421
 1015SOL    HW214679   0.930   4.353  15.650 -0.3130  2.0065  0.7773
 1016SOL     OW14680   4.188   2.687  15.056 -0.0513  0.5322  0.3376
 1016SOL    HW114681   4.147   2.737  15.128 -2.3884  0.3249 -0.8452
 1016SOL    HW214682   4.237   2.756  15.012  1.8648 -1.2447 -0.2993
 1017SOL     OW14683   2.248   0.078   8.283  0.3842 -0.4566  0.0669
 1017SOL    HW114684   2.298   0.159   8.269  1.5393 -1.4195 -1.3988
 1017SOL    HW214685   2.313   0.018   8.246  1.2761 -0.2128  1.2244
 1018SOL     OW14686   0.283   4.238   9.827  0.1823 -0.4934 -0.0386
 1018SOL    HW114687   0.276   4.208   9.917 -1.4102 -1.1435 -0.3782
 1018SOL    HW214688   0.284   4.159   9.774  1.0940 -1.2457  1.1032
 1019SOL     OW14689   4.736   1.614   6.174  0.0821 -0.1986  0.7777
 1019SOL    HW114690   4.661   1.671   6.186  0.5299  0.2513  1.4194
 1019SOL    HW214691   0.062   1.680   6.199 -2.9490  2.1505  2.2937
 1020SOL     OW14692   2.604   0.149  12.301 -0.2385 -0.4302  0.2589
 1020SOL    HW114693   2.628   0.083  12.365  1.0068  2.5155  2.8138
 1020SOL    HW214694   2.564   0.216  12.356 -0.5871  0.2492 -0.8076
 1021SOL     OW14695   3.828   3.292  12.094  0.2232 -0.0431 -0.1162
 1021SOL    HW114696   3.885   3.215  12.090 -1.5005 -1.3532  0.0268
 1021SOL    HW214697   3.757   3.265  12.036 -0.0588 -1.1605  0.7385
 1022SOL     OW14698   1.178   3.087  16.421 -0.9920  0.9239 -0.1502
 1022SOL    HW114699   1.232   3.068  16.497 -1.4993  0.4207  0.0794
 1022SOL    HW214700   1.242   3.136  16.368  0.6783  0.0591  1.0493
 1023SOL     OW14701   1.186   0.936   5.037 -0.2355 -0.2758  0.5397
 1023SOL    HW114702   1.135   0.998   4.985 -1.0800 -1.3256  0.1096
 1023SOL    HW214703   1.152   0.857   4.994 -1.7981 -0.2905  1.7890
 1024SOL     OW14704   3.138   0.504  11.509  0.5369 -0.4290  0.1521
 1024SOL    HW114705   3.151   0.553  11.590  0.9855 -1.1124  0.4991
 1024SOL    HW214706   3.048   0.529  11.486 -0.4748 -1.0334  3.3797
 1025SOL     OW14707   3.716   0.017   9.431 -0.8118 -0.0442 -0.1529
 1025SOL    HW114708   3.681   4.687   9.488  2.8983 -1.7843  0.0735
 1025SOL    HW214709   3.641   0.068   9.402 -1.3672  0.2176  1.7230
 1026SOL     OW14710   3.000   3.437  11.280  1.0200 -0.4304  0.2615
 1026SOL    HW114711   3.091   3.466  11.281  0.7994  0.3624 -1.8148
 1026SOL    HW214712   2.956   3.511  11.322  1.1161 -0.4868  0.4572
 1027SOL     OW14713   0.129   1.532   1.340 -0.7856  0.2289 -0.2324
 1027SOL    HW114714   0.067   1.494   1.277  1.1087 -2.1785 -0.6537
 1027SOL    HW214715   0.106   1.484   1.420 -2.5737  0.9775 -0.2965
 1028SOL     OW14716   3.738   3.166  17.098 -0.0738 -0.2585 -0.1257
 1028SOL    HW114717   3.776   3.233  17.041 -0.1488  0.6943  0.9497
 1028SOL    HW214718   3.721   3.105  17.026  0.3559  0.5211 -0.8820
 1029SOL     OW14719   1.847   0.877   1.714  0.6912 -0.5404  0.0442
 1029SOL    HW114720   1.869   0.852   1.803  0.7117 -0.6809  0.0006
 1029SOL    HW214721   1.757   0.845   1.707  0.6167 -0.4015  0.3877
 1030SOL     OW14722   1.652   2.665   8.658  0.3703 -0.2507  0.3297
 1030SOL    HW114723   1.598   2.646   8.581 -0.0906 -0.0689  0.6108
 1030SOL    HW214724   1.605   2.638   8.737 -1.1017 -2.4338 -1.2826
 1031SOL     OW14725   0.564   0.232   3.139  0.4854 -0.2375  1.3835
 1031SOL    HW114726   0.540   0.295   3.207  0.3659 -0.0237  1.1436
 1031SOL    HW214727   0.652   0.265   3.123  0.6290 -0.1021  2.4458
 1032SOL     OW14728   2.606   3.535  11.408 -0.3647 -0.1528 -0.5965
 1032SOL    HW114729   2.667   3.581  11.466 -1.3303  1.5823 -0.9496
 1032SOL    HW214730   2.573   3.604  11.351 -0.6692 -0.7602 -1.1448
 1033SOL     OW14731   0.217   0.951   1.237 -0.5990  0.1477  0.0820
 1033SOL    HW114732   0.307   0.970   1.263 -0.6047  0.4666 -0.1279
 1033SOL    HW214733   0.200   1.024   1.177 -1.5973 -0.5849 -0.5235
 1034SOL     OW14734   3.102   2.378   2.707 -0.3203 -0.3298  0.0731
 1034SOL    HW114735   3.092   2.378   2.802 -0.1968  1.2803  0.0732
 1034SOL    HW214736   3.079   2.469   2.691 -0.5950 -0.3360  0.4398
 1035SOL     OW14737   1.426   3.234  12.985  0.3823  0.2890  0.4505
 1035SOL    HW114738   1.510   3.201  12.953 -0.6622 -1.1167 -0.8417
 1035SOL    HW214739   1.391   3.261  12.900 -0.3011  1.8838  1.2339
 1036SOL     OW14740   0.020   3.862   5.809 -0.0202  0.4142  0.3815
 1036SOL    HW114741   0.068   3.808   5.747  1.6668  1.7781  0.4917
 1036SOL    HW214742   4.683   3.808   5.834 -0.2231 -0.2410 -1.6681
 1037SOL     OW14743   1.822   0.340   7.621 -0.3756  0.7664  0.5692
 1037SOL    HW114744   1.869   0.305   7.696 -0.6527 -1.8544 -0.4891
 1037SOL    HW214745   1.893   0.376   7.568 -0.1989 -1.8015 -0.9137
 1038SOL     OW14746   4.129   1.643   4.448 -0.3024 -0.6143 -0.6617
 1038SOL    HW114747   4.177   1.590   4.512  0.0870  0.2072 -0.2815
 1038SOL    HW214748   4.047   1.657   4.495 -0.0565 -0.0729 -0.3940
 1039SOL     OW14749   4.186   4.545   4.583  0.3861  0.0339  0.2887
 1039SOL    HW114750   4.241   4.586   4.515  0.8245 -1.3207 -0.1768
 1039SOL    HW214751   4.240   4.471   4.608  0.9160 -0.5775 -2.6787
 1040SOL     OW14752   2.249   0.268   1.829  0.0739 -0.3590  0.1686
 1040SOL    HW114753   2.330   0.313   1.852 -0.6455  2.5345 -2.9436
 1040SOL    HW214754   2.267   0.240   1.739  0.9798  3.0191 -0.7092
 1041SOL     OW14755   1.644   3.751   7.225 -0.0565  0.0148  0.1122
 1041SOL    HW114756   1.677   3.740   7.314  1.6808  0.7704 -0.4345
 1041SOL    HW214757   1.552   3.768   7.246  0.3223 -0.2751  1.9701
 1042SOL     OW14758   3.707   2.633   2.074 -0.0029 -0.3989  0.0677
 1042SOL    HW114759   3.658   2.625   2.155  1.1350  2.4520  1.0499
 1042SOL    HW214760   3.697   2.545   2.039 -2.5169  0.2335 -0.7779
 1043SOL     OW14761   1.931   4.430   3.857 -0.3024  0.0890  0.7689
 1043SOL    HW114762   1.881   4.349   3.864  1.4051 -0.8686  1.6382
 1043SOL    HW214763   1.992   4.408   3.786 -0.7366 -0.8807  0.6925
 1044SOL     OW14764   4.609   2.765   7.698 -0.1859  0.0882 -0.5115
 1044SOL    HW114765   4.643   2.738   7.612 -1.1384 -0.4669 -0.7149
 1044SOL    HW214766   4.654   2.849   7.694 -0.7842  0.4451  0.2328
 1045SOL     OW14767   4.545   0.251   3.415 -0.8772  0.2291  0.0731
 1045SOL    HW114768   4.550   0.170   3.465  1.4789  0.9974  1.0606
 1045SOL    HW214769   4.469   0.286   3.463 -1.0862 -1.7055  1.1247
 1046SOL     OW14770   2.841   2.882   9.646 -0.0803  0.0991  0.8887
 1046SOL    HW114771   2.774   2.906   9.582 -1.5690  0.0535  2.4464
 1046SOL    HW214772   2.911   2.940   9.617  0.6457 -0.4935  1.4595
 1047SOL     OW14773   0.981   0.626   7.580 -0.0015  0.0073 -0.0237
 1047SOL    HW114774   1.007   0.580   7.660  0.6802 -0.5677 -0.5887
 1047SOL    HW214775   0.888   0.637   7.600 -0.3093  0.3449 -1.6395
 1048SOL     OW14776   4.471   0.220   1.868  0.2747 -0.2772  0.3456
 1048SOL    HW114777   4.543   0.207   1.805  1.6857 -1.7852  2.2525
 1048SOL    HW214778   4.483   0.314   1.883 -0.5001 -0.4382  1.9057
 1049SOL     OW14779   0.698   3.069   8.736 -0.9196  0.5741  0.1660
 1049SOL    HW114780   0.691   3.127   8.812 -0.2467  0.3915  0.3754
 1049SOL    HW214781   0.760   3.114   8.678  1.1357 -0.6147  1.4366
 1050SOL     OW14782   2.173   3.013  14.676  0.1499  0.1532  0.3189
 1050SOL    HW114783   2.079   3.016  14.690 -0.3054  1.0235 -2.9174
 1050SOL    HW214784   2.186   2.918  14.682  2.0821  0.3120 -1.1597
 1051SOL     OW14785   1.443   3.374   8.119 -0.3648 -0.3077  0.0787
 1051SOL    HW114786   1.473   3.297   8.166 -0.0883 -0.0803  0.2720
 1051SOL    HW214787   1.363   3.337   8.081  0.5330 -1.4400 -0.7201
 1052SOL     OW14788   1.993   3.897  15.519  0.2772  0.1738  0.7505
 1052SOL    HW114789   2.016   3.804  15.519  0.2098  0.1562  1.1269
 1052SOL    HW214790   1.900   3.890  15.539  0.7570 -1.1465  2.5449
 1053SOL     OW14791   0.103   1.787   1.435  0.6427  0.3325 -0.0844
 1053SOL    HW114792   0.176   1.778   1.496  1.6395  3.1220 -0.8579
 1053SOL    HW214793   0.115   1.704   1.389 -0.5350  0.7190 -1.0807
 1054SOL     OW14794   2.109   1.996  13.778  0.4813  0.4456 -0.4713
 1054SOL    HW114795   2.172   1.925  13.773  0.5514  0.3728  1.3187
 1054SOL    HW214796   2.027   1.957  13.809  0.9348  0.1448  0.3311
 1055SOL     OW14797   2.436   0.354   6.494  1.0147 -0.0653 -0.1247
 1055SOL    HW114798   2.463   0.369   6.585 -0.2494  0.0503  0.2245
 1055SOL    HW214799   2.345   0.380   6.494  0.9051 -0.4148  3.1706
 1056SOL     OW14800   2.981   0.070   8.123 -0.0354 -0.2152 -0.0567
 1056SOL    HW114801   3.051   0.115   8.170 -0.2478 -0.3290  0.3747
 1056SOL    HW214802   3.040   0.011   8.077  1.0944 -0.0894  1.2259
 1057SOL     OW14803   0.691   4.444  14.297  0.1934  0.5336 -1.0774
 1057SOL    HW114804   0.618   4.475  14.351  1.6129  1.6157  0.2120
 1057SOL    HW214805   0.760   4.444  14.363 -0.8743  0.2109  0.0249
 1058SOL     OW14806   3.200   1.525   5.046 -0.6047  0.2814  0.1657
 1058SOL    HW114807   3.131   1.521   4.979 -0.5883 -0.8273  0.2219
 1058SOL    HW214808   3.262   1.586   5.006 -0.0529 -1.7245 -1.9696
 1059SOL     OW14809   2.725   1.754   4.641  0.5661 -1.0195  0.4267
 1059SOL    HW114810   2.756   1.668   4.668 -0.6053 -1.6330 -0.1893
 1059SOL    HW214811   2.720   1.806   4.721  1.5232 -0.6785  0.2686
 1060SOL     OW14812   1.487   1.381  11.058 -0.0109  0.5142  0.7957
 1060SOL    HW114813   1.572   1.351  11.027 -1.1893 -0.1048 -1.8556
 1060SOL    HW214814   1.498   1.372  11.153  0.2049  0.3050  0.7508
 1061SOL     OW14815   0.005   0.330   6.002  0.1551 -0.0332  0.4611
 1061SOL    HW114816   4.696   0.337   5.919  2.6408  0.5194 -0.8934
 1061SOL    HW214817   0.084   0.374   5.970 -0.4509 -0.5124 -1.6818
 1062SOL     OW14818   4.030   4.168   6.405 -0.5156  0.0738  0.6778
 1062SOL    HW114819   3.953   4.115   6.425 -1.0017  1.5057  2.5199
 1062SOL    HW214820   4.050   4.205   6.491 -3.0059  1.6730  0.5491
 1063SOL     OW14821   2.634   1.548  17.324  0.2440  0.0314  0.6618
 1063SOL    HW114822   2.538   1.555  17.325  0.0148 -3.0235  0.8178
 1063SOL    HW214823   2.662   1.626  17.275  1.1843 -0.4211  0.4930
 1064SOL     OW14824   1.621   2.706   7.002  0.0411 -0.2911  0.0147
 1064SOL    HW114825   1.685   2.733   7.068 -1.4373 -1.0938  1.7742
 1064SOL    HW214826   1.548   2.762   7.029 -1.0934 -1.5992 -0.3262
 1065SOL     OW14827   3.370   1.912   2.042 -0.3204 -0.0413 -0.2945
 1065SOL    HW114828   3.440   1.908   2.108 -1.2957  0.5801  0.7699
 1065SOL    HW214829   3.314   1.966   2.098  0.7961  0.0699  0.7296
 1066SOL     OW14830   4.427   0.476   8.680 -0.1226 -0.1523 -0.3943
 1066SOL    HW114831   4.437   0.398   8.734 -0.2508 -1.0684 -1.7085
 1066SOL    HW214832   4.332   0.480   8.686 -0.2179 -1.4745 -1.0733
 1067SOL     OW14833   0.302   1.850   8.599 -0.8687  0.2062 -0.1402
 1067SOL    HW114834   0.351   1.848   8.516  1.6329 -2.2520  1.4048
 1067SOL    HW214835   0.356   1.912   8.647 -1.2409  0.0567  0.4598
 1068SOL     OW14836   1.811   1.777  12.633 -0.3596 -0.2785  0.3133
 1068SOL    HW114837   1.790   1.768  12.726 -1.7384 -0.3637 -0.0167
 1068SOL    HW214838   1.870   1.852  12.625  1.0395 -1.2709  1.3407
 1069SOL     OW14839   4.119   4.609  11.953 -0.5486  0.5053 -0.1854
 1069SOL    HW114840   4.172   4.541  11.994 -1.3885 -0.7620 -1.2001
 1069SOL    HW214841   4.126   4.585  11.860  2.6034  0.4516  0.0572
 1070SOL     OW14842   1.965   3.224   6.664  0.4957  0.7629 -0.6588
 1070SOL    HW114843   1.999   3.297   6.611  0.6652  1.6167  0.6117
 1070SOL    HW214844   1.949   3.278   6.742  1.4360  0.5459 -0.3246
 1071SOL     OW14845   3.556   1.792   1.314 -0.3374 -0.3037  0.0066
 1071SOL    HW114846   3.521   1.801   1.403  2.2329  2.2472  0.7727
 1071SOL    HW214847   3.538   1.699   1.301 -1.8214  0.1156 -0.8674
 1072SOL     OW14848   0.857   0.708   2.720 -0.0403 -0.1933  0.1510
 1072SOL    HW114849   0.843   0.687   2.628 -1.8781 -0.5403  0.5132
 1072SOL    HW214850   0.779   0.660   2.748 -0.1535 -0.4315 -0.5763
 1073SOL     OW14851   4.341   0.671   6.123 -0.0695  0.0815 -0.5424
 1073SOL    HW114852   4.393   0.746   6.093 -1.8025  1.0825 -1.0573
 1073SOL    HW214853   4.403   0.600   6.105  0.0910  1.0618 -3.8726
 1074SOL     OW14854   2.305   1.902   0.528  0.0433 -0.2242  0.3793
 1074SOL    HW114855   2.280   1.993   0.543  2.5677  0.5553 -0.0368
 1074SOL    HW214856   2.317   1.872   0.618  4.0102  1.4483  0.4131
 1075SOL     OW14857   1.097   4.509   4.443  0.4048 -0.5375 -0.0785
 1075SOL    HW114858   1.064   4.427   4.479  0.3139 -0.1344  0.7383
 1075SOL    HW214859   1.024   4.569   4.457 -1.0771 -2.2460 -0.5046
 1076SOL     OW14860   3.077   3.022   5.092 -0.0378  0.3971 -0.2559
 1076SOL    HW114861   3.093   3.052   5.003 -3.3985  2.0528 -0.3109
 1076SOL    HW214862   3.090   2.927   5.091 -2.7493 -0.0028  1.0216
 1077SOL     OW14863   2.991   0.785  13.703  0.1635 -0.2329  0.1231
 1077SOL    HW114864   2.902   0.817  13.714  0.2922 -0.0056  0.5190
 1077SOL    HW214865   3.031   0.861  13.660  1.8402  0.2268  2.5088
 1078SOL     OW14866   4.280   2.847   3.862  0.0333  0.3524  0.4728
 1078SOL    HW114867   4.271   2.811   3.950 -1.9573  0.5865  0.3702
 1078SOL    HW214868   4.356   2.795   3.834 -1.4111 -2.3370  1.5696
 1079SOL     OW14869   4.044   0.757   2.955  0.3255  0.5755  0.3561
 1079SOL    HW114870   3.958   0.717   2.966  0.0284  1.6342  1.7486
 1079SOL    HW214871   4.026   0.848   2.979  1.2052  0.7612  0.3259
 1080SOL     OW14872   4.501   2.908   1.814  0.0379  0.1628 -0.3173
 1080SOL    HW114873   4.586   2.896   1.770 -0.3049 -1.6203 -0.4848
 1080SOL    HW214874   4.445   2.943   1.744  0.8003  0.2476 -0.8875
 1081SOL     OW14875   2.429   0.701   3.653 -0.2221  0.6057  0.1292
 1081SOL    HW114876   2.351   0.757   3.649 -1.5811 -1.3088 -0.4393
 1081SOL    HW214877   2.478   0.752   3.717  0.9176 -0.9475  0.4794
 1082SOL     OW14878   2.774   4.493   3.796  0.3579  0.1450  0.6047
 1082SOL    HW114879   2.783   4.408   3.754 -2.5293  0.3613 -0.4420
 1082SOL    HW214880   2.688   4.520   3.764  1.1687 -1.4112 -2.8371
 1083SOL     OW14881   2.867   0.123   9.793 -0.4195 -0.2500  0.2139
 1083SOL    HW114882   2.824   0.065   9.856 -0.6810  0.9160  1.1060
 1083SOL    HW214883   2.848   0.210   9.828  3.3076  0.5572  0.2126
 1084SOL     OW14884   1.821   1.212   6.350  0.3053  0.3728  0.3812
 1084SOL    HW114885   1.839   1.284   6.411 -0.6381  0.8040  0.1443
 1084SOL    HW214886   1.732   1.192   6.378 -0.0289  0.4166 -0.6679
 1085SOL     OW14887   0.894   2.261  16.143 -0.0747  0.3460  0.0212
 1085SOL    HW114888   0.903   2.335  16.203  1.5235  0.2180 -0.0678
 1085SOL    HW214889   0.798   2.265  16.144 -0.1297 -0.3378 -2.2167
 1086SOL     OW14890   3.854   2.562   0.039  0.4370  0.2666 -0.2318
 1086SOL    HW114891   3.759   2.570   0.042  0.1636 -1.8227 -2.6377
 1086SOL    HW214892   3.884   2.636   0.092 -0.5020  0.4624  0.0237
 1087SOL     OW14893   2.114   4.467   0.647  0.4376  0.6637  0.6067
 1087SOL    HW114894   2.202   4.504   0.637  0.4833  0.4544  0.2453
 1087SOL    HW214895   2.099   4.492   0.738  0.9900  0.3427  0.7829
 1088SOL     OW14896   2.468   3.663   3.241  0.3357 -0.2493 -0.3238
 1088SOL    HW114897   2.373   3.654   3.227  0.5347 -0.7393 -1.3550
 1088SOL    HW214898   2.469   3.726   3.313 -1.5154  0.6306 -1.0619
 1089SOL     OW14899   1.578   4.378   6.238  0.2083 -0.5335 -0.3398
 1089SOL    HW114900   1.538   4.375   6.325 -2.1027  0.2864 -1.3594
 1089SOL    HW214901   1.672   4.387   6.252  0.1904  0.2145 -0.7219
 1090SOL     OW14902   2.379   0.422   8.787 -0.4610  0.2861  0.1364
 1090SOL    HW114903   2.340   0.460   8.708  0.5283  1.2222  0.1093
 1090SOL    HW214904   2.469   0.446   8.765 -0.1926 -1.4140 -0.6709
 1091SOL     OW14905   2.913   2.162   6.877  0.3832 -0.0043 -0.4893
 1091SOL    HW114906   2.978   2.192   6.940 -0.3573 -0.7985  0.6602
 1091SOL    HW214907   2.869   2.241   6.844  1.6011  0.1861 -1.6590
 1092SOL     OW14908   3.800   1.543   6.979  0.2296 -0.0920 -0.2936
 1092SOL    HW114909   3.795   1.491   7.059 -0.4424  2.0541  1.0570
 1092SOL    HW214910   3.756   1.620   7.014 -1.9109 -1.7869  0.7884
 1093SOL     OW14911   4.599   1.856  17.231  0.4087 -0.2294  0.6240
 1093SOL    HW114912   4.548   1.776  17.227 -1.0439  0.7209  0.3746
 1093SOL    HW214913   4.544   1.926  17.265 -1.0477 -0.4446 -1.2804
 1094SOL     OW14914   4.119   1.135  12.834 -0.0034  0.2152 -0.9294
 1094SOL    HW114915   4.036   1.138  12.787  2.0390  0.7064 -4.4742
 1094SOL    HW214916   4.187   1.144  12.768  0.3408  0.9197 -0.4790
 1095SOL     OW14917   4.177   4.036   4.448  0.5409  0.3795 -0.3159
 1095SOL    HW114918   4.183   4.019   4.354 -0.9716  1.8100 -0.6811
 1095SOL    HW214919   4.085   4.060   4.459 -0.4184 -1.8662 -3.2594
 1096SOL     OW14920   3.345   0.848  12.143  0.1818  0.0403  0.4137
 1096SOL    HW114921   3.268   0.906  12.135 -0.9481 -1.4459  0.4898
 1096SOL    HW214922   3.298   0.776  12.185 -0.6115  1.1098  1.3832
 1097SOL     OW14923   3.242   1.378  11.532  0.1726 -0.0278 -0.5322
 1097SOL    HW114924   3.225   1.333  11.615  2.4403 -1.1527 -0.6958
 1097SOL    HW214925   3.153   1.364  11.497  0.3272  0.7889 -1.2607
 1098SOL     OW14926   2.975   1.657   1.262 -0.2480 -0.1263 -0.4989
 1098SOL    HW114927   2.985   1.563   1.277  0.7860 -0.1091 -1.0399
 1098SOL    HW214928   2.953   1.675   1.353 -0.2868 -1.4686 -0.2456
 1099SOL     OW14929   1.999   3.363  11.384  0.0533 -0.6354  0.7687
 1099SOL    HW114930   2.003   3.342  11.291 -0.6646 -1.3111  0.8964
 1099SOL    HW214931   1.907   3.343  11.402 -1.1470  1.5701 -2.9795
 1100SOL     OW14932   3.599   3.391  10.644 -0.3910  0.0388 -0.1600
 1100SOL    HW114933   3.594   3.440  10.726  0.8569  0.7926 -0.5267
 1100SOL    HW214934   3.692   3.370  10.658 -0.7192 -1.0484  0.3792
 1101SOL     OW14935   4.168   0.005   0.973 -0.2412  0.6678  0.1885
 1101SOL    HW114936   4.200   4.709   1.057 -1.3142  0.8546  0.6773
 1101SOL    HW214937   4.077   4.713   0.978 -0.0228  0.2278  1.5543
 1102SOL     OW14938   2.319   3.375  15.740 -0.0065 -0.1358  0.8565
 1102SOL    HW114939   2.229   3.398  15.717 -0.2836 -2.7957 -0.7181
 1102SOL    HW214940   2.314   3.281  15.759  1.5587  0.3999  3.9978
 1103SOL     OW14941   4.239   2.360   5.497  0.0268  0.2353  0.1674
 1103SOL    HW114942   4.230   2.289   5.434 -1.3311  0.1898  0.4166
 1103SOL    HW214943   4.305   2.412   5.450  2.0876  1.1297  4.0396
 1104SOL     OW14944   1.962   0.869  13.953 -0.0646 -0.2805 -0.5019
 1104SOL    HW114945   1.940   0.935  13.886  0.9018  1.5266  0.9513
 1104SOL    HW214946   1.912   0.895  14.031 -0.4331  1.4906 -1.3247
 1105SOL     OW14947   3.921   4.622  15.585 -0.4208  0.2487  0.0750
 1105SOL    HW114948   3.894   4.551  15.527  0.4503 -0.8147  0.9763
 1105SOL    HW214949   3.986   4.581  15.643 -1.2361  0.3862  1.0808
 1106SOL     OW14950   1.545   4.315   8.301  0.2214  0.0313 -0.1345
 1106SOL    HW114951   1.591   4.248   8.351  0.5469 -0.1024 -0.6115
 1106SOL    HW214952   1.612   4.379   8.277  0.1083  0.2730  0.2008
 1107SOL     OW14953   0.978   3.615   1.395  0.1956 -0.7137  0.4784
 1107SOL    HW114954   0.934   3.575   1.470  0.1785 -0.8658  0.3868
 1107SOL    HW214955   1.071   3.616   1.419  0.2903  0.4664  0.0896
 1108SOL     OW14956   4.198   0.452   3.875 -0.0400  0.3281 -0.4819
 1108SOL    HW114957   4.162   0.535   3.908 -0.0228  0.1654 -0.0572
 1108SOL    HW214958   4.274   0.449   3.933 -0.0571  2.0629 -0.3626
 1109SOL     OW14959   4.544   1.443   0.746  0.3325  0.2897 -0.0808
 1109SOL    HW114960   4.514   1.444   0.655 -1.3705  0.2315  0.4841
 1109SOL    HW214961   4.522   1.526   0.788  4.1445  1.8508 -1.1827
 1110SOL     OW14962   4.314   3.686   3.516 -0.1512 -0.4881  0.4541
 1110SOL    HW114963   4.361   3.666   3.435  1.7707  1.4802  1.0628
 1110SOL    HW214964   4.225   3.694   3.482 -0.2419  0.6929  0.9565
 1111SOL     OW14965   3.641   3.590   5.438 -0.0127 -0.3700  0.5841
 1111SOL    HW114966   3.731   3.622   5.447 -0.1327 -0.4278  1.9030
 1111SOL    HW214967   3.630   3.585   5.343  1.4852  2.4326  0.2646
 1112SOL     OW14968   4.329   2.813   6.656 -0.1199 -0.0673  0.3192
 1112SOL    HW114969   4.291   2.868   6.724 -0.0283  0.8849 -0.3873
 1112SOL    HW214970   4.309   2.727   6.693 -1.1668 -0.3212 -0.8243
 1113SOL     OW14971   1.854   2.538  14.746  0.4851 -0.1572 -0.0092
 1113SOL    HW114972   1.775   2.509  14.792  1.8398  0.4514  2.6912
 1113SOL    HW214973   1.857   2.624  14.789 -3.6241 -0.3202  0.5868
 1114SOL     OW14974   1.355   3.442  14.630 -0.3827 -0.6903  0.1223
 1114SOL    HW114975   1.427   3.445  14.567 -2.1079  3.7893 -1.6322
 1114SOL    HW214976   1.326   3.533  14.633  0.2312 -0.4842 -0.2171
 1115SOL     OW14977   4.577   0.946   2.863 -0.4109  0.5324  0.3596
 1115SOL    HW114978   4.487   0.972   2.844 -0.1014  1.9373  0.8584
 1115SOL    HW214979   4.625   1.018   2.823  1.0239  0.0430  1.2060
 1116SOL     OW14980   4.368   0.089   9.269  0.5608  0.5254 -0.1617
 1116SOL    HW114981   4.357   0.184   9.272  0.7024  0.4828  2.0981
 1116SOL    HW214982   4.352   0.068   9.177 -1.2249 -1.5669  0.6295
 1117SOL     OW14983   0.339   4.301   7.368 -0.1301 -0.0197 -0.3105
 1117SOL    HW114984   0.283   4.247   7.313  1.1411  0.0804 -1.7085
 1117SOL    HW214985   0.322   4.382   7.320 -1.1249  0.9313  1.6616
 1118SOL     OW14986   1.438   3.719  16.729  0.6616  0.2791  0.0394
 1118SOL    HW114987   1.414   3.799  16.683  2.7464  0.7063 -0.3193
 1118SOL    HW214988   1.449   3.661  16.653 -0.2731  0.1082  0.0416
 1119SOL     OW14989   2.283   2.145   7.639 -0.1610 -0.4758 -0.0916
 1119SOL    HW114990   2.248   2.108   7.558  3.1205  0.0152 -1.7391
 1119SOL    HW214991   2.342   2.213   7.606  1.2074 -1.5285  0.1846
 1120SOL     OW14992   0.465   0.196  16.825 -0.1913 -0.6250 -0.6496
 1120SOL    HW114993   0.411   0.273  16.839 -1.9333 -1.9940  0.1481
 1120SOL    HW214994   0.470   0.200  16.730  1.6182 -2.6501 -0.6381
 1121SOL     OW14995   1.006   1.306   3.901 -0.0360 -0.3750  0.8009
 1121SOL    HW114996   0.938   1.260   3.852  0.5813  0.7556 -1.1118
 1121SOL    HW214997   1.080   1.296   3.842  1.3213  0.3958  2.3831
 1122SOL     OW14998   0.737   1.657   2.141 -0.1679  0.1540 -0.1272
 1122SOL    HW114999   0.823   1.675   2.103 -0.3292 -0.5439 -0.8168
 1122SOL    HW215000   0.750   1.689   2.230  0.6333  2.8735 -1.2304
 1123SOL     OW15001   0.786   0.555  17.209 -0.3028 -0.1780 -0.0067
 1123SOL    HW115002   0.813   0.498  17.137  0.7700  0.2522  0.0642
 1123SOL    HW215003   0.794   0.496  17.284  1.3423  0.5392  0.3710
 1124SOL     OW15004   0.420   2.772  15.936  0.5140 -0.0825 -0.3501
 1124SOL    HW115005   0.369   2.714  15.879  0.8568  1.6539 -2.4223
 1124SOL    HW215006   0.397   2.749  16.026  0.8061  0.7294 -0.0737
 1125SOL     OW15007   4.646   4.467   7.635 -0.4339  0.4583 -0.0792
 1125SOL    HW115008   4.733   4.428   7.621 -1.1937 -1.1332 -0.2660
 1125SOL    HW215009   4.660   4.528   7.708  1.1019  1.1969 -0.9688
 1126SOL     OW15010   3.068   1.086   1.868  0.4745  0.6649  0.4797
 1126SOL    HW115011   3.095   1.178   1.878 -1.9626  1.2483  1.9606
 1126SOL    HW215012   3.138   1.038   1.912  0.8832 -0.0230 -0.9537
 1127SOL     OW15013   4.582   0.256   5.028  0.0170  0.1577 -0.1093
 1127SOL    HW115014   4.587   0.332   5.086 -0.8687  0.3403 -0.2701
 1127SOL    HW215015   4.558   0.188   5.091 -0.7248  2.1154  1.7254
 1128SOL     OW15016   4.717   0.283  11.562 -0.4860 -0.0354 -0.3413
 1128SOL    HW115017   4.691   0.375  11.557  4.6072  1.3998 -0.4790
 1128SOL    HW215018   4.681   0.262  11.648 -0.7330 -0.0934 -0.4615
 1129SOL     OW15019   0.302   1.378  11.498  0.4958 -0.5226 -0.4419
 1129SOL    HW115020   0.289   1.404  11.589 -2.1591 -1.2597 -0.6330
 1129SOL    HW215021   0.291   1.462  11.452 -0.7061 -0.1334  0.5724
 1130SOL     OW15022   1.763   3.230   5.120  0.6026 -0.2781 -0.4127
 1130SOL    HW115023   1.697   3.291   5.087  1.4828  0.6858 -0.3745
 1130SOL    HW215024   1.779   3.238   5.214 -2.4879 -1.2717  0.2023
 1131SOL     OW15025   2.316   2.418   0.468 -0.1366  0.2512 -0.0732
 1131SOL    HW115026   2.346   2.363   0.540  1.6952 -0.1965 -1.1997
 1131SOL    HW215027   2.363   2.500   0.479  1.1878 -0.1792 -2.7065
 1132SOL     OW15028   0.570   3.186  12.064 -0.4039 -0.4579 -0.2031
 1132SOL    HW115029   0.625   3.134  12.005 -0.3371  1.3909 -1.7901
 1132SOL    HW215030   0.572   3.270  12.017  0.1342  0.1806  0.9530
 1133SOL     OW15031   3.429   3.153  10.570 -0.0437 -0.5091 -0.1336
 1133SOL    HW115032   3.445   3.248  10.570  2.1245 -0.8869  0.2168
 1133SOL    HW215033   3.503   3.118  10.521  0.1245 -1.9026  1.1407
 1134SOL     OW15034   0.587   0.960   8.359 -0.1242  0.7151 -0.7397
 1134SOL    HW115035   0.614   0.882   8.407 -2.9819  0.7596  0.9750
 1134SOL    HW215036   0.525   1.006   8.417  0.2054 -0.3934  0.4777
 1135SOL     OW15037   2.761   4.726  14.872 -0.4077  0.0512 -0.6630
 1135SOL    HW115038   2.806   0.024  14.949  2.0246 -1.6147 -1.3152
 1135SOL    HW215039   2.682   4.692  14.913 -1.1379  3.4348  0.7197
 1136SOL     OW15040   4.038   3.017  12.980  0.0191  0.2065 -0.2509
 1136SOL    HW115041   3.998   2.981  13.059  1.7549 -0.8164  0.1680
 1136SOL    HW215042   4.107   3.075  13.011  1.4015 -1.7985  0.3942
 1137SOL     OW15043   0.040   4.369   3.567 -0.1060  0.1116 -0.0682
 1137SOL    HW115044   0.107   4.301   3.569 -2.0566 -1.8150  0.4312
 1137SOL    HW215045   4.704   4.326   3.524 -1.3148  2.8712 -0.7667
 1138SOL     OW15046   1.542   1.451  16.934 -0.2847 -0.3471 -0.0693
 1138SOL    HW115047   1.486   1.484  17.005 -0.8702  2.0570 -1.6282
 1138SOL    HW215048   1.484   1.382  16.903  0.6306  0.3131 -3.2137
 1139SOL     OW15049   0.811   2.293   8.492  0.5889 -0.4473 -0.4630
 1139SOL    HW115050   0.883   2.243   8.531  0.1360 -0.2988  0.5633
 1139SOL    HW215051   0.796   2.255   8.405 -2.5795 -0.6924  0.1780
 1140SOL     OW15052   4.064   0.361   3.334 -0.0356 -0.0212 -0.0850
 1140SOL    HW115053   4.120   0.299   3.286  1.1684  0.4230  0.7475
 1140SOL    HW215054   4.076   0.342   3.427 -3.1814 -0.8005  0.1561
 1141SOL     OW15055   4.705   3.665   7.868 -0.1868  0.3104  0.2268
 1141SOL    HW115056   4.726   3.713   7.948  1.6787 -1.5905  0.8881
 1141SOL    HW215057   4.611   3.683   7.868 -0.8560 -3.2585 -0.6177
 1142SOL     OW15058   0.387   1.553  12.720  0.7338  0.3289  0.7452
 1142SOL    HW115059   0.323   1.588  12.658  3.2283  1.0464 -1.4360
 1142SOL    HW215060   0.403   1.623  12.783  2.7582 -0.5933  1.2635
 1143SOL     OW15061   1.966   4.649   6.566  0.2606  0.5227 -0.1388
 1143SOL    HW115062   1.887   4.677   6.613  1.0608 -1.4996  2.4531
 1143SOL    HW215063   1.935   4.571   6.520  1.9514 -1.0415  1.3327
 1144SOL     OW15064   1.555   3.741   2.301  0.0222 -0.4198 -0.4279
 1144SOL    HW115065   1.610   3.807   2.260  0.3482  0.7024  1.7886
 1144SOL    HW215066   1.557   3.765   2.394  0.6090  2.7483 -1.2679
 1145SOL     OW15067   2.247   2.376   7.924 -0.1698 -0.6212  0.0891
 1145SOL    HW115068   2.325   2.336   7.886 -0.8452 -0.3949 -1.5704
 1145SOL    HW215069   2.255   2.381   8.019 -1.2601  1.5905  0.0619
 1146SOL     OW15070   3.341   1.026   8.493 -0.4596 -0.3392 -0.1862
 1146SOL    HW115071   3.414   1.083   8.469 -0.2188 -1.0012 -1.0632
 1146SOL    HW215072   3.379   0.943   8.523 -2.8224 -0.5118  2.3839
 1147SOL     OW15073   4.199   1.052  10.913 -0.2366 -0.2589  0.4822
 1147SOL    HW115074   4.170   1.022  10.999 -1.8330 -0.7191 -0.2084
 1147SOL    HW215075   4.258   0.980  10.890 -1.3934 -0.9248 -0.4428
 1148SOL     OW15076   1.407   3.302   7.082 -0.0307  0.0364  0.0217
 1148SOL    HW115077   1.449   3.323   6.998  2.7505  0.6905  1.5585
 1148SOL    HW215078   1.323   3.269   7.053 -0.4257  1.8462 -0.8920
 1149SOL     OW15079   4.668   1.661   3.862 -0.1137  0.3898 -0.3051
 1149SOL    HW115080   4.602   1.728   3.880 -0.5400  0.0753 -0.7024
 1149SOL    HW215081   4.613   1.585   3.843 -0.6163  1.0515 -1.4953
 1150SOL     OW15082   3.826   0.382   5.781  0.6149  0.3076 -0.1606
 1150SOL    HW115083   3.842   0.473   5.806  1.2547  0.0307  0.4404
 1150SOL    HW215084   3.861   0.377   5.692  1.7360 -0.2570  0.3306
 1151SOL     OW15085   1.194   4.270   7.928 -0.2581 -0.6685 -0.5461
 1151SOL    HW115086   1.281   4.282   7.967  0.6400  0.8993 -3.0527
 1151SOL    HW215087   1.169   4.188   7.971  0.3647 -0.2306  0.6592
 1152SOL     OW15088   3.132   4.626  11.998  0.4873 -0.5632  0.0978
 1152SOL    HW115089   3.226   4.634  11.982  0.9888 -2.7122  2.0778
 1152SOL    HW215090   3.129   4.681  12.076  0.3984  0.3959 -0.5745
 1153SOL     OW15091   2.679   1.033   6.699  0.1644 -0.3322  0.4665
 1153SOL    HW115092   2.588   1.040   6.672  0.3564 -0.3732 -0.2028
 1153SOL    HW215093   2.661   1.029   6.793 -0.1027 -1.0512  0.3864
 1154SOL     OW15094   2.386   3.768   5.902  0.1558  0.1118  0.1440
 1154SOL    HW115095   2.321   3.790   5.969  2.1082  1.4482  1.6138
 1154SOL    HW215096   2.458   3.813   5.947 -1.0413  0.8510  1.3151
 1155SOL     OW15097   1.806   4.092   8.861 -0.1595  0.2956 -0.3046
 1155SOL    HW115098   1.862   4.017   8.840  1.7651  1.8196 -0.6848
 1155SOL    HW215099   1.865   4.168   8.856  0.7829 -0.5075 -1.2870
 1156SOL     OW15100   0.396   1.886   7.806  0.3828 -0.9597  0.1973
 1156SOL    HW115101   0.442   1.817   7.853  0.5386  0.2060  1.7535
 1156SOL    HW215102   0.315   1.886   7.857  0.2387 -0.0255 -0.0276
 1157SOL     OW15103   2.777   2.460   5.419  0.1706 -0.4080 -0.1631
 1157SOL    HW115104   2.726   2.456   5.338  0.4474  2.2290 -0.4711
 1157SOL    HW215105   2.805   2.551   5.419  2.0969 -1.0024 -0.9471
 1158SOL     OW15106   4.265   3.593   1.387 -0.3218  0.3693 -0.5179
 1158SOL    HW115107   4.247   3.631   1.473 -1.6649  0.1520 -0.7070
 1158SOL    HW215108   4.334   3.535   1.418 -1.6362 -0.4162  0.9418
 1159SOL     OW15109   2.530   1.041  13.931 -0.0119 -0.4297  0.6620
 1159SOL    HW115110   2.493   0.973  13.873  1.5552  0.6706 -1.6536
 1159SOL    HW215111   2.470   1.039  14.005  0.7311  0.1023  1.2724
 1160SOL     OW15112   3.700   2.827   9.541 -0.2939 -0.1226  0.3189
 1160SOL    HW115113   3.632   2.864   9.598 -0.8490 -0.9446  0.1841
 1160SOL    HW215114   3.736   2.755   9.593  0.5548  0.9840  1.2929
 1161SOL     OW15115   3.564   1.565   3.924 -0.1425 -0.1518 -0.0683
 1161SOL    HW115116   3.526   1.650   3.946  1.5518 -0.0486  2.5566
 1161SOL    HW215117   3.532   1.502   3.989 -0.8977 -0.2302 -0.5240
 1162SOL     OW15118   2.867   1.043   5.993 -0.5447  0.6747  0.1759
 1162SOL    HW115119   2.811   0.987   6.048 -0.3085  1.9709  1.7312
 1162SOL    HW215120   2.810   1.118   5.977 -0.3094  0.8049 -0.0364
 1163SOL     OW15121   0.156   1.661   4.653 -0.4813  0.5587 -0.4726
 1163SOL    HW115122   0.111   1.634   4.573 -3.0202  0.0200  1.1565
 1163SOL    HW215123   0.140   1.581   4.703 -0.9030  0.5597 -0.6036
 1164SOL     OW15124   2.168   4.235   0.820  0.5491 -0.0616 -0.6070
 1164SOL    HW115125   2.166   4.306   0.884  1.1718 -1.2989  0.7739
 1164SOL    HW215126   2.205   4.289   0.750 -1.8882  0.5846 -1.3770
 1165SOL     OW15127   1.047   4.271   8.308  0.1494  0.1266 -0.2454
 1165SOL    HW115128   1.082   4.243   8.393  0.2133 -3.2073 -1.3651
 1165SOL    HW215129   1.114   4.333   8.280 -0.7792  2.1993  2.0990
 1166SOL     OW15130   4.027   4.329  14.145 -0.5748  0.0317 -0.0405
 1166SOL    HW115131   3.972   4.359  14.073  0.9534  0.6395 -0.9641
 1166SOL    HW215132   4.031   4.405  14.203 -0.0488  1.1037 -1.4784
 1167SOL     OW15133   1.717   3.628   6.783 -0.2030  0.1543 -0.3067
 1167SOL    HW115134   1.769   3.626   6.863 -2.1074  1.7127  0.9580
 1167SOL    HW215135   1.638   3.580   6.806  0.3166 -0.1001  0.9244
 1168SOL     OW15136   2.043   3.028  13.334 -0.2199  0.0025  0.0028
 1168SOL    HW115137   2.110   2.960  13.338  0.4315  0.6301 -0.1408
 1168SOL    HW215138   2.081   3.097  13.390  1.4075 -1.1957  0.3886
 1169SOL     OW15139   2.407   1.246   6.455  0.7199  0.5883  0.3692
 1169SOL    HW115140   2.421   1.209   6.368 -1.1533 -1.2646  0.8673
 1169SOL    HW215141   2.468   1.320   6.450  3.7776 -2.0895 -2.6230
 1170SOL     OW15142   0.671   1.545   1.617 -0.1182 -0.2853  0.2561
 1170SOL    HW115143   0.661   1.580   1.529 -2.9587  1.0663  1.1164
 1170SOL    HW215144   0.677   1.455   1.584 -0.9090  0.0053 -0.6716
 1171SOL     OW15145   3.943   4.043   7.472 -0.1942 -0.6465 -0.0355
 1171SOL    HW115146   3.898   4.125   7.495 -1.9223 -2.1795  1.9902
 1171SOL    HW215147   3.870   3.988   7.442 -2.4236  2.4257 -0.2661
 1172SOL     OW15148   3.982   3.212   4.305 -0.0761  0.6619  0.6877
 1172SOL    HW115149   3.950   3.283   4.249  0.8774  0.0361 -0.6661
 1172SOL    HW215150   3.895   3.174   4.319  0.2792 -0.3791  0.0943
 1173SOL     OW15151   3.779   3.710   8.475  0.3368  0.2506  0.2615
 1173SOL    HW115152   3.841   3.781   8.492  1.1490 -0.0962 -1.2050
 1173SOL    HW215153   3.749   3.737   8.388  1.1617 -0.4944 -0.2574
 1174SOL     OW15154   2.009   3.354   5.410  0.0343 -0.0299 -0.0458
 1174SOL    HW115155   1.915   3.345   5.429  0.7897 -2.0312  2.7314
 1174SOL    HW215156   2.024   3.414   5.482  0.0766 -0.0662 -0.0241
 1175SOL     OW15157   1.492   2.070  11.097 -0.2894 -0.3017  0.2429
 1175SOL    HW115158   1.461   1.982  11.076 -0.1835  0.1070 -1.6526
 1175SOL    HW215159   1.496   2.071  11.192  1.2602  0.6627  0.1781
 1176SOL     OW15160   0.840   4.098   8.324 -0.5988 -0.1751 -0.1507
 1176SOL    HW115161   0.778   4.141   8.265 -0.4714  0.3991  0.1334
 1176SOL    HW215162   0.912   4.161   8.320 -0.8053  0.1096  0.5474
 1177SOL     OW15163   0.381   3.460  12.314  0.3677 -0.6375  0.1877
 1177SOL    HW115164   0.379   3.515  12.392  1.0849 -1.0545  0.4989
 1177SOL    HW215165   0.287   3.442  12.304  0.4300  0.2365 -1.9505
 1178SOL     OW15166   0.815   3.090   3.674  0.0944  0.2596 -0.0450
 1178SOL    HW115167   0.856   3.150   3.612  0.1565  0.0178 -0.2378
 1178SOL    HW215168   0.865   3.009   3.668  1.6198  1.0997  1.2695
 1179SOL     OW15169   2.190   1.200   6.185  0.2315  0.6497 -0.6548
 1179SOL    HW115170   2.155   1.166   6.267  0.5569 -0.3001 -0.9088
 1179SOL    HW215171   2.283   1.206   6.204  0.0983  0.4863  0.0247
 1180SOL     OW15172   3.531   0.394   8.286  0.3311  0.8370  0.0413
 1180SOL    HW115173   3.522   0.320   8.227  1.5292 -0.5131  1.5737
 1180SOL    HW215174   3.438   0.417   8.295 -0.0949 -1.3007  0.9210
 1181SOL     OW15175   4.186   2.636   1.016 -0.4393  0.7462 -0.5961
 1181SOL    HW115176   4.255   2.592   0.967 -0.4003 -0.4798  0.5667
 1181SOL    HW215177   4.137   2.555   1.020  2.2178 -0.8743 -0.9209
 1182SOL     OW15178   3.849   4.631   2.050 -0.4419 -0.4373 -0.3862
 1182SOL    HW115179   3.785   4.701   2.061  0.0741 -0.1556  0.8807
 1182SOL    HW215180   3.788   4.565   2.017 -1.6227  0.1458  0.6459
 1183SOL     OW15181   0.849   4.447  17.208  0.1537  0.2014 -0.3002
 1183SOL    HW115182   0.934   4.466  17.248 -0.2301 -0.5046  0.8436
 1183SOL    HW215183   0.882   4.380  17.147 -2.7365 -0.3952 -1.1792
 1184SOL     OW15184   1.385   4.165  14.651  0.3124 -0.1484 -0.2220
 1184SOL    HW115185   1.367   4.211  14.569  0.1404  1.7232  0.8772
 1184SOL    HW215186   1.350   4.233  14.708  0.3947 -1.5145  1.4466
 1185SOL     OW15187   2.551   3.905   1.710 -0.8061  0.1598  0.3824
 1185SOL    HW115188   2.483   3.899   1.777 -2.0259 -1.0548 -0.9564
 1185SOL    HW215189   2.614   3.963   1.753 -1.2775  1.0688 -0.1569
 1186SOL     OW15190   1.949   2.138  15.923 -0.2540  0.0538  0.5518
 1186SOL    HW115191   2.009   2.121  15.995  0.9187  0.6919 -0.2709
 1186SOL    HW215192   1.865   2.138  15.969 -1.3725 -0.6169 -1.4921
 1187SOL     OW15193   3.999   1.005  12.098  0.4493 -0.1338  0.3588
 1187SOL    HW115194   4.032   1.060  12.028 -1.6934 -0.4465 -0.9026
 1187SOL    HW215195   3.976   0.926  12.048 -1.2379  0.6880 -0.1427
 1188SOL     OW15196   3.055   0.122  10.068 -0.2624 -0.5419 -0.4566
 1188SOL    HW115197   3.012   0.144  10.150 -0.8749  0.4996 -1.0513
 1188SOL    HW215198   3.145   0.143  10.094  0.0605  0.1228 -2.0732
 1189SOL     OW15199   1.669   4.644   6.391 -0.1670  0.0617 -0.1048
 1189SOL    HW115200   1.726   4.568   6.390 -1.8268 -1.1844  1.2562
 1189SOL    HW215201   1.667   4.670   6.483  0.0628  2.0731 -0.6623
 1190SOL     OW15202   4.248   0.282   6.548 -0.2354  0.1603  0.2152
 1190SOL    HW115203   4.299   0.300   6.627 -0.5924 -1.2815  0.7789
 1190SOL    HW215204   4.284   0.194   6.535 -1.0021 -0.1875  0.4369
 1191SOL     OW15205   2.938   0.260   3.845 -0.7559  0.1381  0.3810
 1191SOL    HW115206   3.032   0.258   3.827 -0.6018 -0.8643  1.2843
 1191SOL    HW215207   2.930   0.347   3.884  0.0408  1.2529 -1.9291
 1192SOL     OW15208   2.403   0.094  16.285  0.3897  0.1851  0.4839
 1192SOL    HW115209   2.371   0.144  16.210  0.8286 -1.3078 -0.7178
 1192SOL    HW215210   2.496   0.110  16.268  0.1016 -0.2959 -1.6074
 1193SOL     OW15211   4.165   1.548   0.804  0.2856 -0.4278 -0.5332
 1193SOL    HW115212   4.125   1.466   0.773  1.6144 -0.8364 -1.1473
 1193SOL    HW215213   4.121   1.618   0.756  0.7359  0.8459  0.9253
 1194SOL     OW15214   1.325   1.994   3.988  0.3329  0.6974 -0.5595
 1194SOL    HW115215   1.393   2.055   3.961  0.4931 -0.0138 -1.7642
 1194SOL    HW215216   1.247   2.044   3.966 -1.4098 -1.5264  0.6080
 1195SOL     OW15217   1.749   4.491   8.279  0.1402 -0.0929 -0.3381
 1195SOL    HW115218   1.741   4.576   8.236 -2.6863  0.1290  0.6705
 1195SOL    HW215219   1.842   4.490   8.302  0.8859 -0.7083 -3.3635
 1196SOL     OW15220   2.313   1.923   7.228 -0.5275  0.2698  0.0581
 1196SOL    HW115221   2.406   1.910   7.211 -0.3752  1.0465  0.2883
 1196SOL    HW215222   2.287   1.835   7.255 -1.0657  0.7542  1.1110
 1197SOL     OW15223   4.675   0.974   8.821 -0.5333  0.2851 -0.4789
 1197SOL    HW115224   4.668   0.979   8.725  0.2921 -0.1092 -0.5587
 1197SOL    HW215225   4.674   1.068   8.842 -1.5014  0.6666 -2.2297
 1198SOL     OW15226   1.479   1.119   6.035 -0.0238 -0.0615  0.5999
 1198SOL    HW115227   1.497   1.103   5.942 -0.4810  1.7311  0.2126
 1198SOL    HW215228   1.566   1.098   6.070 -0.0174 -0.8809  0.0843
 1199SOL     OW15229   1.480   1.160   5.505 -0.2037  0.2287  0.1512
 1199SOL    HW115230   1.398   1.124   5.471  0.7581 -1.3574 -0.4672
 1199SOL    HW215231   1.470   1.130   5.595 -0.9159  0.1676  0.0551
 1200SOL     OW15232   0.964   2.689   4.227  0.1106 -0.2131  0.0402
 1200SOL    HW115233   0.943   2.671   4.318 -1.3864 -0.7067 -0.4002
 1200SOL    HW215234   1.059   2.695   4.229  0.0414  1.4884 -1.6026
 1201SOL     OW15235   3.036   4.214   7.338 -0.0979 -0.1891  0.0968
 1201SOL    HW115236   3.084   4.146   7.385 -1.0720 -1.0083 -0.0848
 1201SOL    HW215237   2.949   4.177   7.355 -0.0165 -0.5295 -0.2221
 1202SOL     OW15238   0.972   2.214  15.559 -0.2682  0.6038 -0.5381
 1202SOL    HW115239   1.001   2.134  15.604 -2.3430  0.6944  0.9671
 1202SOL    HW215240   0.896   2.169  15.522  0.6457 -0.1483 -1.5008
 1203SOL     OW15241   0.941   3.361   3.484  0.1078 -0.1886  0.3858
 1203SOL    HW115242   0.852   3.325   3.491  0.0663 -0.1100  0.2423
 1203SOL    HW215243   0.933   3.441   3.432  1.9959 -1.2565 -1.5445
 1204SOL     OW15244   2.737   2.864  12.517  0.6486  0.1097 -0.4080
 1204SOL    HW115245   2.757   2.890  12.607  1.0281  0.8460 -0.7042
 1204SOL    HW215246   2.652   2.905  12.503 -0.1476 -1.2905  0.2515
 1205SOL     OW15247   0.010   1.490  12.308  0.4037  0.4154  0.5209
 1205SOL    HW115248   4.671   1.546  12.321 -0.2867  0.4671 -3.9595
 1205SOL    HW215249   4.734   1.448  12.224  1.3702  4.6917 -1.7612
 1206SOL     OW15250   1.394   4.677   6.350 -0.1969  0.5595 -0.2445
 1206SOL    HW115251   1.482   4.639   6.351 -0.3399  0.1401 -2.7938
 1206SOL    HW215252   1.387   4.711   6.439 -0.6722  2.2691 -0.9321
 1207SOL     OW15253   1.718   1.125   3.383 -0.1657 -0.1280  0.2531
 1207SOL    HW115254   1.799   1.122   3.332 -1.2411 -0.2916 -1.4294
 1207SOL    HW215255   1.718   1.218   3.406 -0.5914 -0.0755  0.0273
 1208SOL     OW15256   1.712   3.009   6.007  0.1072  0.2109 -0.0292
 1208SOL    HW115257   1.765   2.961   5.943  0.3445  1.9278 -1.1457
 1208SOL    HW215258   1.762   3.090   6.015 -0.0851  0.3771 -0.4650
 1209SOL     OW15259   1.061   2.981  13.170 -0.9860  0.3483  0.7791
 1209SOL    HW115260   1.010   2.928  13.230  1.4979 -1.0021  1.6988
 1209SOL    HW215261   1.050   2.943  13.083 -2.4153 -0.1861  1.1940
 1210SOL     OW15262   0.635   1.506  17.111  0.3760 -0.1485 -0.3701
 1210SOL    HW115263   0.609   1.569  17.043 -1.2546  2.1512  2.4137
 1210SOL    HW215264   0.577   1.430  17.101 -0.5608  0.6291 -0.8573
 1211SOL     OW15265   4.257   0.356   8.945 -0.3429 -0.2705  0.2087
 1211SOL    HW115266   4.208   0.377   8.866  0.0036 -1.2451 -0.2641
 1211SOL    HW215267   4.215   0.273   8.970 -0.0986 -1.0879 -2.0633
 1212SOL     OW15268   1.482   0.835  16.436 -0.4038 -0.7101 -0.1164
 1212SOL    HW115269   1.552   0.786  16.480 -0.5006 -0.0862  0.7148
 1212SOL    HW215270   1.446   0.878  16.513 -3.9255 -2.9526 -0.5341
 1213SOL     OW15271   3.001   1.670  10.846  0.1591  0.2230  0.2061
 1213SOL    HW115272   3.045   1.623  10.775 -0.7265 -2.9632  1.7839
 1213SOL    HW215273   3.024   1.762  10.833 -0.9859  0.1891 -1.9886
 1214SOL     OW15274   2.018   2.794   6.713  0.9062 -0.5709  0.1039
 1214SOL    HW115275   1.949   2.793   6.646  1.1642  0.4103 -0.1720
 1214SOL    HW215276   2.022   2.700   6.730  0.8668 -0.7960 -1.1269
 1215SOL     OW15277   3.844   2.250   6.515  0.2009 -0.4976  0.0634
 1215SOL    HW115278   3.850   2.307   6.438  1.1180 -0.4855  0.1446
 1215SOL    HW215279   3.846   2.311   6.589  0.8405 -1.4944  0.8543
 1216SOL     OW15280   0.609   2.464   6.808  0.1016  0.3229  0.7964
 1216SOL    HW115281   0.575   2.385   6.850  2.0136 -0.5244  0.7597
 1216SOL    HW215282   0.531   2.518   6.820 -0.0970  0.2606 -0.2256
 1217SOL     OW15283   2.653   2.884  10.645 -0.4636 -0.0425 -0.4962
 1217SOL    HW115284   2.625   2.966  10.686 -4.3536  0.3216 -3.9073
 1217SOL    HW215285   2.714   2.855  10.713  0.3927 -1.3928 -1.8523
 1218SOL     OW15286   0.105   2.513   4.422  0.5512  0.4576  0.3379
 1218SOL    HW115287   0.153   2.538   4.343 -0.8076 -0.3328 -0.7425
 1218SOL    HW215288   0.064   2.439   4.377 -1.8172  2.5837 -0.9456
 1219SOL     OW15289   2.691   1.795   6.957 -0.2743  0.5824  0.8170
 1219SOL    HW115290   2.736   1.745   7.025  0.2580  1.8293  1.3742
 1219SOL    HW215291   2.620   1.740   6.925  2.5647 -1.6763 -1.6409
 1220SOL     OW15292   1.405   0.486   9.968  0.3494 -0.2117 -0.0004
 1220SOL    HW115293   1.314   0.503   9.941  1.1694  1.0425 -1.9403
 1220SOL    HW215294   1.460   0.514   9.895 -1.4076 -1.3793 -1.7867
 1221SOL     OW15295   0.570   4.204   1.658 -0.0612  0.0476  0.2754
 1221SOL    HW115296   0.582   4.116   1.621  0.4778 -0.9360  2.7936
 1221SOL    HW215297   0.568   4.261   1.581 -0.0803 -0.5420 -0.1665
 1222SOL     OW15298   4.593   3.868   6.305  0.1958  0.5985  0.1053
 1222SOL    HW115299   4.506   3.893   6.273 -0.0870 -1.4459 -0.7447
 1222SOL    HW215300   4.587   3.781   6.267 -0.9519  0.2812  1.0110
 1223SOL     OW15301   0.049   0.159  12.431 -0.0056 -0.6402  0.1200
 1223SOL    HW115302   0.090   0.123  12.510 -1.5059 -1.1326  0.6821
 1223SOL    HW215303   0.100   0.237  12.408  0.9147 -1.2911 -0.0592
 1224SOL     OW15304   4.056   1.314   2.790  0.2142  0.2373 -0.3247
 1224SOL    HW115305   3.975   1.340   2.747 -0.2931  0.8687  0.9989
 1224SOL    HW215306   4.078   1.402   2.819  0.5666  0.0853 -0.1366
 1225SOL     OW15307   1.052   1.787   3.148 -0.2569 -0.7642  0.1606
 1225SOL    HW115308   1.029   1.705   3.192 -0.1813 -0.6073  0.4951
 1225SOL    HW215309   1.041   1.759   3.058  0.4806 -0.8608  0.1000
 1226SOL     OW15310   4.163   2.073  10.156  0.0483  0.4426 -0.1079
 1226SOL    HW115311   4.207   2.042  10.077  1.4354 -0.4694  1.0121
 1226SOL    HW215312   4.189   2.004  10.217  4.1637  1.7768 -0.3285
 1227SOL     OW15313   0.143   0.011  15.505  0.0633 -0.2551  0.0018
 1227SOL    HW115314   0.065   0.014  15.451  0.6426 -1.4962 -0.9072
 1227SOL    HW215315   0.121   0.082  15.565  0.0762  2.1593 -2.8569
 1228SOL     OW15316   3.763   1.211   3.182 -0.0020 -0.4492 -0.1274
 1228SOL    HW115317   3.845   1.257   3.202  1.1178 -1.0690 -3.3148
 1228SOL    HW215318   3.763   1.144   3.251 -1.8392 -0.1488  0.1689
 1229SOL     OW15319   0.838   2.829   8.770  0.3928 -0.0458 -0.2733
 1229SOL    HW115320   0.929   2.803   8.754  0.4146 -1.8887  3.0192
 1229SOL    HW215321   0.833   2.923   8.753 -0.9479  0.1433  1.2107
 1230SOL     OW15322   4.348   2.934   4.506  0.6225  0.3251  0.3392
 1230SOL    HW115323   4.437   2.932   4.472  0.6496  2.0175  0.2885
 1230SOL    HW215324   4.366   2.986   4.584  0.2795  0.1951  0.5038
 1231SOL     OW15325   3.031   3.389   3.061  0.2123  0.2004 -0.5201
 1231SOL    HW115326   2.956   3.448   3.055 -0.9611 -1.1080  1.2499
 1231SOL    HW215327   3.096   3.449   3.096 -0.7993  0.9226  0.1310
 1232SOL     OW15328   4.604   1.153   7.795 -0.1946 -0.0989  0.2372
 1232SOL    HW115329   4.537   1.219   7.811  0.3109  0.4743 -0.0229
 1232SOL    HW215330   4.647   1.141   7.879  0.5498 -0.1769 -0.1555
 1233SOL     OW15331   4.350   0.167   8.679  0.2391  0.3654 -0.3129
 1233SOL    HW115332   4.266   0.159   8.635 -0.5639 -0.1893  1.3002
 1233SOL    HW215333   4.334   0.113   8.756  0.3643  0.6220 -0.1044
 1234SOL     OW15334   4.353   1.931  12.019 -0.1378  0.1058 -0.1705
 1234SOL    HW115335   4.310   1.878  12.086 -1.3955  0.9981 -0.2721
 1234SOL    HW215336   4.280   1.911  11.959  0.0483 -0.5044 -0.1944
 1235SOL     OW15337   1.200   2.710   7.410 -0.5137 -0.1324 -0.3506
 1235SOL    HW115338   1.230   2.621   7.430  0.3824  0.6649  1.8299
 1235SOL    HW215339   1.273   2.761   7.445 -1.1233  2.0917 -2.2886
 1236SOL     OW15340   3.921   1.893   0.107  0.5321 -0.0842  0.0270
 1236SOL    HW115341   3.913   1.981   0.144 -1.0676  0.1488 -0.8802
 1236SOL    HW215342   3.900   1.907   0.014 -0.1147  0.0045  0.1826
 1237SOL     OW15343   4.122   4.364  12.428 -0.3048 -0.4974  0.0504
 1237SOL    HW115344   4.120   4.438  12.366  0.4336  0.1754  0.8351
 1237SOL    HW215345   4.202   4.320  12.400  0.6817  0.7760  0.8750
 1238SOL     OW15346   3.539   2.842   6.214  0.2148 -0.2049  0.3117
 1238SOL    HW115347   3.495   2.802   6.139  0.8510 -0.8743  0.2863
 1238SOL    HW215348   3.623   2.871   6.178 -0.9530  1.3914 -1.0804
 1239SOL     OW15349   3.530   4.414   2.047  0.2876  0.1071 -0.1621
 1239SOL    HW115350   3.509   4.352   2.118  1.1384 -0.1527 -0.1280
 1239SOL    HW215351   3.625   4.402   2.044 -0.0081 -0.9539 -4.7257
 1240SOL     OW15352   1.911   1.650   4.095  0.6430  0.0676  0.1050
 1240SOL    HW115353   1.899   1.602   4.013  0.8151 -0.9648  0.6893
 1240SOL    HW215354   1.901   1.586   4.165 -1.9514 -1.4205 -1.6474
 1241SOL     OW15355   3.602   1.687   5.122 -0.0037  0.2840  0.2479
 1241SOL    HW115356   3.689   1.721   5.143 -0.4292  1.5187  0.0015
 1241SOL    HW215357   3.610   1.593   5.140 -2.7996  0.1330  0.7606
 1242SOL     OW15358   1.849   0.783   4.793  0.6883 -0.1975  0.2529
 1242SOL    HW115359   1.861   0.870   4.755 -1.2356 -0.2882 -0.5488
 1242SOL    HW215360   1.865   0.730   4.715  0.3841 -1.9556  1.3803
 1243SOL     OW15361   1.521   1.264   1.519 -0.5486 -0.0191 -0.3812
 1243SOL    HW115362   1.542   1.253   1.612 -4.0843 -0.4399  0.4029
 1243SOL    HW215363   1.567   1.191   1.478  0.9439 -0.1712  1.5733
 1244SOL     OW15364   0.268   0.599   7.841 -0.0094  0.0110 -0.0344
 1244SOL    HW115365   0.307   0.646   7.915 -3.2122  1.1229  0.9184
 1244SOL    HW215366   0.263   0.673   7.781  2.4186  1.3063  1.3664
 1245SOL     OW15367   0.060   2.246   5.523 -0.2800  0.0339  0.2014
 1245SOL    HW115368   0.101   2.214   5.442 -3.5023 -3.0800 -0.2077
 1245SOL    HW215369   0.120   2.320   5.531 -0.9949  0.6575 -0.1824
 1246SOL     OW15370   0.610   4.688   8.260 -0.0932  0.2006  0.3006
 1246SOL    HW115371   0.564   0.032   8.242  2.3801  0.8769 -2.8140
 1246SOL    HW215372   0.563   4.650   8.335  0.0938 -0.6279  0.0053
 1247SOL     OW15373   1.162   0.625   0.974  0.0600  0.5870  0.0805
 1247SOL    HW115374   1.215   0.687   1.023  1.4021  0.5419 -1.3105
 1247SOL    HW215375   1.126   0.569   1.043 -1.3101  0.0527 -1.0525
 1248SOL     OW15376   2.006   1.996  12.706 -0.4106  0.2522  0.2844
 1248SOL    HW115377   1.974   2.084  12.727 -0.9661  0.6040 -1.9870
 1248SOL    HW215378   2.019   1.964  12.795 -0.8747  0.2061  0.3370
 1249SOL     OW15379   1.362   3.543   3.105 -0.0560  0.3190  0.3263
 1249SOL    HW115380   1.299   3.606   3.073  1.6499  1.8121 -0.0944
 1249SOL    HW215381   1.436   3.589   3.065  0.5726 -0.3958  0.6501
 1250SOL     OW15382   3.223   4.456  15.002  0.0582  0.4921 -0.3340
 1250SOL    HW115383   3.142   4.463  15.051 -1.6054 -1.4181 -2.8169
 1250SOL    HW215384   3.215   4.371  14.959 -0.6436  0.3392  0.1093
 1251SOL     OW15385   3.975   3.719  15.346 -0.3818 -0.6937  0.2788
 1251SOL    HW115386   4.070   3.727  15.358 -0.6511  0.6885  1.4709
 1251SOL    HW215387   3.975   3.641  15.290 -0.4730  0.3809 -1.2357
 1252SOL     OW15388   3.893   1.282   5.988  0.5922  0.2363 -0.2124
 1252SOL    HW115389   3.806   1.315   6.012  0.6548 -0.1862  0.6068
 1252SOL    HW215390   3.929   1.365   5.957  1.9369 -0.1234  0.4104
 1253SOL     OW15391   4.089   4.429  12.722  0.0558  0.1338  0.1122
 1253SOL    HW115392   4.055   4.413  12.634  0.3228  0.6511 -0.0884
 1253SOL    HW215393   4.166   4.373  12.711 -0.0380  0.3832 -1.7566
 1254SOL     OW15394   4.457   1.070  11.706  0.2760 -0.1005  0.1541
 1254SOL    HW115395   4.407   1.148  11.731  0.2056 -0.1689  0.2268
 1254SOL    HW215396   4.537   1.113  11.676  0.1579 -0.0849 -0.1318
 1255SOL     OW15397   3.446   4.510   4.255 -0.0747  0.1273  0.1542
 1255SOL    HW115398   3.438   4.586   4.197 -1.9655  1.1604  1.7593
 1255SOL    HW215399   3.522   4.464   4.221 -1.5151 -0.9465 -1.6308
 1256SOL     OW15400   1.527   4.660   2.782 -0.0531  0.4967  0.2708
 1256SOL    HW115401   1.498   4.673   2.873 -1.6868  3.3259 -0.6683
 1256SOL    HW215402   1.516   4.565   2.775 -2.2655  0.8134 -0.7677
 1257SOL     OW15403   0.923   0.756  17.089  0.5459  0.4317 -0.3523
 1257SOL    HW115404   0.859   0.686  17.103  1.0212  0.0204 -0.2605
 1257SOL    HW215405   1.009   0.716  17.099  0.2972 -0.0737 -0.2629
 1258SOL     OW15406   1.215   2.768   0.873  0.0428  0.2510 -0.2021
 1258SOL    HW115407   1.281   2.801   0.811  3.1527 -0.8355  2.5642
 1258SOL    HW215408   1.244   2.814   0.951 -1.2592  1.1160 -0.2170
 1259SOL     OW15409   4.494   0.619   8.286 -0.1258  0.5728 -0.0755
 1259SOL    HW115410   4.548   0.546   8.255  1.6370  2.4812 -1.4929
 1259SOL    HW215411   4.411   0.574   8.307 -0.0101  0.0409 -0.7298
 1260SOL     OW15412   2.609   0.480  10.004 -0.0444 -0.1003  0.0637
 1260SOL    HW115413   2.665   0.476   9.927 -1.0446 -2.9134 -0.5219
 1260SOL    HW215414   2.638   0.561  10.045  1.1202 -1.0299  1.0794
 1261SOL     OW15415   1.701   1.301   7.448 -0.1154  0.1454 -0.3528
 1261SOL    HW115416   1.612   1.270   7.432 -1.2903  2.5240  1.5773
 1261SOL    HW215417   1.691   1.353   7.528 -0.9334 -0.1363 -0.2709
 1262SOL     OW15418   1.347   0.170   9.202 -0.1937 -0.0861  0.8251
 1262SOL    HW115419   1.289   0.153   9.128  3.1215 -0.0188 -1.7904
 1262SOL    HW215420   1.369   0.081   9.230  1.9450  0.8036  1.9741
 1263SOL     OW15421   0.180   3.948   3.772 -0.1052  0.4013  0.0693
 1263SOL    HW115422   0.213   3.885   3.709  2.0159  0.8470  0.7147
 1263SOL    HW215423   0.150   3.880   3.832 -1.9075  1.3592  0.2668
 1264SOL     OW15424   3.278   4.600   2.460  0.0345  0.0924  0.2397
 1264SOL    HW115425   3.184   4.605   2.443  0.0627 -1.2903 -0.3340
 1264SOL    HW215426   3.271   4.609   2.555  0.2918 -1.9513  0.4523
 1265SOL     OW15427   3.365   1.856   6.328  0.0587  0.4695  0.0584
 1265SOL    HW115428   3.301   1.791   6.297  0.7041  1.8841 -4.2331
 1265SOL    HW215429   3.308   1.921   6.370 -0.0404  0.6563 -0.3631
 1266SOL     OW15430   1.057   3.531   2.304  0.4747  0.0106  0.1360
 1266SOL    HW115431   1.068   3.513   2.397  2.2219  0.5442  0.0360
 1266SOL    HW215432   1.051   3.440   2.276 -0.1040 -0.0420  0.4343
 1267SOL     OW15433   0.980   4.338  16.841  0.5400  0.2405 -0.0771
 1267SOL    HW115434   1.051   4.403  16.841 -0.6513  1.5403 -1.5872
 1267SOL    HW215435   0.920   4.392  16.789 -0.2672  0.6028  1.2344
 1268SOL     OW15436   1.535   3.884  11.140  0.1782  0.7247 -0.2101
 1268SOL    HW115437   1.459   3.833  11.171  0.7134 -0.7659 -1.3530
 1268SOL    HW215438   1.493   3.963  11.105  0.8241  0.8224 -0.7537
 1269SOL     OW15439   4.581   4.491  15.206 -0.0327 -0.2492  0.3644
 1269SOL    HW115440   4.601   4.397  15.211 -1.4007 -0.5324  0.2955
 1269SOL    HW215441   4.512   4.491  15.140  0.7309  1.0247 -0.4283
 1270SOL     OW15442   3.451   3.009   4.290  0.1314  0.1051  0.2328
 1270SOL    HW115443   3.364   3.025   4.252  0.0456  0.4285  0.5723
 1270SOL    HW215444   3.458   2.915   4.270 -0.9980 -0.0019  0.3144
 1271SOL     OW15445   2.478   1.316   2.716 -0.1940 -0.2491 -0.4166
 1271SOL    HW115446   2.506   1.336   2.805 -0.9503  0.9783 -0.4538
 1271SOL    HW215447   2.405   1.378   2.712  0.4803  0.5429 -0.5144
 1272SOL     OW15448   3.660   0.647   5.964  0.1392  0.2493 -0.2058
 1272SOL    HW115449   3.668   0.740   5.984 -0.6220  0.5380 -1.2769
 1272SOL    HW215450   3.754   0.628   5.961 -0.2793 -2.1675  1.4743
 1273SOL     OW15451   1.217   0.528  10.303  0.1096  0.5204 -0.2795
 1273SOL    HW115452   1.169   0.546  10.222 -0.0590  0.5252 -0.1774
 1273SOL    HW215453   1.290   0.589  10.297  0.8249 -0.5467 -2.5536
 1274SOL     OW15454   3.043   3.787   6.762 -0.5564  0.0296  0.3999
 1274SOL    HW115455   2.949   3.802   6.764 -0.7525 -1.1197  0.0591
 1274SOL    HW215456   3.081   3.874   6.756  1.5147 -0.8035  1.0298
 1275SOL     OW15457   1.423   1.635   0.332 -0.3865 -0.6409 -0.3127
 1275SOL    HW115458   1.415   1.717   0.284  3.7831  1.0905  1.9352
 1275SOL    HW215459   1.455   1.657   0.419  1.6541 -0.9171 -0.9677
 1276SOL     OW15460   4.021   3.453   3.292  0.2330 -0.5814 -0.5032
 1276SOL    HW115461   4.008   3.469   3.199  1.3634  0.0995 -0.5428
 1276SOL    HW215462   3.966   3.376   3.309  0.0981 -0.0976  1.3049
 1277SOL     OW15463   3.554   1.943   2.252 -0.0079  0.4700  0.3466
 1277SOL    HW115464   3.532   1.864   2.302 -0.6776  0.0191 -0.6580
 1277SOL    HW215465   3.539   2.007   2.321  1.3846 -1.4236  2.4141
 1278SOL     OW15466   4.298   1.118   1.433 -0.4558  0.0043 -0.4030
 1278SOL    HW115467   4.281   1.191   1.492 -0.0717 -0.2404  0.0082
 1278SOL    HW215468   4.222   1.061   1.447  0.5651 -1.1258  0.6348
 1279SOL     OW15469   4.428   0.664  11.758  0.9747  0.5178  0.2176
 1279SOL    HW115470   4.433   0.651  11.663  0.6918  1.0433  0.1301
 1279SOL    HW215471   4.503   0.722  11.772  2.0185 -0.3049 -1.8708
 1280SOL     OW15472   0.566   4.540  16.665 -0.3128 -0.4000 -0.6533
 1280SOL    HW115473   0.490   4.597  16.651  1.0508  1.2242 -1.4845
 1280SOL    HW215474   0.545   4.479  16.595 -0.0576  0.4817 -1.4957
 1281SOL     OW15475   3.940   3.973  15.427  0.4719  0.2812 -0.4871
 1281SOL    HW115476   3.872   3.945  15.487 -1.1133  0.7935 -2.0380
 1281SOL    HW215477   3.954   3.896  15.371  0.1119  1.6707 -2.5064
 1282SOL     OW15478   3.682   0.891   7.646  0.0283  0.0555 -0.6009
 1282SOL    HW115479   3.631   0.811   7.663  1.5321 -0.5807  0.9544
 1282SOL    HW215480   3.725   0.870   7.564 -0.0860  1.4953 -1.0265
 1283SOL     OW15481   1.412   1.070   5.736 -0.2956  0.0067 -0.2051
 1283SOL    HW115482   1.424   0.978   5.759  0.8746  0.3334  0.5222
 1283SOL    HW215483   1.326   1.063   5.696 -1.1203 -1.1258  1.7723
 1284SOL     OW15484   4.622   2.855   9.500 -0.2022 -0.0927  0.0474
 1284SOL    HW115485   4.642   2.847   9.407 -0.6355 -0.8073  0.0146
 1284SOL    HW215486   4.589   2.766   9.514 -1.1509  0.1412 -0.7147
 1285SOL     OW15487   0.873   1.288   8.155  0.2116  0.0867  0.5423
 1285SOL    HW115488   0.918   1.372   8.153 -1.2710  0.8848  0.8058
 1285SOL    HW215489   0.884   1.260   8.246  1.6630  0.0313  0.3478
 1286SOL     OW15490   3.796   3.828   1.933  0.3151  0.4203 -0.5310
 1286SOL    HW115491   3.712   3.846   1.974 -0.3579 -2.4913 -0.6326
 1286SOL    HW215492   3.781   3.734   1.917 -2.4737  1.1679 -2.3355
 1287SOL     OW15493   0.368   2.754   1.569  0.0996 -0.0754  0.5603
 1287SOL    HW115494   0.406   2.676   1.610 -0.4680 -0.4144  0.4339
 1287SOL    HW215495   0.403   2.827   1.621  1.1050 -0.7964  0.9002
 1288SOL     OW15496   3.589   1.853   8.066  0.4761 -0.6128  0.0783
 1288SOL    HW115497   3.593   1.758   8.059  1.2803 -0.6367  0.7847
 1288SOL    HW215498   3.495   1.870   8.067  0.7043  0.8775 -2.9830
 1289SOL     OW15499   3.844   4.319   5.205  0.2998 -0.0384 -0.2553
 1289SOL    HW115500   3.766   4.371   5.221 -0.4147 -1.0010 -0.6637
 1289SOL    HW215501   3.884   4.377   5.140  1.3927 -1.8530 -1.1879
 1290SOL     OW15502   3.728   3.882   4.701 -0.5784  0.4190 -0.1950
 1290SOL    HW115503   3.673   3.887   4.623 -0.6066  2.6076 -0.0202
 1290SOL    HW215504   3.715   3.790   4.724  0.4340 -0.4054 -2.9120
 1291SOL     OW15505   1.423   3.209   8.787  0.3719  0.4946 -0.1534
 1291SOL    HW115506   1.488   3.250   8.730 -0.4669  2.0821  0.0526
 1291SOL    HW215507   1.418   3.269   8.861 -2.2227  1.9574 -1.5130
 1292SOL     OW15508   3.104   0.066  12.241  0.0504  0.2121 -0.6392
 1292SOL    HW115509   3.112   4.724  12.292  0.7861  0.9115  0.3253
 1292SOL    HW215510   3.012   0.092  12.234 -0.4099 -1.0180  0.8744
 1293SOL     OW15511   4.689   0.842   1.290  0.3509  0.4026 -0.4035
 1293SOL    HW115512   0.044   0.843   1.268  0.8682  2.0200  1.8129
 1293SOL    HW215513   4.664   0.934   1.284  0.7205  0.4768 -0.7994
 1294SOL     OW15514   3.760   4.449  17.021 -0.4376  0.1594  0.5165
 1294SOL    HW115515   3.821   4.486  16.958  1.8714  0.0442  2.6767
 1294SOL    HW215516   3.773   4.504  17.099 -0.1084  0.2802  0.3756
 1295SOL     OW15517   3.380   3.559   4.589  0.3966  0.1746 -0.4302
 1295SOL    HW115518   3.331   3.579   4.509 -0.0012 -2.0734 -0.7439
 1295SOL    HW215519   3.392   3.465   4.580 -0.5743 -0.0610  0.6676
 1296SOL     OW15520   4.574   4.196   9.149 -0.4138  0.4090 -0.1129
 1296SOL    HW115521   4.539   4.145   9.076 -1.6627  0.0124  0.7632
 1296SOL    HW215522   4.507   4.178   9.215 -2.3733  0.9875 -1.9532
 1297SOL     OW15523   1.244   4.131  16.833  0.3788 -0.0807  0.1593
 1297SOL    HW115524   1.302   4.081  16.776 -0.4722 -0.3777 -0.4443
 1297SOL    HW215525   1.160   4.097  16.803  0.7038 -0.7889  0.0535
 1298SOL     OW15526   0.236   4.554  10.288  0.2209  0.1806  0.2653
 1298SOL    HW115527   0.177   4.494  10.242  0.8766 -0.2018 -0.0835
 1298SOL    HW215528   0.297   4.492  10.328  0.7497 -0.5218 -1.6299
 1299SOL     OW15529   4.312   2.554   4.731  0.1749 -0.1579  0.2158
 1299SOL    HW115530   4.327   2.644   4.701  1.6176 -0.3984  0.2252
 1299SOL    HW215531   4.366   2.505   4.669  0.4456  0.3430  0.0544
 1300SOL     OW15532   3.580   4.193   5.486 -0.1679  0.0646  0.3803
 1300SOL    HW115533   3.498   4.178   5.438  0.5221  0.8402 -1.0206
 1300SOL    HW215534   3.566   4.148   5.569  0.2494 -0.1261  0.3421
 1301SOL     OW15535   3.535   4.572  11.229  0.3195  0.0845 -0.7429
 1301SOL    HW115536   3.545   4.614  11.314 -1.9996 -0.9607  0.0671
 1301SOL    HW215537   3.469   4.620  11.180  0.2140  0.5799 -0.1183
 1302SOL     OW15538   3.486   3.880   5.992 -0.4648 -0.0350 -0.8601
 1302SOL    HW115539   3.543   3.847   5.922 -1.2860 -0.2233 -1.4360
 1302SOL    HW215540   3.517   3.817   6.058 -0.3998 -0.3199 -1.1605
 1303SOL     OW15541   1.919   1.600  12.449  0.2399  0.2616  0.0851
 1303SOL    HW115542   1.859   1.655  12.499  0.1368 -0.0293  0.2788
 1303SOL    HW215543   1.937   1.524  12.504  2.0129  1.0972  0.6301
 1304SOL     OW15544   0.993   2.932   3.884 -0.4973 -0.2440  0.2218
 1304SOL    HW115545   0.917   2.991   3.883  0.0125  0.3369 -3.1652
 1304SOL    HW215546   0.955   2.855   3.927 -0.0565 -0.9623 -0.6730
 1305SOL     OW15547   0.694   1.276   1.557  0.7638  0.0571  0.2358
 1305SOL    HW115548   0.684   1.236   1.644  0.3848 -0.0873  0.1278
 1305SOL    HW215549   0.726   1.197   1.513  0.2152 -0.4170  0.6758
 1306SOL     OW15550   4.443   2.267   1.735 -0.5286  0.2275 -0.2096
 1306SOL    HW115551   4.515   2.260   1.672 -0.5417  0.3448 -0.2372
 1306SOL    HW215552   4.375   2.221   1.685 -0.8432 -2.4486  2.6894
 1307SOL     OW15553   2.318   1.092  17.205  0.3971  0.3698  0.0809
 1307SOL    HW115554   2.400   1.065  17.245  0.9671  1.8136 -0.1014
 1307SOL    HW215555   2.302   1.182  17.235  0.8352  0.7265 -0.7805
 1308SOL     OW15556   0.773   0.290   8.037 -0.0166 -0.8096 -0.7052
 1308SOL    HW115557   0.770   0.232   8.113  0.3415 -1.3235 -1.0858
 1308SOL    HW215558   0.691   0.259   7.999 -0.0364  0.0978 -1.3734
 1309SOL     OW15559   1.464   4.495   7.501 -0.1447  0.1450  0.0135
 1309SOL    HW115560   1.527   4.497   7.430  0.7282 -1.6680  0.7427
 1309SOL    HW215561   1.390   4.457   7.454 -1.4311  0.8193  1.4847
 1310SOL     OW15562   4.028   1.103  10.670  0.2971  0.4768  0.0540
 1310SOL    HW115563   4.081   1.096  10.749  0.7907 -0.5036 -0.3709
 1310SOL    HW215564   3.940   1.078  10.700  0.6107 -1.5418 -0.6674
 1311SOL     OW15565   1.355   0.261   5.775 -0.3135  0.1583  0.1142
 1311SOL    HW115566   1.338   0.175   5.813 -1.0690 -0.7843 -2.2965
 1311SOL    HW215567   1.278   0.305   5.810  0.0295  1.4713 -0.7791
 1312SOL     OW15568   2.273   0.061   5.051 -0.4487  0.3994 -0.2028
 1312SOL    HW115569   2.325   4.719   5.056 -0.4914  0.3561 -0.4770
 1312SOL    HW215570   2.198   0.022   5.006  0.2409 -1.5047  0.3130
 1313SOL     OW15571   3.749   3.114   5.816  0.7718 -0.1046  0.2902
 1313SOL    HW115572   3.723   3.022   5.808 -1.2942  0.4390  0.7257
 1313SOL    HW215573   3.744   3.129   5.910  1.3876  0.8394  0.1767
 1314SOL     OW15574   2.984   2.017   5.912 -0.2734 -0.3050 -0.0440
 1314SOL    HW115575   2.933   2.092   5.881  1.1909  1.0168  0.7365
 1314SOL    HW215576   3.026   2.050   5.991 -0.5316  0.0832 -0.0640
 1315SOL     OW15577   1.765   3.989   2.545 -0.2500 -0.4257  0.2086
 1315SOL    HW115578   1.835   4.039   2.503  0.0912 -0.5980  0.5805
 1315SOL    HW215579   1.701   4.023   2.482  0.3918 -0.8693 -0.6846
 1316SOL     OW15580   0.609   4.497   1.767  0.3187 -0.7853  0.1541
 1316SOL    HW115581   0.576   4.413   1.800  1.6498 -0.4013  2.5036
 1316SOL    HW215582   0.685   4.462   1.721  0.5072 -0.5679  0.2983
 1317SOL     OW15583   0.162   2.552   6.762  0.4819 -0.3887 -0.3457
 1317SOL    HW115584   0.074   2.582   6.738 -0.1022 -1.7101  0.0923
 1317SOL    HW215585   0.199   2.506   6.687  0.0957  0.1412 -0.8581
 1318SOL     OW15586   3.300   0.985   5.299  0.0671  0.0554 -0.0954
 1318SOL    HW115587   3.216   0.978   5.254 -0.1535 -0.1796  0.3560
 1318SOL    HW215588   3.311   1.076   5.326 -0.5314 -0.1636  0.9150
 1319SOL     OW15589   1.134   4.714   8.590  0.2006  0.0253 -0.4682
 1319SOL    HW115590   1.066   4.673   8.643 -0.6742  0.7941 -0.9864
 1319SOL    HW215591   1.164   4.637   8.543  1.0018  0.4773 -0.6886
 1320SOL     OW15592   3.413   3.423   9.233 -0.1345 -0.1465  0.6498
 1320SOL    HW115593   3.372   3.351   9.184  2.7999 -1.1920 -0.2902
 1320SOL    HW215594   3.483   3.384   9.286  0.8733 -1.5479 -1.6836
 1321SOL     OW15595   2.310   0.753  11.266  0.5889  0.2675  0.5342
 1321SOL    HW115596   2.339   0.672  11.308 -1.1429 -0.5883  0.0734
 1321SOL    HW215597   2.389   0.793  11.229  0.2336 -1.6017 -2.2689
 1322SOL     OW15598   0.474   1.035   1.295 -0.0083  0.7919 -0.3438
 1322SOL    HW115599   0.504   1.118   1.257  0.6254  1.0496  0.7121
 1322SOL    HW215600   0.526   0.969   1.248 -1.8497  0.3119 -1.7231
 1323SOL     OW15601   0.243   3.009   4.020 -0.5074 -0.2157  0.4850
 1323SOL    HW115602   0.324   3.046   3.984 -0.0958 -0.9040  0.6984
 1323SOL    HW215603   0.261   2.990   4.112  1.1357 -1.0105  0.0114
 1324SOL     OW15604   0.878   0.479   6.174 -0.8337 -0.0260 -0.0534
 1324SOL    HW115605   0.947   0.420   6.205  0.6619  2.3616  1.1817
 1324SOL    HW215606   0.864   0.439   6.088 -4.3231 -3.1756  2.0024
 1325SOL     OW15607   4.643   3.122   2.405  0.0252 -0.0496 -0.6672
 1325SOL    HW115608   4.651   3.195   2.344 -0.4662  0.5613  0.0007
 1325SOL    HW215609   4.656   3.050   2.344  1.1520  0.4700 -1.0349
 1326SOL     OW15610   3.969   3.202   6.690  0.0357 -0.2344  0.1822
 1326SOL    HW115611   3.925   3.122   6.720 -0.4801  0.3469  0.9612
 1326SOL    HW215612   4.007   3.231   6.773  0.0984  1.0298 -0.2868
 1327SOL     OW15613   2.793   1.881   3.834 -0.6692  0.0974  0.0693
 1327SOL    HW115614   2.817   1.887   3.742  1.7290 -1.3979  0.5911
 1327SOL    HW215615   2.788   1.787   3.853  1.5887 -0.2897 -1.1841
 1328SOL     OW15616   3.251   2.396   5.218  0.4921  0.3057 -0.3817
 1328SOL    HW115617   3.329   2.351   5.251  0.2832  0.1788 -0.0698
 1328SOL    HW215618   3.295   2.439   5.144 -1.4598  0.4034 -1.4879
 1329SOL     OW15619   4.589   4.604   8.748 -0.1082 -0.2320  0.3800
 1329SOL    HW115620   4.581   4.535   8.813 -2.8378 -0.2604 -0.0174
 1329SOL    HW215621   4.511   4.582   8.697 -0.1402  0.6392  0.0618
 1330SOL     OW15622   3.703   3.309   9.177 -0.2644 -0.7495  0.0398
 1330SOL    HW115623   3.784   3.286   9.131  1.1595 -0.7739  2.6099
 1330SOL    HW215624   3.642   3.325   9.104 -0.9158  0.7871  0.9232
 1331SOL     OW15625   0.052   1.777   5.461  0.0250 -0.2967 -0.4427
 1331SOL    HW115626   0.014   1.820   5.384  2.5503  1.0888 -0.8891
 1331SOL    HW215627   0.114   1.845   5.483  0.6815 -1.7988  2.3643
 1332SOL     OW15628   1.022   3.295   4.678  0.2616 -0.2330  0.4714
 1332SOL    HW115629   0.976   3.215   4.653 -1.3865  1.6487 -2.4613
 1332SOL    HW215630   1.101   3.264   4.721  0.4159 -1.4530 -0.6798
 1333SOL     OW15631   1.108   2.038   3.265 -0.3775  0.5318 -0.4626
 1333SOL    HW115632   1.103   1.950   3.229  0.7654  0.5609 -0.7149
 1333SOL    HW215633   1.068   2.079   3.189 -0.7971  0.6499 -0.1784
 1334SOL     OW15634   2.632   0.073   9.395 -0.3422 -0.4110 -0.2132
 1334SOL    HW115635   2.651   0.017   9.470 -1.7700 -1.8291 -0.8991
 1334SOL    HW215636   2.630   0.156   9.443  1.3394  0.3789 -1.5065
 1335SOL     OW15637   3.843   1.426   8.929 -0.2681  0.4330  0.3133
 1335SOL    HW115638   3.852   1.377   8.848 -0.2159 -1.4408  1.4457
 1335SOL    HW215639   3.759   1.469   8.910 -0.0314 -0.0871 -1.8428
 1336SOL     OW15640   4.528   2.938  15.343 -0.4382 -0.6264 -0.1820
 1336SOL    HW115641   4.576   2.879  15.401  1.5560 -1.0230 -2.2333
 1336SOL    HW215642   4.512   3.021  15.387 -0.6524 -1.3107  1.0573
 1337SOL     OW15643   4.579   0.104  12.241  0.4460  0.0756  0.1530
 1337SOL    HW115644   4.627   0.169  12.191 -0.0801  0.5001  0.2007
 1337SOL    HW215645   4.627   0.121  12.322 -0.3165 -2.2179  1.1089
 1338SOL     OW15646   3.195   4.220  11.548  0.4659 -0.2885 -0.1252
 1338SOL    HW115647   3.100   4.223  11.537  0.6538 -1.1732 -2.0360
 1338SOL    HW215648   3.210   4.269  11.629 -0.7864  1.2201 -0.7974
 1339SOL     OW15649   4.526   0.075  11.732  0.1075  0.2622 -0.5752
 1339SOL    HW115650   4.520   0.113  11.819 -0.5063 -3.7815  1.1061
 1339SOL    HW215651   4.526   4.719  11.749  1.0680  0.1711 -1.0634
 1340SOL     OW15652   3.851   4.684   1.490 -0.1565  0.6316 -0.6233
 1340SOL    HW115653   3.809   4.715   1.570  1.3299 -0.5058  0.6076
 1340SOL    HW215654   3.861   0.029   1.443 -0.2649  0.5692 -0.7530
 1341SOL     OW15655   3.235   2.951   3.798 -0.3766  0.2459  0.1509
 1341SOL    HW115656   3.184   2.922   3.723 -0.1056  0.0211  0.0525
 1341SOL    HW215657   3.271   2.869   3.831 -0.8976 -0.0083  0.0889
 1342SOL     OW15658   2.114   4.726   8.493  0.0716  0.3807 -0.3119
 1342SOL    HW115659   2.169   0.001   8.416  0.8523 -1.4195 -0.0625
 1342SOL    HW215660   2.068   0.072   8.485  0.6815  0.7467 -0.0232
 1343SOL     OW15661   1.505   3.926  11.947 -0.0491 -0.2249  0.4256
 1343SOL    HW115662   1.464   3.919  12.033  0.6071 -0.3306  0.7304
 1343SOL    HW215663   1.595   3.909  11.975  0.1138 -1.0717 -0.5952
 1344SOL     OW15664   0.063   1.792   8.177  0.2084 -0.4993  0.3571
 1344SOL    HW115665   0.053   1.763   8.087  0.7984  0.7673 -0.1055
 1344SOL    HW215666   4.720   1.841   8.189  1.4289  1.6947 -0.2987
 1345SOL     OW15667   4.209   0.694   9.811 -0.0586  0.3481 -0.5499
 1345SOL    HW115668   4.132   0.751   9.810  0.0034  0.4231 -1.0493
 1345SOL    HW215669   4.202   0.647   9.894 -0.5031 -0.1413 -0.8677
 1346SOL     OW15670   1.000   0.505   1.896  1.0582  0.3957 -0.0079
 1346SOL    HW115671   1.029   0.550   1.975  0.1092  2.1332 -0.6462
 1346SOL    HW215672   0.907   0.527   1.889  0.5761 -1.2405  1.3447
 1347SOL     OW15673   2.989   3.365   3.481 -0.1171 -0.1697  0.0099
 1347SOL    HW115674   2.990   3.270   3.495 -0.4194  0.2475  2.8697
 1347SOL    HW215675   2.931   3.373   3.406  1.6169 -0.8649 -1.4133
 1348SOL     OW15676   2.462   0.894  13.283  0.1608 -0.4457 -0.0067
 1348SOL    HW115677   2.536   0.948  13.308  0.3696 -0.7694  0.0812
 1348SOL    HW215678   2.444   0.871  13.374 -3.4320  1.1026 -0.3345
 1349SOL     OW15679   0.106   1.139  11.140 -0.2957 -0.0232 -0.1999
 1349SOL    HW115680   0.174   1.202  11.166  2.0836 -2.0815 -1.3422
 1349SOL    HW215681   0.161   1.093  11.077  0.5179 -1.1886  1.3499
 1350SOL     OW15682   2.675   1.222   3.269  0.1961 -0.0142  0.1452
 1350SOL    HW115683   2.755   1.246   3.315  0.3509 -0.4346  0.0959
 1350SOL    HW215684   2.706   1.137   3.238 -0.1808  0.2815 -1.0336
 1351SOL     OW15685   4.674   3.422   6.880 -0.0853  0.0417  0.5006
 1351SOL    HW115686   4.732   3.349   6.902 -0.2214 -0.1172  0.3318
 1351SOL    HW215687   4.595   3.382   6.917 -0.0999 -0.1264  0.2889
 1352SOL     OW15688   4.350   0.905  12.741  0.8252 -0.1865  0.2082
 1352SOL    HW115689   4.289   0.854  12.688  2.2459 -0.9363 -0.7069
 1352SOL    HW215690   4.337   0.996  12.716  0.6858  0.5777  3.0116
 1353SOL     OW15691   4.440   1.841  13.597  0.7506  0.1230 -0.2383
 1353SOL    HW115692   4.393   1.855  13.516 -1.3317  2.2441  1.3402
 1353SOL    HW215693   4.529   1.870  13.578  1.0629 -0.3367  0.4890
 1354SOL     OW15694   1.896   3.742   8.466  0.3960 -0.0081  0.6455
 1354SOL    HW115695   1.820   3.690   8.492  0.8393 -0.9998 -0.0630
 1354SOL    HW215696   1.957   3.677   8.430  0.8539  0.4594  0.5644
 1355SOL     OW15697   3.621   2.118   3.178  0.0152  0.1786  0.5292
 1355SOL    HW115698   3.650   2.183   3.242  2.6215 -0.3431 -0.1425
 1355SOL    HW215699   3.539   2.088   3.218  0.8064  0.3609  2.2833
 1356SOL     OW15700   2.946   0.951   2.160 -0.0165  0.3592  0.3644
 1356SOL    HW115701   2.955   1.046   2.172 -0.1132  0.4441 -0.2549
 1356SOL    HW215702   2.853   0.938   2.143 -0.2721 -0.1776  2.2141
 1357SOL     OW15703   3.676   2.833   8.836 -0.4668 -0.0034  0.2998
 1357SOL    HW115704   3.765   2.799   8.823 -0.4253  0.2111  0.0159
 1357SOL    HW215705   3.632   2.748   8.843  0.6869 -0.7140 -0.9799
 1358SOL     OW15706   0.394   4.567   2.100  0.4551 -0.4451  0.4935
 1358SOL    HW115707   0.419   4.521   2.020  1.1774  0.2594  0.3186
 1358SOL    HW215708   0.329   4.628   2.065  0.0161 -0.8702  0.5670
 1359SOL     OW15709   2.215   2.535   8.634 -0.0935  0.5421  0.1535
 1359SOL    HW115710   2.137   2.561   8.683  1.7142  1.5082  2.5159
 1359SOL    HW215711   2.272   2.598   8.678  0.6054 -0.6146  0.9051
 1360SOL     OW15712   4.702   3.771  15.011  0.0915  0.7687 -0.0219
 1360SOL    HW115713   4.656   3.809  14.936  0.4133  0.5344 -0.3384
 1360SOL    HW215714   4.652   3.690  15.018 -0.1745  0.9247 -0.1198
 1361SOL     OW15715   2.481   4.252   0.660  0.0614 -0.0595  0.2330
 1361SOL    HW115716   2.457   4.256   0.568  0.1445  0.6467  0.2460
 1361SOL    HW215717   2.410   4.195   0.688  1.3755 -2.0503 -0.4525
 1362SOL     OW15718   0.906   1.286   5.278  0.0952 -0.2245 -0.4515
 1362SOL    HW115719   0.889   1.202   5.320  0.6082 -0.0148  0.1735
 1362SOL    HW215720   0.848   1.273   5.203  1.8894 -3.4897 -1.2792
 1363SOL     OW15721   2.450   4.017   9.235 -0.0891  0.0421  0.2882
 1363SOL    HW115722   2.464   4.108   9.263  1.7250 -0.3051  0.5008
 1363SOL    HW215723   2.538   4.000   9.201 -0.3466 -1.9344  0.5848
 1364SOL     OW15724   0.278   0.800   7.667  0.7283 -0.4758  0.1473
 1364SOL    HW115725   0.315   0.743   7.600  0.8778  0.4390 -0.5408
 1364SOL    HW215726   0.191   0.816   7.631 -0.7763 -2.5001  2.7900
 1365SOL     OW15727   3.007   4.596  12.423  0.2944  0.2346  0.0569
 1365SOL    HW115728   2.918   4.630  12.431  0.8231  1.9387 -1.4128
 1365SOL    HW215729   3.002   4.502  12.403 -0.9187 -0.1373  2.0020
 1366SOL     OW15730   1.476   3.410   0.760 -0.5070  0.1180 -0.2410
 1366SOL    HW115731   1.554   3.406   0.705 -0.9164 -0.3026 -0.7990
 1366SOL    HW215732   1.488   3.333   0.816 -2.0764  1.6626  2.2277
 1367SOL     OW15733   3.932   2.182   5.008 -0.0173  0.1223  0.1090
 1367SOL    HW115734   3.904   2.258   4.956  0.9565  0.2518 -0.2284
 1367SOL    HW215735   4.017   2.213   5.041 -1.9852  3.5063  2.0375
 1368SOL     OW15736   4.150   2.157   8.163  0.4982  0.0110  0.0780
 1368SOL    HW115737   4.136   2.142   8.256 -0.4780 -1.5053 -0.3130
 1368SOL    HW215738   4.196   2.241   8.170  1.7404 -0.6684  0.0900
 1369SOL     OW15739   1.598   1.355   7.983 -0.0617 -0.1383 -0.1924
 1369SOL    HW115740   1.693   1.364   7.995 -0.0664  1.9494 -1.6126
 1369SOL    HW215741   1.556   1.395   8.059  0.4844 -0.0326  0.0525
 1370SOL     OW15742   2.694   2.575   5.784 -0.5633  0.3218  0.9903
 1370SOL    HW115743   2.774   2.604   5.740  0.0350 -1.2520  1.0321
 1370SOL    HW215744   2.620   2.585   5.724  2.9996 -2.1149 -3.7667
 1371SOL     OW15745   3.644   2.383  13.415  0.5437  0.2735 -0.1448
 1371SOL    HW115746   3.642   2.362  13.321  0.8172 -2.1005  0.3771
 1371SOL    HW215747   3.710   2.452  13.421 -0.4186  1.0059  1.9275
 1372SOL     OW15748   1.591   3.180   3.005 -0.1364 -0.2583 -0.0326
 1372SOL    HW115749   1.582   3.243   2.934 -1.5039  1.6290  1.7983
 1372SOL    HW215750   1.573   3.242   3.076 -0.9709 -0.2282 -0.2783
 1373SOL     OW15751   2.500   1.834  12.797  0.1333  0.2781  0.5969
 1373SOL    HW115752   2.427   1.895  12.804 -0.7954 -0.9971  1.9564
 1373SOL    HW215753   2.576   1.892  12.797  1.2438 -1.1628 -1.9740
 1374SOL     OW15754   3.270   3.725   6.879 -0.3117  0.1021 -0.3136
 1374SOL    HW115755   3.195   3.756   6.827 -0.8702 -0.7998 -0.0522
 1374SOL    HW215756   3.303   3.650   6.831 -0.8956 -0.3806  0.0368
 1375SOL     OW15757   0.233   4.195   2.088  0.3132  0.7477  0.1896
 1375SOL    HW115758   0.151   4.243   2.079 -0.7848 -1.2549 -0.4698
 1375SOL    HW215759   0.202   4.105   2.099 -1.1485  0.9048 -2.6083
 1376SOL     OW15760   0.235   1.474   3.394  0.5664  0.0685 -0.7874
 1376SOL    HW115761   0.246   1.452   3.486  1.0578  0.0380 -0.8514
 1376SOL    HW215762   0.303   1.534   3.364 -0.7272  2.2824  0.7048
 1377SOL     OW15763   1.677   3.349   4.455 -0.3236 -0.2393  0.5134
 1377SOL    HW115764   1.703   3.401   4.379  0.1568 -0.8547  0.2567
 1377SOL    HW215765   1.681   3.257   4.430 -1.4778  0.1952 -1.2247
 1378SOL     OW15766   0.986   1.573  11.872 -0.3579  0.0950  0.5122
 1378SOL    HW115767   0.983   1.617  11.787  2.7229 -0.2161  0.2639
 1378SOL    HW215768   0.898   1.539  11.890 -0.3467 -0.0466  0.2924
 1379SOL     OW15769   1.959   2.987   4.450  0.2906  0.1284 -0.5293
 1379SOL    HW115770   1.875   2.993   4.405 -1.2365  0.5241  2.4461
 1379SOL    HW215771   1.923   3.017   4.533 -0.6656 -0.7945 -0.6062
 1380SOL     OW15772   1.160   3.967   8.881 -0.3478  0.2217  0.4654
 1380SOL    HW115773   1.131   3.954   8.791  1.2163 -0.8921  0.1228
 1380SOL    HW215774   1.182   3.876   8.903 -1.1707 -0.3748 -1.1745
 1381SOL     OW15775   3.046   1.863   7.274 -0.3254  0.0762 -0.1167
 1381SOL    HW115776   3.006   1.940   7.314 -2.0460 -0.6778 -0.4169
 1381SOL    HW215777   3.125   1.867   7.328 -0.5582 -2.2749  0.4040
 1382SOL     OW15778   1.997   4.281   0.477 -0.5864 -0.1510 -0.4354
 1382SOL    HW115779   2.048   4.343   0.529  0.0233 -3.5644  3.0859
 1382SOL    HW215780   2.059   4.211   0.455 -1.5459 -1.6586  1.6085
 1383SOL     OW15781   4.032   0.189   4.086  0.2434  0.2229 -0.3892
 1383SOL    HW115782   4.105   0.245   4.111 -0.7359  0.8214  1.1175
 1383SOL    HW215783   3.982   0.170   4.166  0.2765  0.7473 -0.2444
 1384SOL     OW15784   1.397   2.245   2.147 -0.0131 -0.1816  0.1189
 1384SOL    HW115785   1.438   2.211   2.067 -1.2680 -0.0549 -0.5783
 1384SOL    HW215786   1.302   2.237   2.138  0.0772  0.7681 -1.7566
 1385SOL     OW15787   2.979   2.159  17.121 -0.4418 -0.2272  0.1922
 1385SOL    HW115788   2.962   2.151  17.215 -2.6962 -0.4541 -0.2530
 1385SOL    HW215789   2.955   2.250  17.102  0.2835 -0.3490 -1.3197
 1386SOL     OW15790   1.898   2.148   2.858  0.7902 -0.3951  0.1100
 1386SOL    HW115791   1.805   2.170   2.868  0.5532 -1.3344 -0.0358
 1386SOL    HW215792   1.926   2.144   2.950  0.9471 -0.6668  0.0516
 1387SOL     OW15793   2.656   1.303   3.975  0.3210  0.1642  0.0623
 1387SOL    HW115794   2.697   1.326   3.892  0.2969 -2.7239 -0.7358
 1387SOL    HW215795   2.564   1.285   3.957  0.0970  1.0184  0.3282
 1388SOL     OW15796   0.242   3.600  10.334 -0.1862 -0.3826  0.0071
 1388SOL    HW115797   0.262   3.622  10.425  2.9369 -1.0371 -0.4948
 1388SOL    HW215798   0.268   3.508  10.328  1.7899  0.2348 -0.9631
 1389SOL     OW15799   0.574   0.453   9.996 -0.7899  0.4109  0.1603
 1389SOL    HW115800   0.546   0.424  10.083 -2.4932  0.6028 -0.3202
 1389SOL    HW215801   0.532   0.538   9.981 -1.9358 -0.0162  0.9099
 1390SOL     OW15802   4.369   2.833  16.775 -0.9105  0.5797 -0.3570
 1390SOL    HW115803   4.363   2.888  16.696  1.6045  0.3476 -0.7009
 1390SOL    HW215804   4.339   2.749  16.740 -2.4700  1.3620 -0.8785
 1391SOL     OW15805   2.745   4.734   2.762  0.1981 -0.5251 -0.1040
 1391SOL    HW115806   2.662   4.727   2.714  0.4542  1.9754 -0.8892
 1391SOL    HW215807   2.780   0.073   2.717  2.2088 -0.5103  1.4821
 1392SOL     OW15808   1.568   1.224  17.612 -0.1063  0.4655  0.1344
 1392SOL    HW115809   1.538   1.305  17.571  1.2070  0.2726 -1.1974
 1392SOL    HW215810   1.559   1.165  17.537 -0.2507  1.6193 -0.7439
 1393SOL     OW15811   4.428   1.591   5.403  0.3627  0.8279  0.5141
 1393SOL    HW115812   4.481   1.533   5.349 -0.0817  0.1408  0.8158
 1393SOL    HW215813   4.421   1.531   5.477  2.1859  0.2586  0.2107
 1394SOL     OW15814   3.106   4.486   5.231 -0.1652  0.8606 -0.5623
 1394SOL    HW115815   3.011   4.494   5.237 -0.2634 -0.4147 -0.3639
 1394SOL    HW215816   3.129   4.576   5.253  1.3015  0.2329  0.4544
 1395SOL     OW15817   1.868   1.994   3.702  0.0398 -0.0951 -0.5605
 1395SOL    HW115818   1.826   1.915   3.734  2.2676 -1.8898 -2.0103
 1395SOL    HW215819   1.811   2.065   3.730 -1.0927 -1.7797  1.3585
 1396SOL     OW15820   3.448   4.468   3.231 -0.1307 -0.1758 -0.2519
 1396SOL    HW115821   3.501   4.532   3.184  1.7141 -1.3767  0.1886
 1396SOL    HW215822   3.426   4.505   3.317  0.0243  5.4992 -2.6655
 1397SOL     OW15823   0.105   1.336   5.305  0.1945 -0.0542  0.3049
 1397SOL    HW115824   0.047   1.264   5.330 -0.2875 -0.9334 -3.3997
 1397SOL    HW215825   0.078   1.408   5.362  0.5077 -0.1395  0.5611
 1398SOL     OW15826   2.700   3.648   1.770  0.2872 -0.0130 -0.0933
 1398SOL    HW115827   2.691   3.671   1.678  0.9022  0.1954 -0.0987
 1398SOL    HW215828   2.714   3.735   1.809 -2.4362  0.2293  0.3573
 1399SOL     OW15829   3.959   1.417  11.784 -0.0108 -0.0906 -0.4415
 1399SOL    HW115830   3.952   1.339  11.729  0.0705 -1.7846  1.9352
 1399SOL    HW215831   3.972   1.494  11.730 -0.3105  0.2488 -0.0328
 1400SOL     OW15832   1.952   4.283   4.213 -0.2364 -0.1570 -0.2116
 1400SOL    HW115833   2.015   4.289   4.285  0.8322 -2.0368 -0.9788
 1400SOL    HW215834   1.952   4.189   4.192  0.1739 -0.2038  0.0057
 1401SOL     OW15835   4.617   1.325   1.301  0.6613  0.1978 -1.4108
 1401SOL    HW115836   4.649   1.288   1.383 -0.3171  1.8722 -0.2969
 1401SOL    HW215837   4.577   1.246   1.264  0.0749 -1.3269  2.4545
 1402SOL     OW15838   0.968   2.609  10.020  0.3693  0.6859  0.2844
 1402SOL    HW115839   0.960   2.592  10.114 -1.1855 -2.6196 -0.4574
 1402SOL    HW215840   0.929   2.534   9.975  1.3206  0.5636 -0.3237
 1403SOL     OW15841   1.812   3.400   9.507 -0.2751 -0.0843 -0.9136
 1403SOL    HW115842   1.728   3.445   9.502  0.9355  2.2823 -0.1061
 1403SOL    HW215843   1.815   3.389   9.602 -1.0560 -3.0897 -1.2401
 1404SOL     OW15844   2.583   4.370   8.797  0.1288  0.3740  0.2305
 1404SOL    HW115845   2.649   4.423   8.841 -2.7907  4.2666 -0.1113
 1404SOL    HW215846   2.544   4.320   8.869  1.8251 -1.2285  0.0473
 1405SOL     OW15847   4.066   1.111   5.518 -0.2425 -0.1186  0.0160
 1405SOL    HW115848   4.033   1.022   5.530 -2.1655  0.3748 -1.5162
 1405SOL    HW215849   4.018   1.140   5.440  0.9435 -1.7316 -1.3154
 1406SOL     OW15850   1.763   1.528   3.445 -0.3335  0.0613  0.2959
 1406SOL    HW115851   1.714   1.487   3.516  0.7391 -0.0225  0.9822
 1406SOL    HW215852   1.728   1.617   3.441  1.0093  0.5545 -0.7568
 1407SOL     OW15853   1.791   1.870   4.858 -0.1548  0.1193 -0.1827
 1407SOL    HW115854   1.827   1.806   4.919 -1.9351 -1.1073 -0.4345
 1407SOL    HW215855   1.703   1.888   4.891  0.1980  0.4874  0.5530
 1408SOL     OW15856   1.216   0.426  11.555 -0.0899 -0.7476 -0.0799
 1408SOL    HW115857   1.174   0.342  11.575 -0.2183 -0.3076  1.5469
 1408SOL    HW215858   1.177   0.493  11.612  0.3604  0.4267 -1.1618
 1409SOL     OW15859   3.076   3.776   7.761  0.0048  0.4626  0.5031
 1409SOL    HW115860   3.154   3.801   7.711  0.4521 -1.3966  0.2787
 1409SOL    HW215861   3.091   3.682   7.767  2.8433  0.8415 -0.7007
 1410SOL     OW15862   1.590   3.905  16.435 -0.1018 -0.0029 -0.5121
 1410SOL    HW115863   1.621   3.836  16.494 -2.1686 -0.7824 -0.2968
 1410SOL    HW215864   1.608   3.860  16.353 -1.4917  0.1669 -0.9212
 1411SOL     OW15865   3.658   2.263  12.831 -0.1575  0.0088 -0.2073
 1411SOL    HW115866   3.728   2.209  12.868 -0.6112  0.4500  1.2741
 1411SOL    HW215867   3.587   2.241  12.891  1.5208 -2.3691  0.8897
 1412SOL     OW15868   1.283   1.615   3.723 -0.6708  0.5411 -0.5423
 1412SOL    HW115869   1.331   1.547   3.769 -3.1549  0.7127  2.3053
 1412SOL    HW215870   1.336   1.688   3.753 -0.4958 -0.1673  0.8470
 1413SOL     OW15871   4.597   2.617   5.717 -0.1899  0.8291 -0.2066
 1413SOL    HW115872   4.624   2.695   5.765 -0.0150  0.8544 -0.3477
 1413SOL    HW215873   4.655   2.551   5.754 -0.3077  1.3896  1.0072
 1414SOL     OW15874   2.968   2.228   9.018 -0.3980  0.0851  0.4874
 1414SOL    HW115875   2.989   2.313   8.982  0.8730 -1.2891 -2.0051
 1414SOL    HW215876   3.025   2.170   8.968 -0.9691 -1.5074  1.6347
 1415SOL     OW15877   0.489   0.688   9.341  0.0353  0.2953 -0.3930
 1415SOL    HW115878   0.524   0.602   9.317 -2.2229 -0.5815 -0.6391
 1415SOL    HW215879   0.479   0.685   9.436 -0.7436  0.5350 -0.4631
 1416SOL     OW15880   1.492   3.243   7.693 -0.5561 -0.7558 -0.2045
 1416SOL    HW115881   1.416   3.300   7.705  0.4048  0.7242 -1.1783
 1416SOL    HW215882   1.567   3.292   7.726 -0.1868 -0.6888 -1.1518
 1417SOL     OW15883   2.387   1.963   8.575 -0.1524  0.0392  0.0005
 1417SOL    HW115884   2.377   2.035   8.637  0.1036 -0.0871  0.1893
 1417SOL    HW215885   2.296   1.937   8.563 -0.4073  0.7087  0.4644
 1418SOL     OW15886   4.077   1.989   6.453 -0.1965  0.4538  0.2293
 1418SOL    HW115887   4.094   2.064   6.397  1.6900  0.2022  0.4643
 1418SOL    HW215888   4.059   1.914   6.396  2.2722 -0.7738  1.0404
 1419SOL     OW15889   2.988   0.167   3.412  0.2175  0.2396  0.6387
 1419SOL    HW115890   2.906   0.140   3.453  1.6231 -0.0607  3.2358
 1419SOL    HW215891   3.040   0.087   3.407  0.9771  0.8278 -1.2736
 1420SOL     OW15892   1.065   3.253   2.007  0.6671  0.8105  0.0809
 1420SOL    HW115893   1.120   3.320   1.967  1.2025  0.8335  0.8602
 1420SOL    HW215894   1.093   3.174   1.960  1.0239  0.6346  0.5930
 1421SOL     OW15895   3.572   1.455  15.479  0.1778 -0.0153  0.0049
 1421SOL    HW115896   3.583   1.362  15.460  0.5611  0.7148 -3.3264
 1421SOL    HW215897   3.600   1.498  15.399  0.9595 -1.2544 -0.3859
 1422SOL     OW15898   2.646   2.035  10.340 -0.1727 -0.6192 -0.4704
 1422SOL    HW115899   2.696   2.094  10.396 -0.5627 -1.1331  0.4245
 1422SOL    HW215900   2.591   1.986  10.401 -0.5737  0.0979 -0.2658
 1423SOL     OW15901   0.743   2.194  16.397 -0.2549 -0.5174  0.4804
 1423SOL    HW115902   0.714   2.283  16.375 -0.1035 -0.3022  1.1367
 1423SOL    HW215903   0.670   2.177  16.457 -1.7800 -0.4256 -1.3464
 1424SOL     OW15904   4.652   3.415   7.324 -0.1933 -0.3119 -0.4116
 1424SOL    HW115905   4.736   3.427   7.279 -0.0191 -0.0037 -0.0115
 1424SOL    HW215906   4.596   3.488   7.297  0.0627 -0.6287 -1.7992
 1425SOL     OW15907   1.870   2.355   7.534 -0.3759  0.3305 -0.2273
 1425SOL    HW115908   1.927   2.358   7.458 -0.1288 -0.1523 -0.0617
 1425SOL    HW215909   1.927   2.363   7.611 -1.1472  1.6677  0.2126
 1426SOL     OW15910   2.519   2.952  14.183  0.5947  0.1389 -0.3229
 1426SOL    HW115911   2.526   3.033  14.133  0.0897 -1.0542 -2.2841
 1426SOL    HW215912   2.445   2.902  14.148  1.0851  0.2054 -1.4277
 1427SOL     OW15913   4.652   4.476  14.115  0.4934  0.3236  0.0242
 1427SOL    HW115914   4.695   4.408  14.166  1.1994 -0.0695 -1.0966
 1427SOL    HW215915   4.648   4.542  14.184  0.5263 -0.8852  1.1873
 1428SOL     OW15916   0.079   1.826   1.158  0.0095  0.3599 -0.1095
 1428SOL    HW115917   4.735   1.847   1.114  0.6344  2.1026 -0.4217
 1428SOL    HW215918   0.057   1.819   1.251 -1.0738 -0.6051 -0.4373
 1429SOL     OW15919   4.457   1.235  11.999  0.1352 -0.3227  0.6769
 1429SOL    HW115920   4.491   1.147  11.982 -0.3378 -0.7873  2.1207
 1429SOL    HW215921   4.374   1.216  12.044 -0.1781 -1.9575 -0.6104
 1430SOL     OW15922   1.751   1.988   8.150  0.1554 -0.4087 -0.1488
 1430SOL    HW115923   1.844   1.968   8.141  0.3899  1.0873 -1.1391
 1430SOL    HW215924   1.739   2.040   8.070  1.6268 -0.5314 -0.4374
 1431SOL     OW15925   0.960   2.428   1.648  0.6937  0.4892 -0.1515
 1431SOL    HW115926   0.942   2.336   1.627 -1.0982  1.4650 -2.8419
 1431SOL    HW215927   0.884   2.449   1.703 -0.1022 -0.4406 -0.8999
 1432SOL     OW15928   0.206   2.982   7.088  0.1025  0.0099  0.3335
 1432SOL    HW115929   0.165   3.042   7.025  1.2636  1.2307  0.7487
 1432SOL    HW215930   0.205   2.905   7.030 -0.6122 -0.1286  0.5328
 1433SOL     OW15931   4.029   1.028   1.017 -0.4527 -0.0952 -0.1748
 1433SOL    HW115932   3.953   1.001   1.068 -0.9694  3.3917  0.9221
 1433SOL    HW215933   4.053   0.944   0.977  2.6454 -0.0003  1.5106
 1434SOL     OW15934   1.040   1.552   4.307 -0.1583 -0.1804 -0.0630
 1434SOL    HW115935   1.000   1.466   4.315  0.7961 -0.4544  1.9187
 1434SOL    HW215936   1.042   1.590   4.395 -0.9463  0.6170 -0.3850
 1435SOL     OW15937   3.019   3.956   8.036  0.0655 -0.0098  0.3980
 1435SOL    HW115938   3.080   3.885   8.015 -0.4529 -0.6956  1.2399
 1435SOL    HW215939   2.951   3.950   7.968 -0.3960  0.6871  0.8071
 1436SOL     OW15940   2.648   0.201  16.218 -0.2204 -0.0104  0.1214
 1436SOL    HW115941   2.686   0.202  16.130 -1.3570 -1.8869 -0.3988
 1436SOL    HW215942   2.728   0.203  16.271  0.6150 -0.7398 -1.1147
 1437SOL     OW15943   2.798   4.255  13.078  0.4558 -0.3310 -0.7855
 1437SOL    HW115944   2.782   4.349  13.068  0.9026 -0.3491 -1.6692
 1437SOL    HW215945   2.893   4.253  13.066  0.3681  0.1750 -1.5838
 1438SOL     OW15946   2.263   4.058   8.701 -0.8839 -0.5793  0.1812
 1438SOL    HW115947   2.292   4.047   8.610 -1.3552 -2.2416  0.2414
 1438SOL    HW215948   2.239   4.150   8.686 -2.2423 -0.7872  1.0762
 1439SOL     OW15949   4.711   3.891  13.103 -0.1561 -0.0486 -0.3877
 1439SOL    HW115950   4.693   3.800  13.123 -0.5582 -0.1144 -1.0667
 1439SOL    HW215951   0.050   3.883  13.047 -0.6679 -0.9594 -0.9631
 1440SOL     OW15952   1.276   1.638   6.089  0.2026  0.1082  0.4481
 1440SOL    HW115953   1.349   1.577   6.082  0.2218 -0.0337  2.0966
 1440SOL    HW215954   1.304   1.686   6.167 -1.5390  1.4868  0.2458
 1441SOL     OW15955   0.844   0.606  14.413  0.3222  0.6929 -0.3141
 1441SOL    HW115956   0.759   0.629  14.375 -0.1196  0.6715  0.6790
 1441SOL    HW215957   0.845   0.656  14.494  1.4561 -0.9970  0.6959
 1442SOL     OW15958   1.731   2.119   9.588 -0.4154  0.4645  0.1041
 1442SOL    HW115959   1.715   2.167   9.506  1.0866  0.4981 -0.1619
 1442SOL    HW215960   1.714   2.030   9.557 -0.2514  0.0401  1.2284
 1443SOL     OW15961   3.342   2.840   4.684 -0.0304 -0.1039 -0.5845
 1443SOL    HW115962   3.371   2.789   4.608  3.5320  2.8087 -1.1560
 1443SOL    HW215963   3.388   2.920   4.659 -0.0219  0.7050  2.0541
 1444SOL     OW15964   4.148   4.016   2.342 -0.3080 -0.0213  0.2220
 1444SOL    HW115965   4.063   3.980   2.367  0.1402  0.0885  1.9362
 1444SOL    HW215966   4.123   4.061   2.262  0.5614  0.2672  0.1025
 1445SOL     OW15967   3.933   0.412   8.530  0.1880  0.2947  0.0439
 1445SOL    HW115968   3.841   0.383   8.524  0.1588 -0.2497  2.7979
 1445SOL    HW215969   3.946   0.434   8.438  1.9286 -0.8413  0.0241
 1446SOL     OW15970   4.441   0.855   6.543 -0.5437 -0.5909 -0.0017
 1446SOL    HW115971   4.509   0.876   6.480  0.2879 -1.8221  0.4691
 1446SOL    HW215972   4.398   0.940   6.552  0.0321 -0.2687 -0.3060
 1447SOL     OW15973   1.468   3.769   1.612 -0.2220  0.2914 -0.1284
 1447SOL    HW115974   1.555   3.755   1.652  1.2068  1.0178 -3.0131
 1447SOL    HW215975   1.474   3.864   1.610 -1.9688  0.4335  1.0152
 1448SOL     OW15976   3.544   3.398   1.988  0.5667  0.1279 -0.1021
 1448SOL    HW115977   3.450   3.418   1.986  0.8469  1.3789 -1.1053
 1448SOL    HW215978   3.534   3.309   1.955  0.2326 -0.3318  1.2628
 1449SOL     OW15979   2.215   0.272   6.904 -0.4713 -0.2922  0.4971
 1449SOL    HW115980   2.134   0.302   6.864  0.6441  1.5882 -0.3485
 1449SOL    HW215981   2.211   0.327   6.983 -0.5957  0.3010  0.0734
 1450SOL     OW15982   3.119   0.710  17.151  0.1149  0.2270 -0.3780
 1450SOL    HW115983   3.072   0.761  17.217 -2.4088 -1.9489 -0.5004
 1450SOL    HW215984   3.146   0.782  17.094  1.8128  0.6254  0.9463
 1451SOL     OW15985   2.048   0.255   8.529 -0.0460 -0.3688  0.8545
 1451SOL    HW115986   2.060   0.246   8.623  0.5294  0.3741  0.8537
 1451SOL    HW215987   1.955   0.277   8.532  0.0030  0.0699 -0.6065
 1452SOL     OW15988   2.242   2.666   1.263  1.0384 -0.2883  0.5982
 1452SOL    HW115989   2.297   2.645   1.338 -0.7405 -2.5925  1.2828
 1452SOL    HW215990   2.233   2.761   1.263  1.0108 -0.2780 -2.3407
 1453SOL     OW15991   1.502   2.735   6.532 -0.3259  1.0320  0.6856
 1453SOL    HW115992   1.467   2.687   6.607 -1.5004 -0.8367 -1.0698
 1453SOL    HW215993   1.459   2.697   6.455  1.0009 -1.8640  1.3669
 1454SOL     OW15994   2.446   4.179  15.857 -0.4307  0.0735 -0.0729
 1454SOL    HW115995   2.353   4.194  15.839  0.0405  0.7275 -1.9506
 1454SOL    HW215996   2.486   4.209  15.775  1.7130 -2.4061  0.0599
 1455SOL     OW15997   0.079   0.950   2.514 -0.0016  0.1031 -0.0850
 1455SOL    HW115998   0.088   0.901   2.432  0.4906  0.4413 -0.2332
 1455SOL    HW215999   4.728   0.920   2.533 -0.5872  3.0509  1.9030
 1456SOL     OW16000   2.351   4.146   4.569 -0.1427  0.4914  0.2515
 1456SOL    HW116001   2.285   4.083   4.598 -3.2412  2.3321 -2.6696
 1456SOL    HW216002   2.379   4.156   4.659 -0.5330 -1.4208  0.5866
 1457SOL     OW16003   0.112   3.534   5.284  0.7164  0.3976  1.0770
 1457SOL    HW116004   0.042   3.527   5.220 -0.6120 -0.4691  2.6244
 1457SOL    HW216005   0.187   3.542   5.224 -0.3515 -2.7680 -0.6708
 1458SOL     OW16006   2.217   0.763   6.845  0.2370 -0.1764 -0.8416
 1458SOL    HW116007   2.307   0.732   6.834  0.1995 -0.1477 -1.2165
 1458SOL    HW216008   2.187   0.756   6.755 -0.1713 -0.0356 -0.7171
 1459SOL     OW16009   1.887   4.005  16.370  0.2422 -0.8305 -0.1809
 1459SOL    HW116010   1.802   3.993  16.329  0.2540  0.9262 -0.7251
 1459SOL    HW216011   1.894   4.101  16.375  0.8586 -0.8766 -0.0976
 1460SOL     OW16012   1.431   1.852   0.165  0.4757  0.1724  0.4165
 1460SOL    HW116013   1.512   1.858   0.114 -0.1911  4.1549 -0.1985
 1460SOL    HW216014   1.361   1.822   0.108  1.0560  0.3993 -0.4153
 1461SOL     OW16015   4.099   4.147  13.797  0.5982 -0.1130 -0.2722
 1461SOL    HW116016   4.066   4.234  13.818 -2.9626 -1.5817  0.2201
 1461SOL    HW216017   4.109   4.111  13.885 -1.0631 -0.1517 -0.1039
 1462SOL     OW16018   0.892   0.983   5.061  0.1878 -0.0713  0.1501
 1462SOL    HW116019   0.901   1.078   5.070 -3.7021  0.5644 -2.5080
 1462SOL    HW216020   0.934   0.965   5.145 -1.2444  0.6326  1.0176
 1463SOL     OW16021   0.977   0.948   6.874 -0.5418  0.1850  0.1465
 1463SOL    HW116022   1.044   0.894   6.832  0.2480  2.8985 -2.0873
 1463SOL    HW216023   0.948   0.882   6.937 -0.2838  0.1299  0.2090
 1464SOL     OW16024   1.696   3.277   0.686  0.2937 -0.3407  0.0464
 1464SOL    HW116025   1.664   3.213   0.749  0.7073 -2.8830 -2.2898
 1464SOL    HW216026   1.680   3.241   0.598 -0.8380 -0.9838  0.5154
 1465SOL     OW16027   0.778   3.321  16.134  0.0244 -0.3165 -0.6747
 1465SOL    HW116028   0.690   3.314  16.172  0.7662 -0.0581  1.0803
 1465SOL    HW216029   0.772   3.273  16.051  0.7178 -2.6009  0.5910
 1466SOL     OW16030   0.487   2.616   7.314 -0.1377 -0.1370  0.5214
 1466SOL    HW116031   0.550   2.688   7.312 -0.0326 -0.2161  1.0316
 1466SOL    HW216032   0.538   2.553   7.366  0.7009 -0.5946 -0.8476
 1467SOL     OW16033   0.263   1.299   5.617 -0.4447  0.1682 -0.1256
 1467SOL    HW116034   0.179   1.255   5.632 -0.4471  0.2214  0.0090
 1467SOL    HW216035   0.231   1.377   5.571  0.6395  1.6219  1.5715
 1468SOL     OW16036   1.231   3.627   1.507 -0.1149 -0.0794  0.5322
 1468SOL    HW116037   1.266   3.674   1.582  1.4014  0.9830 -0.8447
 1468SOL    HW216038   1.285   3.652   1.432 -1.3360  2.0204  0.3489
 1469SOL     OW16039   2.761   0.217   8.878  0.0924  0.0839 -0.1452
 1469SOL    HW116040   2.794   0.254   8.959  2.9645 -0.1653 -1.2193
 1469SOL    HW216041   2.845   0.197   8.838 -0.6210  1.0616 -2.1322
 1470SOL     OW16042   4.702   3.199   1.833  0.4144  0.1372 -0.6058
 1470SOL    HW116043   0.032   3.135   1.853  1.0847  0.7227 -1.0304
 1470SOL    HW216044   4.634   3.146   1.791  0.9764 -0.5801 -0.6001
 1471SOL     OW16045   2.559   4.417   0.295  0.3880  0.0017 -0.8618
 1471SOL    HW116046   2.503   4.357   0.344 -0.4283  1.3160 -0.1887
 1471SOL    HW216047   2.646   4.382   0.313  0.3414 -0.0958 -0.8241
 1472SOL     OW16048   4.492   3.952   4.982 -0.4949  0.2795 -0.7439
 1472SOL    HW116049   4.430   3.895   4.937 -0.7207  0.2426 -0.3855
 1472SOL    HW216050   4.548   3.896   5.038 -1.9476 -0.8298 -0.4097
 1473SOL     OW16051   1.763   3.378   2.108 -0.2407 -0.1658 -0.1425
 1473SOL    HW116052   1.720   3.332   2.036  0.1882  0.6627 -0.9254
 1473SOL    HW216053   1.690   3.429   2.144  0.7679  0.3204  1.2101
 1474SOL     OW16054   3.797   0.091   1.785 -0.1522 -0.5780  0.3364
 1474SOL    HW116055   3.811   0.118   1.876  1.2404 -3.2609  0.9166
 1474SOL    HW216056   3.736   0.018   1.798  0.1011 -1.4104 -3.0566
 1475SOL     OW16057   0.807   2.352   2.130  0.0262  0.4623  0.3204
 1475SOL    HW116058   0.809   2.318   2.219 -1.1045  0.8626  0.4990
 1475SOL    HW216059   0.791   2.268   2.087  2.8039  1.4325 -2.5786
 1476SOL     OW16060   3.325   2.007   5.764  0.7001 -0.0997  0.4110
 1476SOL    HW116061   3.384   1.941   5.802 -1.6939 -0.9266  2.7583
 1476SOL    HW216062   3.260   1.957   5.715 -0.5997  1.6208  0.3850
 1477SOL     OW16063   0.723   3.048  14.231 -0.7230 -0.0609 -0.0529
 1477SOL    HW116064   0.668   3.001  14.293  1.1156 -0.8922  0.9337
 1477SOL    HW216065   0.761   3.116  14.287  1.4680 -0.3330 -1.2166
 1478SOL     OW16066   0.193   3.916   9.159 -0.5179  0.3471  0.3424
 1478SOL    HW116067   0.284   3.904   9.187 -0.9612  0.2483  1.7405
 1478SOL    HW216068   0.159   3.926   9.248  1.1225  0.4528  0.9564
 1479SOL     OW16069   3.163   4.577  10.353  0.8047  0.3513  0.4457
 1479SOL    HW116070   3.132   4.606  10.267  0.5571  0.8305  0.6962
 1479SOL    HW216071   3.115   4.495  10.357  2.0071 -0.3845 -0.3613
 1480SOL     OW16072   4.010   1.074   2.109  0.5454 -0.0304 -0.1624
 1480SOL    HW116073   3.981   1.016   2.039  0.3847  0.8322 -0.8096
 1480SOL    HW216074   4.030   1.155   2.062 -2.0472 -0.0676 -1.3448
 1481SOL     OW16075   1.628   0.445  16.042  0.3770  0.0601  0.2354
 1481SOL    HW116076   1.705   0.496  16.017 -0.8285  1.3932 -0.7957
 1481SOL    HW216077   1.632   0.374  15.978 -1.0025  1.4298 -1.3475
 1482SOL     OW16078   0.223   2.603   4.188  0.1417 -0.3089 -0.4227
 1482SOL    HW116079   0.315   2.626   4.189 -0.1510  0.9343 -1.7543
 1482SOL    HW216080   0.210   2.567   4.100 -1.4267 -0.9525  0.0661
 1483SOL     OW16081   0.122   0.467   3.609 -0.3520  0.2121  0.2733
 1483SOL    HW116082   0.129   0.420   3.692  0.5279  1.4637  0.9132
 1483SOL    HW216083   0.150   0.392   3.557  1.2882  0.8991  0.1438
 1484SOL     OW16084   0.207   2.997  14.725  0.3607 -0.3397 -0.7305
 1484SOL    HW116085   0.268   2.924  14.726  1.4839  0.6122  0.4407
 1484SOL    HW216086   0.270   3.060  14.760 -2.9492  0.9140  2.9873
 1485SOL     OW16087   0.984   2.680  15.505  0.4535 -0.3048 -0.1650
 1485SOL    HW116088   0.924   2.608  15.521 -0.3017  0.8393  2.1234
 1485SOL    HW216089   1.043   2.656  15.577  2.7401 -0.0244 -1.9395
 1486SOL     OW16090   4.634   0.102   8.858  0.7146  0.0785 -0.1377
 1486SOL    HW116091   4.639   0.059   8.943  0.1301 -1.8293 -1.0701
 1486SOL    HW216092   4.617   0.026   8.803  3.0263  0.0797 -0.8524
 1487SOL     OW16093   4.416   2.638   6.008 -0.6597 -0.1022  0.0349
 1487SOL    HW116094   4.406   2.544   5.996 -1.9147 -0.0045  0.3498
 1487SOL    HW216095   4.329   2.660   6.042 -0.1364 -0.1755  1.4213
 1488SOL     OW16096   0.659   2.422   4.520  0.5787  0.5919  0.0662
 1488SOL    HW116097   0.583   2.417   4.578 -1.1412 -1.6772 -2.4043
 1488SOL    HW216098   0.645   2.347   4.462  2.6309  1.4121 -1.4891
 1489SOL     OW16099   3.424   3.455   1.666  0.0508 -0.6516  0.1290
 1489SOL    HW116100   3.332   3.446   1.641  0.1560 -1.1194 -0.0806
 1489SOL    HW216101   3.426   3.395   1.740  1.1446 -1.1002 -0.2627
 1490SOL     OW16102   1.515   2.988   8.025 -0.0511 -0.2429  0.0649
 1490SOL    HW116103   1.505   2.905   7.977 -3.1079  0.5635 -0.6681
 1490SOL    HW216104   1.608   3.003   8.042 -0.6854  1.5222  1.9051
 1491SOL     OW16105   3.510   3.088  16.821 -0.4849  0.0326 -0.2636
 1491SOL    HW116106   3.588   3.143  16.821  0.2791 -1.0348  0.1718
 1491SOL    HW216107   3.544   3.021  16.761  3.0631  1.1340  0.5196
 1492SOL     OW16108   3.873   4.014  12.795 -0.3549 -0.3704 -0.0538
 1492SOL    HW116109   3.864   3.920  12.779  1.8617 -0.6465  0.3014
 1492SOL    HW216110   3.880   4.046  12.705  0.7797  1.3776  0.6615
 1493SOL     OW16111   2.512   4.074  16.657 -0.0878 -0.8746  0.4041
 1493SOL    HW116112   2.430   4.027  16.670  0.0935 -1.8924 -2.0713
 1493SOL    HW216113   2.490   4.152  16.706 -1.9314 -0.1427 -1.5849
 1494SOL     OW16114   2.133   1.441   4.427  0.0968  0.4043 -0.3175
 1494SOL    HW116115   2.064   1.391   4.470  0.8894 -0.2347  0.2196
 1494SOL    HW216116   2.171   1.483   4.503 -1.2614 -0.5717  0.9065
 1495SOL     OW16117   2.247   0.990  10.740  0.2269 -0.1891  0.1067
 1495SOL    HW116118   2.183   1.060  10.756  1.2438  0.9332 -0.6949
 1495SOL    HW216119   2.295   0.989  10.823 -0.0331  1.8775  0.2812
 1496SOL     OW16120   1.534   2.033   8.326 -0.3727  0.0654  0.0977
 1496SOL    HW116121   1.576   2.010   8.410  0.3572  1.2390  0.0538
 1496SOL    HW216122   1.608   2.084   8.294 -2.6232  0.8240 -3.8954
 1497SOL     OW16123   3.254   4.355   5.565  0.1950  0.3080 -0.1653
 1497SOL    HW116124   3.253   4.357   5.470 -0.4104 -0.6320 -0.1803
 1497SOL    HW216125   3.336   4.314   5.594 -0.3241 -3.2057 -3.7956
 1498SOL     OW16126   3.649   3.002   8.624 -0.0242 -0.1194  0.8865
 1498SOL    HW116127   3.666   2.928   8.682  0.6189 -1.4786 -1.0540
 1498SOL    HW216128   3.576   3.042   8.671  1.4716  0.6979  2.4923
 1499SOL     OW16129   0.099   0.935   5.680 -0.1261 -0.1376 -0.1937
 1499SOL    HW116130   0.171   0.904   5.736 -1.9323 -0.6827  1.8414
 1499SOL    HW216131   0.025   0.877   5.698 -0.5946  0.1055 -1.3900
 1500SOL     OW16132   2.236   0.800   4.184 -0.4579 -0.5259  0.0770
 1500SOL    HW116133   2.213   0.717   4.226 -0.3307 -0.3570  0.4857
 1500SOL    HW216134   2.329   0.796   4.162 -0.4401 -0.3219  0.1159
 1501SOL     OW16135   3.780   2.557   7.511  0.2213 -0.6519 -0.0712
 1501SOL    HW116136   3.691   2.585   7.487 -0.0119 -2.0050 -0.7815
 1501SOL    HW216137   3.773   2.464   7.490 -1.4937 -0.3256 -0.9714
 1502SOL     OW16138   3.995   2.497   1.733 -0.1605  0.4630 -0.2504
 1502SOL    HW116139   3.947   2.580   1.740 -1.1939 -0.1337 -0.3253
 1502SOL    HW216140   4.084   2.522   1.707 -0.1958  0.5331 -0.3060
 1503SOL     OW16141   1.514   4.561   8.754 -0.1883  0.0189 -0.5990
 1503SOL    HW116142   1.556   4.600   8.830 -0.1202 -1.9580  0.3772
 1503SOL    HW216143   1.575   4.590   8.687  0.7554  1.7746  1.0354
 1504SOL     OW16144   0.295   0.594   3.292  0.0623  0.1900  0.5541
 1504SOL    HW116145   0.258   0.682   3.308  1.5760  0.8802  0.2378
 1504SOL    HW216146   0.220   0.537   3.311  1.3126 -1.9393 -0.9982
 1505SOL     OW16147   0.456   1.790  14.687 -0.4433  0.6793  0.0686
 1505SOL    HW116148   0.392   1.814  14.620 -0.5195 -2.4145 -0.9658
 1505SOL    HW216149   0.461   1.868  14.742 -1.2371 -0.6170  1.9702
 1506SOL     OW16150   1.306   0.097  10.588 -0.9010  0.3690 -0.3005
 1506SOL    HW116151   1.401   0.102  10.585 -1.3158  6.1048 -3.9497
 1506SOL    HW216152   1.291   0.106  10.494  2.0460 -0.5291 -0.8460
 1507SOL     OW16153   0.097   0.543   1.796 -0.1215  0.0988  0.5965
 1507SOL    HW116154   0.105   0.450   1.815  2.0729 -0.3202 -2.2051
 1507SOL    HW216155   0.023   0.543   1.735 -0.5920  0.2346  1.1779
 1508SOL     OW16156   1.059   0.548   4.879  0.2363  1.0882 -0.1110
 1508SOL    HW116157   1.141   0.579   4.917 -1.1266  2.9278  1.3026
 1508SOL    HW216158   1.093   0.549   4.789 -1.5680 -0.0032 -0.8011
 1509SOL     OW16159   0.814   2.161  11.851  0.0413  0.3486 -0.2902
 1509SOL    HW116160   0.895   2.181  11.898 -0.5938  0.0698  0.9260
 1509SOL    HW216161   0.772   2.247  11.838 -0.3904  0.4905  2.0643
 1510SOL     OW16162   1.451   0.586  14.702  0.1616 -0.2734 -0.0847
 1510SOL    HW116163   1.383   0.607  14.767  0.8991  1.1153  0.2379
 1510SOL    HW216164   1.414   0.509  14.660 -0.6582 -0.9496  1.8774
 1511SOL     OW16165   2.208   0.371   7.151 -0.4242 -0.2187 -0.8353
 1511SOL    HW116166   2.250   0.455   7.136  0.7795 -0.6239  0.2689
 1511SOL    HW216167   2.252   0.345   7.232 -0.4210 -2.0831 -1.4296
 1512SOL     OW16168   3.263   4.662   6.502  0.1526 -0.1402 -0.0282
 1512SOL    HW116169   3.223   4.592   6.450  0.8690  0.1023 -0.8850
 1512SOL    HW216170   3.182   4.712   6.517  0.7137  1.1535 -1.3905
 1513SOL     OW16171   4.378   0.837   8.629  0.0295  0.0712  0.0872
 1513SOL    HW116172   4.367   0.922   8.671 -1.6420 -0.8507  1.5005
 1513SOL    HW216173   4.403   0.863   8.540 -1.5479  0.3458 -0.2732
 1514SOL     OW16174   1.235   3.632   7.840 -0.5430 -0.4840 -0.3196
 1514SOL    HW116175   1.321   3.599   7.864 -0.0505  0.6925 -0.5101
 1514SOL    HW216176   1.179   3.586   7.902 -0.5371  0.7657  0.5999
 1515SOL     OW16177   3.166   1.316   7.746 -0.2527 -0.1508  0.3950
 1515SOL    HW116178   3.109   1.303   7.822  0.2952  0.1275  0.8486
 1515SOL    HW216179   3.106   1.299   7.673  1.5440 -1.1393 -0.8382
 1516SOL     OW16180   2.736   2.632   9.001 -0.2034 -0.0937 -0.4000
 1516SOL    HW116181   2.712   2.715   8.959 -0.8801 -0.2359 -0.2964
 1516SOL    HW216182   2.702   2.562   8.945  2.2927 -2.2349  0.7536
 1517SOL     OW16183   1.575   4.554   0.060  0.3849 -0.1173 -0.6085
 1517SOL    HW116184   1.515   4.494   0.104 -2.4255  1.2767 -2.5259
 1517SOL    HW216185   1.514   4.628   0.053 -1.1224 -0.8788  4.3646
 1518SOL     OW16186   3.514   4.191  11.618 -0.1178 -0.3065 -0.4234
 1518SOL    HW116187   3.608   4.176  11.605 -0.3111 -1.1601 -0.8349
 1518SOL    HW216188   3.491   4.243  11.541 -1.8797  0.6714  0.7512
 1519SOL     OW16189   4.389   0.059   2.746  0.2114  0.0378 -0.1365
 1519SOL    HW116190   4.403   0.151   2.721  0.4187 -0.1321 -0.6367
 1519SOL    HW216191   4.436   0.022   2.671 -1.4738 -0.0059 -1.1741
 1520SOL     OW16192   1.011   2.637   3.457  0.0251  0.1158  0.3869
 1520SOL    HW116193   1.071   2.677   3.519 -1.2658  1.3824  0.8342
 1520SOL    HW216194   1.024   2.694   3.381  0.4446 -0.5368 -0.0265
 1521SOL     OW16195   1.037   1.943   1.528 -0.3680 -0.4608  0.2516
 1521SOL    HW116196   1.073   1.962   1.441 -0.2168  0.8443  0.6001
 1521SOL    HW216197   1.016   1.850   1.520  1.7657 -0.9427  0.1998
 1522SOL     OW16198   2.209   0.060   5.664  0.7010 -0.6698  0.3486
 1522SOL    HW116199   2.292   0.101   5.691  0.4898 -0.5316  0.7970
 1522SOL    HW216200   2.159   0.114   5.725 -1.9008 -2.7869  0.0581
 1523SOL     OW16201   3.059   4.484   9.419 -0.6655 -0.3603  0.2091
 1523SOL    HW116202   3.095   4.532   9.494 -1.1446  0.4674 -0.0896
 1523SOL    HW216203   3.077   4.545   9.348  1.4045  1.4021  2.2757
 1524SOL     OW16204   0.641   2.874   6.736 -0.8324 -0.4738  0.2193
 1524SOL    HW116205   0.671   2.785   6.718 -1.8718 -1.0986  1.6152
 1524SOL    HW216206   0.715   2.926   6.704  0.4599 -1.5197  1.5143
 1525SOL     OW16207   3.462   4.277   5.759  0.2563  0.7331 -0.1444
 1525SOL    HW116208   3.509   4.283   5.842  1.4822 -1.6349 -0.6679
 1525SOL    HW216209   3.439   4.185   5.751  0.1800  0.8634 -1.4383
 1526SOL     OW16210   0.802   3.037   1.953 -0.4349  0.0302  0.4602
 1526SOL    HW116211   0.762   3.038   2.040 -0.1169  0.0208  0.6074
 1526SOL    HW216212   0.803   3.131   1.933 -2.2232 -0.1240 -0.3716
 1527SOL     OW16213   2.747   0.617   4.091 -0.6532  0.1353  0.2565
 1527SOL    HW116214   2.776   0.532   4.060 -0.2974 -0.0992  1.2138
 1527SOL    HW216215   2.786   0.635   4.177 -0.0203 -2.5136  0.5288
 1528SOL     OW16216   4.416   3.152   4.710  0.1008  0.8422 -0.4882
 1528SOL    HW116217   4.400   3.212   4.637  1.1063  0.3200 -1.1441
 1528SOL    HW216218   4.481   3.208   4.753  0.6085  0.9749 -1.4166
 1529SOL     OW16219   1.537   0.896   8.020 -0.2436 -0.1591 -0.2080
 1529SOL    HW116220   1.546   0.936   8.106 -1.9185 -0.6959  0.2162
 1529SOL    HW216221   1.542   0.975   7.966  1.5160  0.3751  0.7434
 1530SOL     OW16222   2.374   0.170   8.630  0.0925 -0.2152 -0.5318
 1530SOL    HW116223   2.280   0.166   8.613  0.0419 -2.4043  0.2841
 1530SOL    HW216224   2.377   0.165   8.725  2.2192  1.6288 -0.5094
 1531SOL     OW16225   3.043   3.472   8.334  0.3001  0.2488  0.4616
 1531SOL    HW116226   3.000   3.490   8.250  3.1090 -1.3633 -1.3110
 1531SOL    HW216227   3.092   3.393   8.314  1.1067  0.7898  0.3209
 1532SOL     OW16228   0.281   0.491   8.990  0.6571  0.4357 -0.0186
 1532SOL    HW116229   0.325   0.569   9.026 -0.1881 -0.2881  2.5448
 1532SOL    HW216230   0.191   0.517   8.972  1.1479  2.1958 -0.0086
 1533SOL     OW16231   0.171   2.465   8.468  0.5018  0.2973  0.3351
 1533SOL    HW116232   0.178   2.446   8.374  1.7774  0.4455  0.3949
 1533SOL    HW216233   0.218   2.386   8.496  0.7177  0.6482  0.9367
 1534SOL     OW16234   0.645   1.073   2.664  0.0385 -0.4005  0.2120
 1534SOL    HW116235   0.613   1.030   2.744  1.7067 -1.2532  0.4099
 1534SOL    HW216236   0.629   1.005   2.599 -1.1053 -0.3840  0.4586
 1535SOL     OW16237   1.166   2.074  10.909 -0.8069 -0.1019 -0.0524
 1535SOL    HW116238   1.181   1.995  10.961  0.7503  0.4997  0.4121
 1535SOL    HW216239   1.231   2.137  10.942 -1.3483 -1.0626  2.8606
 1536SOL     OW16240   1.535   3.498   9.497 -0.6394  0.6397 -0.1057
 1536SOL    HW116241   1.466   3.451   9.545  0.2997 -0.4842  0.1470
 1536SOL    HW216242   1.475   3.563   9.459  1.8752  3.1115  0.1076
 1537SOL     OW16243   1.993   1.949   4.705  0.4279 -0.0072 -0.2905
 1537SOL    HW116244   1.910   1.916   4.742 -0.8704  2.4915 -0.9996
 1537SOL    HW216245   1.960   2.012   4.642  0.7440 -1.6384 -2.1006
 1538SOL     OW16246   1.445   3.290   3.865  0.0092  0.3682 -0.7248
 1538SOL    HW116247   1.410   3.273   3.778 -2.8367  3.7031 -0.2560
 1538SOL    HW216248   1.510   3.221   3.870  0.5985  0.9321 -0.6442
 1539SOL     OW16249   1.841   3.550   5.796 -0.4962 -0.2001 -0.1090
 1539SOL    HW116250   1.815   3.459   5.811 -0.1992 -0.2939 -0.1752
 1539SOL    HW216251   1.754   3.588   5.780 -0.6099  1.0315  3.4058
 1540SOL     OW16252   2.728   0.227   6.182 -0.4943  0.4198 -0.1661
 1540SOL    HW116253   2.709   0.321   6.181 -2.6414 -0.0410 -0.9440
 1540SOL    HW216254   2.812   0.220   6.228 -0.8842 -0.8714  0.3446
 1541SOL     OW16255   0.198   4.186   6.683 -0.5255  0.2376  0.1360
 1541SOL    HW116256   0.291   4.168   6.667 -0.3099  1.4288  0.0419
 1541SOL    HW216257   0.175   4.095   6.703 -0.6236 -0.0571 -1.3753
 1542SOL     OW16258   2.267   0.117   8.952 -0.0908  0.0062 -0.1858
 1542SOL    HW116259   2.286   0.188   9.013 -2.6406 -1.9253  2.8813
 1542SOL    HW216260   2.352   0.073   8.944  0.3080  1.0427 -1.8681
 1543SOL     OW16261   3.002   0.527   3.989  0.1021 -0.4336 -0.3036
 1543SOL    HW116262   3.083   0.560   4.027 -0.4346  0.4940  0.0474
 1543SOL    HW216263   2.978   0.478   4.067 -0.6420  0.4944  0.0449
 1544SOL     OW16264   0.615   2.157  15.298  0.3515 -0.4034  0.0147
 1544SOL    HW116265   0.648   2.123  15.382  0.2581 -1.8920 -0.5543
 1544SOL    HW216266   0.683   2.219  15.270 -0.6751  0.5270 -0.4017
 1545SOL     OW16267   1.073   3.969   5.913 -0.5091 -0.0212 -0.4046
 1545SOL    HW116268   0.992   4.019   5.920 -0.4345 -0.1672  1.6633
 1545SOL    HW216269   1.072   3.894   5.972  2.1729  0.5654  0.3901
 1546SOL     OW16270   0.134   2.548  11.998 -0.2896  0.8371  0.1241
 1546SOL    HW116271   0.172   2.559  11.911 -0.8806 -1.5072 -0.4207
 1546SOL    HW216272   0.139   2.453  12.004 -3.0630  0.7042  0.4897
 1547SOL     OW16273   3.145   1.642   5.539  0.2171 -0.6479 -0.7631
 1547SOL    HW116274   3.110   1.624   5.451 -0.5002 -0.4013 -0.5255
 1547SOL    HW216275   3.231   1.605   5.520  0.8281 -0.2328  1.2682
 1548SOL     OW16276   3.511   0.367  10.992 -0.2455 -0.0695  0.1181
 1548SOL    HW116277   3.507   0.453  11.031 -0.6051  0.2342 -0.5729
 1548SOL    HW216278   3.502   0.300  11.060 -0.1562 -0.3669 -0.1591
 1549SOL     OW16279   4.392   4.323   8.145  0.4192  0.6023  0.4844
 1549SOL    HW116280   4.421   4.406   8.106  1.6417 -0.4746 -0.9199
 1549SOL    HW216281   4.413   4.337   8.237 -0.5936 -0.8261  0.9379
 1550SOL     OW16282   2.532   4.186  12.006 -0.1212  0.2638  0.7083
 1550SOL    HW116283   2.460   4.190  11.943  0.5376 -0.4759 -0.1053
 1550SOL    HW216284   2.497   4.113  12.058  0.2560  0.5932  1.4221
 1551SOL     OW16285   4.487   2.763  17.018 -0.5890  0.3296 -0.2898
 1551SOL    HW116286   4.419   2.799  17.076  0.3925  0.4819  0.7569
 1551SOL    HW216287   4.453   2.796  16.935 -2.8225  1.7107  1.1613
 1552SOL     OW16288   1.156   1.214   8.297 -0.4775 -0.1556  0.3354
 1552SOL    HW116289   1.137   1.230   8.204 -0.2754 -2.5722 -0.1237
 1552SOL    HW216290   1.080   1.163   8.325 -1.9445  0.4552 -2.5451
 1553SOL     OW16291   1.531   2.338   2.377 -0.4672 -0.6062  0.5409
 1553SOL    HW116292   1.466   2.335   2.307 -1.8505 -2.1340  1.8723
 1553SOL    HW216293   1.589   2.266   2.351  0.6204 -0.2897  2.0912
 1554SOL     OW16294   0.333   3.317   5.582  0.8390 -0.7653  0.1429
 1554SOL    HW116295   0.370   3.274   5.658  1.8063 -0.4632 -0.1565
 1554SOL    HW216296   0.392   3.392   5.570 -2.0290  1.2453 -1.6650
 1555SOL     OW16297   4.333   1.992   8.435  0.1470  0.0610 -0.3671
 1555SOL    HW116298   4.245   2.030   8.427 -0.5705 -1.1211  1.8949
 1555SOL    HW216299   4.329   1.932   8.361 -0.6625  0.5605 -0.7384
 1556SOL     OW16300   4.126   3.823   9.460 -0.3168  0.4532  1.0718
 1556SOL    HW116301   4.191   3.782   9.517 -0.7476 -0.4323  0.9182
 1556SOL    HW216302   4.154   3.913   9.481  2.0081  0.0724 -0.4547
 1557SOL     OW16303   1.214   4.065   1.900  0.2042 -0.5217 -0.1180
 1557SOL    HW116304   1.131   4.075   1.947  0.6745 -0.7762  0.7588
 1557SOL    HW216305   1.166   4.025   1.827  0.9095 -2.6231  0.5694
 1558SOL     OW16306   0.124   3.753   6.337 -0.7605  0.3453 -0.2523
 1558SOL    HW116307   0.037   3.794   6.329 -0.7354  0.0430 -2.0770
 1558SOL    HW216308   0.176   3.829   6.361 -0.8604  0.3388 -0.0201
 1559SOL     OW16309   1.399   2.414  11.660 -0.1863 -0.3564  0.6791
 1559SOL    HW116310   1.348   2.422  11.741 -0.5618 -0.1126  0.4155
 1559SOL    HW216311   1.354   2.344  11.613 -1.3539  0.8797 -0.0292
 1560SOL     OW16312   2.080   2.399   1.795 -0.2420 -0.5113  0.1725
 1560SOL    HW116313   2.156   2.410   1.853 -1.0621  2.9184  0.5882
 1560SOL    HW216314   2.101   2.314   1.756  2.4797 -0.7348  2.1484
 1561SOL     OW16315   2.883   0.072   7.369 -1.2301 -0.0018 -0.2842
 1561SOL    HW116316   2.968   0.029   7.367 -1.6550 -0.8524  0.1018
 1561SOL    HW216317   2.874   0.133   7.295 -0.9426 -0.8054 -0.9854
 1562SOL     OW16318   4.201   1.141   1.860  0.1230 -0.1042  0.3725
 1562SOL    HW116319   4.244   1.163   1.943  1.4760 -1.3979  0.0065
 1562SOL    HW216320   4.245   1.059   1.836 -1.1222 -0.3698 -0.9691
 1563SOL     OW16321   2.534   2.714   0.771 -0.0330  0.3554 -0.7056
 1563SOL    HW116322   2.610   2.677   0.816 -0.5655  0.5428  0.3487
 1563SOL    HW216323   2.479   2.638   0.788 -1.2628  1.6385  1.0651
 1564SOL     OW16324   4.585   0.914   3.507 -0.4775  0.3341  0.2493
 1564SOL    HW116325   4.593   0.818   3.507  0.7148  0.4383 -1.7064
 1564SOL    HW216326   4.666   0.940   3.551 -2.2659  2.0191  2.5392
 1565SOL     OW16327   3.051   4.398   8.977 -0.6248  0.3197 -0.5932
 1565SOL    HW116328   3.076   4.311   8.947 -3.1194 -1.3770  2.1797
 1565SOL    HW216329   3.111   4.448   8.922 -0.3516 -2.1167 -2.5159
 1566SOL     OW16330   0.816   3.905   1.252  0.4428  0.1452  0.6476
 1566SOL    HW116331   0.803   3.810   1.259 -0.7983  0.2768  0.1805
 1566SOL    HW216332   0.907   3.912   1.279  0.3645  1.2349  0.6030
 1567SOL     OW16333   3.542   0.842   4.024 -0.1607 -0.1671 -0.0286
 1567SOL    HW116334   3.577   0.759   3.991  0.9930  1.3761 -2.6755
 1567SOL    HW216335   3.619   0.898   4.036 -1.1044  0.8598  1.1863
 1568SOL     OW16336   2.592   0.094   4.932  0.5709 -0.1044 -0.5669
 1568SOL    HW116337   2.605   0.012   4.979  0.3374 -0.2139 -0.6948
 1568SOL    HW216338   2.582   0.157   5.004 -0.3208 -1.9894  0.9351
 1569SOL     OW16339   1.557   4.105   8.688 -0.4279 -1.0520 -0.1969
 1569SOL    HW116340   1.497   4.164   8.732 -0.8983 -2.2909  0.8377
 1569SOL    HW216341   1.626   4.077   8.749 -0.1071  2.1065  0.8984
 1570SOL     OW16342   1.842   4.133   3.472  0.8904 -0.2607 -0.2124
 1570SOL    HW116343   1.773   4.085   3.518 -0.8005  0.1020 -2.3922
 1570SOL    HW216344   1.813   4.224   3.468  1.0432 -0.0542  3.4641
 1571SOL     OW16345   2.052   0.751  10.309  0.2209 -0.5951 -0.6668
 1571SOL    HW116346   1.960   0.769  10.328  0.5669  1.9558 -1.4653
 1571SOL    HW216347   2.098   0.821  10.355 -0.7876 -1.2562  1.3255
 1572SOL     OW16348   4.257   3.419   6.737 -0.1129  0.6114  0.3684
 1572SOL    HW116349   4.317   3.492   6.722  0.4233  0.2092  0.5684
 1572SOL    HW216350   4.178   3.472   6.749 -0.8186 -0.1873 -0.7865
 1573SOL     OW16351   1.724   1.110   1.653 -0.0126 -0.2689  0.0540
 1573SOL    HW116352   1.793   1.045   1.662 -1.4578 -1.6643  1.1151
 1573SOL    HW216353   1.662   1.052   1.608 -0.7210  1.1865 -0.8402
 1574SOL     OW16354   3.248   3.798   3.600  0.4105 -0.0185  0.4812
 1574SOL    HW116355   3.304   3.835   3.532 -2.4060  0.0901 -1.8010
 1574SOL    HW216356   3.183   3.864   3.624 -0.7155 -0.6809 -0.7349
 1575SOL     OW16357   4.025   2.948   5.998  0.3139  0.1002 -1.2247
 1575SOL    HW116358   4.110   2.909   5.978  0.7831  0.1980  0.6126
 1575SOL    HW216359   4.058   3.038   6.009  2.3227 -0.6641 -0.9438
 1576SOL     OW16360   2.958   0.526   9.258 -0.3106  0.2226 -0.1980
 1576SOL    HW116361   2.920   0.602   9.213 -0.9603 -0.8985 -1.5613
 1576SOL    HW216362   3.053   0.537   9.260 -0.2432 -0.3790 -0.0622
 1577SOL     OW16363   0.347   1.564   0.640  0.3121  0.0331 -0.1274
 1577SOL    HW116364   0.281   1.588   0.705  0.6937 -1.7293  0.9214
 1577SOL    HW216365   0.388   1.647   0.616 -0.0764 -0.0412 -1.0458
 1578SOL     OW16366   2.292   3.510   5.786 -0.5588 -0.3848 -0.1400
 1578SOL    HW116367   2.246   3.493   5.869  1.6469 -1.6029  0.8306
 1578SOL    HW216368   2.311   3.603   5.797 -3.5587  0.1314  0.7172
 1579SOL     OW16369   0.050   4.637  16.091 -0.0889 -0.0601 -0.1155
 1579SOL    HW116370   0.076   4.689  16.015 -1.4114  0.8035  0.0319
 1579SOL    HW216371   0.067   4.689  16.170  1.3121 -1.3353  0.4402
 1580SOL     OW16372   1.756   3.251   1.655  0.2625 -0.3621  0.0804
 1580SOL    HW116373   1.836   3.297   1.680 -1.8427  2.5185  1.5611
 1580SOL    HW216374   1.781   3.188   1.588 -0.0875  0.0159 -0.4045
 1581SOL     OW16375   0.476   2.278  17.400  0.3232  0.2107  0.5539
 1581SOL    HW116376   0.421   2.347  17.437 -1.3233 -0.2450 -1.0633
 1581SOL    HW216377   0.561   2.291  17.442 -0.0308  1.8951  0.7181
 1582SOL     OW16378   1.641   0.163   1.804  0.4822 -0.3989  0.1478
 1582SOL    HW116379   1.546   0.148   1.798  0.1263  0.8817  2.3589
 1582SOL    HW216380   1.680   0.076   1.800 -0.4953 -0.8134 -0.3272
 1583SOL     OW16381   3.171   0.871   2.549 -0.0169 -0.0190  0.3550
 1583SOL    HW116382   3.225   0.808   2.598  1.1340 -0.6570 -1.7389
 1583SOL    HW216383   3.215   0.953   2.570  2.4851 -1.3220  0.2414
 1584SOL     OW16384   0.366   2.270   3.960  0.1481  0.3406 -0.1337
 1584SOL    HW116385   0.441   2.239   4.010  0.9343 -0.1775 -1.6312
 1584SOL    HW216386   0.387   2.357   3.926 -2.3667  1.2041  0.5019
 1585SOL     OW16387   1.043   3.344   5.973  0.8146 -0.4213 -0.0868
 1585SOL    HW116388   1.111   3.356   6.039  1.0053  1.3086 -0.5915
 1585SOL    HW216389   1.074   3.267   5.926  4.1219  1.8568 -1.6396
 1586SOL     OW16390   2.603   4.063  12.962  0.1655 -0.3278 -0.3289
 1586SOL    HW116391   2.692   4.030  12.949 -0.4683 -2.5980  0.9925
 1586SOL    HW216392   2.627   4.154  12.944  0.2369 -0.2087  0.3512
 1587SOL     OW16393   0.642   4.477   5.273  0.0529  0.3098  0.0326
 1587SOL    HW116394   0.592   4.414   5.326 -2.5790  1.0480 -1.5886
 1587SOL    HW216395   0.563   4.529   5.257 -0.7770 -1.7193 -2.4078
 1588SOL     OW16396   4.301   1.491  10.590  0.0566 -0.1408 -0.3004
 1588SOL    HW116397   4.244   1.418  10.567  0.5536  0.3374 -3.0264
 1588SOL    HW216398   4.373   1.450  10.637 -0.0863 -0.9887 -0.8222
 1589SOL     OW16399   3.857   2.156   7.884 -0.3624  0.1035 -0.3654
 1589SOL    HW116400   3.803   2.233   7.900  0.2826  0.2964  0.8333
 1589SOL    HW216401   3.886   2.179   7.795  0.2766  2.3679  0.4354
 1590SOL     OW16402   1.568   1.690   3.077  0.1146  0.2935  0.5637
 1590SOL    HW116403   1.528   1.775   3.098 -0.7998  0.5722 -2.2629
 1590SOL    HW216404   1.641   1.713   3.020 -0.4936 -0.3299 -0.4746
 1591SOL     OW16405   3.639   1.635  15.281 -0.0556 -0.1412  0.2936
 1591SOL    HW116406   3.638   1.715  15.334 -0.5746 -0.3768  0.6376
 1591SOL    HW216407   3.583   1.671  15.213  1.4076  1.0042 -0.3066
 1592SOL     OW16408   4.381   2.615   8.156  0.5371 -0.0446 -0.0081
 1592SOL    HW116409   4.463   2.660   8.137  0.6725  0.1042  0.9428
 1592SOL    HW216410   4.322   2.670   8.104  0.0138  1.1632  1.8645
 1593SOL     OW16411   1.264   3.832   2.782 -0.4072  0.0056  0.0625
 1593SOL    HW116412   1.279   3.926   2.770 -3.0062  0.5623  1.0575
 1593SOL    HW216413   1.268   3.834   2.878  1.1523  1.4932 -0.0348
 1594SOL     OW16414   1.154   0.708   2.670  0.2826 -0.0672 -0.4477
 1594SOL    HW116415   1.201   0.768   2.728  1.2171 -0.9226 -0.3373
 1594SOL    HW216416   1.061   0.719   2.689  0.1830  2.6052 -2.4403
 1595SOL     OW16417   1.856   4.461   5.070 -0.0678 -0.3213  0.2629
 1595SOL    HW116418   1.841   4.505   4.986  0.0732  0.3977  0.6192
 1595SOL    HW216419   1.940   4.501   5.092 -0.4811 -0.3667  1.9297
 1596SOL     OW16420   2.088   3.048   8.915  0.5283  0.0513 -0.5512
 1596SOL    HW116421   2.048   3.005   8.991  0.6510 -0.1097 -0.5777
 1596SOL    HW216422   2.092   2.976   8.851 -1.7419  0.1724 -0.8578
 1597SOL     OW16423   1.250   0.328  11.834  0.8009  0.4241  0.3163
 1597SOL    HW116424   1.247   0.261  11.766 -0.2459  1.5046 -0.7087
 1597SOL    HW216425   1.161   0.362  11.833 -0.0341 -1.7582  0.4342
 1598SOL     OW16426   4.708   2.586   1.783 -0.1991 -0.1107  0.6262
 1598SOL    HW116427   4.685   2.555   1.870 -0.0051  0.2986  0.8268
 1598SOL    HW216428   0.060   2.617   1.795 -0.1307 -0.0063 -0.1969
 1599SOL     OW16429   0.775   3.263   6.847 -0.2459 -0.3118  0.4851
 1599SOL    HW116430   0.773   3.190   6.784 -2.7975 -0.3369  0.6333
 1599SOL    HW216431   0.817   3.330   6.792  0.3150  0.2241  1.5653
 1600SOL     OW16432   4.577   3.494   5.228  0.3021  0.5144 -0.8288
 1600SOL    HW116433   4.517   3.498   5.303  1.0584 -0.8001 -0.1632
 1600SOL    HW216434   4.519   3.453   5.164  1.1877  0.3873 -1.5383
 1601SOL     OW16435   3.911   4.293  14.933 -0.3323  0.6899 -0.1915
 1601SOL    HW116436   3.883   4.290  14.841  0.9250 -1.7244 -0.4889
 1601SOL    HW216437   3.874   4.370  14.975 -1.3814 -0.5461  1.1443
 1602SOL     OW16438   4.620   0.293   5.335  0.1626 -0.4351 -0.6457
 1602SOL    HW116439   4.554   0.331   5.393  1.4446  0.9904 -0.1118
 1602SOL    HW216440   4.678   0.253   5.400 -0.7267 -0.8263 -0.1107
 1603SOL     OW16441   3.363   0.315  17.079 -0.2954  0.2370  0.4285
 1603SOL    HW116442   3.269   0.308  17.060  0.0343  0.7466 -1.3258
 1603SOL    HW216443   3.362   0.314  17.175  1.7617 -2.7615  0.4116
 1604SOL     OW16444   2.710   2.174   8.606  0.5554  0.5579  0.6143
 1604SOL    HW116445   2.789   2.166   8.659  1.1123 -1.5013 -0.5227
 1604SOL    HW216446   2.705   2.088   8.564 -1.2980 -0.1975  2.3806
 1605SOL     OW16447   4.551   1.842   4.430 -0.1546  0.0665  0.1790
 1605SOL    HW116448   4.572   1.839   4.524  1.3979  4.9269 -0.0716
 1605SOL    HW216449   4.629   1.809   4.386  0.6697  2.9933 -0.4841
 1606SOL     OW16450   0.306   0.035   8.325 -0.5240 -0.3379  0.5829
 1606SOL    HW116451   0.215   0.009   8.315 -0.3376 -0.3520 -0.9862
 1606SOL    HW216452   0.314   0.109   8.265  0.2328 -1.4602 -0.6829
 1607SOL     OW16453   2.126   1.709   4.412  0.3913 -0.7739 -0.2802
 1607SOL    HW116454   2.185   1.751   4.349  0.0523  0.3021  0.1111
 1607SOL    HW216455   2.114   1.619   4.382 -0.2425 -1.4760  2.0464
 1608SOL     OW16456   3.639   2.235  15.754 -0.4127 -0.6674  0.0078
 1608SOL    HW116457   3.612   2.327  15.754 -1.2821 -0.9238  0.5892
 1608SOL    HW216458   3.595   2.197  15.830 -2.4993  1.1373 -0.2959
 1609SOL     OW16459   4.327   4.277  12.682  0.4297  0.8468 -0.3682
 1609SOL    HW116460   4.388   4.305  12.614  1.1082 -0.6555 -0.3735
 1609SOL    HW216461   4.382   4.259  12.758 -2.2644 -0.5245  1.2527
 1610SOL     OW16462   2.543   0.016   0.987  0.0852  0.8536  0.1418
 1610SOL    HW116463   2.551   0.100   1.031  1.1072 -0.5061  2.5698
 1610SOL    HW216464   2.618   4.705   1.021 -0.3112 -0.5396 -0.9821
 1611SOL     OW16465   1.148   2.231  15.280  0.2414 -0.3830  0.0497
 1611SOL    HW116466   1.170   2.321  15.307  1.6280  0.0188 -2.5109
 1611SOL    HW216467   1.197   2.176  15.341  1.2374  0.5166  0.0681
 1612SOL     OW16468   1.665   3.401   8.721 -0.5350  0.2805 -0.5232
 1612SOL    HW116469   1.707   3.481   8.752  0.5276 -0.7138  0.6398
 1612SOL    HW216470   1.741   3.343   8.727  0.9595  2.3508  0.5159
 1613SOL     OW16471   1.281   3.292   1.549  0.8444  0.2230  0.2953
 1613SOL    HW116472   1.193   3.281   1.585  1.3038  1.9158  1.9283
 1613SOL    HW216473   1.264   3.374   1.503 -0.6695  0.4056  1.1917
 1614SOL     OW16474   0.421   4.049   6.581 -0.7408 -0.5778 -0.1202
 1614SOL    HW116475   0.500   3.997   6.596  0.2687  0.8088 -0.6573
 1614SOL    HW216476   0.434   4.100   6.501 -1.4236 -1.2117 -0.6402
 1615SOL     OW16477   4.433   3.736   7.903  0.3749  0.4591  0.2088
 1615SOL    HW116478   4.429   3.779   7.989  1.6137  0.4381  0.2863
 1615SOL    HW216479   4.442   3.814   7.848 -0.9500 -0.3335 -1.1332
 1616SOL     OW16480   2.490   3.200   3.029  0.8990  0.7143  0.0580
 1616SOL    HW116481   2.458   3.123   2.982  2.9239 -0.5181  0.6991
 1616SOL    HW216482   2.514   3.156   3.111 -1.1461  0.0780  0.3218
 1617SOL     OW16483   3.175   0.373  15.234  0.2048 -0.6752  0.3388
 1617SOL    HW116484   3.259   0.378  15.280  0.0526  2.1584  0.3163
 1617SOL    HW216485   3.146   0.292  15.274  0.7432 -1.6528 -1.2599
 1618SOL     OW16486   0.015   2.703  17.027  0.0088  0.0013 -0.2548
 1618SOL    HW116487   0.044   2.713  17.117 -2.0068 -1.9110  0.5970
 1618SOL    HW216488   4.663   2.736  17.022  0.7440  1.6394 -2.7292
 1619SOL     OW16489   0.055   2.406   6.359 -0.2655 -0.0061 -0.4076
 1619SOL    HW116490   4.735   2.344   6.314  0.7812 -2.0870  1.1385
 1619SOL    HW216491   0.004   2.485   6.376 -1.7364 -0.7283 -1.4247
 1620SOL     OW16492   3.251   1.446  13.635 -0.0679  0.4370 -0.1960
 1620SOL    HW116493   3.342   1.437  13.662 -0.6474 -1.4847  1.0470
 1620SOL    HW216494   3.250   1.533  13.595  0.7332  0.5734  0.0750
 1621SOL     OW16495   2.837   0.482  13.807  0.1961 -0.5310 -0.4242
 1621SOL    HW116496   2.774   0.554  13.820  0.1718 -1.1173  2.8616
 1621SOL    HW216497   2.866   0.496  13.717 -0.7831  1.4264 -0.4435
 1622SOL     OW16498   0.184   4.037   9.656  0.1838  0.2983 -0.0192
 1622SOL    HW116499   0.219   3.956   9.617 -2.4520  0.1070 -2.0166
 1622SOL    HW216500   0.115   4.010   9.715  0.3841 -0.9030 -0.3232
 1623SOL     OW16501   3.452   3.992  10.199 -0.0183  0.0802  0.0170
 1623SOL    HW116502   3.507   4.071  10.204  0.4893 -0.4147  2.2145
 1623SOL    HW216503   3.451   3.977  10.105  0.4771  0.2841 -0.0240
 1624SOL     OW16504   2.599   2.770   2.994 -0.0226  0.1282  0.3933
 1624SOL    HW116505   2.506   2.765   2.973 -0.2298 -4.6853  2.4307
 1624SOL    HW216506   2.628   2.815   2.914  2.3034  0.4996  1.4336
 1625SOL     OW16507   1.417   3.056   4.677  0.2914  0.2867  0.5667
 1625SOL    HW116508   1.354   3.112   4.724 -1.5413  0.2184 -1.8062
 1625SOL    HW216509   1.419   2.989   4.745  3.1797  0.5790  0.7785
 1626SOL     OW16510   0.494   2.932   7.149  0.4138  0.2988 -0.2331
 1626SOL    HW116511   0.408   2.972   7.165  0.8819  1.6734 -1.1473
 1626SOL    HW216512   0.516   2.903   7.238  1.4043 -1.9175 -1.2093
 1627SOL     OW16513   1.929   3.217   0.363  0.0801  0.9860  0.2191
 1627SOL    HW116514   1.871   3.291   0.344 -0.3300  0.4393 -0.6344
 1627SOL    HW216515   1.991   3.230   0.291  1.6304  0.8088  1.5211
 1628SOL     OW16516   2.616   4.409   2.954  0.1882 -0.1225 -0.8043
 1628SOL    HW116517   2.672   4.398   2.878  0.0166  1.1841 -1.1286
 1628SOL    HW216518   2.549   4.343   2.936 -1.4072  0.7734  1.7670
 1629SOL     OW16519   2.918   1.902   9.292  0.7113 -0.2605  0.3570
 1629SOL    HW116520   2.984   1.952   9.339 -0.8355  1.7380  0.4232
 1629SOL    HW216521   2.980   1.862   9.232 -1.3018 -1.7407 -0.7458
 1630SOL     OW16522   4.199   3.806  12.788 -0.8918  0.3328 -0.0512
 1630SOL    HW116523   4.215   3.900  12.784 -1.9941  0.5041 -0.7284
 1630SOL    HW216524   4.218   3.781  12.698  0.0310 -1.1468  0.5608
 1631SOL     OW16525   1.590   2.002   4.329 -0.3373  0.3228  0.2431
 1631SOL    HW116526   1.571   2.060   4.403  0.6713  1.6588 -0.5410
 1631SOL    HW216527   1.686   2.000   4.328 -0.3466 -0.3956  0.7222
 1632SOL     OW16528   0.917   4.586  17.555  0.1078  0.3207 -0.6316
 1632SOL    HW116529   0.993   4.544  17.514 -1.0677  0.2296 -2.7393
 1632SOL    HW216530   0.892   4.515  17.614  0.5081  0.4128 -0.3483
 1633SOL     OW16531   0.204   2.602   5.648  0.6134  0.0407  0.6933
 1633SOL    HW116532   0.251   2.639   5.723  2.9289 -0.3720 -0.5417
 1633SOL    HW216533   0.146   2.546   5.699 -0.6870 -0.2036 -1.0514
 1634SOL     OW16534   3.074   3.047   9.581  0.0497 -0.0942 -0.2868
 1634SOL    HW116535   3.137   3.048   9.653  2.5717 -1.6174 -2.4879
 1634SOL    HW216536   3.103   2.976   9.524 -1.8708  1.0986 -2.7152
 1635SOL     OW16537   0.185   3.608  13.255  0.3221 -0.1521 -0.0151
 1635SOL    HW116538   0.125   3.677  13.283  0.7139 -0.0643  0.6119
 1635SOL    HW216539   0.129   3.530  13.244 -0.6710  0.5105  0.3846
 1636SOL     OW16540   3.568   4.581   5.974  0.7633 -0.1453 -0.1134
 1636SOL    HW116541   3.653   4.571   6.017 -1.3987 -1.7605  3.6951
 1636SOL    HW216542   3.568   4.676   5.967  0.0212 -0.1842 -0.6521
 1637SOL     OW16543   4.200   3.909   5.927  0.2773  0.1197 -0.4999
 1637SOL    HW116544   4.184   3.882   6.017 -0.8373 -0.5259 -0.8902
 1637SOL    HW216545   4.139   3.983   5.924 -0.6122 -0.5713  0.5623
 1638SOL     OW16546   2.208   4.686  16.332  0.0919  0.4413 -0.0691
 1638SOL    HW116547   2.291   4.732  16.317 -1.8099  4.0394  0.3777
 1638SOL    HW216548   2.158   0.011  16.384  0.9420  1.4973 -0.5211
 1639SOL     OW16549   0.428   3.426   8.466  0.8052 -0.1981 -0.1628
 1639SOL    HW116550   0.375   3.503   8.489  0.3937 -0.2610 -0.9039
 1639SOL    HW216551   0.405   3.362   8.533 -0.1294 -0.4963 -0.7740
 1640SOL     OW16552   0.854   3.420   2.922  0.0837  0.1443 -0.1348
 1640SOL    HW116553   0.861   3.462   2.836 -0.7140 -0.5494 -0.5427
 1640SOL    HW216554   0.769   3.376   2.913  0.1846  0.0309 -0.5264
 1641SOL     OW16555   0.336   3.382  10.894 -0.2543  0.0171 -0.1847
 1641SOL    HW116556   0.364   3.305  10.943 -1.6515 -0.2145  0.2660
 1641SOL    HW216557   0.264   3.416  10.948  0.5797 -1.2107  1.7076
 1642SOL     OW16558   0.607   0.678   4.125  0.1945 -0.0061 -0.2631
 1642SOL    HW116559   0.696   0.704   4.104  0.8964 -0.5814  1.9768
 1642SOL    HW216560   0.631   0.595   4.166 -0.7741  1.1169  2.5563
 1643SOL     OW16561   1.885   3.667   0.217 -0.2463  0.1093 -0.0401
 1643SOL    HW116562   1.854   3.720   0.144 -1.3483  0.2276  0.5062
 1643SOL    HW216563   1.977   3.681   0.197  0.2113 -4.1366 -0.7926
 1644SOL     OW16564   3.105   4.424   8.308  0.0090 -0.0717  0.5037
 1644SOL    HW116565   3.058   4.410   8.226  0.2821  0.4825  0.2538
 1644SOL    HW216566   3.169   4.353   8.303  0.5840  0.4952 -0.1862
 1645SOL     OW16567   0.880   0.579  10.401  0.3093  0.1809  0.9284
 1645SOL    HW116568   0.871   0.562  10.494 -0.1913  3.1935  1.4333
 1645SOL    HW216569   0.913   0.491  10.384 -1.4567 -0.2203 -0.4549
 1646SOL     OW16570   2.054   3.457   2.476 -0.3723 -0.2725 -0.0616
 1646SOL    HW116571   2.002   3.509   2.537 -1.2157 -1.5053  0.2802
 1646SOL    HW216572   2.099   3.405   2.543 -1.6283 -0.7364  0.4387
 1647SOL     OW16573   3.811   0.594   6.602 -0.1208 -0.0793  0.3437
 1647SOL    HW116574   3.720   0.597   6.634 -0.2859 -1.4329  0.0204
 1647SOL    HW216575   3.828   0.499   6.605 -0.4744 -0.1843 -1.0641
 1648SOL     OW16576   4.431   1.544   2.195  0.1475 -0.2295 -0.4132
 1648SOL    HW116577   4.475   1.628   2.183 -2.8633  1.5144  0.6684
 1648SOL    HW216578   4.376   1.557   2.273 -1.4486 -1.3004 -1.3511
 1649SOL     OW16579   3.263   2.846  14.471  0.6860  0.3536 -0.4323
 1649SOL    HW116580   3.315   2.833  14.550  1.1605  0.5999 -0.7071
 1649SOL    HW216581   3.176   2.811  14.491  1.4726 -2.1006 -1.3689
 1650SOL     OW16582   2.110   3.336   6.431 -0.2145 -0.2443  0.1188
 1650SOL    HW116583   2.094   3.427   6.407  0.2773 -0.0552  0.5044
 1650SOL    HW216584   2.205   3.324   6.430 -0.3361 -1.6303  2.6847
 1651SOL     OW16585   0.381   4.039  15.087 -0.3480  0.1547 -0.0069
 1651SOL    HW116586   0.395   3.978  15.159 -3.0026 -0.2624  0.1732
 1651SOL    HW216587   0.449   4.105  15.086  1.4302 -1.5849  4.9480
 1652SOL     OW16588   4.686   0.804  11.764  0.1444  0.0235 -0.3684
 1652SOL    HW116589   4.736   0.817  11.845  1.5109  1.4455 -1.4297
 1652SOL    HW216590   0.019   0.808  11.699  0.8793  0.1941  0.4430
 1653SOL     OW16591   2.840   1.345  13.687 -0.7214  1.0532  0.0823
 1653SOL    HW116592   2.747   1.351  13.666 -1.2140  0.0477  1.9480
 1653SOL    HW216593   2.852   1.414  13.752  4.6400 -0.6352  0.8735
 1654SOL     OW16594   2.608   0.643   2.873 -0.2913 -0.4150 -0.1578
 1654SOL    HW116595   2.634   0.655   2.964 -1.9327 -0.3742  0.3131
 1654SOL    HW216596   2.585   0.733   2.851  0.3919 -0.4008 -0.7913
 1655SOL     OW16597   3.071   0.039   6.006 -0.1376 -0.5636 -0.2723
 1655SOL    HW116598   3.090   0.132   5.995  1.5421 -0.8139  0.3967
 1655SOL    HW216599   2.986   0.022   5.966 -1.6323 -1.4320  3.2006
 1656SOL     OW16600   2.704   4.586   1.384  0.4571 -0.1238 -0.5561
 1656SOL    HW116601   2.721   4.498   1.351 -0.1751 -1.1580  1.8833
 1656SOL    HW216602   2.703   4.639   1.304 -0.8463 -1.1359 -1.2147
 1657SOL     OW16603   2.110   3.618   9.035  0.2688  0.1396  0.0300
 1657SOL    HW116604   2.139   3.698   9.080  0.3991  0.5430 -0.7563
 1657SOL    HW216605   2.097   3.565   9.113 -0.3919  3.1697  1.9638
 1658SOL     OW16606   4.565   2.127  13.249 -0.0919 -0.3184 -0.2220
 1658SOL    HW116607   4.589   2.043  13.211 -2.0168 -0.2375 -1.5735
 1658SOL    HW216608   4.470   2.126  13.241  0.0501 -0.5593 -1.8596
 1659SOL     OW16609   1.367   3.187  15.751  0.4876 -0.2185  0.3793
 1659SOL    HW116610   1.287   3.228  15.716  1.4491  1.9508  0.7160
 1659SOL    HW216611   1.379   3.123  15.680  0.6647 -1.4978  1.5712
 1660SOL     OW16612   0.547   2.857   4.022  0.0257  0.3875 -0.2865
 1660SOL    HW116613   0.545   2.933   3.964 -0.2588  0.7570  0.2106
 1660SOL    HW216614   0.505   2.891   4.101  0.2149 -1.2955  0.5347
 1661SOL     OW16615   2.038   2.897   8.674 -0.5437 -0.5406  0.2967
 1661SOL    HW116616   2.020   2.804   8.692 -0.6457 -0.4481  0.6742
 1661SOL    HW216617   1.972   2.915   8.607 -0.3195 -0.6713  0.0438
 1662SOL     OW16618   3.443   1.502   6.934 -0.4640  0.2843 -0.0519
 1662SOL    HW116619   3.412   1.412   6.927 -1.6327  0.4578  3.0159
 1662SOL    HW216620   3.458   1.525   6.842  1.7547 -0.8337  0.0274
 1663SOL     OW16621   4.510   2.492   3.264 -0.2222 -0.0650 -0.0868
 1663SOL    HW116622   4.560   2.508   3.184  0.5335 -2.4356 -0.0790
 1663SOL    HW216623   4.513   2.397   3.262 -0.1575 -0.0483 -1.0793
 1664SOL     OW16624   0.161   1.750   5.775 -0.8411 -0.6288  0.0551
 1664SOL    HW116625   0.221   1.684   5.739 -0.2228  1.5142 -2.8076
 1664SOL    HW216626   0.209   1.832   5.759 -0.2600 -1.0971 -0.5910
 1665SOL     OW16627   2.300   3.653   3.967 -0.4045  0.6838 -0.1957
 1665SOL    HW116628   2.221   3.608   3.998 -1.0310  2.3017  0.5880
 1665SOL    HW216629   2.364   3.597   4.011  0.8128  2.3308  0.1347
 1666SOL     OW16630   3.485   0.290  14.910  0.6321 -0.4509  0.1800
 1666SOL    HW116631   3.428   0.224  14.871 -0.6855  0.8173 -0.0381
 1666SOL    HW216632   3.417   0.358  14.908  0.9653 -0.0947  0.8279
 1667SOL     OW16633   1.524   3.258   1.808 -0.1744 -0.5009 -0.1072
 1667SOL    HW116634   1.600   3.294   1.762  0.4856  0.9126  2.1165
 1667SOL    HW216635   1.525   3.168   1.776 -0.0489  0.1213 -1.8586
 1668SOL     OW16636   2.539   1.734   9.244  0.4333 -0.0747  0.1876
 1668SOL    HW116637   2.454   1.710   9.281  1.5942 -3.4195  0.6785
 1668SOL    HW216638   2.507   1.710   9.157  2.2793 -0.9524 -0.2470
 1669SOL     OW16639   2.641   1.292   5.461  0.1236 -0.2778 -0.3316
 1669SOL    HW116640   2.708   1.233   5.429  1.1980  0.8986 -0.2608
 1669SOL    HW216641   2.639   1.263   5.552 -3.0912  1.8774  0.2964
 1670SOL     OW16642   4.608   4.026   8.147 -0.0836 -0.5151 -0.0392
 1670SOL    HW116643   4.578   3.941   8.180  0.5057 -0.3610  0.9145
 1670SOL    HW216644   4.529   4.069   8.117  0.4987  1.3310  1.0760
 1671SOL     OW16645   4.120   1.585   0.464 -0.3732  0.3952  0.4480
 1671SOL    HW116646   4.101   1.671   0.501 -1.6736 -0.5432  1.9743
 1671SOL    HW216647   4.039   1.539   0.487  0.3728 -0.8391  0.5790
 1672SOL     OW16648   1.725   2.928   8.656 -0.0367  0.7384  0.1466
 1672SOL    HW116649   1.726   2.960   8.746  2.8625 -0.2833  0.4588
 1672SOL    HW216650   1.710   2.834   8.665 -0.5296  0.6059 -1.9678
 1673SOL     OW16651   3.822   0.634   4.589 -0.3814 -0.1181 -0.5621
 1673SOL    HW116652   3.813   0.708   4.648 -0.4768 -0.1495 -0.5382
 1673SOL    HW216653   3.835   0.668   4.500  2.6799  0.4677  0.1027
 1674SOL     OW16654   3.815   3.112  10.925 -0.3505 -0.0176 -0.6463
 1674SOL    HW116655   3.769   3.028  10.916  0.0783 -0.4739  1.2158
 1674SOL    HW216656   3.759   3.163  10.984 -1.6188  0.1730 -2.0333
 1675SOL     OW16657   0.349   4.361   1.892  0.7565  0.1352  0.3206
 1675SOL    HW116658   0.304   4.307   1.957  1.3264 -0.6823  0.0374
 1675SOL    HW216659   0.354   4.298   1.820  0.2501  1.3512 -0.7874
 1676SOL     OW16660   3.212   1.703   1.831 -0.4553  0.0891 -0.2119
 1676SOL    HW116661   3.263   1.745   1.901 -0.9449  2.5188 -1.2911
 1676SOL    HW216662   3.146   1.772   1.817 -2.2435 -1.9322 -1.6938
 1677SOL     OW16663   3.022   1.226   5.457  0.3413 -0.7773  0.6437
 1677SOL    HW116664   3.019   1.176   5.538  0.0836 -0.2111  0.9868
 1677SOL    HW216665   3.003   1.156   5.395 -0.2399  2.0359 -2.3449
 1678SOL     OW16666   0.673   0.188   5.284  0.8221  0.1172  0.2738
 1678SOL    HW116667   0.678   0.284   5.287  0.1683  0.1802 -0.4337
 1678SOL    HW216668   0.767   0.176   5.288  0.7234 -0.1844  1.6161
 1679SOL     OW16669   1.110   4.221   7.609 -0.0776  0.0784  0.2315
 1679SOL    HW116670   1.152   4.184   7.687  0.0307 -2.1474 -0.8909
 1679SOL    HW216671   1.152   4.307   7.602  1.8811 -0.9978 -1.3360
 1680SOL     OW16672   1.972   4.683   8.974  0.3445 -0.2655  0.3387
 1680SOL    HW116673   2.011   4.656   8.891 -2.7113 -0.8887 -0.9310
 1680SOL    HW216674   2.050   4.673   9.027  1.1556 -0.1990 -0.8486
 1681SOL     OW16675   1.020   2.967  10.261 -0.5554  0.2209  0.2226
 1681SOL    HW116676   0.968   2.969  10.342 -1.4558 -1.4611 -0.3106
 1681SOL    HW216677   1.103   2.997  10.298 -0.0655  0.5183 -1.1319
 1682SOL     OW16678   1.353   4.028   8.274 -0.1618  0.4887  0.7679
 1682SOL    HW116679   1.319   4.088   8.341  0.7275  2.5603 -0.6121
 1682SOL    HW216680   1.442   4.029   8.308  0.5139 -2.8997 -0.9865
 1683SOL     OW16681   0.194   0.028   9.447 -0.0460  0.7692 -0.5092
 1683SOL    HW116682   0.230   0.116   9.452 -0.3368  0.9034 -0.7446
 1683SOL    HW216683   0.249   4.721   9.511 -1.9221 -0.2295  0.4091
 1684SOL     OW16684   0.593   4.382   8.801  0.2442 -0.4047 -0.0535
 1684SOL    HW116685   0.569   4.406   8.891 -0.4495 -1.8962  0.1581
 1684SOL    HW216686   0.519   4.428   8.761 -1.1434 -0.4663  2.4380
 1685SOL     OW16687   1.753   3.757  14.051  0.7124 -0.0364 -0.3344
 1685SOL    HW116688   1.786   3.825  13.994  2.5413 -0.7635 -0.1367
 1685SOL    HW216689   1.837   3.714  14.066  0.6860  0.4480  1.2486
 1686SOL     OW16690   0.643   0.053  10.067 -0.4764 -0.4230  0.0515
 1686SOL    HW116691   0.581   0.019  10.132 -1.4174  1.5473  0.1772
 1686SOL    HW216692   0.696   0.095  10.135 -0.4897  0.0887 -0.2606
 1687SOL     OW16693   3.501   4.680   5.037 -0.2731  0.2364 -0.0566
 1687SOL    HW116694   3.407   4.664   5.026 -0.1689 -0.5158  0.1636
 1687SOL    HW216695   3.542   4.664   4.952  0.3607  0.3178  0.2305
 1688SOL     OW16696   1.417   1.312   3.301  0.7074 -0.2004  0.5042
 1688SOL    HW116697   1.445   1.372   3.231  0.5114  0.5863  1.0933
 1688SOL    HW216698   1.413   1.379   3.369  0.5457 -1.0614  1.3336
 1689SOL     OW16699   1.473   4.158   6.113 -0.3420  0.1628 -0.4406
 1689SOL    HW116700   1.521   4.234   6.144  2.0307 -1.4651 -0.1058
 1689SOL    HW216701   1.391   4.189   6.074 -0.6549  1.6533  1.4063
 1690SOL     OW16702   4.020   1.339   4.491 -0.0957 -0.0918  0.4662
 1690SOL    HW116703   4.011   1.398   4.416  0.7782  0.6552  0.9592
 1690SOL    HW216704   3.936   1.357   4.532 -0.0212 -1.6358  1.3079
 1691SOL     OW16705   0.892   4.223   5.963 -0.9071 -0.3311 -0.4316
 1691SOL    HW116706   0.815   4.259   6.007 -0.6998 -0.4902  0.0561
 1691SOL    HW216707   0.895   4.278   5.885  0.8115  1.2728  0.7849
 1692SOL     OW16708   3.400   1.271   0.653 -0.0276  0.4066 -0.2435
 1692SOL    HW116709   3.342   1.298   0.725  0.9569 -0.0105  0.7044
 1692SOL    HW216710   3.347   1.308   0.583  0.6257 -0.0466 -0.9739
 1693SOL     OW16711   0.508   0.205   1.197 -0.0925 -0.2971 -0.1058
 1693SOL    HW116712   0.454   0.191   1.275 -1.4112  0.6296 -0.8565
 1693SOL    HW216713   0.575   0.137   1.205 -0.4335 -0.5210  0.8576
 1694SOL     OW16714   0.105   1.411   6.422 -0.1452  0.0012 -0.1096
 1694SOL    HW116715   0.029   1.439   6.371 -1.0438  2.3282  2.5606
 1694SOL    HW216716   0.148   1.356   6.356 -1.4824  1.6115 -2.3478
 1695SOL     OW16717   3.600   0.384  15.554 -0.2003  0.2656 -0.5283
 1695SOL    HW116718   3.538   0.321  15.591 -1.2953  1.5338 -0.2268
 1695SOL    HW216719   3.677   0.327  15.543  1.6956  2.2193  2.5390
 1696SOL     OW16720   4.675   4.023   6.611 -0.3240  0.0792  0.0667
 1696SOL    HW116721   4.727   4.087   6.562 -0.6608  0.6931  0.5043
 1696SOL    HW216722   4.599   4.001   6.557  0.0461 -0.2333 -0.3319
 1697SOL     OW16723   4.032   4.257   4.667 -0.6302  0.3494 -0.1958
 1697SOL    HW116724   4.013   4.312   4.743  1.5838  0.9293 -0.0689
 1697SOL    HW216725   4.123   4.278   4.646 -0.3165 -0.5248  0.2612
 1698SOL     OW16726   3.117   0.928   3.324 -0.2058 -0.1901 -0.5228
 1698SOL    HW116727   3.159   0.878   3.394 -1.0520  1.4101  1.1444
 1698SOL    HW216728   3.144   1.018   3.345  1.8532 -0.4540 -2.0094
 1699SOL     OW16729   3.037   0.413   3.262 -0.7739  0.4215 -0.2418
 1699SOL    HW116730   3.002   0.446   3.345 -0.4830  0.4589 -0.1327
 1699SOL    HW216731   3.024   0.318   3.263 -2.1014  0.5929 -1.9570
 1700SOL     OW16732   2.918   2.049   2.280 -0.8072 -0.4148  0.2055
 1700SOL    HW116733   2.928   2.062   2.374  2.5933  2.3336 -0.5212
 1700SOL    HW216734   2.833   2.090   2.262  0.0110  1.0505 -0.3316
 1701SOL     OW16735   2.351   4.028   3.054  0.6449 -0.4173 -0.0519
 1701SOL    HW116736   2.350   4.029   3.150  2.9632  0.9092 -0.0521
 1701SOL    HW216737   2.441   4.005   3.030  1.2393  1.5613  0.2677
 1702SOL     OW16738   1.189   0.086   3.964  0.0440  0.2226 -0.0160
 1702SOL    HW116739   1.189   4.733   3.993 -1.4914  0.0075 -0.6795
 1702SOL    HW216740   1.134   0.085   3.886  0.9001 -1.0649 -0.6042
 1703SOL     OW16741   3.367   3.476   1.368  0.2862 -0.0187  0.3095
 1703SOL    HW116742   3.370   3.566   1.401 -0.3815  0.3589 -0.6324
 1703SOL    HW216743   3.334   3.425   1.441  0.5608 -1.0191 -0.2650
 1704SOL     OW16744   0.273   0.610   4.683  0.5234  0.2003 -0.1119
 1704SOL    HW116745   0.350   0.667   4.685  1.6250 -1.2808 -0.3592
 1704SOL    HW216746   0.305   0.543   4.622 -3.0257 -0.7878 -0.9148
 1705SOL     OW16747   2.467   3.551   0.442  0.1966 -0.0046  0.2432
 1705SOL    HW116748   2.530   3.508   0.383 -0.1005 -0.0498 -0.0465
 1705SOL    HW216749   2.383   3.542   0.396  0.6763  0.6353 -0.7751
 1706SOL     OW16750   0.625   1.623   1.332  0.3067  0.6300 -0.0293
 1706SOL    HW116751   0.551   1.683   1.337 -0.7926 -0.7720  0.5136
 1706SOL    HW216752   0.674   1.652   1.255 -2.0262  1.1693 -1.3341
 1707SOL     OW16753   1.521   0.458   1.549  0.2666 -0.0038 -0.1377
 1707SOL    HW116754   1.549   0.376   1.509 -0.3578 -0.0817 -0.4224
 1707SOL    HW216755   1.535   0.451   1.643  2.0504  0.8369 -0.3322
 1708SOL     OW16756   0.196   3.718  13.575 -0.2693 -0.4199 -0.4258
 1708SOL    HW116757   0.261   3.660  13.536  0.5420  0.6476 -0.6745
 1708SOL    HW216758   0.117   3.682  13.534  0.3938 -1.0906 -1.1072
 1709SOL     OW16759   3.766   4.204   4.093 -0.1197 -0.0590 -0.4642
 1709SOL    HW116760   3.756   4.257   4.173  0.3804  0.1366 -0.5277
 1709SOL    HW216761   3.697   4.138   4.097 -0.0939 -0.1444 -1.4486
 1710SOL     OW16762   0.546   4.008   2.897  0.4266 -0.4446  0.4423
 1710SOL    HW116763   0.575   3.919   2.880  0.4668 -0.1326 -1.1561
 1710SOL    HW216764   0.584   4.032   2.982 -1.2789  1.4592  0.6785
 1711SOL     OW16765   0.451   4.351   9.076 -0.0576  0.2053 -0.0619
 1711SOL    HW116766   0.526   4.293   9.085  0.1211  0.5783  0.8165
 1711SOL    HW216767   0.475   4.428   9.128  0.8791  0.5452 -1.0079
 1712SOL     OW16768   1.510   4.729   9.489 -0.1275 -0.1212 -0.5061
 1712SOL    HW116769   1.491   0.024   9.577  0.3225  0.5219 -0.6502
 1712SOL    HW216770   1.561   0.066   9.457 -0.2825  0.3485  0.3451
 1713SOL     OW16771   1.640   1.960   2.120 -0.6486  0.3449 -0.8876
 1713SOL    HW116772   1.559   1.921   2.154  0.0745  0.1694  0.6217
 1713SOL    HW216773   1.616   2.041   2.074  2.5812  1.5377 -0.4523
 1714SOL     OW16774   1.376   4.375  14.837  0.5246 -0.0986  0.5048
 1714SOL    HW116775   1.312   4.444  14.821  1.4464  0.8460  0.8690
 1714SOL    HW216776   1.456   4.414  14.872  0.9796 -0.0277 -0.6263
 1715SOL     OW16777   0.526   4.459   7.550  0.6247 -0.0369 -0.1918
 1715SOL    HW116778   0.619   4.459   7.576  0.2289 -2.0426  1.1662
 1715SOL    HW216779   0.507   4.380   7.500 -0.0288 -0.0158  0.0191
 1716SOL     OW16780   3.720   2.617   3.757 -0.2524 -0.2413 -0.2747
 1716SOL    HW116781   3.723   2.604   3.852 -0.4060 -1.4852 -0.4402
 1716SOL    HW216782   3.726   2.528   3.724 -0.6328 -0.1401 -0.6180
 1717SOL     OW16783   0.055   3.133   4.662  0.4702 -0.1383  0.3146
 1717SOL    HW116784   0.141   3.104   4.691  0.4010 -2.1559 -1.4610
 1717SOL    HW216785   0.008   3.143   4.745 -1.8579 -2.7782 -0.6801
 1718SOL     OW16786   0.649   3.258   2.893 -0.0459 -0.2905  0.1763
 1718SOL    HW116787   0.581   3.259   2.827  0.9000  2.5668 -0.7461
 1718SOL    HW216788   0.691   3.175   2.872 -1.3430 -1.1714  1.0933
 1719SOL     OW16789   1.224   0.993   4.262 -0.2496 -0.0866 -0.0816
 1719SOL    HW116790   1.149   0.939   4.235  1.6449 -3.5728  1.6396
 1719SOL    HW216791   1.275   0.963   4.187  1.5563  0.0031  1.1133
 1720SOL     OW16792   2.217   1.871   5.677 -0.3936  0.0038 -0.7497
 1720SOL    HW116793   2.130   1.910   5.685 -0.0171  0.7039 -0.0644
 1720SOL    HW216794   2.196   1.786   5.640  1.1396 -0.3587 -0.8021
 1721SOL     OW16795   3.713   1.054   4.994  0.0034 -0.0944  0.4216
 1721SOL    HW116796   3.651   1.045   4.922 -1.5762 -0.0106  1.7668
 1721SOL    HW216797   3.732   0.960   5.000 -0.4768 -0.3465 -2.1855
 1722SOL     OW16798   0.003   4.317   0.172  0.2684  0.1120 -0.3881
 1722SOL    HW116799   0.067   4.385   0.148  2.8908 -2.3529 -0.3475
 1722SOL    HW216800   0.017   4.264   0.093 -2.0712 -0.1508 -0.6342
 1723SOL     OW16801   4.531   3.708   5.976 -0.1816  0.1116 -0.4691
 1723SOL    HW116802   4.444   3.671   5.958 -1.2303  1.7405  1.1718
 1723SOL    HW216803   4.529   3.700   6.071  0.8048 -1.0068 -0.5417
 1724SOL     OW16804   3.360   1.282   3.002 -0.5227 -0.7053 -0.2920
 1724SOL    HW116805   3.357   1.342   3.076  0.8227  1.3218 -1.8780
 1724SOL    HW216806   3.400   1.341   2.938 -0.3952  0.0935  0.5326
 1725SOL     OW16807   1.092   4.200  10.763  0.5261 -0.3494  0.0346
 1725SOL    HW116808   1.098   4.182  10.857 -0.2060  0.3336  0.2150
 1725SOL    HW216809   1.119   4.292  10.763  1.2277 -0.5524  0.3227
 1726SOL     OW16810   4.341   4.329   4.630 -0.0583  0.1738 -0.5229
 1726SOL    HW116811   4.342   4.240   4.666 -1.1425  0.5950  0.5443
 1726SOL    HW216812   4.409   4.324   4.563 -0.4756  0.4047 -0.9604
 1727SOL     OW16813   0.270   0.612   5.696  0.2074  0.2883  0.2282
 1727SOL    HW116814   0.365   0.604   5.682 -0.2824  0.6874 -3.1197
 1727SOL    HW216815   0.267   0.695   5.745 -0.1604  0.5895 -0.3173
 1728SOL     OW16816   4.038   4.252  15.629 -0.3948 -0.0714  0.5015
 1728SOL    HW116817   4.018   4.295  15.546 -1.4993 -0.1862  0.7072
 1728SOL    HW216818   4.124   4.291  15.645  0.0523 -1.3222  1.1856
 1729SOL     OW16819   1.456   2.626   4.002  0.4689 -0.3320 -1.0648
 1729SOL    HW116820   1.445   2.714   4.036 -1.2890 -0.9767  0.0194
 1729SOL    HW216821   1.396   2.577   4.059 -1.1824  2.4363 -0.4518
 1730SOL     OW16822   4.321   1.636  15.864  0.8053  0.2729 -0.1526
 1730SOL    HW116823   4.283   1.568  15.919 -0.5988  1.7188  0.6904
 1730SOL    HW216824   4.350   1.691  15.937 -0.7185  2.1925 -0.9728
 1731SOL     OW16825   0.793   0.375   1.094  0.7301  0.1397  0.1555
 1731SOL    HW116826   0.700   0.353   1.095  0.3946  1.6792  3.0852
 1731SOL    HW216827   0.792   0.462   1.054 -0.9109 -0.3216 -0.7902
 1732SOL     OW16828   2.914   4.501   1.853 -0.4327  0.1537  0.7239
 1732SOL    HW116829   2.962   4.582   1.867 -1.7414  1.2694 -1.2452
 1732SOL    HW216830   2.947   4.475   1.767 -1.0118 -2.4377  1.2671
 1733SOL     OW16831   0.712   0.785   8.527  0.4486 -0.6448 -0.7227
 1733SOL    HW116832   0.804   0.760   8.514  0.9044 -0.6581  2.4836
 1733SOL    HW216833   0.680   0.710   8.577 -0.5468 -0.5685 -1.2559
 1734SOL     OW16834   4.153   2.113   9.628  0.4891 -0.0241 -0.1210
 1734SOL    HW116835   4.063   2.134   9.604  0.7278 -0.1092 -1.0824
 1734SOL    HW216836   4.141   2.108   9.723 -3.0476 -0.5308 -0.6124
 1735SOL     OW16837   0.947   0.367  13.387 -0.1849  0.1784 -0.0743
 1735SOL    HW116838   0.922   0.373  13.295 -0.9603  0.0237  0.1294
 1735SOL    HW216839   0.929   0.274  13.398  2.8553 -0.6842 -2.2758
 1736SOL     OW16840   1.347   2.335  10.085 -1.0615  0.6009  0.0732
 1736SOL    HW116841   1.299   2.255  10.065 -0.2475 -0.2184  1.3469
 1736SOL    HW216842   1.307   2.372  10.164 -0.4017  1.9109 -0.1949
 1737SOL     OW16843   0.854   4.518   5.951  0.3404  0.1892 -0.3870
 1737SOL    HW116844   0.908   4.509   5.872  0.8271  0.3853 -0.0723
 1737SOL    HW216845   0.915   4.578   5.993  0.0713 -0.9477  1.6041
 1738SOL     OW16846   1.719   3.373   2.603  0.5900  0.3752  0.2853
 1738SOL    HW116847   1.777   3.357   2.529 -0.7921 -0.3466 -0.6414
 1738SOL    HW216848   1.744   3.292   2.648 -0.7243  0.6886  1.5875
 1739SOL     OW16849   0.528   3.072   3.855 -0.6580  0.1988  0.3642
 1739SOL    HW116850   0.545   3.166   3.852 -4.2674  0.8917  0.4498
 1739SOL    HW216851   0.477   3.055   3.776 -0.5071 -1.4005  0.6159
 1740SOL     OW16852   3.338   3.344   8.550  0.8250  0.2446  0.0173
 1740SOL    HW116853   3.356   3.265   8.601 -2.4507 -0.5308 -0.0244
 1740SOL    HW216854   3.422   3.389   8.540 -0.1809  2.1015 -0.0252
 1741SOL     OW16855   0.824   1.518   5.390  0.0765  0.6452  0.3471
 1741SOL    HW116856   0.871   1.567   5.323  1.3061  0.0675  0.7721
 1741SOL    HW216857   0.865   1.433   5.376 -2.9134 -0.5238 -1.1525
 1742SOL     OW16858   4.658   4.534  12.023  0.0559 -0.5419 -0.1716
 1742SOL    HW116859   4.697   4.447  12.036  3.4168  1.1130  0.7099
 1742SOL    HW216860   4.610   4.540  11.941  1.1891  3.5901 -0.4972
 1743SOL     OW16861   1.927   3.584  16.408 -0.0182  0.3939 -0.3927
 1743SOL    HW116862   1.959   3.556  16.323 -1.6483 -4.4724  0.6301
 1743SOL    HW216863   2.006   3.575  16.460  0.2641 -1.7036 -1.2229
 1744SOL     OW16864   0.642   0.065   6.805  0.5891 -0.1862  0.0504
 1744SOL    HW116865   0.658   0.159   6.801  1.1223 -0.2709  0.2326
 1744SOL    HW216866   0.566   0.061   6.863  0.7060  0.0607  0.2195
 1745SOL     OW16867   3.502   4.062   0.975 -0.2927  0.0909  0.6899
 1745SOL    HW116868   3.434   3.999   0.952 -1.2625  1.7129 -0.9275
 1745SOL    HW216869   3.558   4.052   0.898 -1.0149  1.9049 -0.0737
 1746SOL     OW16870   2.230   1.710  12.751  0.1726  0.6624  0.0932
 1746SOL    HW116871   2.317   1.743  12.773  1.0957 -2.5058  1.2281
 1746SOL    HW216872   2.220   1.738  12.660 -0.2019 -3.7149 -1.2090
 1747SOL     OW16873   3.082   1.065   2.940 -0.1536 -0.0318  0.5796
 1747SOL    HW116874   3.079   1.115   2.859  0.5421 -0.0786  0.5279
 1747SOL    HW216875   3.174   1.041   2.940  0.5778  2.8506  0.3516
 1748SOL     OW16876   0.595   1.376  14.014  0.4503  0.5302  0.9200
 1748SOL    HW116877   0.569   1.453  13.964  0.3279 -1.5540 -2.2119
 1748SOL    HW216878   0.594   1.309  13.945 -0.2926  0.2490  1.2076
 1749SOL     OW16879   3.731   3.831  17.268  0.1786  0.3440  0.1149
 1749SOL    HW116880   3.717   3.926  17.267 -1.3231  0.1376  1.9118
 1749SOL    HW216881   3.663   3.794  17.325 -1.6214  2.6046 -0.5620
 1750SOL     OW16882   2.487   4.716  12.784  0.0722  0.8341  0.0829
 1750SOL    HW116883   2.478   4.643  12.723 -0.9250  2.5947 -1.8684
 1750SOL    HW216884   2.551   0.033  12.739  2.1416 -1.2399  0.5254
 1751SOL     OW16885   4.162   1.356   8.705  0.2568 -0.3493  0.0437
 1751SOL    HW116886   4.239   1.345   8.650  0.4927 -2.9494  0.8975
 1751SOL    HW216887   4.209   1.344   8.788 -1.0363  1.4732  1.0418
 1752SOL     OW16888   3.619   3.900   3.609 -0.1159  0.1450  0.1296
 1752SOL    HW116889   3.582   3.826   3.561 -1.6943 -0.1186  1.7379
 1752SOL    HW216890   3.555   3.919   3.677 -0.7753 -1.1137 -0.1411
 1753SOL     OW16891   1.236   0.453   8.351 -0.1343 -0.4492  0.1121
 1753SOL    HW116892   1.307   0.393   8.325  0.1875 -1.2367  2.8572
 1753SOL    HW216893   1.205   0.418   8.434 -1.0778 -2.4800 -1.1167
 1754SOL     OW16894   1.511   4.084   3.612 -0.1818  0.7905  0.0032
 1754SOL    HW116895   1.566   4.113   3.685 -1.1303  2.1845  0.1464
 1754SOL    HW216896   1.549   3.996   3.604  0.2690  1.0127 -0.2918
 1755SOL     OW16897   4.111   2.417   0.610 -0.3168 -0.2828  0.1081
 1755SOL    HW116898   4.136   2.509   0.610  0.6337 -0.5396  1.0301
 1755SOL    HW216899   4.016   2.418   0.601 -0.2877  2.4073  0.1404
 1756SOL     OW16900   0.690   3.695   8.657 -0.0633  0.1788 -0.2799
 1756SOL    HW116901   0.697   3.780   8.614 -0.0277  0.2559 -0.1205
 1756SOL    HW216902   0.717   3.631   8.590 -0.1353 -0.6456  0.4744
 1757SOL     OW16903   1.280   2.692   7.719  0.1593 -0.3331 -0.3636
 1757SOL    HW116904   1.238   2.622   7.668 -3.7845  0.9900  1.0658
 1757SOL    HW216905   1.329   2.645   7.787 -1.2260 -0.3387  0.6591
 1758SOL     OW16906   1.580   3.979   3.290 -0.6787  0.3232  0.2128
 1758SOL    HW116907   1.615   3.941   3.209 -0.3634  1.7586 -0.3288
 1758SOL    HW216908   1.624   3.915   3.346  1.0551  0.5450 -0.8744
 1759SOL     OW16909   0.762   1.279   7.817  0.2083 -0.4415  0.3724
 1759SOL    HW116910   0.735   1.350   7.876  0.8933  0.6112 -0.5825
 1759SOL    HW216911   0.797   1.211   7.875  1.0163 -0.4733 -0.1498
 1760SOL     OW16912   3.098   2.317  11.951 -0.2367 -0.4519 -0.5384
 1760SOL    HW116913   3.040   2.389  11.928  0.3798 -0.0048 -0.7061
 1760SOL    HW216914   3.093   2.266  11.871  0.2615 -1.7157  0.2276
 1761SOL     OW16915   2.651   1.497  11.615 -0.4898 -0.3119 -0.7917
 1761SOL    HW116916   2.670   1.585  11.585 -2.7287 -0.4761 -2.6083
 1761SOL    HW216917   2.615   1.453  11.538 -1.4557 -0.0606 -0.4836
 1762SOL     OW16918   2.725   2.813   5.025 -0.0408  0.0114  0.3724
 1762SOL    HW116919   2.708   2.898   4.984  0.3585 -0.4186 -0.7006
 1762SOL    HW216920   2.651   2.795   5.083 -0.7508  0.1499 -0.4836
 1763SOL     OW16921   0.830   3.675   2.234 -0.0916 -0.3130  0.2229
 1763SOL    HW116922   0.902   3.613   2.245  0.1559  0.3759  2.5342
 1763SOL    HW216923   0.760   3.628   2.279  0.1135 -0.7524  0.0819
 1764SOL     OW16924   4.658   3.359   0.842  0.4752  0.3220 -0.2261
 1764SOL    HW116925   4.716   3.315   0.904 -1.6200  0.7484  1.9986
 1764SOL    HW216926   4.630   3.283   0.791 -0.1216  0.4501 -0.0885
 1765SOL     OW16927   3.787   0.521  15.032  0.1316 -0.1485 -0.2823
 1765SOL    HW116928   3.709   0.512  14.977 -1.0626  1.5017  1.1347
 1765SOL    HW216929   3.860   0.492  14.977  0.6362  0.4525  0.0608
 1766SOL     OW16930   4.654   0.553  11.571 -0.1200 -0.5237  0.5750
 1766SOL    HW116931   4.694   0.634  11.602  1.6394 -0.5165 -1.6578
 1766SOL    HW216932   4.580   0.574  11.515 -1.2640  1.0491  2.6559
 1767SOL     OW16933   3.415   1.983  11.264  0.2044 -0.6771 -0.6802
 1767SOL    HW116934   3.478   1.915  11.287 -0.8490 -1.4488 -0.0613
 1767SOL    HW216935   3.465   2.062  11.278  0.5305 -0.7611 -1.3709
 1768SOL     OW16936   2.850   1.610  15.269 -0.1859  0.3738 -0.1451
 1768SOL    HW116937   2.918   1.556  15.229 -0.8658 -0.0580 -0.7306
 1768SOL    HW216938   2.866   1.696  15.229 -0.1490  1.0513  1.3524
 1769SOL     OW16939   2.348   2.243   7.141 -0.1771  0.5998  0.1743
 1769SOL    HW116940   2.320   2.293   7.064  0.3998  1.7779  0.7323
 1769SOL    HW216941   2.275   2.182   7.154  0.6317 -0.2523  0.7102
 1770SOL     OW16942   2.436   4.211   2.524 -0.9202  0.5520  0.5702
 1770SOL    HW116943   2.373   4.186   2.456 -2.1860  0.9992  1.6026
 1770SOL    HW216944   2.440   4.130   2.574 -2.7684 -0.4383 -0.8719
 1771SOL     OW16945   2.736   4.723   9.967  0.3958  0.0512  0.0546
 1771SOL    HW116946   2.741   4.719  10.062 -1.5759 -1.6767  0.0720
 1771SOL    HW216947   2.643   4.706   9.951  0.3198  1.6307 -1.1864
 1772SOL     OW16948   2.197   0.750  14.029 -0.3364 -0.6302  0.5144
 1772SOL    HW116949   2.113   0.773  13.989  1.8312  1.0835 -3.0594
 1772SOL    HW216950   2.154   0.696  14.096 -1.9101  0.6209  0.5071
 1773SOL     OW16951   2.002   0.354   1.193  0.6439  0.2871 -0.1416
 1773SOL    HW116952   1.989   0.430   1.135  0.3918  0.2188 -0.1750
 1773SOL    HW216953   2.040   0.398   1.269  2.9728 -0.6220 -0.7619
 1774SOL     OW16954   4.036   4.136   5.967  0.5082 -0.3973  0.1748
 1774SOL    HW116955   3.985   4.134   5.886 -1.3032 -0.3478  1.3006
 1774SOL    HW216956   3.978   4.182   6.029  2.3014  1.6443  0.3277
 1775SOL     OW16957   2.004   1.913   8.210 -0.8037 -0.4501  0.7537
 1775SOL    HW116958   1.954   1.872   8.280 -3.7771  1.7443 -0.0708
 1775SOL    HW216959   2.062   1.841   8.184  0.5380  0.4856  1.1888
 1776SOL     OW16960   0.553   0.988   2.041  0.1237  0.1742 -0.7233
 1776SOL    HW116961   0.517   0.902   2.064  1.1017 -0.5759 -1.9541
 1776SOL    HW216962   0.622   0.974   1.977 -0.4098 -0.0723 -1.2391
 1777SOL     OW16963   2.275   3.364  11.987 -0.2583 -0.5153 -0.0882
 1777SOL    HW116964   2.257   3.284  11.937 -0.1626 -0.1276 -0.7395
 1777SOL    HW216965   2.328   3.415  11.927 -1.4902  0.8055 -0.0358
 1778SOL     OW16966   3.474   0.880  14.548  0.0547 -0.6633  0.4749
 1778SOL    HW116967   3.477   0.931  14.629  1.7309  1.8619 -1.1823
 1778SOL    HW216968   3.397   0.908  14.497 -0.3802  1.2456  2.1858
 1779SOL     OW16969   0.250   2.002   3.127 -0.5494 -0.0299  0.5715
 1779SOL    HW116970   0.191   2.077   3.135 -0.3968  0.2736 -1.1321
 1779SOL    HW216971   0.199   1.943   3.183  0.7463 -1.0601  0.6788
 1780SOL     OW16972   2.116   0.019   3.184 -0.1042 -0.0545  0.1174
 1780SOL    HW116973   2.172   0.055   3.115 -0.2465  0.0028  0.0323
 1780SOL    HW216974   2.151   0.068   3.258 -1.3497 -0.6188  1.0685
 1781SOL     OW16975   3.761   1.997   0.541  0.4406 -0.3465 -0.0679
 1781SOL    HW116976   3.739   1.910   0.575  1.2280 -1.1511 -1.6392
 1781SOL    HW216977   3.768   1.960   0.453 -1.8487  1.1912 -0.8669
 1782SOL     OW16978   1.586   3.478  15.704 -0.0779  0.4934  0.1801
 1782SOL    HW116979   1.551   3.539  15.770  0.9502  2.8487 -1.4618
 1782SOL    HW216980   1.511   3.454  15.650 -0.8966  1.5759  0.8318
 1783SOL     OW16981   1.468   4.054  12.274  0.0916 -0.9972  0.3074
 1783SOL    HW116982   1.484   3.998  12.349 -0.8401 -0.9891  0.5074
 1783SOL    HW216983   1.380   4.033  12.241  0.5565 -1.1045 -0.8852
 1784SOL     OW16984   1.368   1.596   1.926  0.5009 -0.1042 -0.2249
 1784SOL    HW116985   1.328   1.639   1.850  1.8557  1.6924  0.0683
 1784SOL    HW216986   1.282   1.568   1.959 -0.2134  1.0542 -1.0850
 1785SOL     OW16987   1.172   0.463   6.129 -0.3137 -0.4405  0.1250
 1785SOL    HW116988   1.139   0.538   6.179  0.7966 -0.8661  1.5173
 1785SOL    HW216989   1.252   0.455   6.182  0.3253  1.6022 -0.5373
 1786SOL     OW16990   2.922   4.581   3.285  0.3336 -0.3446 -0.3972
 1786SOL    HW116991   2.868   4.588   3.207  0.8346  0.4452 -0.6778
 1786SOL    HW216992   2.864   4.567   3.360 -3.0596 -1.5894 -3.2591
 1787SOL     OW16993   2.737   0.301  11.121  0.5769  0.1204 -0.3588
 1787SOL    HW116994   2.790   0.303  11.201 -0.7602 -1.1697  0.5538
 1787SOL    HW216995   2.724   0.396  11.112  1.0829  0.3456  1.3196
 1788SOL     OW16996   0.259   4.098   8.860 -0.5006  0.4987  0.7723
 1788SOL    HW116997   0.335   4.060   8.905 -0.4124  0.6269  0.7319
 1788SOL    HW216998   0.191   4.105   8.926 -1.7852  1.5578 -0.6864
 1789SOL     OW16999   4.503   1.729   6.275  0.3421 -0.1378  0.3187
 1789SOL    HW117000   4.510   1.788   6.200  1.5126  0.0335  0.5680
 1789SOL    HW217001   4.408   1.736   6.290  0.1476 -0.3548 -0.8311
 1790SOL     OW17002   1.463   2.979   1.701 -0.1663  0.3611 -0.0224
 1790SOL    HW117003   1.496   3.019   1.620 -0.3640 -1.1386 -0.8401
 1790SOL    HW217004   1.493   2.889   1.692 -1.0370 -0.1305  1.9135
 1791SOL     OW17005   1.699   0.903   5.623  0.0178 -0.2125 -0.0994
 1791SOL    HW117006   1.615   0.872   5.659  1.4328 -2.0857  1.5546
 1791SOL    HW217007   1.728   0.820   5.586 -0.1136 -0.5920  0.6439
 1792SOL     OW17008   3.813   2.531   6.601  0.8540  0.4233 -0.2945
 1792SOL    HW117009   3.829   2.586   6.677  0.9720 -0.9686  0.6787
 1792SOL    HW217010   3.900   2.516   6.563  2.6259 -0.0133  3.9482
 1793SOL     OW17011   4.451   4.626  12.170 -0.0763 -0.1561  0.1423
 1793SOL    HW117012   4.520   4.585  12.118  1.0378  1.2395  0.5179
 1793SOL    HW217013   4.502   4.705  12.188 -0.3220  0.2079 -0.7745
 1794SOL     OW17014   3.412   2.130   1.719  0.4880  0.1330 -0.9925
 1794SOL    HW117015   3.453   2.053   1.761  0.4044  0.5220 -0.1901
 1794SOL    HW217016   3.485   2.169   1.670  1.8732 -1.4590 -0.2079
 1795SOL     OW17017   0.675   0.383   2.087  0.2573 -0.0844  0.2088
 1795SOL    HW117018   0.637   0.351   2.169 -1.0112  1.2745  0.1618
 1795SOL    HW217019   0.708   0.303   2.047  0.5620  0.3376 -0.3735
 1796SOL     OW17020   4.596   1.990   3.046  0.3183  0.7285 -0.2518
 1796SOL    HW117021   4.638   1.911   3.080  1.0903  2.0211  1.7492
 1796SOL    HW217022   4.517   1.949   3.010 -0.3198  0.6203  1.2850
 1797SOL     OW17023   0.400   0.825   0.948 -0.7070 -0.2194  0.0208
 1797SOL    HW117024   0.431   0.916   0.950  0.1176 -0.5584  2.7077
 1797SOL    HW217025   0.429   0.793   1.033  0.8632  0.9491 -0.0549
 1798SOL     OW17026   0.856   1.947   7.042 -0.0165 -0.0330 -0.2646
 1798SOL    HW117027   0.913   1.924   6.969 -1.6402 -0.3736 -1.4327
 1798SOL    HW217028   0.937   1.958   7.091 -0.6365  0.3614  0.6620
 1799SOL     OW17029   3.941   3.827   7.664  0.0855 -0.0733  0.7375
 1799SOL    HW117030   4.024   3.809   7.709 -0.8013  0.1135  2.4308
 1799SOL    HW217031   3.980   3.892   7.605 -2.8989 -0.5485 -1.7459
 1800SOL     OW17032   4.165   2.747   9.332 -0.4830  0.0921  0.6045
 1800SOL    HW117033   4.180   2.665   9.285 -1.4275 -0.5082  1.3573
 1800SOL    HW217034   4.248   2.792   9.314  0.4575 -1.7355  0.3239
 1801SOL     OW17035   1.949   0.180   1.567 -0.4417  0.0013 -0.3969
 1801SOL    HW117036   1.938   0.108   1.505  0.7854  0.4964 -1.1840
 1801SOL    HW217037   1.946   0.141   1.654  1.8627  0.5396 -0.0948
 1802SOL     OW17038   0.097   2.006   2.117  0.0263 -0.0199 -0.5352
 1802SOL    HW117039   0.139   1.969   2.039 -3.0680 -1.4418 -1.5353
 1802SOL    HW217040   0.089   1.934   2.180 -1.8025  2.1719  1.7497
 1803SOL     OW17041   2.616   4.197   9.353  0.5733  0.6916 -0.2681
 1803SOL    HW117042   2.603   4.292   9.348 -1.9545  0.3842  0.7237
 1803SOL    HW217043   2.706   4.190   9.387  0.6181  1.0748 -0.3048
 1804SOL     OW17044   1.484   2.223   4.490  0.0049  0.3873 -0.4083
 1804SOL    HW117045   1.558   2.263   4.444  0.2709 -0.5564 -0.8122
 1804SOL    HW217046   1.508   2.241   4.581  1.2336  5.6708 -1.7878
 1805SOL     OW17047   3.887   0.033   8.474  0.0658  0.6531  0.2101
 1805SOL    HW117048   3.845   0.037   8.388  0.8361  2.6893 -0.0870
 1805SOL    HW217049   3.838   4.711   8.530  0.5443  0.8763  0.8627
 1806SOL     OW17050   1.408   0.328  14.018 -0.3225 -0.2315 -0.1265
 1806SOL    HW117051   1.381   0.402  13.965 -1.5900 -0.3375  0.3745
 1806SOL    HW217052   1.494   0.323  13.976 -0.1887 -0.7363  0.2037
 1807SOL     OW17053   2.361   3.532  10.286  0.0032  0.6587  0.1480
 1807SOL    HW117054   2.284   3.588  10.278 -0.9438 -0.5581  0.6065
 1807SOL    HW217055   2.346   3.498  10.374  0.7552  1.1160  0.4510
 1808SOL     OW17056   1.364   2.837   4.817 -0.2309  0.1405  0.5043
 1808SOL    HW117057   1.369   2.822   4.723  3.6285 -2.5916  1.1132
 1808SOL    HW217058   1.306   2.769   4.851 -1.3090 -0.6858 -3.0190
 1809SOL     OW17059   4.449   3.999   8.962  0.5080  0.2135  0.3506
 1809SOL    HW117060   4.369   4.051   8.966 -1.7196 -3.3305  1.6621
 1809SOL    HW217061   4.421   3.912   8.991 -1.0978  0.7828  0.5336
 1810SOL     OW17062   2.615   2.863   4.713  0.1010  0.0469 -0.3275
 1810SOL    HW117063   2.521   2.857   4.695  0.2278 -0.9902 -0.6473
 1810SOL    HW217064   2.629   2.777   4.752 -0.1580 -0.1899 -0.7577
 1811SOL     OW17065   2.506   3.512   8.509  0.2363 -0.4681 -0.0838
 1811SOL    HW117066   2.580   3.467   8.550  2.5528  1.4485 -2.1061
 1811SOL    HW217067   2.454   3.547   8.580  0.3293 -1.1716  0.3324
 1812SOL     OW17068   2.388   2.360   4.237 -0.4764  0.0294  0.1828
 1812SOL    HW117069   2.409   2.272   4.208  1.3863  1.3004 -2.3187
 1812SOL    HW217070   2.329   2.390   4.167  1.1226 -0.9914 -1.6139
 1813SOL     OW17071   1.654   2.838   9.161 -0.4449  0.2293  0.0076
 1813SOL    HW117072   1.638   2.910   9.222  0.9899 -0.3105  1.0305
 1813SOL    HW217073   1.579   2.860   9.106 -1.0393 -2.9992 -0.5012
 1814SOL     OW17074   2.398   1.986   8.025 -0.4566 -0.1744  0.0897
 1814SOL    HW117075   2.492   1.999   8.013 -0.7888  2.3684  0.2030
 1814SOL    HW217076   2.391   2.007   8.118 -0.4648  0.8044 -0.1246
 1815SOL     OW17077   0.032   0.128   1.957  0.1188 -0.2881 -0.4403
 1815SOL    HW117078   4.719   0.159   2.031  1.6130  2.7467 -0.6773
 1815SOL    HW217079   0.065   0.207   1.914  1.6191 -1.4229 -1.3923
 1816SOL     OW17080   3.486   2.931   7.114  0.3583 -0.5085  0.4429
 1816SOL    HW117081   3.541   2.922   7.192 -0.2232  0.8183  1.0050
 1816SOL    HW217082   3.558   2.947   7.053  0.2482  1.6686  0.8924
 1817SOL     OW17083   4.597   0.778   3.806 -0.1837  0.2261 -0.7611
 1817SOL    HW117084   4.673   0.790   3.864  1.3355  1.0083 -2.9364
 1817SOL    HW217085   4.634   0.735   3.729  0.4752  0.4303 -0.5549
 1818SOL     OW17086   2.980   1.122   7.545 -0.1307 -0.2632  0.3748
 1818SOL    HW117087   3.073   1.140   7.533 -0.4053  1.9769  1.4849
 1818SOL    HW217088   2.957   1.095   7.456  1.2778 -0.9323  0.2247
 1819SOL     OW17089   2.680   0.155   3.781 -0.4656 -0.0426  0.1743
 1819SOL    HW117090   2.632   0.199   3.851 -0.8629  1.0201 -0.7736
 1819SOL    HW217091   2.767   0.156   3.820 -0.5941 -2.6431  0.5343
 1820SOL     OW17092   0.067   0.592   2.624  0.6505 -0.3160 -0.0341
 1820SOL    HW117093   0.017   0.665   2.588  1.1413 -0.4577 -0.9910
 1820SOL    HW217094   0.145   0.605   2.570 -0.5284  0.7679 -1.4948
 1821SOL     OW17095   2.357   2.815   8.992  0.1554 -0.1947  0.2325
 1821SOL    HW117096   2.422   2.885   8.992 -0.3276  0.2668  1.2132
 1821SOL    HW217097   2.300   2.841   9.065  0.4800 -0.0572  0.4352
 1822SOL     OW17098   4.641   0.196   7.691 -0.0183  0.0543  0.2590
 1822SOL    HW117099   4.702   0.257   7.650  0.0111 -0.8611 -1.0564
 1822SOL    HW217100   4.568   0.256   7.703  0.5786  1.3331 -2.6343
 1823SOL     OW17101   4.066   3.268   6.924  0.7265 -0.1724 -0.1308
 1823SOL    HW117102   4.065   3.245   7.017 -0.3146  0.8253  0.0978
 1823SOL    HW217103   4.114   3.350   6.918  0.9018 -0.3560 -1.2470
 1824SOL     OW17104   4.188   4.594  14.519 -0.4873  0.0848 -0.2193
 1824SOL    HW117105   4.195   4.570  14.611 -1.5431 -1.3803 -0.5314
 1824SOL    HW217106   4.232   4.679  14.525 -0.6613  0.2557 -1.3108
 1825SOL     OW17107   3.035   0.645   8.309 -0.0070  0.1265 -0.3979
 1825SOL    HW117108   2.950   0.605   8.288  1.2261 -2.3865 -0.5948
 1825SOL    HW217109   3.038   0.712   8.242  1.6718 -1.5729 -2.0232
 1826SOL     OW17110   3.321   4.551   6.753 -0.2557  0.3843 -0.1546
 1826SOL    HW117111   3.340   4.568   6.661 -0.8263  0.0678 -0.3311
 1826SOL    HW217112   3.227   4.569   6.758 -0.3736  0.4770 -2.6191
 1827SOL     OW17113   3.096   3.243   7.245  0.4310  0.2853  0.4163
 1827SOL    HW117114   3.002   3.230   7.233  0.7643  0.3541 -2.3549
 1827SOL    HW217115   3.085   3.334   7.274  0.4526 -0.5035  2.8564
 1828SOL     OW17116   2.331   2.949   2.960 -0.2841  0.6172  0.2579
 1828SOL    HW117117   2.310   2.862   2.925 -1.6820  0.7260  0.8053
 1828SOL    HW217118   2.356   2.995   2.880 -0.4772  0.0840 -0.1122
 1829SOL     OW17119   1.047   0.769   5.875 -0.0918  0.0103  0.1247
 1829SOL    HW117120   0.999   0.762   5.957  0.7657 -1.1069  0.5188
 1829SOL    HW217121   1.062   0.864   5.870 -0.2435 -0.0072 -0.6770
 1830SOL     OW17122   4.487   0.798   6.808 -0.7959  0.1944 -0.4106
 1830SOL    HW117123   4.502   0.815   6.715 -1.8453  0.7783 -0.4700
 1830SOL    HW217124   4.393   0.811   6.816 -0.5834  1.1758  0.5580
 1831SOL     OW17125   2.011   0.268  17.279 -0.2436  0.2135  0.8120
 1831SOL    HW117126   1.916   0.272  17.291 -0.7314 -1.5280 -2.3890
 1831SOL    HW217127   2.048   0.234  17.360  2.2020 -1.6164 -1.0685
 1832SOL     OW17128   0.861   3.132   8.482  0.4392  0.6326 -0.4149
 1832SOL    HW117129   0.920   3.126   8.407 -0.2100  2.7235 -1.0785
 1832SOL    HW217130   0.776   3.107   8.446 -0.1088 -0.2782  1.4567
 1833SOL     OW17131   1.685   2.310   4.797  0.6079  0.2530 -0.2488
 1833SOL    HW117132   1.759   2.352   4.753  0.8273 -1.6459 -1.6956
 1833SOL    HW217133   1.609   2.362   4.770  2.4000  0.6231 -4.5934
 1834SOL     OW17134   3.910   1.110  17.370 -0.4321 -0.2879  0.2241
 1834SOL    HW117135   3.948   1.192  17.340  0.1426 -0.4157  0.6136
 1834SOL    HW217136   3.832   1.110  17.314 -0.5989 -2.9092  0.4434
 1835SOL     OW17137   1.966   3.810   6.979  0.2447  0.3205 -0.2083
 1835SOL    HW117138   1.930   3.722   6.991 -0.4019  0.6662  0.4023
 1835SOL    HW217139   2.051   3.786   7.016 -0.6030  0.3768  1.8094
 1836SOL     OW17140   1.845   1.894   6.419 -0.1148  0.6812  0.2261
 1836SOL    HW117141   1.827   1.890   6.513 -1.5241 -1.3404 -0.1364
 1836SOL    HW217142   1.789   1.823   6.388  1.6422  0.0667 -1.5531
 1837SOL     OW17143   2.007   1.133   0.162 -0.0354  0.3708  0.4220
 1837SOL    HW117144   1.997   1.215   0.113  0.5677  1.2551  1.7774
 1837SOL    HW217145   1.924   1.091   0.138  0.4722 -0.0221 -0.6779
 1838SOL     OW17146   2.421   4.126   7.851  0.0664 -0.4576  0.0063
 1838SOL    HW117147   2.430   4.107   7.945 -2.1431 -0.1879  0.2804
 1838SOL    HW217148   2.376   4.045   7.826  0.6249 -0.8180  0.1698
 1839SOL     OW17149   1.633   2.223   2.817  0.0765 -0.2571 -0.1227
 1839SOL    HW117150   1.582   2.153   2.858  0.1933  0.2711  0.9117
 1839SOL    HW217151   1.584   2.303   2.835 -0.1286 -0.0671 -1.5609
 1840SOL     OW17152   1.746   1.066   6.098  0.2380  0.5766 -0.2292
 1840SOL    HW117153   1.777   1.139   6.151 -3.6096  2.3572 -0.4387
 1840SOL    HW217154   1.826   1.037   6.055  0.3126 -1.1551  1.0505
 1841SOL     OW17155   4.431   0.767   0.932 -0.2971  0.0482 -0.1611
 1841SOL    HW117156   4.371   0.842   0.938  0.5170  0.8487 -2.1299
 1841SOL    HW217157   4.434   0.751   0.838  0.8440 -1.0442  0.0692
 1842SOL     OW17158   2.784   1.176  13.942 -0.6146 -0.1305  0.3128
 1842SOL    HW117159   2.801   1.139  13.855  0.7951 -0.9355  0.9310
 1842SOL    HW217160   2.689   1.161  13.948 -0.3395 -1.8903  0.3520
 1843SOL     OW17161   3.471   0.058   4.107  0.1074 -0.7895  0.4059
 1843SOL    HW117162   3.434   0.062   4.018 -1.5652 -0.7358  1.1000
 1843SOL    HW217163   3.392   0.090   4.151  0.3671  0.0927  0.2220
 1844SOL     OW17164   2.280   3.873  12.575 -0.4259  0.1928 -0.3028
 1844SOL    HW117165   2.235   3.833  12.649  0.4542 -2.7467 -1.3566
 1844SOL    HW217166   2.364   3.876  12.621 -0.9658  1.4864  0.6127
 1845SOL     OW17167   1.367   3.381   6.713 -0.1530  0.3268 -0.4132
 1845SOL    HW117168   1.361   3.467   6.755  1.5221 -0.1445  0.7935
 1845SOL    HW217169   1.304   3.333   6.768 -1.3782  0.3787 -1.7785
 1846SOL     OW17170   4.116   3.306  14.000  0.1105  0.1088 -0.1065
 1846SOL    HW117171   4.167   3.371  14.048  0.8519 -1.1563  0.8170
 1846SOL    HW217172   4.102   3.356  13.919  1.9544  0.9013  0.0705
 1847SOL     OW17173   2.626   1.119   9.436 -0.3688  0.0735 -0.3065
 1847SOL    HW117174   2.616   1.170   9.517 -0.8920 -0.7036  0.1204
 1847SOL    HW217175   2.653   1.183   9.371  2.4554 -0.5617  0.2481
 1848SOL     OW17176   0.895   3.461   7.302  0.1847  0.2671  0.2513
 1848SOL    HW117177   0.926   3.453   7.392  1.0392 -1.6335 -0.2096
 1848SOL    HW217178   0.815   3.416   7.328  0.4562 -0.5946 -0.4258
 1849SOL     OW17179   3.812   4.059   3.447 -0.0463 -0.4853 -0.2487
 1849SOL    HW117180   3.760   4.128   3.487 -1.4330 -1.8034  0.2168
 1849SOL    HW217181   3.758   3.980   3.452 -2.4259  1.3727  3.0369
 1850SOL     OW17182   1.602   2.557  15.885  0.3227 -0.1421  0.4611
 1850SOL    HW117183   1.564   2.483  15.839 -0.3378  0.1758  0.4858
 1850SOL    HW217184   1.686   2.557  15.839 -1.6210  0.2993 -3.1258
 1851SOL     OW17185   2.216   4.058   3.459  0.4929  0.1358  0.0734
 1851SOL    HW117186   2.156   4.111   3.407 -0.5021 -2.2851 -1.2242
 1851SOL    HW217187   2.288   4.119   3.475 -1.4041  1.9536  1.6773
 1852SOL     OW17188   2.124   3.401   4.376  0.3906 -0.8352  0.4202
 1852SOL    HW117189   2.177   3.322   4.366  3.0320  1.0950 -0.9551
 1852SOL    HW217190   2.083   3.389   4.462 -2.0087 -1.8481 -0.8953
 1853SOL     OW17191   1.097   2.014   7.939  0.5360 -0.3971 -0.2959
 1853SOL    HW117192   1.037   1.943   7.914  0.3536 -0.0060 -0.9589
 1853SOL    HW217193   1.154   2.016   7.862  0.7323 -0.2986 -0.1463
 1854SOL     OW17194   3.896   1.061   9.610 -0.1751  0.0818 -0.0857
 1854SOL    HW117195   3.857   1.107   9.536 -1.7574 -0.3020  0.5229
 1854SOL    HW217196   3.989   1.072   9.592 -0.7347  3.7862 -0.6719
 1855SOL     OW17197   4.524   1.893   8.624  0.1400 -0.3267  0.4589
 1855SOL    HW117198   4.464   1.940   8.567  0.1727  0.8375  1.3960
 1855SOL    HW217199   4.529   1.811   8.574 -0.3689 -1.6073  2.5039
 1856SOL     OW17200   0.997   2.822   7.783 -0.3445 -0.0031  1.1646
 1856SOL    HW117201   1.010   2.890   7.716 -0.2743 -0.5516  0.6162
 1856SOL    HW217202   1.005   2.734   7.746  0.9489  1.1550 -1.3119
 1857SOL     OW17203   1.597   2.504   3.805 -0.2607 -0.1902 -0.0200
 1857SOL    HW117204   1.555   2.548   3.879 -1.0060  1.2951 -1.3455
 1857SOL    HW217205   1.521   2.502   3.748 -1.3908 -3.1490  1.5775
 1858SOL     OW17206   3.237   3.644   2.840 -0.1916  0.1456 -0.1410
 1858SOL    HW117207   3.229   3.668   2.748  2.9419 -1.3129 -0.7789
 1858SOL    HW217208   3.217   3.725   2.887 -0.9204 -2.1724  3.5843
 1859SOL     OW17209   0.776   1.045   9.340  0.4017 -0.2075 -0.1487
 1859SOL    HW117210   0.702   1.000   9.298  0.1801 -0.1855  0.2188
 1859SOL    HW217211   0.736   1.131   9.347 -0.8584 -0.7851 -0.2533
 1860SOL     OW17212   0.241   2.797   3.172 -0.0243 -0.2582 -0.2707
 1860SOL    HW117213   0.307   2.765   3.111  0.8993 -0.0203  0.5928
 1860SOL    HW217214   0.207   2.720   3.217  0.5854  1.0449  2.4522
 1861SOL     OW17215   2.866   2.590   5.087 -0.3047 -0.8068 -0.3825
 1861SOL    HW117216   2.954   2.619   5.108 -0.2927 -1.5649  0.6094
 1861SOL    HW217217   2.837   2.680   5.073 -1.7733 -1.1807  0.2452
 1862SOL     OW17218   4.070   1.323   1.281 -0.0101 -0.5871  0.5673
 1862SOL    HW117219   4.028   1.238   1.285 -0.3012 -0.3884  1.6634
 1862SOL    HW217220   4.088   1.318   1.187  0.2072  1.5028  0.4988
 1863SOL     OW17221   1.300   0.093   2.289 -0.0544  0.3119 -0.2928
 1863SOL    HW117222   1.371   0.122   2.346  1.7707 -0.8355 -1.9574
 1863SOL    HW217223   1.274   0.012   2.334 -2.4673  1.0805 -0.3067
 1864SOL     OW17224   4.699   0.823   7.172  0.2435  0.6120  0.3059
 1864SOL    HW117225   0.001   0.745   7.209  1.4964  2.8011  3.6165
 1864SOL    HW217226   0.022   0.890   7.205  1.2527 -0.8800  1.4518
 1865SOL     OW17227   0.902   1.686   5.983  0.2909  0.2240 -0.1829
 1865SOL    HW117228   0.919   1.592   5.977  2.3649  0.5167  0.8913
 1865SOL    HW217229   0.937   1.702   6.071  1.4721  1.8693 -0.9515
 1866SOL     OW17230   3.910   4.037   4.417  0.1837 -0.4654 -0.1106
 1866SOL    HW117231   3.847   4.105   4.444  1.4937  1.1194 -1.0563
 1866SOL    HW217232   3.906   3.969   4.484 -0.2540 -3.2594 -2.9558
 1867SOL     OW17233   0.494   1.026   2.421 -0.1344  0.1969  0.3233
 1867SOL    HW117234   0.562   0.962   2.399  0.7736  1.1986  0.2041
 1867SOL    HW217235   0.454   0.966   2.483 -0.9382  0.3517 -0.0509
 1868SOL     OW17236   4.603   4.032   2.188 -0.4444 -0.2302  0.1248
 1868SOL    HW117237   4.586   4.032   2.282 -2.0554  0.6003 -0.1786
 1868SOL    HW217238   4.570   4.114   2.151  0.4041  0.7540  1.5574
 1869SOL     OW17239   4.713   0.341   2.650 -0.8258  0.5941  0.0759
 1869SOL    HW117240   0.007   0.431   2.652  2.0836 -0.4211 -1.3648
 1869SOL    HW217241   4.680   0.325   2.738 -1.5015  0.6043 -0.1681
 1870SOL     OW17242   1.599   1.410   9.726 -0.0684  0.1444  0.1471
 1870SOL    HW117243   1.555   1.338   9.681  1.4700 -1.0840  0.5959
 1870SOL    HW217244   1.632   1.363   9.803  2.6960  1.5100 -0.2040
 1871SOL     OW17245   2.011   2.261   4.336 -0.2361  0.3947 -0.1859
 1871SOL    HW117246   2.074   2.287   4.269 -0.0600 -1.8531 -0.8826
 1871SOL    HW217247   2.049   2.296   4.417  0.5810  1.6417 -1.0930
 1872SOL     OW17248   1.082   3.615   9.229 -0.0774 -0.1283 -0.1602
 1872SOL    HW117249   1.039   3.557   9.166  2.7830  0.0872 -2.3105
 1872SOL    HW217250   1.071   3.698   9.184 -1.2353 -0.4259 -0.4328
 1873SOL     OW17251   0.684   0.921  16.769  0.3013  0.5184 -0.2587
 1873SOL    HW117252   0.664   0.946  16.859 -0.0166  0.6594 -0.3680
 1873SOL    HW217253   0.677   1.001  16.718 -1.0892  0.5732 -0.0051
 1874SOL     OW17254   4.099   1.915  12.356 -0.5557 -0.1857 -0.3687
 1874SOL    HW117255   4.131   1.960  12.434  1.9599 -0.9098 -0.9657
 1874SOL    HW217256   4.083   1.997  12.309  0.1885 -0.3157 -0.8526
 1875SOL     OW17257   4.715   3.810  14.503  0.1667  0.3471 -0.0216
 1875SOL    HW117258   0.048   3.844  14.556  1.0626  1.1218 -1.7164
 1875SOL    HW217259   0.024   3.744  14.452 -0.1193 -0.8051  1.2095
 1876SOL     OW17260   0.320   0.045   5.902 -0.1886  0.2387  0.2788
 1876SOL    HW117261   0.238   0.024   5.857 -1.2793  1.1536  1.8494
 1876SOL    HW217262   0.384   0.043   5.830 -1.3973 -1.1219 -0.7605
 1877SOL     OW17263   0.548   0.794  11.505  0.1357  0.0580  0.2059
 1877SOL    HW117264   0.581   0.708  11.479 -1.5644 -0.7734  0.7672
 1877SOL    HW217265   0.625   0.848  11.488  0.7470 -1.4441 -1.6925
 1878SOL     OW17266   4.021   0.442   6.935 -0.4468  0.0618 -0.3158
 1878SOL    HW117267   4.116   0.439   6.928 -0.4085  1.3265 -0.2806
 1878SOL    HW217268   4.002   0.436   7.029  0.8749 -0.2765 -0.0791
 1879SOL     OW17269   0.357   2.728  16.193 -0.0423 -0.1336  0.2382
 1879SOL    HW117270   0.401   2.810  16.216 -1.2026  0.0978  1.6626
 1879SOL    HW217271   0.341   2.698  16.282 -2.9623  1.5424  0.2654
 1880SOL     OW17272   2.552   0.304  14.452 -0.1462 -0.1730  0.1722
 1880SOL    HW117273   2.567   0.264  14.538 -0.3300 -2.7264 -0.9808
 1880SOL    HW217274   2.638   0.337  14.428 -1.8909  4.6595  0.5548
 1881SOL     OW17275   2.161   2.076   7.392  0.5668 -0.5927  0.2556
 1881SOL    HW117276   2.092   2.081   7.326  1.3441  3.5067 -0.2031
 1881SOL    HW217277   2.231   2.043   7.336  0.2973 -0.1558 -0.3263
 1882SOL     OW17278   4.349   1.494   2.805  0.4642  0.2228 -0.4049
 1882SOL    HW117279   4.264   1.487   2.850  0.4017  3.4275 -0.0033
 1882SOL    HW217280   4.349   1.589   2.790  0.3482  0.5470  1.6159
 1883SOL     OW17281   4.486   4.319   8.427 -1.0392  0.2397 -0.1024
 1883SOL    HW117282   4.540   4.278   8.494  0.3820  0.6435 -0.9784
 1883SOL    HW217283   4.564   4.352   8.382 -0.6469 -1.0723 -0.3716
 1884SOL     OW17284   0.988   4.125   3.868 -0.9179 -0.6438  0.3775
 1884SOL    HW117285   1.043   4.177   3.928  0.3435  0.2299 -1.5430
 1884SOL    HW217286   1.023   4.156   3.784  0.8536 -0.3337  1.2294
 1885SOL     OW17287   3.272   0.307   6.673  0.3559 -0.0168 -0.6136
 1885SOL    HW117288   3.263   0.271   6.585  0.0224  0.2438 -0.6867
 1885SOL    HW217289   3.182   0.285   6.695  1.0353 -1.2434  0.9301
 1886SOL     OW17290   1.095   3.665  15.279 -0.4034  0.1421 -0.0837
 1886SOL    HW117291   1.053   3.620  15.206  0.4870 -1.0156  0.1135
 1886SOL    HW217292   1.105   3.749  15.233 -1.5161  0.9290  1.1131
 1887SOL     OW17293   3.151   2.303  15.550 -0.4477 -0.4264  0.1472
 1887SOL    HW117294   3.171   2.386  15.592 -1.7465  0.5631 -1.1767
 1887SOL    HW217295   3.169   2.317  15.457 -1.5760 -0.5900 -0.0905
 1888SOL     OW17296   0.735   3.011   3.099  0.6370  0.1758 -0.0865
 1888SOL    HW117297   0.696   3.057   3.174  1.9435  0.6159  0.3314
 1888SOL    HW217298   0.802   3.075   3.074  1.4694  0.2793  2.3855
 1889SOL     OW17299   3.258   3.981   5.920  0.1268  0.0036  0.0410
 1889SOL    HW117300   3.342   3.945   5.948  0.3596  0.5126 -0.0061
 1889SOL    HW217301   3.253   4.051   5.984  0.5027 -1.2307  1.4208
 1890SOL     OW17302   0.447   3.928   8.952  0.4938 -0.5133  0.2318
 1890SOL    HW117303   0.465   3.881   9.033  0.1458  1.2402  1.3214
 1890SOL    HW217304   0.532   3.965   8.927  0.1961 -0.6974 -1.0661
 1891SOL     OW17305   2.961   3.521  12.719 -0.2269  0.4463  0.4017
 1891SOL    HW117306   3.051   3.546  12.697  0.3576 -1.9008  0.1026
 1891SOL    HW217307   2.905   3.527  12.642 -1.5157  1.2354  1.3819
 1892SOL     OW17308   2.699   0.546   3.713  0.5327 -0.2738  0.3258
 1892SOL    HW117309   2.659   0.477   3.661 -1.5250 -0.3239  1.9588
 1892SOL    HW217310   2.631   0.556   3.779 -0.0093  0.8678 -0.4103
 1893SOL     OW17311   4.478   2.484   1.309  0.8442 -0.1596 -0.0649
 1893SOL    HW117312   4.473   2.535   1.390  0.1971  0.1325 -0.2928
 1893SOL    HW217313   4.466   2.395   1.342  0.1449  0.0499  0.2355
 1894SOL     OW17314   2.913   2.542  12.435 -0.1987  0.5084  0.8583
 1894SOL    HW117315   2.941   2.615  12.490  0.4624  2.0703 -1.5617
 1894SOL    HW217316   2.831   2.514  12.477 -0.4806  1.0617  0.6872
 1895SOL     OW17317   0.621   1.698   8.779  0.4711 -0.0981 -0.4131
 1895SOL    HW117318   0.689   1.723   8.716  0.8271 -0.2377 -0.0812
 1895SOL    HW217319   0.555   1.758   8.745 -0.3486 -0.2018  1.0077
 1896SOL     OW17320   2.736   4.084   3.413 -0.1146  0.0023 -0.3929
 1896SOL    HW117321   2.795   4.104   3.341  0.9116 -1.9457 -0.0757
 1896SOL    HW217322   2.779   4.012   3.460  0.0923 -0.1345 -0.7959
 1897SOL     OW17323   3.879   3.178   8.582 -0.1565  0.3367  0.2503
 1897SOL    HW117324   3.866   3.268   8.552  2.9990  1.2066  1.4778
 1897SOL    HW217325   3.791   3.147   8.605  0.5832 -1.4237  0.6978
 1898SOL     OW17326   1.134   1.826   4.704 -0.3082 -0.0551 -0.4947
 1898SOL    HW117327   1.209   1.868   4.662  0.5281 -0.0756  0.9762
 1898SOL    HW217328   1.061   1.861   4.653 -0.7081 -2.0033 -1.2760
 1899SOL     OW17329   2.001   2.752  11.307 -0.1897 -0.3401 -0.1126
 1899SOL    HW117330   2.009   2.745  11.212  1.2550 -0.3295  0.0087
 1899SOL    HW217331   2.022   2.660  11.320  0.8027  0.0400  0.9691
 1900SOL     OW17332   0.022   2.375   9.073  0.0756 -0.4464 -0.0593
 1900SOL    HW117333   0.076   2.394   8.996  0.3010 -3.3372 -0.6187
 1900SOL    HW217334   0.029   2.457   9.123 -0.0653 -0.8091  0.5571
 1901SOL     OW17335   4.552   2.186   2.068  0.3327 -0.0942 -0.1136
 1901SOL    HW117336   4.538   2.172   1.974  0.3534 -2.1482  0.1850
 1901SOL    HW217337   4.461   2.194   2.096 -0.7663 -1.2894 -3.2575
 1902SOL     OW17338   0.145   2.129   3.552  0.3191 -0.0458  0.1862
 1902SOL    HW117339   0.214   2.114   3.488 -0.9744  0.4062 -1.3200
 1902SOL    HW217340   0.204   2.139   3.627 -0.1067  1.3233  0.3420
 1903SOL     OW17341   4.573   0.740   4.159  0.2013 -0.5404 -0.0685
 1903SOL    HW117342   4.622   0.816   4.189  0.4381 -1.2175  1.2873
 1903SOL    HW217343   4.565   0.687   4.238 -0.0042 -1.3807 -0.6528
 1904SOL     OW17344   1.849   0.318   4.778 -0.6711  0.4388 -0.3114
 1904SOL    HW117345   1.908   0.247   4.752  1.5746  1.8838  0.7916
 1904SOL    HW217346   1.893   0.400   4.755 -0.5695  0.2800 -0.6891
 1905SOL     OW17347   3.776   1.704  16.291 -0.4179 -0.2592 -0.1707
 1905SOL    HW117348   3.857   1.734  16.333 -2.5011  1.9832  2.1903
 1905SOL    HW217349   3.733   1.659  16.363 -2.9228 -0.2155 -1.6377
 1906SOL     OW17350   1.421   3.122   8.267 -0.0139 -0.1270 -0.4855
 1906SOL    HW117351   1.470   3.125   8.349 -0.7730 -2.1038  0.0484
 1906SOL    HW217352   1.474   3.053   8.226  0.4265  0.6007 -1.1385
 1907SOL     OW17353   3.143   0.391   3.023  0.5528  0.0008  0.5550
 1907SOL    HW117354   3.100   0.406   3.107  2.9309 -2.0354  2.1725
 1907SOL    HW217355   3.105   0.455   2.963  1.8632  2.1005  1.9466
 1908SOL     OW17356   0.051   3.376   3.629  0.1871  0.4177 -0.0141
 1908SOL    HW117357   4.706   3.338   3.658  1.2065 -1.3315  0.5958
 1908SOL    HW217358   0.093   3.299   3.589 -2.0189 -1.2569  0.8811
 1909SOL     OW17359   1.739   0.082  13.858  0.4827 -0.1374  0.4699
 1909SOL    HW117360   1.719   0.173  13.881 -0.3664 -0.0341 -0.6694
 1909SOL    HW217361   1.813   0.088  13.799  0.3977 -0.3073  0.3464
 1910SOL     OW17362   3.783   2.027   6.959  0.2639 -0.3720 -0.1248
 1910SOL    HW117363   3.878   2.040   6.953  0.1920  0.0818 -0.2700
 1910SOL    HW217364   3.783   1.973   7.039 -0.1161 -2.5831 -1.6113
 1911SOL     OW17365   1.194   2.969   4.337 -0.5911 -0.3409  0.5579
 1911SOL    HW117366   1.173   3.050   4.290  0.7688  0.1989  0.9022
 1911SOL    HW217367   1.164   2.907   4.269 -1.2903  0.0853  0.4730
 1912SOL     OW17368   4.733   4.322   6.474  0.0054 -0.1662 -0.1185
 1912SOL    HW117369   4.714   4.253   6.410  0.9004 -1.2619  0.8132
 1912SOL    HW217370   0.063   4.373   6.431 -1.3512  0.6189 -1.3387
 1913SOL     OW17371   3.392   4.724   2.234 -0.2090  0.2076  0.2134
 1913SOL    HW117372   3.357   4.661   2.297  1.1077  0.7925  1.5076
 1913SOL    HW217373   3.404   4.675   2.152 -3.0835  0.2376 -0.2444
 1914SOL     OW17374   2.903   1.064   7.791  0.3304 -0.4471 -0.3571
 1914SOL    HW117375   2.953   1.105   7.861 -0.7952  1.6774 -0.8143
 1914SOL    HW217376   2.962   1.070   7.715 -0.1700  2.2658 -0.5080
 1915SOL     OW17377   3.432   3.164   1.844  0.0059 -0.3105 -0.1659
 1915SOL    HW117378   3.348   3.162   1.889  0.1152  2.0378  0.1865
 1915SOL    HW217379   3.410   3.145   1.753 -2.1780  2.9378 -0.3339
 1916SOL     OW17380   0.254   2.716   6.522  0.3862  0.1707 -0.1204
 1916SOL    HW117381   0.247   2.764   6.605  1.3412 -0.6907  0.4654
 1916SOL    HW217382   0.256   2.792   6.465 -0.1686  0.3499  0.0955
 1917SOL     OW17383   1.135   1.722   7.479  0.1737 -0.1068 -0.3412
 1917SOL    HW117384   1.151   1.750   7.389  1.1207  0.3036 -0.0487
 1917SOL    HW217385   1.166   1.802   7.521  0.8321 -1.6455  2.1112
 1918SOL     OW17386   0.247   1.536  10.152  0.5055 -0.0973  0.4574
 1918SOL    HW117387   0.219   1.614  10.200 -2.2329 -0.2219 -0.9502
 1918SOL    HW217388   0.276   1.577  10.071  2.0748 -0.7049  0.7039
 1919SOL     OW17389   3.190   4.591   6.244 -0.2132 -0.7205  0.6578
 1919SOL    HW117390   3.172   4.589   6.150  1.6417  0.0305  0.2958
 1919SOL    HW217391   3.119   4.652   6.264 -1.0525 -1.1300 -1.0284
 1920SOL     OW17392   3.844   0.830   1.133 -0.1621  0.5251  0.3451
 1920SOL    HW117393   3.806   0.769   1.070 -1.7958 -0.6794  2.5036
 1920SOL    HW217394   3.929   0.793   1.155  0.6288  0.7405 -2.3733
 1921SOL     OW17395   4.593   0.758   7.754  0.0498  0.2262  0.2177
 1921SOL    HW117396   4.645   0.759   7.834  1.8701 -1.1924 -0.9563
 1921SOL    HW217397   4.535   0.684   7.770  0.2305  0.4587  1.8929
 1922SOL     OW17398   1.656   4.625  13.675  0.5345  0.2884  0.1219
 1922SOL    HW117399   1.685   4.709  13.711 -0.0799 -0.1686  1.7090
 1922SOL    HW217400   1.642   4.652  13.585  0.1429 -0.8552 -0.1586
 1923SOL     OW17401   0.948   1.053   9.103  0.3123 -0.1018 -0.2635
 1923SOL    HW117402   0.897   1.087   9.177  1.3643 -0.2675  0.5335
 1923SOL    HW217403   0.882   1.029   9.038 -0.9766  2.3972  0.1145
 1924SOL     OW17404   1.304   0.544   1.389  0.7584 -0.6454  0.4932
 1924SOL    HW117405   1.386   0.523   1.434 -0.2778 -1.4812  1.9860
 1924SOL    HW217406   1.233   0.543   1.454  1.4231  0.1339  1.2358
 1925SOL     OW17407   3.090   2.743   8.865 -0.4881  0.0455  0.2483
 1925SOL    HW117408   3.130   2.815   8.914  1.6901  0.8161 -2.6840
 1925SOL    HW217409   3.064   2.791   8.786  0.4714  1.4754  0.7995
 1926SOL     OW17410   3.637   0.496   2.574 -0.9473  0.0547 -0.2865
 1926SOL    HW117411   3.699   0.422   2.576 -0.2871  0.6136  0.0061
 1926SOL    HW217412   3.577   0.467   2.642  0.7856 -2.9084 -0.0088
 1927SOL     OW17413   0.016   1.466   1.103 -0.1725  0.1023 -0.0308
 1927SOL    HW117414   4.692   1.407   1.146  3.3359 -2.9894  0.6934
 1927SOL    HW217415   4.689   1.535   1.083 -1.5643 -0.9004  1.0083
 1928SOL     OW17416   0.917   0.455   2.867 -0.0733  0.6529  0.1379
 1928SOL    HW117417   0.998   0.420   2.904 -0.4869 -1.1940 -0.7245
 1928SOL    HW217418   0.931   0.550   2.859  0.6727  0.5948  0.7929
 1929SOL     OW17419   1.908   3.850   7.740  0.1081 -0.4501  0.2375
 1929SOL    HW117420   2.001   3.870   7.737  0.4556 -1.8772  1.7415
 1929SOL    HW217421   1.864   3.903   7.673  1.0513 -1.0758 -0.8805
 1930SOL     OW17422   3.072   4.393   7.134 -0.4710  0.1714 -0.0605
 1930SOL    HW117423   3.126   4.447   7.191  0.6632 -1.2542  0.2305
 1930SOL    HW217424   3.056   4.329   7.203 -0.7530 -1.8352 -1.9462
 1931SOL     OW17425   1.185   1.869   1.152 -0.3227 -0.0366 -0.2050
 1931SOL    HW117426   1.166   1.946   1.205 -2.5976 -0.4902 -0.3446
 1931SOL    HW217427   1.234   1.899   1.075  2.5272 -1.2165  1.1461
 1932SOL     OW17428   1.290   3.999   2.392  0.4229  0.0838  0.6359
 1932SOL    HW117429   1.198   4.017   2.415  0.3409 -0.5195  0.7970
 1932SOL    HW217430   1.269   3.926   2.333  1.0075 -2.9526  4.1196
 1933SOL     OW17431   4.521   2.535  12.292  0.2659  0.3661  0.2462
 1933SOL    HW117432   4.466   2.457  12.283 -0.2050  0.7711 -0.4749
 1933SOL    HW217433   4.503   2.554  12.384 -0.3576  0.7173  0.0580
 1934SOL     OW17434   0.288   1.679   7.073 -0.4434  0.2507 -0.5180
 1934SOL    HW117435   0.290   1.762   7.026  1.0730  0.7898  0.5257
 1934SOL    HW217436   0.193   1.665   7.066 -0.3289 -1.1424  0.6688
 1935SOL     OW17437   0.235   4.665   9.174 -0.2986  0.0458  0.4371
 1935SOL    HW117438   0.217   0.022   9.173 -2.3437 -0.3766 -2.3843
 1935SOL    HW217439   0.220   4.644   9.266 -2.4666 -1.6810 -0.3388
 1936SOL     OW17440   2.027   1.053   5.341  0.5651  0.1428 -0.1866
 1936SOL    HW117441   1.985   1.009   5.267 -0.2173 -0.6133  0.7035
 1936SOL    HW217442   1.948   1.081   5.388 -0.0864 -0.1924 -1.1045
 1937SOL     OW17443   4.291   0.418   5.061 -0.6881  0.2507 -0.3146
 1937SOL    HW117444   4.290   0.436   4.967  0.2888 -1.1053 -0.5858
 1937SOL    HW217445   4.261   0.328   5.058  1.4272 -0.3446 -3.2859
 1938SOL     OW17446   4.444   2.623   9.632 -0.0700 -0.0401 -0.2060
 1938SOL    HW117447   4.383   2.551   9.618  0.7302 -0.6694 -0.4504
 1938SOL    HW217448   4.383   2.683   9.674  0.1324  0.1364 -0.1680
 1939SOL     OW17449   2.972   4.110   5.508  0.2021  0.0242 -0.4710
 1939SOL    HW117450   2.987   4.097   5.602 -0.8709 -1.5288 -0.5094
 1939SOL    HW217451   2.942   4.201   5.506  1.8248  0.5855  0.1880
 1940SOL     OW17452   2.650   0.986   2.081  0.0571  0.2536 -0.1512
 1940SOL    HW117453   2.648   1.067   2.031 -0.6899  0.8653  0.8785
 1940SOL    HW217454   2.612   1.022   2.162  1.3264 -0.9907  1.0068
 1941SOL     OW17455   1.421   4.240  15.154 -0.1102 -0.3190  0.7456
 1941SOL    HW117456   1.419   4.161  15.207 -1.4369 -0.4059  0.5658
 1941SOL    HW217457   1.511   4.243  15.122 -0.7719  0.8073 -0.9728
 1942SOL     OW17458   0.445   3.536   7.645 -0.2116 -0.2476  0.0345
 1942SOL    HW117459   0.422   3.561   7.734 -0.5446 -1.4183  0.2765
 1942SOL    HW217460   0.365   3.557   7.596 -0.4765 -1.0707  0.1046
 1943SOL     OW17461   2.877   3.836   7.378 -0.9371  0.2656  0.1105
 1943SOL    HW117462   2.965   3.805   7.396 -0.7618  1.6698  1.6264
 1943SOL    HW217463   2.847   3.774   7.311  0.7182 -1.1905  0.7339
 1944SOL     OW17464   2.386   3.171   7.589  0.0282  0.5472  0.1566
 1944SOL    HW117465   2.294   3.198   7.584 -0.0061  0.0334 -1.9585
 1944SOL    HW217466   2.405   3.216   7.671 -0.2980  0.7521  0.1196
 1945SOL     OW17467   2.517   1.137  15.186  0.6666 -0.2497  0.4379
 1945SOL    HW117468   2.602   1.123  15.144  1.3042 -1.1035  2.0096
 1945SOL    HW217469   2.526   1.228  15.214 -1.2842  0.0656  0.0659
 1946SOL     OW17470   3.343   2.374   9.434 -0.2927 -0.5690 -0.0303
 1946SOL    HW117471   3.331   2.395   9.341  0.9800 -1.1622 -0.3318
 1946SOL    HW217472   3.402   2.299   9.433 -0.9049 -1.0382 -1.7438
 1947SOL     OW17473   3.237   0.515  11.239  0.4340  0.4019 -0.0227
 1947SOL    HW117474   3.253   0.427  11.273  1.4546  0.9406  0.8660
 1947SOL    HW217475   3.178   0.550  11.306 -1.7845 -1.7775 -0.8462
 1948SOL     OW17476   3.884   0.463   2.437 -0.4028  0.4156 -0.0108
 1948SOL    HW117477   3.881   0.478   2.532 -0.9218 -0.1611  0.0634
 1948SOL    HW217478   3.935   0.536   2.404 -1.3038  0.7925 -0.5587
 1949SOL     OW17479   1.235   1.333   4.539  0.3018 -0.3540  0.1600
 1949SOL    HW117480   1.279   1.249   4.553  0.6014  0.2842  3.0476
 1949SOL    HW217481   1.305   1.393   4.514 -0.4215  0.2612 -0.4015
 1950SOL     OW17482   2.605   1.617   2.018  0.3139  0.5116 -0.6494
 1950SOL    HW117483   2.565   1.672   2.085 -1.6644  1.0989 -2.3158
 1950SOL    HW217484   2.557   1.648   1.941 -2.2793  2.2752  1.6759
 1951SOL     OW17485   3.169   2.429   9.943 -0.4741  0.5738 -0.2183
 1951SOL    HW117486   3.076   2.413   9.961  0.2081 -1.3908  1.4558
 1951SOL    HW217487   3.173   2.510   9.892 -1.0865  0.4437 -0.4785
 1952SOL     OW17488   4.295   4.347  15.659  0.6875 -0.2683 -0.6502
 1952SOL    HW117489   4.299   4.305  15.573 -2.0374 -1.2760 -0.2846
 1952SOL    HW217490   4.361   4.308  15.716  0.0890  3.5903  2.6565
 1953SOL     OW17491   1.419   1.608   2.799 -0.1478 -0.1568 -0.5299
 1953SOL    HW117492   1.486   1.541   2.809 -0.0542 -0.2210 -1.6200
 1953SOL    HW217493   1.470   1.688   2.791 -1.1016  0.2968 -2.1466
 1954SOL     OW17494   0.431   1.245   1.546 -0.0180 -0.1435 -0.1114
 1954SOL    HW117495   0.444   1.213   1.457  1.0778  1.5776 -0.5709
 1954SOL    HW217496   0.516   1.286   1.563  0.0721 -0.4696  0.2023
 1955SOL     OW17497   4.534   2.167   6.887  0.1521  0.4282  0.5303
 1955SOL    HW117498   4.446   2.193   6.916 -1.9960 -2.1344 -3.5267
 1955SOL    HW217499   4.583   2.165   6.969  1.4727 -1.0931 -0.2928
 1956SOL     OW17500   2.913   4.336  16.392  0.4377  0.0089  0.2917
 1956SOL    HW117501   2.991   4.299  16.432  0.1389  1.1469  1.8977
 1956SOL    HW217502   2.845   4.331  16.460  0.6979  2.1557  0.7178
 1957SOL     OW17503   3.199   2.678   5.756 -0.7594  0.6933 -0.6408
 1957SOL    HW117504   3.270   2.624   5.722  0.8018  1.1571  1.8512
 1957SOL    HW217505   3.230   2.769   5.761 -0.5781  0.6120 -0.2960
 1958SOL     OW17506   3.219   2.817   7.241  0.4411 -0.5504  0.1251
 1958SOL    HW117507   3.262   2.781   7.163 -1.0679 -0.5555 -0.7145
 1958SOL    HW217508   3.167   2.888   7.202 -1.9499 -1.9781  0.7193
 1959SOL     OW17509   1.079   1.142  12.981  0.3186 -0.0676  0.1075
 1959SOL    HW117510   1.162   1.097  12.996  0.8062  1.2246  1.3584
 1959SOL    HW217511   1.088   1.193  12.901  0.6152 -0.2772  0.0080
 1960SOL     OW17512   3.776   4.496   7.534 -0.0935 -0.0670  0.0927
 1960SOL    HW117513   3.812   4.421   7.581 -2.1594  0.2008  2.0952
 1960SOL    HW217514   3.822   4.507   7.451  0.1350  0.3383  0.2711
 1961SOL     OW17515   2.251   2.720   1.726 -0.0841 -0.2793 -0.1288
 1961SOL    HW117516   2.267   2.770   1.646 -2.3430  1.2866  0.4228
 1961SOL    HW217517   2.269   2.632   1.693 -0.0834 -1.8033  3.8565
 1962SOL     OW17518   0.992   4.243   6.656  0.1011  0.0344 -0.1036
 1962SOL    HW117519   0.968   4.188   6.730 -1.1179 -2.1287 -2.0889
 1962SOL    HW217520   0.911   4.293   6.652  0.7471  1.1086  0.1776
 1963SOL     OW17521   3.127   1.587   4.200  0.0550  0.3877 -0.1526
 1963SOL    HW117522   3.111   1.680   4.184  2.0269  0.1471 -3.7039
 1963SOL    HW217523   3.060   1.543   4.147  1.2732  1.7551 -2.8765
 1964SOL     OW17524   0.650   2.564   9.803 -0.0269 -0.0950  0.3790
 1964SOL    HW117525   0.738   2.533   9.781 -0.4695 -2.3250  1.7805
 1964SOL    HW217526   0.664   2.659   9.813 -2.5245  0.1109  1.7878
 1965SOL     OW17527   1.738   3.245   1.131 -0.2290 -0.2490 -0.0129
 1965SOL    HW117528   1.826   3.215   1.152  0.2587  0.2398 -1.3766
 1965SOL    HW217529   1.705   3.261   1.220  2.6803 -1.2801  1.2437
 1966SOL     OW17530   1.416   2.879  10.540 -0.0059  0.2245  0.3410
 1966SOL    HW117531   1.409   2.872  10.635  1.0374 -1.1074  0.3230
 1966SOL    HW217532   1.484   2.812  10.528 -0.4252 -0.3278  1.0366
 1967SOL     OW17533   2.557   4.078   8.090 -0.4261 -0.1208 -0.4958
 1967SOL    HW117534   2.638   4.126   8.075 -1.8022  1.8647 -1.5316
 1967SOL    HW217535   2.589   3.996   8.128 -2.4340  0.3307  2.1381
 1968SOL     OW17536   1.316   3.575   6.340 -0.2560 -0.1326 -0.0984
 1968SOL    HW117537   1.315   3.670   6.352  0.6751  0.2114 -2.8323
 1968SOL    HW217538   1.400   3.564   6.385 -0.6113 -0.1819  0.5483
 1969SOL     OW17539   2.615   1.209  11.773  0.2650 -0.6880 -0.2290
 1969SOL    HW117540   2.536   1.168  11.808  1.2621 -1.7818  0.7440
 1969SOL    HW217541   2.688   1.148  11.782  2.4314  1.3385 -3.9357
 1970SOL     OW17542   2.163   4.259  17.018  0.2080 -0.5028 -0.0049
 1970SOL    HW117543   2.143   4.351  17.035  2.0402 -0.4975  2.1027
 1970SOL    HW217544   2.086   4.233  16.968  0.4476  0.2347 -0.7616
 1971SOL     OW17545   3.631   1.920   0.215  0.1207  0.2602 -0.9330
 1971SOL    HW117546   3.588   1.895   0.133 -0.6779  1.3860 -0.8573
 1971SOL    HW217547   3.702   1.856   0.209 -1.2830 -1.3456 -0.2658
 1972SOL     OW17548   3.493   0.816   4.548 -0.5228 -0.1105 -0.2643
 1972SOL    HW117549   3.442   0.881   4.500  0.9167  1.3689  0.2031
 1972SOL    HW217550   3.577   0.825   4.502 -0.0780  0.5780  0.6767
 1973SOL     OW17551   4.382   3.782   7.458 -0.4639 -0.0601 -0.1847
 1973SOL    HW117552   4.305   3.828   7.491 -1.3047 -0.3587 -1.7352
 1973SOL    HW217553   4.388   3.712   7.524  0.0716 -0.7276 -0.9404
 1974SOL     OW17554   0.351   3.368   4.551 -0.6107 -0.1537  1.1276
 1974SOL    HW117555   0.386   3.410   4.630  0.9347 -0.8734  0.8254
 1974SOL    HW217556   0.407   3.290   4.554 -0.2566  0.1323  1.8959
 1975SOL     OW17557   2.949   1.024   6.663  0.3618  0.2428 -0.6796
 1975SOL    HW117558   2.969   1.110   6.626  0.8069  0.5985  0.3916
 1975SOL    HW217559   2.864   1.049   6.700 -0.0670 -2.1594 -0.0136
 1976SOL     OW17560   3.622   1.447  11.214  0.4322 -0.2714 -0.0642
 1976SOL    HW117561   3.586   1.413  11.296  2.5419  0.1642  1.0326
 1976SOL    HW217562   3.716   1.438  11.232  0.7390  1.9928 -0.5522
 1977SOL     OW17563   1.453   0.731   8.671  0.3741  0.3745 -0.6604
 1977SOL    HW117564   1.395   0.729   8.595  1.4448  1.2436 -1.5059
 1977SOL    HW217565   1.496   0.816   8.660 -0.7202  1.0016 -0.1255
 1978SOL     OW17566   3.628   0.080   6.087  0.3436 -0.3555  0.5781
 1978SOL    HW117567   3.562   0.045   6.147 -0.1343  0.9503  0.8325
 1978SOL    HW217568   3.676   0.143   6.141  0.9708 -0.7009  0.4216
 1979SOL     OW17569   3.091   4.291   3.578 -0.5269 -0.7305 -0.0887
 1979SOL    HW117570   3.013   4.346   3.576  0.2704  0.4111  0.2061
 1979SOL    HW217571   3.165   4.352   3.585 -1.2169  0.1902 -0.9097
 1980SOL     OW17572   2.543   0.724   2.068 -0.2593 -0.2273 -0.4402
 1980SOL    HW117573   2.614   0.678   2.112 -1.6457 -0.1938  1.8279
 1980SOL    HW217574   2.575   0.813   2.056  0.4605 -0.1825  1.7501
 1981SOL     OW17575   1.599   0.743   2.443 -0.0801 -0.5680 -0.4192
 1981SOL    HW117576   1.505   0.742   2.429 -0.2656 -1.6394  1.0176
 1981SOL    HW217577   1.592   0.761   2.537  0.1431  2.5377 -0.9943
 1982SOL     OW17578   0.159   0.826   3.293 -0.1887  0.2358  0.2599
 1982SOL    HW117579   0.066   0.805   3.277 -0.0661  0.0291 -0.1958
 1982SOL    HW217580   0.145   0.918   3.316 -2.3515 -0.4167  1.6146
 1983SOL     OW17581   2.664   2.551   6.031  0.3272  0.4604 -0.1564
 1983SOL    HW117582   2.714   2.633   6.039 -0.4664  0.8084  1.2705
 1983SOL    HW217583   2.662   2.550   5.935 -0.2410 -2.6290 -0.1102
 1984SOL     OW17584   4.405   0.586   6.537 -0.3212 -0.0981  0.0040
 1984SOL    HW117585   4.416   0.542   6.621  1.1658  0.3003  0.0213
 1984SOL    HW217586   4.406   0.676   6.572  2.6816  0.1185 -0.6595
 1985SOL     OW17587   3.036   2.380   5.751  0.0122 -0.5859  0.3893
 1985SOL    HW117588   3.039   2.455   5.692 -1.4042  0.6673  1.9130
 1985SOL    HW217589   3.123   2.341   5.738  0.4420  0.0616  1.2914
 1986SOL     OW17590   3.617   1.105   3.837  0.0148  0.2036  0.2874
 1986SOL    HW117591   3.680   1.043   3.875  1.6066  0.0317 -2.6406
 1986SOL    HW217592   3.612   1.070   3.748 -1.6668 -1.3154  0.9666
 1987SOL     OW17593   0.797   0.364  13.783  0.2390  0.1167  0.8138
 1987SOL    HW117594   0.841   0.381  13.866 -0.3577 -1.4952  1.4570
 1987SOL    HW217595   0.846   0.293  13.741 -1.7786 -1.3575  0.9169
 1988SOL     OW17596   0.341   1.326  13.668  0.3452  0.8195  0.0935
 1988SOL    HW117597   0.335   1.328  13.764 -2.4905  2.6079 -0.1560
 1988SOL    HW217598   0.344   1.419  13.646 -0.7106  0.3347 -2.0440
 1989SOL     OW17599   2.427   2.592   8.442 -0.2194 -0.1297  0.7396
 1989SOL    HW117600   2.375   2.601   8.522 -0.0585  0.1423  0.8112
 1989SOL    HW217601   2.515   2.615   8.473  1.8203 -3.3832 -2.6240
 1990SOL     OW17602   2.086   3.504   4.077  0.8852 -0.5489 -0.3629
 1990SOL    HW117603   2.074   3.420   4.033  3.4494 -1.3435  0.4597
 1990SOL    HW217604   2.085   3.475   4.168 -0.2144  1.0512  0.1374
 1991SOL     OW17605   3.224   2.379   3.411  0.1482  0.5276  0.3548
 1991SOL    HW117606   3.301   2.387   3.354  1.1425 -2.2001  1.2966
 1991SOL    HW217607   3.254   2.418   3.493  2.2856  0.1826 -0.2390
 1992SOL     OW17608   1.839   3.306   6.872  0.5144 -0.7752 -0.5376
 1992SOL    HW117609   1.750   3.288   6.843 -0.2545  1.2364  0.5760
 1992SOL    HW217610   1.818   3.365   6.945  0.0325 -0.7610 -0.6919
 1993SOL     OW17611   0.699   1.647   6.824 -0.0252 -0.2261 -0.1388
 1993SOL    HW117612   0.648   1.599   6.889  0.7021  0.3798  0.8922
 1993SOL    HW217613   0.647   1.725   6.806  2.2351  0.7564 -2.4720
 1994SOL     OW17614   0.414   1.741   6.231  0.2256  0.3934 -0.0168
 1994SOL    HW117615   0.424   1.646   6.242  0.0133  0.4047  0.2641
 1994SOL    HW217616   0.407   1.780   6.317 -1.4629 -0.6240  0.3016
 1995SOL     OW17617   0.956   2.944  15.146 -0.5933 -0.2818  0.1627
 1995SOL    HW117618   0.915   2.868  15.187 -0.9870  0.9048  1.9626
 1995SOL    HW217619   0.974   3.003  15.220  2.7322 -0.7810 -0.2447
 1996SOL     OW17620   4.424   3.235   6.640 -1.2446 -0.3410 -0.1423
 1996SOL    HW117621   4.362   3.307   6.646 -0.5063  0.0876  2.3989
 1996SOL    HW217622   4.411   3.203   6.551  1.7072 -0.6929 -0.4606
 1997SOL     OW17623   2.655   3.465   8.163  0.0044 -0.2232  0.4005
 1997SOL    HW117624   2.648   3.553   8.128 -3.2660  0.1872  2.0425
 1997SOL    HW217625   2.714   3.420   8.104  0.1609 -0.6508  0.8768
 1998SOL     OW17626   0.736   1.997   8.165  0.4128 -0.1153  0.2742
 1998SOL    HW117627   0.783   1.926   8.209  1.4931  1.9889  2.5089
 1998SOL    HW217628   0.746   2.071   8.224  2.9005  0.2710 -0.6283
 1999SOL     OW17629   4.444   3.984   7.183  0.1502 -0.4536 -0.2791
 1999SOL    HW117630   4.351   4.001   7.172  0.1272 -0.1886  0.3137
 1999SOL    HW217631   4.463   3.898   7.145  0.0702  0.1608 -1.6859
 2000SOL     OW17632   3.295   2.921   5.799 -0.1736  0.4597 -0.5329
 2000SOL    HW117633   3.245   2.971   5.734 -1.4162  1.5459  1.2726
 2000SOL    HW217634   3.326   2.997   5.847  2.8977 -1.5975  0.7870
 2001SOL     OW17635   4.066   3.055  14.671 -0.6472 -0.2762  0.4115
 2001SOL    HW117636   4.118   3.010  14.737  0.6963  0.0017 -0.4652
 2001SOL    HW217637   4.125   3.037  14.598 -0.8258 -0.4121  0.3005
 2002SOL     OW17638   0.039   2.847   5.538 -0.3278  0.3062 -0.3478
 2002SOL    HW117639   0.029   2.814   5.628  0.2025  0.7612 -0.1224
 2002SOL    HW217640   0.108   2.912   5.548 -0.4930  0.3765  0.3881
 2003SOL     OW17641   3.676   0.048   2.810 -0.5061  0.0348 -0.7213
 2003SOL    HW117642   3.615   4.721   2.844  0.7429  0.3841  2.2410
 2003SOL    HW217643   3.744   0.009   2.866 -0.8350 -0.2899 -0.5475
 2004SOL     OW17644   4.194   0.578  10.062 -0.2248 -0.1808 -0.2315
 2004SOL    HW117645   4.279   0.555  10.100 -1.0027 -1.1295  0.9378
 2004SOL    HW217646   4.146   0.500  10.090 -0.3177 -0.3081 -0.7386
 2005SOL     OW17647   0.089   2.504  15.657  0.7417 -0.2939  0.2373
 2005SOL    HW117648   0.056   2.576  15.603 -1.1267 -1.5440 -0.3165
 2005SOL    HW217649   0.096   2.445  15.581  0.5933 -0.2756  0.2078
 2006SOL     OW17650   4.672   3.565  16.398  0.4949 -0.2968 -0.5534
 2006SOL    HW117651   4.641   3.596  16.483 -0.1333 -0.8891 -0.5671
 2006SOL    HW217652   4.685   3.654  16.365  0.8515 -0.7233 -1.5494
 2007SOL     OW17653   0.674   1.103  14.771  0.1243  0.3203  0.0324
 2007SOL    HW117654   0.662   1.175  14.709  2.3507 -0.1324 -0.8961
 2007SOL    HW217655   0.594   1.112  14.823  0.7884 -0.1342  1.1291
 2008SOL     OW17656   0.646   1.805   6.473  0.7654 -0.4826  0.2706
 2008SOL    HW117657   0.675   1.889   6.436 -0.7871 -0.1300 -0.1498
 2008SOL    HW217658   0.552   1.822   6.479  0.7806  0.4881 -2.2342
 2009SOL     OW17659   3.647   3.867   8.996  0.2868  0.2211 -0.3073
 2009SOL    HW117660   3.659   3.837   8.906 -3.0191 -0.6248 -0.4895
 2009SOL    HW217661   3.571   3.814   9.023  0.0759  0.8760  0.4062
 2010SOL     OW17662   2.913   0.147   2.967  0.0510 -0.2718  0.4516
 2010SOL    HW117663   2.877   0.058   2.959 -0.4218  0.0103 -0.4486
 2010SOL    HW217664   2.956   0.147   2.882 -0.2903  2.8866  0.2910
 2011SOL     OW17665   0.683   1.085   6.023  0.3433 -0.3460  0.2205
 2011SOL    HW117666   0.708   1.177   6.013 -2.1594  0.4003  0.6951
 2011SOL    HW217667   0.711   1.060   5.935 -0.8583  1.7382 -0.7768
 2012SOL     OW17668   0.276   3.285   7.730  0.0047  0.2893  0.1459
 2012SOL    HW117669   0.206   3.242   7.780 -0.3950 -0.6543 -1.1969
 2012SOL    HW217670   0.232   3.370   7.726 -2.3147 -0.9398 -0.8770
 2013SOL     OW17671   3.905   4.443   7.853  0.9259  0.5576  0.1103
 2013SOL    HW117672   3.976   4.447   7.918  0.8775 -0.0742  0.1976
 2013SOL    HW217673   3.931   4.366   7.803  1.0742  1.0689 -0.6023
 2014SOL     OW17674   3.727   3.321  13.306 -0.0794  0.7071 -0.0409
 2014SOL    HW117675   3.664   3.299  13.375  0.8730 -1.1409  0.2250
 2014SOL    HW217676   3.674   3.378  13.250  1.5339  1.3949 -0.8624
 2015SOL     OW17677   3.157   2.759  16.782 -0.1598  0.2502  0.1192
 2015SOL    HW117678   3.071   2.769  16.822  0.2722 -0.3921  1.2231
 2015SOL    HW217679   3.229   2.804  16.828 -0.3767 -0.3086  1.0128
 2016SOL     OW17680   4.484   3.447   2.587  0.2020  0.6221  0.4528
 2016SOL    HW117681   4.487   3.537   2.618 -1.8796  1.3268 -1.3831
 2016SOL    HW217682   4.403   3.450   2.535  1.7334 -1.3756 -2.0832
 2017SOL     OW17683   1.042   1.004   8.110 -0.0797 -0.1341 -0.0592
 2017SOL    HW117684   0.986   1.025   8.035  2.3168  0.8824 -1.5721
 2017SOL    HW217685   0.985   0.943   8.156  0.1608 -0.0124  0.4054
 2018SOL     OW17686   4.494   1.524   3.113 -0.8031  0.7389  0.2302
 2018SOL    HW117687   4.514   1.445   3.063 -1.0136  0.3042  0.8275
 2018SOL    HW217688   4.471   1.485   3.198 -1.9201  0.6375 -0.1124
 2019SOL     OW17689   2.217   1.909  12.540 -0.4401 -0.6229  0.5582
 2019SOL    HW117690   2.165   1.945  12.612 -0.2496 -0.8048  0.7874
 2019SOL    HW217691   2.239   1.980  12.481  0.7117 -2.0847 -0.7830
 2020SOL     OW17692   1.028   4.051   2.522 -0.4166  0.9340  0.0850
 2020SOL    HW117693   1.059   3.964   2.545 -0.0111  2.1422  4.1059
 2020SOL    HW217694   0.966   4.027   2.453  1.3234 -1.8095 -0.4811
 2021SOL     OW17695   1.386   1.555  14.296  0.3966 -0.6963 -0.3904
 2021SOL    HW117696   1.301   1.572  14.337  0.6903 -1.0695  0.3793
 2021SOL    HW217697   1.344   1.501  14.229  1.7715 -1.0747 -0.9283
 2022SOL     OW17698   1.576   4.716  16.861  0.1700  0.2032 -0.6535
 2022SOL    HW117699   1.670   4.733  16.856  0.1293  0.4012 -0.7280
 2022SOL    HW217700   1.567   4.632  16.817 -2.2590 -0.1057  0.3982
 2023SOL     OW17701   1.655   4.538  11.051 -0.6651  0.0539  0.1620
 2023SOL    HW117702   1.564   4.507  11.051 -0.8577  0.6201  0.1528
 2023SOL    HW217703   1.706   4.467  11.013 -1.8239 -0.6444 -0.0933
 2024SOL     OW17704   2.321   2.140  11.862  0.2911 -0.3234  0.3973
 2024SOL    HW117705   2.343   2.233  11.864 -0.8678 -0.0456 -0.1252
 2024SOL    HW217706   2.314   2.132  11.767  0.3457 -0.4316  0.4016
 2025SOL     OW17707   1.260   2.422  11.897  0.1138 -0.5913  0.0375
 2025SOL    HW117708   1.179   2.470  11.915  0.0210 -0.2583 -1.2023
 2025SOL    HW217709   1.294   2.389  11.980 -2.2644 -3.0349  0.0360
 2026SOL     OW17710   1.489   4.152   7.750  0.1281 -0.0669  0.1200
 2026SOL    HW117711   1.489   4.247   7.761  0.6215  0.0346 -0.7070
 2026SOL    HW217712   1.464   4.131   7.840 -0.1481 -0.4408 -0.0442
 2027SOL     OW17713   3.822   1.123   7.155 -0.1995 -0.2327 -0.0796
 2027SOL    HW117714   3.799   1.084   7.070 -1.0657  0.5498 -0.2024
 2027SOL    HW217715   3.822   1.054   7.221 -0.5341 -0.5901 -0.4492
 2028SOL     OW17716   1.625   0.482   2.365 -0.1027 -0.6195 -0.1569
 2028SOL    HW117717   1.683   0.509   2.294 -0.2709  2.1709  0.7669
 2028SOL    HW217718   1.614   0.569   2.402 -1.3669 -1.6260  1.8377
 2029SOL     OW17719   4.400   3.289   5.009 -0.0492  0.1949  0.1646
 2029SOL    HW117720   4.324   3.245   4.970  0.4954  0.1479 -0.8355
 2029SOL    HW217721   4.367   3.315   5.095  1.2031  0.6009  0.5232
 2030SOL     OW17722   3.386   3.405   8.918  0.6355  0.1076  0.1423
 2030SOL    HW117723   3.322   3.344   8.954  1.3302 -0.2787  0.7175
 2030SOL    HW217724   3.444   3.343   8.874 -0.1034  0.5444 -1.4558
 2031SOL     OW17725   1.560   4.654   5.378 -0.0624 -0.0736 -1.3751
 2031SOL    HW117726   1.465   4.650   5.365 -0.3583  1.3076  0.3445
 2031SOL    HW217727   1.578   0.002   5.339 -0.8668 -0.0875 -1.7783
 2032SOL     OW17728   1.434   0.545   5.882  0.2139  0.3662 -0.2002
 2032SOL    HW117729   1.398   0.624   5.922 -0.6890  0.1428 -0.5655
 2032SOL    HW217730   1.352   0.494   5.884 -0.3617  1.3697  1.8995
 2033SOL     OW17731   1.231   4.537   6.171 -0.4781 -0.0105 -0.1784
 2033SOL    HW117732   1.276   4.570   6.249 -1.1166 -0.5165  0.4077
 2033SOL    HW217733   1.188   4.619   6.145  0.1764  0.1775 -0.6746
 2034SOL     OW17734   1.774   3.686   5.301  0.4732  0.3625 -0.1697
 2034SOL    HW117735   1.744   3.773   5.274 -1.9305 -1.2793 -2.7606
 2034SOL    HW217736   1.841   3.694   5.369  0.7805  1.5550 -0.6212
 2035SOL     OW17737   3.576   3.141   5.550  0.0669 -0.0029 -0.3785
 2035SOL    HW117738   3.611   3.155   5.462 -0.1785 -0.9008 -0.6185
 2035SOL    HW217739   3.572   3.046   5.540  1.8231 -0.1072 -0.2224
 2036SOL     OW17740   1.414   3.448   8.937  0.2048 -0.6010 -0.0463
 2036SOL    HW117741   1.378   3.531   8.968  0.7386 -0.2316 -0.4276
 2036SOL    HW217742   1.504   3.467   8.909  0.8634 -1.5586  1.4181
 2037SOL     OW17743   3.259   3.759  11.850  0.2210 -0.2397  0.3646
 2037SOL    HW117744   3.232   3.850  11.844 -0.7363 -0.6905 -1.9904
 2037SOL    HW217745   3.349   3.773  11.881  0.6921  1.1239 -1.6186
 2038SOL     OW17746   3.488   1.617   6.692 -0.3663 -0.2697 -0.3049
 2038SOL    HW117747   3.394   1.598   6.681 -0.5379 -0.3936  1.3893
 2038SOL    HW217748   3.492   1.713   6.695 -2.6796 -0.1800 -0.0954
 2039SOL     OW17749   4.196   2.957   6.850  0.1351 -0.0084 -0.3933
 2039SOL    HW117750   4.127   2.909   6.896  0.4089  0.0821  0.1144
 2039SOL    HW217751   4.193   3.047   6.881  0.5490  0.2941 -1.2389
 2040SOL     OW17752   1.932   3.712   4.016 -0.3037 -0.2910  0.4554
 2040SOL    HW117753   1.945   3.738   3.925  2.4000 -0.6667  0.7404
 2040SOL    HW217754   1.989   3.635   4.016 -0.7036 -0.5943 -1.0311
 2041SOL     OW17755   0.503   2.357  15.878  0.8290  0.6824 -0.3067
 2041SOL    HW117756   0.595   2.374  15.899  0.6629  0.7021  0.4376
 2041SOL    HW217757   0.461   2.389  15.959  0.5195  0.3165 -0.3217
 2042SOL     OW17758   4.579   0.681   2.916 -0.1331 -0.5672  0.1852
 2042SOL    HW117759   4.571   0.777   2.912  4.2193 -0.2415 -0.7942
 2042SOL    HW217760   4.520   0.664   2.843  1.4516  1.9918 -1.6928
 2043SOL     OW17761   0.371   1.124  16.597 -0.3872  0.0040  0.0363
 2043SOL    HW117762   0.332   1.194  16.546  1.8928  0.8095 -0.6232
 2043SOL    HW217763   0.321   1.046  16.572 -2.6491  1.4518  0.0764
 2044SOL     OW17764   1.847   3.242   4.244 -0.5606  0.2192  0.6571
 2044SOL    HW117765   1.901   3.207   4.173 -0.3211  2.8459 -0.4469
 2044SOL    HW217766   1.823   3.326   4.206  2.1826  1.7664  2.3848
 2045SOL     OW17767   1.528   3.763   8.055 -0.1417  0.1065 -0.0070
 2045SOL    HW117768   1.579   3.700   8.105  0.4696 -0.5195 -1.4182
 2045SOL    HW217769   1.546   3.825   8.126 -0.2933 -0.9716  0.9628
 2046SOL     OW17770   0.898   3.211  13.132  0.2457  0.0641 -0.2503
 2046SOL    HW117771   0.938   3.266  13.065  0.2346 -1.5075 -1.5592
 2046SOL    HW217772   0.936   3.125  13.113  0.8190 -0.0321  1.3217
 2047SOL     OW17773   3.248   2.667  16.554 -0.1129 -0.2789  1.0028
 2047SOL    HW117774   3.219   2.582  16.586  1.4605 -1.9534 -2.0584
 2047SOL    HW217775   3.204   2.719  16.622 -0.6825 -0.5166  0.8181
 2048SOL     OW17776   0.287   2.576   7.859 -0.3512  0.2142 -0.2640
 2048SOL    HW117777   0.215   2.634   7.884  1.7595  2.2187  1.1305
 2048SOL    HW217778   0.258   2.551   7.771  1.0026 -0.2097 -0.5881
 2049SOL     OW17779   2.056   3.337   2.021 -0.2404  0.3758  0.4702
 2049SOL    HW117780   2.108   3.368   2.095 -0.8434  0.0589  1.0245
 2049SOL    HW217781   1.970   3.352   2.060 -0.1622  0.5548  0.5711
 2050SOL     OW17782   4.172   2.682   6.098  0.2340  0.1180 -0.2426
 2050SOL    HW117783   4.147   2.713   6.185  0.6245 -1.7860  0.5591
 2050SOL    HW217784   4.113   2.607   6.086  1.0383 -0.1880 -2.2980
 2051SOL     OW17785   2.842   1.026  13.701  0.9796 -0.0003  0.1454
 2051SOL    HW117786   2.870   1.076  13.624 -2.0673 -0.4088 -1.2513
 2051SOL    HW217787   2.751   0.997  13.690  0.2563  2.4476 -0.3352
 2052SOL     OW17788   4.278   0.190  10.747 -0.2304  0.1195  0.0298
 2052SOL    HW117789   4.313   0.106  10.718 -0.2320 -0.0037  0.3847
 2052SOL    HW217790   4.315   0.195  10.835 -0.3806 -0.4789  0.1240
 2053SOL     OW17791   0.537   1.318   4.441 -0.0427  0.2843  0.6070
 2053SOL    HW117792   0.576   1.252   4.384 -2.2707 -0.1491 -0.4230
 2053SOL    HW217793   0.460   1.280   4.484 -0.3099  1.5493  1.2594
 2054SOL     OW17794   2.914   1.384   7.242  0.2031  0.0983  0.2017
 2054SOL    HW117795   2.824   1.394   7.274 -0.1157  0.8552 -0.9154
 2054SOL    HW217796   2.954   1.354   7.323  1.6923  1.8012  0.0830
 2055SOL     OW17797   2.574   3.433   5.402  0.0745 -0.1082  0.2474
 2055SOL    HW117798   2.575   3.400   5.492 -2.3213 -2.8470 -0.7313
 2055SOL    HW217799   2.483   3.422   5.374  0.7281 -3.8802 -0.4494
 2056SOL     OW17800   0.665   4.414   0.938 -0.0302  0.0278 -0.4180
 2056SOL    HW117801   0.643   4.329   0.901  0.2477 -0.3814  0.3641
 2056SOL    HW217802   0.742   4.432   0.885 -2.0990  1.4504 -2.9042
 2057SOL     OW17803   2.755   1.760   1.768 -0.0727  0.8080  0.2593
 2057SOL    HW117804   2.660   1.755   1.781 -0.2382 -1.4710 -1.6446
 2057SOL    HW217805   2.790   1.750   1.856 -0.3722  0.9345  0.3915
 2058SOL     OW17806   2.733   2.291   5.630 -0.0120 -0.1787  0.1271
 2058SOL    HW117807   2.639   2.304   5.633  0.6694  3.8075  3.2222
 2058SOL    HW217808   2.757   2.365   5.574 -3.8197 -1.4221 -3.1668
 2059SOL     OW17809   4.192   2.470   3.629 -0.5260  0.0301  0.7518
 2059SOL    HW117810   4.183   2.458   3.534 -2.2448 -0.1679  0.9301
 2059SOL    HW217811   4.122   2.530   3.655 -0.6591 -0.2518  1.0492
 2060SOL     OW17812   2.376   1.190   5.078 -0.0651  0.4815  0.4090
 2060SOL    HW117813   2.456   1.139   5.085 -0.7997 -0.7076  0.1500
 2060SOL    HW217814   2.384   1.249   5.153 -2.4296 -1.2367  1.9933
 2061SOL     OW17815   1.351   2.885   0.344  0.2894 -0.1910  0.2985
 2061SOL    HW117816   1.369   2.803   0.298 -1.0487 -0.0706 -0.4313
 2061SOL    HW217817   1.365   2.955   0.281  3.4489 -3.2910 -2.4227
 2062SOL     OW17818   1.422   4.116  17.719  0.6207 -0.2739  0.2379
 2062SOL    HW117819   1.340   4.075  17.748  1.1022 -1.5259 -0.1642
 2062SOL    HW217820   1.441   4.059  17.645  3.6673  1.5126 -0.3441
 2063SOL     OW17821   0.835   3.538   8.820 -0.5652  0.2203 -0.3589
 2063SOL    HW117822   0.780   3.605   8.780  0.4692 -0.4931 -2.9649
 2063SOL    HW217823   0.848   3.471   8.753 -0.5952 -1.1911  1.0521
 2064SOL     OW17824   4.004   0.760   6.483 -0.2168  0.6683 -0.3330
 2064SOL    HW117825   3.948   0.704   6.537  1.4711 -0.2865  0.4077
 2064SOL    HW217826   4.050   0.695   6.431 -1.1367  0.9027 -1.4392
 2065SOL     OW17827   4.208   2.146   3.535  0.4478 -1.0013 -0.5857
 2065SOL    HW117828   4.276   2.133   3.601 -0.1736  1.6449  0.5403
 2065SOL    HW217829   4.128   2.150   3.588  1.4480 -0.4462  0.8832
 2066SOL     OW17830   1.359   1.256   2.127 -0.2828 -0.1573 -0.3115
 2066SOL    HW117831   1.396   1.303   2.202  0.0283 -1.4941  0.3630
 2066SOL    HW217832   1.423   1.187   2.108 -1.7940 -1.2670 -1.3093
 2067SOL     OW17833   3.721   2.280   5.497 -0.1983 -0.5235 -0.0408
 2067SOL    HW117834   3.795   2.340   5.509  0.6729 -1.7862  0.9261
 2067SOL    HW217835   3.763   2.199   5.524  0.4536 -0.1620  0.0469
 2068SOL     OW17836   4.667   2.808   9.229 -0.1700 -0.0628  0.8407
 2068SOL    HW117837   4.692   2.850   9.147  0.8632 -1.5278  0.4138
 2068SOL    HW217838   4.701   2.719   9.226  0.2567  0.1875 -1.3185
 2069SOL     OW17839   2.443   2.234   8.695 -0.0873  0.1959 -0.3802
 2069SOL    HW117840   2.536   2.215   8.687 -0.3121 -1.9742  2.0695
 2069SOL    HW217841   2.428   2.260   8.786 -0.2806 -1.2530  0.0016
 2070SOL     OW17842   4.125   2.127  17.676  0.4534 -0.3763  0.5081
 2070SOL    HW117843   4.219   2.138  17.689  0.6863  0.4795 -1.8944
 2070SOL    HW217844   4.081   2.139   0.010  0.0984  2.1427 -0.0437
 2071SOL     OW17845   3.765   4.479   3.752  0.2759  0.1247  0.0900
 2071SOL    HW117846   3.812   4.514   3.828 -0.3577 -2.2839  1.6241
 2071SOL    HW217847   3.792   4.387   3.759  1.0701  0.4603  1.5832
 2072SOL     OW17848   2.729   3.636   3.808  0.5696  0.0148  0.1038
 2072SOL    HW117849   2.712   3.564   3.869 -1.6170  1.8495  1.6413
 2072SOL    HW217850   2.638   3.658   3.790  0.0466 -2.4553 -0.2806
 2073SOL     OW17851   3.997   2.954   0.817  0.5059 -0.1556 -0.2433
 2073SOL    HW117852   3.908   2.989   0.821  1.1821  1.7814 -2.3272
 2073SOL    HW217853   4.019   2.951   0.910  0.5109  0.3010 -0.2285
 2074SOL     OW17854   1.004   3.534  15.054  0.7241  0.5014 -0.3445
 2074SOL    HW117855   0.960   3.470  14.997  2.3418 -0.6812 -0.2562
 2074SOL    HW217856   0.993   3.615  15.005  0.3855  0.1204 -0.9085
 2075SOL     OW17857   0.701   0.313   6.720  0.0710 -0.2204  0.8868
 2075SOL    HW117858   0.688   0.326   6.626  3.7661 -1.2464  0.2245
 2075SOL    HW217859   0.666   0.396   6.753  0.0062  0.9130 -2.0055
 2076SOL     OW17860   1.831   4.418   1.740  0.1520  0.6315 -0.2592
 2076SOL    HW117861   1.849   4.474   1.816  0.0275 -0.8420  0.8645
 2076SOL    HW217862   1.775   4.480   1.694  0.8994 -0.3694 -2.5048
 2077SOL     OW17863   1.919   3.374  15.948 -0.2004 -0.3553 -0.0166
 2077SOL    HW117864   1.875   3.334  15.873  1.1426 -1.2120 -0.3437
 2077SOL    HW217865   1.942   3.298  16.001 -1.8222  0.0164  1.2497
 2078SOL     OW17866   4.205   1.546   6.010  0.0536  0.0135 -0.9258
 2078SOL    HW117867   4.269   1.580   5.948  2.1052 -0.1063  1.1551
 2078SOL    HW217868   4.134   1.537   5.946 -0.3364  0.0340 -0.5000
 2079SOL     OW17869   1.474   0.843  10.584  0.8523  0.2432  0.0614
 2079SOL    HW117870   1.555   0.861  10.632 -0.3894  2.2581  1.4395
 2079SOL    HW217871   1.435   0.927  10.558 -0.6690 -0.8516 -1.2071
 2080SOL     OW17872   4.270   3.259   1.416 -0.0382  0.1580  0.3849
 2080SOL    HW117873   4.255   3.327   1.350  1.6780 -0.0635 -0.2202
 2080SOL    HW217874   4.343   3.209   1.381  1.0957  0.7390  1.9333
 2081SOL     OW17875   0.755   3.971   8.569  0.2375 -0.5349 -0.0392
 2081SOL    HW117876   0.773   4.040   8.506 -0.1719  0.8301  1.3423
 2081SOL    HW217877   0.746   4.023   8.648  1.0710 -0.7956  0.2169
 2082SOL     OW17878   2.762   4.579  13.764 -0.1760  0.4403 -0.6406
 2082SOL    HW117879   2.697   4.589  13.695  0.6250 -1.5980 -1.6694
 2082SOL    HW217880   2.753   4.488  13.792  0.6903  0.3021 -0.7925
 2083SOL     OW17881   0.126   3.972  13.434 -0.5395  0.9619 -0.0930
 2083SOL    HW117882   0.187   3.910  13.473 -0.2625 -0.5712 -2.9479
 2083SOL    HW217883   0.072   4.001  13.507  1.6599 -0.2771  2.0267
 2084SOL     OW17884   0.932   0.435  16.316 -0.3596  0.2008 -0.0375
 2084SOL    HW117885   1.023   0.415  16.297 -0.3520  0.9808 -0.7946
 2084SOL    HW217886   0.939   0.529  16.330  2.5449 -0.3905  2.5729
 2085SOL     OW17887   2.959   1.524   0.223 -0.3426 -0.3329 -0.2088
 2085SOL    HW117888   2.933   1.449   0.277 -1.3693 -0.3554 -0.7353
 2085SOL    HW217889   3.050   1.500   0.206  0.0321 -0.2951  1.6796
 2086SOL     OW17890   0.342   4.005   7.719 -0.1949  0.0968 -0.6831
 2086SOL    HW117891   0.344   4.089   7.767 -0.4026 -0.6254  0.5950
 2086SOL    HW217892   0.385   3.952   7.786  0.2082  1.0722 -0.1580
 2087SOL     OW17893   2.277   3.741   6.973 -0.3016  0.2892 -0.6046
 2087SOL    HW117894   2.220   3.708   7.042  0.8026 -1.0334 -0.3279
 2087SOL    HW217895   2.310   3.661   6.933  1.6681  1.6594 -1.7698
 2088SOL     OW17896   2.008   3.819   2.654 -0.6155  0.0793  0.2756
 2088SOL    HW117897   2.041   3.905   2.679  0.6977  0.4605 -2.7888
 2088SOL    HW217898   1.917   3.842   2.635 -0.0490  2.1286  0.0534
 2089SOL     OW17899   1.576   3.587   2.735 -0.5385  0.3269 -0.3749
 2089SOL    HW117900   1.632   3.530   2.682 -0.6027 -1.0536  1.0530
 2089SOL    HW217901   1.543   3.644   2.666  1.6418  2.8154  0.6415
 2090SOL     OW17902   2.044   2.234   7.787 -0.0646  0.3147 -0.1126
 2090SOL    HW117903   2.089   2.163   7.742 -1.4104  0.0778 -1.1065
 2090SOL    HW217904   2.120   2.291   7.802  0.4414  0.5230 -3.3168
 2091SOL     OW17905   1.205   3.897  12.257 -0.0640 -0.1080  0.0381
 2091SOL    HW117906   1.200   3.806  12.228  2.4567 -0.4836  0.8229
 2091SOL    HW217907   1.118   3.896  12.298  0.3574 -0.4808  0.9175
 2092SOL     OW17908   1.606   2.901   2.764  0.2842 -0.0338  0.5734
 2092SOL    HW117909   1.639   2.874   2.679  0.8048 -0.0113  0.7674
 2092SOL    HW217910   1.673   2.869   2.824 -1.0667 -2.9487  0.5393
 2093SOL     OW17911   4.534   2.765   4.788  0.6953  0.2096 -0.3311
 2093SOL    HW117912   4.574   2.713   4.718  0.7842  0.1538 -0.2369
 2093SOL    HW217913   4.609   2.798   4.836 -1.4549  1.9368  1.8334
 2094SOL     OW17914   4.172   0.910   7.362  0.3754  0.0641  0.0996
 2094SOL    HW117915   4.082   0.927   7.336  0.3839 -0.3666 -0.2017
 2094SOL    HW217916   4.217   0.931   7.281  0.0431  0.2116 -0.0447
 2095SOL     OW17917   2.931   2.241   6.594 -0.2290  0.0712  0.2334
 2095SOL    HW117918   2.980   2.315   6.629  0.2612 -0.1338 -0.0105
 2095SOL    HW217919   2.879   2.294   6.533  1.2753  0.3261 -0.8182
 2096SOL     OW17920   0.082   0.303   8.590  0.1492  0.1058  0.7045
 2096SOL    HW117921   4.731   0.270   8.603  1.3769 -3.9478 -1.0640
 2096SOL    HW217922   0.078   0.329   8.498 -1.4517 -0.8426  0.5004
 2097SOL     OW17923   3.005   1.743   5.905 -0.3048  0.4241 -0.4276
 2097SOL    HW117924   3.014   1.835   5.928 -0.1403  0.0475  1.0066
 2097SOL    HW217925   2.948   1.707   5.973  1.0150 -1.2384 -0.1872
 2098SOL     OW17926   0.038   2.910  14.497  0.3124 -0.6211 -0.3354
 2098SOL    HW117927   0.068   2.954  14.576  0.1403 -1.5701  0.2695
 2098SOL    HW217928   0.095   2.954  14.434 -1.0990  1.1724 -0.3545
 2099SOL     OW17929   2.163   0.589  10.635 -0.8383  0.7078 -0.2519
 2099SOL    HW117930   2.187   0.655  10.570  0.8317  0.2344 -0.1371
 2099SOL    HW217931   2.190   0.628  10.718 -1.2147 -0.8713  0.6195
 2100SOL     OW17932   0.158   3.815  12.928 -0.3550  0.3720 -0.7117
 2100SOL    HW117933   0.167   3.731  12.883 -0.7247  0.5662 -1.1391
 2100SOL    HW217934   0.113   3.871  12.865 -3.0730  0.7813  1.5581
 2101SOL     OW17935   0.484   0.214   7.997  0.4071  0.6079 -0.3571
 2101SOL    HW117936   0.454   0.201   7.907 -0.7173  1.5839 -0.1306
 2101SOL    HW217937   0.416   0.264   8.043  0.2065 -0.8436  0.9339
 2102SOL     OW17938   0.284   2.617   2.424  0.3654  0.6021 -0.2167
 2102SOL    HW117939   0.201   2.635   2.468  1.1921  0.8130  1.2598
 2102SOL    HW217940   0.342   2.593   2.496  0.8905  1.6860 -0.2810
 2103SOL     OW17941   3.044   0.899   4.569  0.4042 -0.0129  0.0398
 2103SOL    HW117942   2.964   0.939   4.533  0.2225  0.9959  1.5865
 2103SOL    HW217943   3.006   0.818   4.605 -0.1668  0.5478  0.6959
 2104SOL     OW17944   2.558   2.975   3.179  0.3206  0.4024  0.2725
 2104SOL    HW117945   2.507   2.908   3.133  0.3254  0.5314  0.0759
 2104SOL    HW217946   2.579   2.936   3.263  1.7012 -1.3436 -0.8956
 2105SOL     OW17947   3.313   3.155   1.604 -0.2787 -0.1239 -0.4461
 2105SOL    HW117948   3.298   3.126   1.514 -0.3510 -1.2248 -0.0844
 2105SOL    HW217949   3.266   3.238   1.605  0.4175  0.2460  1.2604
 2106SOL     OW17950   0.755   2.704   1.714  0.0575 -0.0026  0.4615
 2106SOL    HW117951   0.837   2.725   1.758  1.1030 -1.8362 -0.6038
 2106SOL    HW217952   0.767   2.609   1.711  0.2136  0.0670 -0.7969
 2107SOL     OW17953   2.471   3.101   8.125  0.5704  0.2995 -0.3118
 2107SOL    HW117954   2.541   3.038   8.142 -0.6112 -0.5609  1.3556
 2107SOL    HW217955   2.496   3.133   8.038 -0.4510  0.1055 -0.6737
 2108SOL     OW17956   0.748   2.435   2.781  0.1874 -0.0392  0.4277
 2108SOL    HW117957   0.840   2.451   2.802  0.5070 -0.5386 -0.5679
 2108SOL    HW217958   0.756   2.433   2.685  0.1933  3.0991  0.3774
 2109SOL     OW17959   1.091   3.811  17.650 -0.0311 -0.1157 -0.5272
 2109SOL    HW117960   1.060   3.726  17.681 -1.2473  0.0202 -1.3688
 2109SOL    HW217961   1.164   3.797  17.590  0.7164 -0.3889  0.4407
 2110SOL     OW17962   3.636   1.802   8.391 -0.1444  0.0036 -0.5500
 2110SOL    HW117963   3.689   1.871   8.352 -1.1695  0.0751 -1.8009
 2110SOL    HW217964   3.547   1.811   8.358  0.4571  2.7537 -1.4789
 2111SOL     OW17965   4.257   0.021  12.309  0.0287 -0.0237 -0.8253
 2111SOL    HW117966   4.330   4.717  12.264  1.2333 -1.1685  2.2443
 2111SOL    HW217967   4.306   0.088  12.356 -1.5128 -0.9091  2.0725
 2112SOL     OW17968   4.530   2.462  14.916  0.3411 -0.5308 -0.1364
 2112SOL    HW117969   4.460   2.404  14.888 -0.2154  0.5174 -0.9313
 2112SOL    HW217970   4.514   2.542  14.865 -0.3102 -1.1072 -0.8295
 2113SOL     OW17971   3.521   3.310   2.649  0.1305  0.0141 -0.5518
 2113SOL    HW117972   3.578   3.364   2.593  1.1518 -0.2485  0.2374
 2113SOL    HW217973   3.573   3.230   2.637  0.6302  0.2703 -0.0900
 2114SOL     OW17974   3.910   1.624   3.883 -0.6235  0.1533  0.3791
 2114SOL    HW117975   3.864   1.543   3.862  0.3699 -0.1816 -0.4686
 2114SOL    HW217976   3.862   1.662   3.957  1.0062  1.2992  0.8496
 2115SOL     OW17977   4.223   4.686   7.289 -0.1166  0.0248 -0.6640
 2115SOL    HW117978   4.202   0.036   7.256 -2.0126 -0.0145  0.4653
 2115SOL    HW217979   4.193   4.625   7.222  3.0847 -0.5086 -1.6357
 2116SOL     OW17980   1.148   0.967   6.378  0.0130 -0.3054 -0.4688
 2116SOL    HW117981   1.196   1.006   6.305 -0.4486  0.1006 -0.5569
 2116SOL    HW217982   1.062   1.010   6.384  0.6859  1.1832 -1.3595
 2117SOL     OW17983   0.544   1.005   7.158 -0.1354  0.1224  0.0174
 2117SOL    HW117984   0.529   1.047   7.074  0.1291 -0.0170 -0.1006
 2117SOL    HW217985   0.555   1.085   7.209  1.2489  0.1041 -0.2658
 2118SOL     OW17986   4.727   4.597   1.953 -0.2826 -0.8634  0.5970
 2118SOL    HW117987   0.011   4.686   1.927 -1.9928 -1.1672 -1.8976
 2118SOL    HW217988   0.058   4.551   1.905 -1.1739 -1.0681 -0.4906
 2119SOL     OW17989   2.684   0.303   7.591 -0.0343 -0.0470 -0.5187
 2119SOL    HW117990   2.660   0.237   7.656  1.6660  0.7930  0.9394
 2119SOL    HW217991   2.749   0.350   7.642  1.0220 -2.4151  0.3297
 2120SOL     OW17992   2.987   1.053  11.010  0.5328 -0.0617 -0.0304
 2120SOL    HW117993   3.041   1.033  10.934 -1.4782  1.4132 -1.8514
 2120SOL    HW217994   3.047   1.056  11.084  1.8238  1.3026 -1.1403
 2121SOL     OW17995   4.023   1.768   3.093  0.3255  0.0435  0.1267
 2121SOL    HW117996   3.965   1.843   3.104 -1.6299 -1.3404 -0.7759
 2121SOL    HW217997   4.087   1.788   3.161 -0.1889  1.8510  0.0754
 2122SOL     OW17998   0.710   1.319   3.542 -0.3228 -0.0192  0.2526
 2122SOL    HW117999   0.642   1.339   3.478 -0.5730  0.5943  0.7064
 2122SOL    HW218000   0.734   1.402   3.582  0.2989 -0.0583 -0.0470
 2123SOL     OW18001   1.154   0.626   9.811  0.1382  0.9757 -0.4743
 2123SOL    HW118002   1.173   0.624   9.717  2.2015  0.2051 -0.0416
 2123SOL    HW218003   1.086   0.691   9.796  0.2514  1.5054  1.2821
 2124SOL     OW18004   1.981   3.640  12.603 -0.5772  0.1346  0.5540
 2124SOL    HW118005   1.911   3.609  12.660 -1.8630  0.7266 -0.7362
 2124SOL    HW218006   2.038   3.678  12.671 -0.5263 -1.1710  1.2502
 2125SOL     OW18007   3.911   1.661   8.700  0.5941  0.4327 -0.1619
 2125SOL    HW118008   3.959   1.669   8.618  1.6656  0.5764  0.4743
 2125SOL    HW218009   3.924   1.567   8.707  0.6677  0.4915  0.5263
 2126SOL     OW18010   0.158   3.015   2.518  0.0698  0.1445  0.3503
 2126SOL    HW118011   0.209   2.978   2.446  0.6602  1.4192  0.1312
 2126SOL    HW218012   0.083   3.051   2.470  2.3379 -0.5311 -3.7461
 2127SOL     OW18013   0.016   2.180   8.134 -0.3137  0.0949  0.4689
 2127SOL    HW118014   4.665   2.191   8.168  0.5121  3.9004  1.3127
 2127SOL    HW218015   0.014   2.120   8.059  0.2154  0.4612  0.1618
 2128SOL     OW18016   4.158   1.980   8.999 -0.2599 -0.2229 -0.5411
 2128SOL    HW118017   4.120   2.018   8.920  0.7758  0.4149 -0.7258
 2128SOL    HW218018   4.237   2.033   9.004 -0.2587 -0.5046  2.4348
 2129SOL     OW18019   0.214   3.647  16.208  0.1795 -0.2397  0.4756
 2129SOL    HW118020   0.192   3.687  16.124  0.6316  1.2166  1.0537
 2129SOL    HW218021   0.199   3.715  16.274 -0.7287 -0.8440  0.8896
 2130SOL     OW18022   0.346   3.355   4.866 -0.2223 -0.0009 -0.0014
 2130SOL    HW118023   0.360   3.367   4.960 -1.8426 -0.2050  0.2780
 2130SOL    HW218024   0.404   3.281   4.851  1.1028  1.1514 -0.4921
 2131SOL     OW18025   2.072   3.713  16.047 -0.0753  0.1193 -0.7033
 2131SOL    HW118026   1.979   3.706  16.069 -0.1187  1.5361 -0.3981
 2131SOL    HW218027   2.106   3.778  16.108 -1.7033  0.9468 -0.6747
 2132SOL     OW18028   3.463   2.431   1.924 -0.2375 -0.1712 -0.0449
 2132SOL    HW118029   3.408   2.508   1.936  0.7548  0.4778  0.3301
 2132SOL    HW218030   3.417   2.371   1.983  1.7987 -0.5294  1.1601
 2133SOL     OW18031   0.682   3.587   3.294  0.1418 -0.5374 -0.1570
 2133SOL    HW118032   0.623   3.643   3.244  0.9967  0.7641  0.2980
 2133SOL    HW218033   0.646   3.500   3.276  0.8832 -1.0361  0.7510
 2134SOL     OW18034   3.072   0.498   5.024 -0.4464  0.0793  0.2014
 2134SOL    HW118035   3.143   0.555   5.054 -0.8565  1.2931 -1.1705
 2134SOL    HW218036   3.031   0.500   5.111  0.5713  1.3281  0.6453
 2135SOL     OW18037   0.739   1.656   4.392  0.3879 -0.2434 -0.1074
 2135SOL    HW118038   0.715   1.749   4.386 -0.7257 -0.7015 -2.6799
 2135SOL    HW218039   0.831   1.653   4.365  0.2838  2.1008 -0.7061
 2136SOL     OW18040   0.486   1.934   0.821 -0.4089 -0.3465  0.2693
 2136SOL    HW118041   0.412   1.900   0.872 -1.6449 -0.0009 -1.3185
 2136SOL    HW218042   0.528   1.860   0.779 -1.5395 -0.4589 -0.6522
 2137SOL     OW18043   0.047   1.833   5.994 -0.3581 -0.8292 -1.3114
 2137SOL    HW118044   0.101   1.796   5.924  0.7538 -1.6470 -0.0206
 2137SOL    HW218045   0.106   1.831   6.070 -1.8409  0.9305 -0.1111
 2138SOL     OW18046   4.598   2.857   4.409  0.7011  0.1727 -0.4478
 2138SOL    HW118047   4.569   2.815   4.328 -0.0000 -1.5539  0.6834
 2138SOL    HW218048   4.640   2.779   4.446 -2.4039 -0.9561  0.6876
 2139SOL     OW18049   4.393   1.225   5.000 -0.0368 -0.2324  0.5690
 2139SOL    HW118050   4.439   1.184   4.927  1.6206  1.0203  0.8976
 2139SOL    HW218051   4.357   1.304   4.958 -0.7207 -0.8957 -0.0990
 2140SOL     OW18052   4.055   4.131   2.108 -0.0019 -0.2436  0.9401
 2140SOL    HW118053   4.083   4.222   2.113  1.5754 -0.6202 -0.9528
 2140SOL    HW218054   4.008   4.126   2.025 -1.1337  4.1961  1.3463
 2141SOL     OW18055   0.119   0.684   2.017 -0.5822 -0.3281 -0.3669
 2141SOL    HW118056   0.075   0.609   2.057  0.3973  0.6177  2.5115
 2141SOL    HW218057   0.130   0.661   1.925  0.2718 -0.7657 -0.1540
 2142SOL     OW18058   2.089   0.583   3.320 -0.1095  0.5756  0.3974
 2142SOL    HW118059   2.059   0.577   3.229 -1.5341 -0.1446  0.9252
 2142SOL    HW218060   2.010   0.555   3.366  0.3942  0.4752  1.1912
 2143SOL     OW18061   3.349   3.361   4.044 -0.3541  0.1436 -0.5057
 2143SOL    HW118062   3.404   3.283   4.033  0.0648  0.3163  0.4106
 2143SOL    HW218063   3.276   3.343   3.984  0.1168  2.7799 -1.8745
 2144SOL     OW18064   0.024   2.744   7.217 -0.1237  0.1231  0.8266
 2144SOL    HW118065   0.064   2.748   7.131 -2.8538  0.2209 -0.4354
 2144SOL    HW218066   4.715   2.827   7.227 -0.5108  0.2706 -2.4409
 2145SOL     OW18067   3.304   1.860   8.099 -0.5526 -0.1054  0.3751
 2145SOL    HW118068   3.284   1.893   8.011  1.9362 -0.0816 -0.1849
 2145SOL    HW218069   3.269   1.772   8.085 -0.9540  0.4548 -2.2570
 2146SOL     OW18070   1.535   0.737   5.039  0.0902  0.1692  0.0514
 2146SOL    HW118071   1.629   0.727   5.026 -0.3797 -0.8844 -2.7175
 2146SOL    HW218072   1.529   0.732   5.134  0.4037 -2.2675 -0.0723
 2147SOL     OW18073   3.527   2.578   7.450  0.5407 -0.3566  0.1761
 2147SOL    HW118074   3.446   2.533   7.474 -0.4212  1.6739  0.7231
 2147SOL    HW218075   3.499   2.667   7.428  0.7651  0.0285  1.4698
 2148SOL     OW18076   1.196   2.414   8.779  0.2486 -0.0346  0.2368
 2148SOL    HW118077   1.261   2.444   8.842 -0.2692  3.5007 -0.9363
 2148SOL    HW218078   1.160   2.337   8.824  1.2542 -0.6273  0.0245
 2149SOL     OW18079   2.337   4.599  16.902 -0.4757  0.2955 -0.3903
 2149SOL    HW118080   2.331   4.693  16.885 -0.2096  0.5259  0.7881
 2149SOL    HW218081   2.341   4.603  16.998 -1.9842  1.1759 -0.3660
 2150SOL     OW18082   3.100   3.494   7.307 -0.6525  0.5237  0.1358
 2150SOL    HW118083   3.182   3.506   7.355  1.2440 -1.1551 -2.7073
 2150SOL    HW218084   3.078   3.577   7.263 -0.9855  0.1175 -0.4538
 2151SOL     OW18085   2.090   3.936  15.258  0.4006  0.3267 -0.1175
 2151SOL    HW118086   2.176   3.963  15.289  0.4322 -1.1534  1.0997
 2151SOL    HW218087   2.045   3.934  15.343 -0.5895  0.3761 -0.6351
 2152SOL     OW18088   2.112   3.523   7.375 -0.0692 -0.1094  0.0036
 2152SOL    HW118089   2.122   3.532   7.470  1.5954  0.7963 -0.2618
 2152SOL    HW218090   2.115   3.429   7.359  1.9345  0.1148 -0.9529
 2153SOL     OW18091   4.499   2.801  12.745 -0.1734  0.0969  0.0716
 2153SOL    HW118092   4.567   2.768  12.802  0.8694  1.8344 -0.1703
 2153SOL    HW218093   4.538   2.881  12.710  0.2974 -0.0939  0.1715
 2154SOL     OW18094   2.350   2.692   2.884 -0.5604  0.3458 -0.5427
 2154SOL    HW118095   2.385   2.640   2.811  1.1617  0.2230  0.3684
 2154SOL    HW218096   2.257   2.691   2.861 -0.4718 -0.1625 -0.8933
 2155SOL     OW18097   3.351   4.107   3.545 -0.0242  0.7993  0.0243
 2155SOL    HW118098   3.278   4.087   3.604 -1.7335 -0.7279 -2.5916
 2155SOL    HW218099   3.309   4.122   3.460 -2.0181 -2.9059  0.3505
 2156SOL     OW18100   2.790   3.384  15.316 -0.1163 -0.6892 -0.0166
 2156SOL    HW118101   2.806   3.302  15.269  1.0794 -0.4910  0.0416
 2156SOL    HW218102   2.705   3.408  15.279 -0.2723 -0.0778  0.7436
 2157SOL     OW18103   4.088   1.797  14.027  0.0463 -0.6450  0.0721
 2157SOL    HW118104   4.033   1.729  14.067  0.1314 -1.4976 -1.2514
 2157SOL    HW218105   4.160   1.774  14.086  0.4698  0.7024  0.0827
 2158SOL     OW18106   2.254   4.394   6.889 -0.0871 -0.3377  0.2307
 2158SOL    HW118107   2.176   4.348   6.858  0.0854 -0.8681  0.5913
 2158SOL    HW218108   2.244   4.475   6.838  0.2547 -0.5689 -0.2104
 2159SOL     OW18109   2.162   4.716   4.149 -0.6270 -0.1652  0.1373
 2159SOL    HW118110   2.094   4.651   4.132  0.9284 -1.5371 -0.7556
 2159SOL    HW218111   2.129   0.048   4.092  0.3676  1.2446  1.2747
 2160SOL     OW18112   1.460   1.271   3.903 -0.1035 -0.2536  0.4154
 2160SOL    HW118113   1.412   1.347   3.936  2.6679  0.9664  1.6422
 2160SOL    HW218114   1.496   1.232   3.983  1.6158 -0.8694 -0.6615
 2161SOL     OW18115   3.832   3.392   6.508 -0.1362  0.6576 -0.1553
 2161SOL    HW118116   3.909   3.423   6.460 -1.6099  1.5014 -1.9562
 2161SOL    HW218117   3.878   3.323   6.558  0.4402  0.1131 -1.4282
 2162SOL     OW18118   1.249   3.688   8.859 -0.2193 -0.2828 -0.3016
 2162SOL    HW118119   1.204   3.605   8.872 -0.8436  0.1527  0.2872
 2162SOL    HW218120   1.284   3.681   8.770 -1.1096 -0.4028 -0.6372
 2163SOL     OW18121   0.060   1.106   2.805  0.4081  0.0158 -0.1775
 2163SOL    HW118122   0.074   1.181   2.864  2.3828 -0.0180 -0.6175
 2163SOL    HW218123   0.091   1.137   2.720  0.7543 -0.5554 -0.2547
 2164SOL     OW18124   2.965   0.255   9.207  0.1434 -0.4723 -0.0824
 2164SOL    HW118125   2.995   0.247   9.297  4.6431  2.7342 -1.2768
 2164SOL    HW218126   2.967   0.349   9.189  0.4569 -0.4502  0.0747
 2165SOL     OW18127   0.377   3.957   8.139 -0.3897 -0.4734 -0.3133
 2165SOL    HW118128   0.375   3.924   8.049 -1.8179  0.1225 -0.5140
 2165SOL    HW218129   0.427   4.037   8.121  1.9034 -2.5266 -3.0404
 2166SOL     OW18130   3.615   4.659   6.637 -0.0565  0.0902 -0.1197
 2166SOL    HW118131   3.618   4.612   6.721  0.2152 -3.0680 -1.8821
 2166SOL    HW218132   3.591   4.588   6.578  0.5197  0.8635 -1.2782
 2167SOL     OW18133   3.265   3.046   7.620 -0.1391 -0.0134 -0.2485
 2167SOL    HW118134   3.197   3.069   7.557  0.7188  1.9213 -0.4770
 2167SOL    HW218135   3.241   2.955   7.637  0.0182  0.1364  0.8043
 2168SOL     OW18136   1.338   0.455  10.884 -0.3239  0.0975  0.0752
 2168SOL    HW118137   1.295   0.378  10.920  1.0886  0.7356  3.1135
 2168SOL    HW218138   1.349   0.499  10.968 -2.4291 -0.3876  0.5861
 2169SOL     OW18139   3.016   1.897   1.805  0.6958 -0.3499 -0.1733
 2169SOL    HW118140   2.933   1.939   1.826  1.0191 -0.1818  0.7509
 2169SOL    HW218141   3.030   1.943   1.722 -1.0654  2.2286  0.9510
 2170SOL     OW18142   2.531   1.742   7.278 -0.0494  0.1627 -0.4483
 2170SOL    HW118143   2.576   1.804   7.335 -1.1466  2.2221 -1.8119
 2170SOL    HW218144   2.491   1.683   7.341  0.6857 -0.8867 -0.9736
 2171SOL     OW18145   4.395   1.278   5.391  0.4132  0.0954  0.5363
 2171SOL    HW118146   4.453   1.208   5.420  1.2570  1.3927  1.9235
 2171SOL    HW218147   4.396   1.249   5.300  2.3046  1.0180  0.2666
 2172SOL     OW18148   3.923   2.483   2.701 -0.1532  0.1050 -0.5239
 2172SOL    HW118149   3.862   2.444   2.639 -0.2501 -0.9943  0.2679
 2172SOL    HW218150   3.907   2.418   2.769 -0.3018  0.5548 -0.1302
 2173SOL     OW18151   4.688   4.031   6.921 -0.1694  0.4280 -0.5219
 2173SOL    HW118152   4.697   4.042   6.826  0.1159  1.0147 -0.4210
 2173SOL    HW218153   0.001   4.103   6.957  0.9493 -0.4726 -0.3144
 2174SOL     OW18154   2.129   3.099   0.509  0.0824 -0.2700  0.0313
 2174SOL    HW118155   2.086   3.155   0.445  1.9327  1.3954  0.2244
 2174SOL    HW218156   2.112   3.141   0.593  0.3972 -0.5054  0.2143
 2175SOL     OW18157   0.203   0.240  11.424 -0.1345  0.1192 -0.1133
 2175SOL    HW118158   0.118   0.228  11.466 -0.0483  0.6694  0.2145
 2175SOL    HW218159   0.230   0.328  11.452  0.7538 -0.5962  1.3444
 2176SOL     OW18160   1.495   1.750   6.315  0.1271 -0.1737 -0.2964
 2176SOL    HW118161   1.517   1.669   6.360  0.7847 -1.2701 -2.5997
 2176SOL    HW218162   1.479   1.817   6.383  1.3202 -1.0032  0.7920
 2177SOL     OW18163   4.139   3.350   2.544 -0.2018 -0.1741  0.3912
 2177SOL    HW118164   4.184   3.420   2.496 -0.9602 -0.9845 -1.5010
 2177SOL    HW218165   4.166   3.284   2.481 -1.2649 -0.2447  0.0150
 2178SOL     OW18166   1.264   3.729  17.442  0.2447  0.1334 -0.5089
 2178SOL    HW118167   1.297   3.723  17.353  0.7156  1.4481 -0.4301
 2178SOL    HW218168   1.331   3.676  17.485  1.5261  2.6541  0.6292
 2179SOL     OW18169   0.958   3.274   2.262  0.3820 -0.0280 -0.2708
 2179SOL    HW118170   0.988   3.255   2.173 -1.2920 -1.3957 -0.5387
 2179SOL    HW218171   0.996   3.206   2.317 -0.0542  0.3248  0.4636
 2180SOL     OW18172   0.280   3.828   2.642  0.0672 -0.1626 -0.2884
 2180SOL    HW118173   0.193   3.845   2.606 -0.7983 -3.1278  0.3403
 2180SOL    HW218174   0.307   3.919   2.654  0.2654 -0.1875 -0.5395
 2181SOL     OW18175   0.479   4.026   2.127  0.1326  0.4483 -0.3325
 2181SOL    HW118176   0.476   3.994   2.037 -0.7144  0.0290 -0.1540
 2181SOL    HW218177   0.409   4.091   2.139 -0.8993 -0.2417 -2.5657
 2182SOL     OW18178   3.959   2.382   4.356 -0.2142  0.2473 -0.1188
 2182SOL    HW118179   3.976   2.473   4.377  1.0245 -0.2835  1.1886
 2182SOL    HW218180   3.863   2.385   4.348 -0.2283  0.5022  0.1592
 2183SOL     OW18181   3.120   3.712  11.551  0.3356 -0.4637  0.0980
 2183SOL    HW118182   3.173   3.790  11.533  1.9085 -1.2812  1.1242
 2183SOL    HW218183   3.186   3.643  11.541  0.0318 -0.8721  0.9709
 2184SOL     OW18184   3.633   4.501   5.620  0.0212  0.1514 -0.1037
 2184SOL    HW118185   3.575   4.471   5.690  0.1777  0.6923  0.2537
 2184SOL    HW218186   3.599   4.441   5.554 -1.0254  0.7209 -0.0914
 2185SOL     OW18187   0.131   3.216   8.590  0.5909  0.2090 -0.1681
 2185SOL    HW118188   0.190   3.246   8.659 -0.7645  0.2715  0.9832
 2185SOL    HW218189   0.183   3.137   8.574 -0.9589 -0.8020 -0.3100
 2186SOL     OW18190   4.275   4.422  12.065  0.6546  0.1130 -0.2765
 2186SOL    HW118191   4.339   4.489  12.088  1.0533 -0.6184  0.7384
 2186SOL    HW218192   4.277   4.375  12.148  0.0563 -1.9003 -1.3902
 2187SOL     OW18193   4.378   3.025   3.675  0.4023  0.4067  1.0584
 2187SOL    HW118194   4.299   3.077   3.664 -1.0084 -2.2796 -1.3397
 2187SOL    HW218195   4.344   2.975   3.749 -0.9216 -3.0723 -1.9004
 2188SOL     OW18196   1.831   2.412   2.676 -0.1357 -0.0762 -0.4366
 2188SOL    HW118197   1.767   2.467   2.720 -0.6369 -1.4188  0.5069
 2188SOL    HW218198   1.795   2.324   2.685 -0.1298 -0.0522 -0.1841
 2189SOL     OW18199   0.409   3.281  15.128  0.1961  0.0231 -0.5757
 2189SOL    HW118200   0.387   3.368  15.164 -0.9341 -0.1075 -0.9402
 2189SOL    HW218201   0.414   3.237  15.213 -1.9409  2.4375  0.8295
 2190SOL     OW18202   2.114   1.494   2.539  0.1828 -0.8657 -0.1453
 2190SOL    HW118203   2.167   1.417   2.517  0.2139 -0.9577  0.2446
 2190SOL    HW218204   2.031   1.474   2.496 -0.0522  0.7723 -0.4309
 2191SOL     OW18205   4.178   3.752  11.501 -0.0253 -0.0373 -0.0607
 2191SOL    HW118206   4.265   3.713  11.509  0.9462  1.7992 -2.0117
 2191SOL    HW218207   4.110   3.685  11.513  0.1415 -0.0162  1.0155
 2192SOL     OW18208   2.027   2.385  15.809 -0.1087 -0.3900 -0.1778
 2192SOL    HW118209   2.017   2.297  15.846 -0.9910 -0.0057  0.5025
 2192SOL    HW218210   2.023   2.442  15.886 -0.4755 -1.0500  0.2953
 2193SOL     OW18211   0.491   2.261   4.325 -0.4790 -0.0059 -0.4414
 2193SOL    HW118212   0.419   2.246   4.263 -1.0213  2.0725 -0.3260
 2193SOL    HW218213   0.566   2.283   4.270  0.9153 -2.1904  0.5986
 2194SOL     OW18214   2.777   2.124   3.956  0.0557  0.8108  0.2722
 2194SOL    HW118215   2.869   2.124   3.982  0.4081  2.0543 -1.0067
 2194SOL    HW218216   2.772   2.044   3.902  1.3433 -0.6891  2.3904
 2195SOL     OW18217   3.026   3.598   2.020 -0.3222  0.8475 -0.5188
 2195SOL    HW118218   3.059   3.571   1.935 -0.1483 -2.0963  0.4753
 2195SOL    HW218219   2.946   3.546   2.032 -0.7409  1.7248  0.5138
 2196SOL     OW18220   0.974   2.776   6.042 -0.5424  0.1360 -0.7770
 2196SOL    HW118221   1.063   2.744   6.058 -0.7919 -0.3346 -0.3401
 2196SOL    HW218222   0.991   2.862   6.002  0.7552 -0.3399 -1.2585
 2197SOL     OW18223   3.060   3.304   9.937 -0.1836  0.5681 -0.1269
 2197SOL    HW118224   2.981   3.358   9.938  0.3484  1.3408  0.3159
 2197SOL    HW218225   3.086   3.286  10.027 -0.9910  1.0424  0.1998
 2198SOL     OW18226   1.479   2.565  11.446 -0.4592  0.0989 -0.4208
 2198SOL    HW118227   1.447   2.518  11.523  1.4491  2.2943  1.7135
 2198SOL    HW218228   1.565   2.524  11.449 -0.6040 -0.1000  0.7120
 2199SOL     OW18229   0.940   2.311   8.855  0.2432  0.4080  0.5746
 2199SOL    HW118230   0.938   2.259   8.775 -1.1542 -0.4383  1.1498
 2199SOL    HW218231   0.895   2.247   8.911 -1.0473  0.6797 -0.1511
 2200SOL     OW18232   1.485   0.803   4.385 -1.0258 -0.5025 -0.3633
 2200SOL    HW118233   1.389   0.809   4.380 -1.1098  0.8540  2.5010
 2200SOL    HW218234   1.488   0.735   4.452 -0.8492 -2.1694 -2.0948
 2201SOL     OW18235   1.229   2.987   2.590 -0.1710  0.0633 -0.3667
 2201SOL    HW118236   1.277   3.012   2.669 -0.2461 -0.8857 -0.0205
 2201SOL    HW218237   1.247   2.893   2.590 -0.7891 -0.0596 -0.4692
 2202SOL     OW18238   1.530   1.045   8.259  0.2233 -0.1803  0.2469
 2202SOL    HW118239   1.493   1.034   8.346  0.7355 -2.2362  0.1992
 2202SOL    HW218240   1.533   1.140   8.249 -2.2156 -0.0485  1.0053
 2203SOL     OW18241   3.708   4.053   2.159  0.4985 -0.2380 -0.4524
 2203SOL    HW118242   3.734   3.994   2.229 -1.1083 -0.3506  0.0460
 2203SOL    HW218243   3.651   3.993   2.111  0.4593  0.2285 -0.9901
 2204SOL     OW18244   4.278   4.250   6.056  0.2921 -0.6195  0.2621
 2204SOL    HW118245   4.212   4.200   6.008 -0.8609 -0.9494  2.2186
 2204SOL    HW218246   4.291   4.326   5.999  1.0500 -1.9469 -1.3434
 2205SOL     OW18247   3.701   1.280  13.075  0.4467  0.0195 -0.1448
 2205SOL    HW118248   3.719   1.189  13.051 -2.8990 -0.9493  1.0075
 2205SOL    HW218249   3.734   1.319  12.994 -0.8352  2.9617  0.7756
 2206SOL     OW18250   0.579   4.331   5.839  0.2659  0.0109  0.3396
 2206SOL    HW118251   0.485   4.334   5.819  0.6046  1.3259 -1.0558
 2206SOL    HW218252   0.603   4.411   5.885 -0.3491 -0.0264  0.7248
 2207SOL     OW18253   3.405   3.531   6.764  0.2790  0.5321  0.4511
 2207SOL    HW118254   3.475   3.503   6.822 -0.2978 -0.1685  0.7977
 2207SOL    HW218255   3.402   3.446   6.719  2.4152  0.7947 -0.1985
 2208SOL     OW18256   4.672   1.686   6.489  0.5095  0.2899  0.4625
 2208SOL    HW118257   4.617   1.718   6.418 -0.3704  0.3213  1.1508
 2208SOL    HW218258   4.638   1.597   6.500 -1.0985  0.7995 -0.3674
 2209SOL     OW18259   3.576   4.644  11.487 -0.1812  0.1858 -0.2852
 2209SOL    HW118260   3.528   4.591  11.551 -3.7333  1.7009 -1.6642
 2209SOL    HW218261   3.667   4.627  11.509  0.5205  0.6538 -2.8123
 2210SOL     OW18262   4.524   0.048  16.774  0.0720  0.1047 -0.5866
 2210SOL    HW118263   4.514   0.076  16.683 -2.3302 -0.6565 -0.5692
 2210SOL    HW218264   4.537   0.133  16.815 -2.5648 -1.2944  3.1502
 2211SOL     OW18265   2.116   0.062   7.056  0.2539  0.5528  0.3158
 2211SOL    HW118266   2.147   0.069   7.147  1.2653  0.6413 -0.0354
 2211SOL    HW218267   2.175   0.120   7.009 -0.6412  0.8739 -0.4162
 2212SOL     OW18268   3.123   4.082  12.198 -0.2334  0.6237  0.3344
 2212SOL    HW118269   3.060   4.143  12.159  0.0943  1.1479  0.6177
 2212SOL    HW218270   3.082   4.051  12.278  0.3268  1.1858  0.8486
 2213SOL     OW18271   4.083   4.560  14.290 -0.0907 -0.4926  0.0959
 2213SOL    HW118272   4.100   4.562  14.384  1.4816 -0.3051 -0.1997
 2213SOL    HW218273   4.053   4.650  14.278 -0.0765 -0.5696 -0.5341
 2214SOL     OW18274   2.384   3.100   7.256  0.3832  0.6302  0.5947
 2214SOL    HW118275   2.442   3.174   7.273 -2.1277  2.8048 -0.3176
 2214SOL    HW218276   2.426   3.037   7.314  1.1031  1.1826  0.6696
 2215SOL     OW18277   0.377   0.441   4.891  0.0567  0.5739  0.2770
 2215SOL    HW118278   0.425   0.504   4.945 -2.2863  0.6223  2.2937
 2215SOL    HW218279   0.335   0.496   4.825  1.6189  3.4178  1.6203
 2216SOL     OW18280   1.164   0.737   8.045 -0.2572 -0.3216 -0.4032
 2216SOL    HW118281   1.138   0.824   8.076  0.5439 -0.2398  0.0573
 2216SOL    HW218282   1.078   0.699   8.028  1.5493 -4.3075 -0.6764
 2217SOL     OW18283   4.727   2.781   8.392  0.0316  0.1477 -0.2947
 2217SOL    HW118284   4.722   2.727   8.313 -1.7118 -1.8166  1.1828
 2217SOL    HW218285   0.080   2.782   8.420 -0.4494  1.0725  1.2368
 2218SOL     OW18286   0.141   1.769  11.747  0.1727  0.1656 -0.3145
 2218SOL    HW118287   0.050   1.763  11.719  0.7900  0.1070 -2.3244
 2218SOL    HW218288   0.184   1.808  11.671  1.7503 -1.5307 -0.2824
 2219SOL     OW18289   4.448   2.866   7.013  0.2055  0.0797  0.2430
 2219SOL    HW118290   4.440   2.878   6.918 -1.1116 -2.2556  0.0614
 2219SOL    HW218291   4.472   2.955   7.041 -0.0056  0.2347 -0.0652
 2220SOL     OW18292   1.492   0.981  16.195 -0.0261  0.4675  0.5400
 2220SOL    HW118293   1.416   0.956  16.143  1.6348  1.7585 -2.5186
 2220SOL    HW218294   1.499   0.923  16.270  1.5155  1.1142  0.8885
 2221SOL     OW18295   3.477   2.745  10.850  0.0467  0.5242  0.0598
 2221SOL    HW118296   3.442   2.795  10.776 -2.6410 -0.5465  0.6169
 2221SOL    HW218297   3.502   2.662  10.809  1.2354 -0.5478  2.9697
 2222SOL     OW18298   1.141   0.743   0.490  0.6672 -0.0303  0.1668
 2222SOL    HW118299   1.127   0.706   0.577  0.8174  2.2432  1.1517
 2222SOL    HW218300   1.054   0.728   0.454  0.3593 -0.8649  1.2524
 2223SOL     OW18301   0.987   0.818  14.267 -0.1209 -0.3880 -0.5517
 2223SOL    HW118302   0.956   0.728  14.282 -0.9427 -0.4455 -2.5123
 2223SOL    HW218303   0.943   0.859  14.341  0.8627  2.0143 -1.2965
 2224SOL     OW18304   2.499   2.130   4.095  0.2003  0.9736 -0.9811
 2224SOL    HW118305   2.578   2.179   4.115  0.9456  0.0595 -1.6451
 2224SOL    HW218306   2.479   2.093   4.181  0.0942 -1.1795 -1.9178
 2225SOL     OW18307   4.362   0.497   7.024  0.4047 -0.8200  0.0247
 2225SOL    HW118308   4.315   0.554   7.085  1.9870 -0.0153  0.4931
 2225SOL    HW218309   4.369   0.419   7.079 -1.2368 -0.6741  0.4579
 2226SOL     OW18310   1.266   1.632   1.649 -0.4922 -0.5357 -0.3020
 2226SOL    HW118311   1.350   1.655   1.610 -0.5034  1.4455  0.8379
 2226SOL    HW218312   1.213   1.603   1.574  0.3448  0.2492 -1.1965
 2227SOL     OW18313   0.896   3.589  16.123  0.2352  0.0888  0.2042
 2227SOL    HW118314   0.941   3.505  16.119 -2.8502 -1.4877 -1.2177
 2227SOL    HW218315   0.812   3.566  16.083  0.3743 -0.4707  0.2380
 2228SOL     OW18316   1.161   1.351   5.342 -0.0428 -0.3394  0.4536
 2228SOL    HW118317   1.067   1.360   5.327 -0.1885 -0.7557  1.1418
 2228SOL    HW218318   1.189   1.321   5.255 -1.3029 -0.1082 -0.0309
 2229SOL     OW18319   1.159   2.991   6.687  0.0516 -0.5686 -0.4702
 2229SOL    HW118320   1.121   2.905   6.708 -1.5378  0.0991 -0.6536
 2229SOL    HW218321   1.144   3.007   6.594  1.1443 -2.3365 -0.9513
 2230SOL     OW18322   1.255   0.925   9.354  0.8154 -0.2880 -0.0507
 2230SOL    HW118323   1.266   0.869   9.277  0.5939 -0.3369 -0.0466
 2230SOL    HW218324   1.324   0.889   9.409  0.8135 -0.1888  0.0170
 2231SOL     OW18325   0.820   2.316   9.554  0.0291 -0.3255  0.1998
 2231SOL    HW118326   0.830   2.224   9.580 -0.8092  0.0201  1.6851
 2231SOL    HW218327   0.913   2.330   9.537 -0.1244  1.2732  0.7054
 2232SOL     OW18328   1.354   0.910   4.031 -0.4831  0.1720  0.0015
 2232SOL    HW118329   1.270   0.868   4.011  0.8454 -1.9932 -0.9266
 2232SOL    HW218330   1.380   0.948   3.947  2.8514 -0.7739  0.6016
 2233SOL     OW18331   4.083   0.666  12.842  0.1211 -0.4581 -0.0807
 2233SOL    HW118332   4.052   0.750  12.876  0.5475  0.1204 -1.1049
 2233SOL    HW218333   4.122   0.683  12.756  3.4885  2.1971  1.9291
 2234SOL     OW18334   0.290   4.130   0.758  0.0181 -0.1703  0.2831
 2234SOL    HW118335   0.312   4.083   0.678 -1.2785 -1.6688  0.8094
 2234SOL    HW218336   0.240   4.204   0.726  0.1064  0.2634  1.1329
 2235SOL     OW18337   3.532   3.068   3.339 -0.2629  0.0993 -0.0293
 2235SOL    HW118338   3.447   3.110   3.323 -0.1120 -0.0032 -1.0493
 2235SOL    HW218339   3.563   3.067   3.249  0.8436 -1.5397  0.3769
 2236SOL     OW18340   1.820   2.843   6.528  0.2890 -0.1146  0.1980
 2236SOL    HW118341   1.791   2.912   6.588 -0.0636  1.7337 -2.1194
 2236SOL    HW218342   1.799   2.882   6.443 -1.9048  2.2976  1.8782
 2237SOL     OW18343   0.652   1.015   4.797  0.2197  0.7462 -0.5828
 2237SOL    HW118344   0.723   1.073   4.768  1.0351  0.0454  0.0043
 2237SOL    HW218345   0.680   0.982   4.882 -1.4028 -0.4214 -0.4922
 2238SOL     OW18346   4.008   1.669   1.186  0.6101  0.4551 -0.1796
 2238SOL    HW118347   3.949   1.615   1.135  0.8194  0.8598 -0.8483
 2238SOL    HW218348   3.948   1.741   1.204 -0.5846 -0.2967 -1.1855
 2239SOL     OW18349   2.067   2.193   5.162 -0.1222 -0.4785 -0.0387
 2239SOL    HW118350   2.028   2.132   5.224 -1.4888 -0.7087 -1.1508
 2239SOL    HW218351   2.109   2.137   5.097  0.4242  0.3498 -0.4061
 2240SOL     OW18352   1.818   3.684   9.810 -0.3470 -0.0903 -0.2472
 2240SOL    HW118353   1.737   3.638   9.788  1.4172 -2.7601 -1.1828
 2240SOL    HW218354   1.821   3.738   9.732 -0.4224 -1.4885 -1.2272
 2241SOL     OW18355   1.644   1.128  14.017 -0.5737  0.1364  0.1686
 2241SOL    HW118356   1.631   1.052  13.959 -1.7709 -0.5097  1.2894
 2241SOL    HW218357   1.708   1.096  14.080 -3.2198  1.1649  3.3827
 2242SOL     OW18358   2.189   1.669  12.414  0.1116  0.2964  0.1619
 2242SOL    HW118359   2.224   1.758  12.424  0.2897  0.5036 -2.1663
 2242SOL    HW218360   2.095   1.683  12.422 -0.6649 -4.7567 -0.4491
 2243SOL     OW18361   2.771   2.663  14.598  0.3348 -0.0115  0.3319
 2243SOL    HW118362   2.702   2.673  14.533 -0.2748 -1.5935  0.7444
 2243SOL    HW218363   2.743   2.726  14.665 -0.9058  0.4452 -0.6252
 2244SOL     OW18364   4.633   1.679   5.788  0.0238  0.1390 -0.3290
 2244SOL    HW118365   4.717   1.725   5.790  0.1053  0.0282 -0.9859
 2244SOL    HW218366   4.668   1.595   5.758  1.2250  0.2612  0.7140
 2245SOL     OW18367   0.095   3.381   6.027  0.4138 -0.4967  0.2482
 2245SOL    HW118368   0.064   3.312   6.086  0.7369 -1.6784 -0.9723
 2245SOL    HW218369   0.187   3.380   6.053  0.6734 -1.8136 -0.7162
 2246SOL     OW18370   2.141   3.952   2.918 -0.2850  0.2546  0.8090
 2246SOL    HW118371   2.129   4.020   2.852  0.5440  0.8958  1.3118
 2246SOL    HW218372   2.212   3.989   2.972  0.2984 -0.0434  0.2407
 2247SOL     OW18373   4.402   3.717   1.126  0.0980 -0.1415  0.1697
 2247SOL    HW118374   4.351   3.693   1.202 -0.2048 -0.0393 -0.0013
 2247SOL    HW218375   4.448   3.636   1.104 -0.4568 -1.0983  2.6443
 2248SOL     OW18376   0.803   1.514  11.626 -0.5108 -0.1888 -0.2180
 2248SOL    HW118377   0.886   1.514  11.579 -0.0338 -0.9972  0.6058
 2248SOL    HW218378   0.798   1.420  11.646  1.3984 -1.0496 -3.7386
 2249SOL     OW18379   0.973   4.209   6.216  0.0101  0.1923 -0.2700
 2249SOL    HW118380   0.885   4.238   6.241  0.1884 -0.8929  1.6285
 2249SOL    HW218381   0.962   4.197   6.121 -0.8321 -0.2261 -0.1170
 2250SOL     OW18382   3.474   0.468  17.436 -0.3083 -0.1544  0.5005
 2250SOL    HW118383   3.402   0.428  17.388 -0.7137  1.1919 -0.0116
 2250SOL    HW218384   3.550   0.476  17.378 -0.5446 -1.1820  0.0503
 2251SOL     OW18385   4.619   0.276  15.510  0.4366  0.0037 -1.0264
 2251SOL    HW118386   4.615   0.238  15.422  2.0073  3.4709 -2.5534
 2251SOL    HW218387   4.581   0.363  15.499 -2.1579 -0.8863  0.7110
 2252SOL     OW18388   3.761   2.828  16.429  0.2610  0.7971  0.4744
 2252SOL    HW118389   3.804   2.752  16.468  1.1738  1.0017 -0.1366
 2252SOL    HW218390   3.803   2.842  16.344 -0.8817  3.6358  0.3609
 2253SOL     OW18391   2.803   3.542   3.027  0.3158 -0.1880 -0.5312
 2253SOL    HW118392   2.749   3.491   2.965  0.8775  1.4208 -2.3334
 2253SOL    HW218393   2.738   3.611   3.044 -0.5232  0.0517 -4.6669
 2254SOL     OW18394   2.770   3.162   3.816 -0.2729 -0.3098 -0.1728
 2254SOL    HW118395   2.734   3.087   3.863  1.0569 -2.1020 -1.9790
 2254SOL    HW218396   2.863   3.138   3.821 -0.7391 -2.4660 -1.8595
 2255SOL     OW18397   3.924   2.178   5.721  0.1553  0.2789 -0.1779
 2255SOL    HW118398   3.882   2.187   5.807  2.3451 -0.0604  0.9308
 2255SOL    HW218399   3.871   2.114   5.673  0.5866  1.9497 -2.8672
 2256SOL     OW18400   2.118   1.740   7.990 -0.4274 -0.0114 -0.2410
 2256SOL    HW118401   2.190   1.683   8.016  0.7243  2.2522  1.5880
 2256SOL    HW218402   2.161   1.799   7.928  0.5368  0.1319  0.5464
 2257SOL     OW18403   2.208   4.567   6.690 -0.1234  0.0818 -0.2267
 2257SOL    HW118404   2.233   4.522   6.610 -2.3650 -0.2726 -0.7083
 2257SOL    HW218405   2.141   4.626   6.655 -0.4422 -0.3257 -0.2974
 2258SOL     OW18406   2.582   4.466   0.783 -0.5022  0.6020  0.2201
 2258SOL    HW118407   2.620   4.510   0.707  1.0005 -0.7487  0.1964
 2258SOL    HW218408   2.551   4.387   0.741 -2.9693  0.9462  1.3908
 2259SOL     OW18409   2.964   1.366  13.445 -0.4749 -0.1423  0.7106
 2259SOL    HW118410   2.908   1.347  13.520  0.8801  0.7050  1.9371
 2259SOL    HW218411   2.942   1.455  13.419  0.4088 -0.7989 -2.3170
 2260SOL     OW18412   1.285   2.597  11.246 -0.6008  0.6213  0.8319
 2260SOL    HW118413   1.241   2.513  11.260  0.8531 -0.4054 -0.8055
 2260SOL    HW218414   1.363   2.590  11.301 -0.3796 -1.1905  0.3077
 2261SOL     OW18415   1.741   4.105   7.656 -0.3951  0.6183  0.4431
 2261SOL    HW118416   1.805   4.163   7.697  0.3846 -1.0332  1.5695
 2261SOL    HW218417   1.672   4.110   7.722 -0.4401  0.3581  0.4164
 2262SOL     OW18418   0.669   3.921   6.024 -0.4746  0.1346  0.3149
 2262SOL    HW118419   0.705   3.972   5.952 -0.0337  1.0381  1.1837
 2262SOL    HW218420   0.575   3.912   6.010 -0.6753  0.7815  1.2870
 2263SOL     OW18421   1.697   1.864   5.666  0.2548 -0.0373 -0.1572
 2263SOL    HW118422   1.647   1.909   5.598  0.5472  1.2195  0.4461
 2263SOL    HW218423   1.671   1.774   5.650  0.0469  0.2032 -1.1445
 2264SOL     OW18424   1.652   0.619   7.564 -0.2839  0.1779 -0.0900
 2264SOL    HW118425   1.599   0.571   7.501 -2.8221  0.5745  1.7696
 2264SOL    HW218426   1.700   0.542   7.594 -1.2266 -0.2113  0.3948
 2265SOL     OW18427   3.808   2.414   4.861  0.1621 -0.2069  0.0756
 2265SOL    HW118428   3.892   2.438   4.824 -0.4500  2.6516  0.5559
 2265SOL    HW218429   3.746   2.440   4.792  0.6040  0.3010 -0.1266
 2266SOL     OW18430   2.849   0.512   6.743 -0.4208 -0.4853  0.1198
 2266SOL    HW118431   2.768   0.493   6.789 -0.3505  1.1812  0.9083
 2266SOL    HW218432   2.854   0.607   6.737  1.1399 -0.6256 -1.0041
 2267SOL     OW18433   0.798   3.832   4.999  0.6976 -0.6039  0.3265
 2267SOL    HW118434   0.765   3.871   4.918 -0.5888  0.0555  1.1628
 2267SOL    HW218435   0.844   3.901   5.046 -0.0822 -0.3133  0.6655
 2268SOL     OW18436   1.562   0.600  13.658 -0.7057  0.6072  0.3069
 2268SOL    HW118437   1.478   0.617  13.700  0.6189 -0.0932  3.2887
 2268SOL    HW218438   1.543   0.557  13.575  1.1800  0.7123 -0.1983
 2269SOL     OW18439   1.247   3.076  10.707  0.5620  0.0382 -0.0325
 2269SOL    HW118440   1.339   3.090  10.682  1.1998 -0.9023  1.7926
 2269SOL    HW218441   1.255   2.991  10.750  0.8485 -0.9662 -2.0370
 2270SOL     OW18442   3.891   4.452  12.926  0.2480  0.0258 -0.1405
 2270SOL    HW118443   3.961   4.439  12.862 -0.6478 -1.2301 -0.8718
 2270SOL    HW218444   3.875   4.545  12.912 -1.3257 -0.1529  0.4655
 2271SOL     OW18445   3.086   4.369   3.214  0.6836 -0.1854 -0.4648
 2271SOL    HW118446   3.055   4.451   3.253 -0.7101 -1.7142  1.6260
 2271SOL    HW218447   3.175   4.402   3.206 -0.2107  1.7092 -2.6953
 2272SOL     OW18448   4.557   1.071   5.482 -0.1022 -0.0483 -0.2117
 2272SOL    HW118449   4.562   1.044   5.391  1.2729  1.0328 -0.4534
 2272SOL    HW218450   4.534   0.986   5.520 -2.0527 -0.0637 -1.4094
 2273SOL     OW18451   2.889   4.598   6.171 -0.5159 -0.5406  0.2338
 2273SOL    HW118452   2.961   4.590   6.108 -1.7341 -2.3339 -0.9311
 2273SOL    HW218453   2.818   4.555   6.124 -0.1773 -2.5028  1.5124
 2274SOL     OW18454   3.588   3.203   8.273  0.0079  0.3040 -0.0165
 2274SOL    HW118455   3.572   3.287   8.316  0.4855  0.2072  0.3546
 2274SOL    HW218456   3.505   3.158   8.290  0.1040  0.1352  0.0073
 2275SOL     OW18457   3.847   2.246   0.505 -0.2735 -0.5627 -0.4628
 2275SOL    HW118458   3.763   2.250   0.459 -0.5340  0.7637  0.1215
 2275SOL    HW218459   3.834   2.155   0.530 -0.0105 -0.2589  0.8004
 2276SOL     OW18460   1.824   2.422   0.426  0.2549 -0.0532 -0.0229
 2276SOL    HW118461   1.763   2.364   0.379  0.4582 -0.0075 -0.3460
 2276SOL    HW218462   1.903   2.419   0.372 -0.0124  1.1543 -0.4803
 2277SOL     OW18463   1.533   0.219   2.395 -0.4811  0.9650  0.0379
 2277SOL    HW118464   1.604   0.276   2.367 -0.1700  1.3328  1.5664
 2277SOL    HW218465   1.567   0.193   2.481 -0.7429 -0.7770 -0.3876
 2278SOL     OW18466   3.785   4.616   2.321  0.3599 -0.5308  0.2833
 2278SOL    HW118467   3.806   4.592   2.411 -0.4002 -2.2042 -0.0062
 2278SOL    HW218468   3.864   4.598   2.271  0.6551  1.8884 -0.1277
 2279SOL     OW18469   0.290   3.478   6.700  0.3533  0.0326 -0.7715
 2279SOL    HW118470   0.274   3.548   6.636 -0.0884 -1.6161 -2.4782
 2279SOL    HW218471   0.353   3.518   6.760 -1.0043  2.2004 -0.8088
 2280SOL     OW18472   3.951   1.453   3.150  0.9051 -0.0009  0.6629
 2280SOL    HW118473   3.991   1.534   3.180 -1.3663  1.3888 -0.1325
 2280SOL    HW218474   3.866   1.455   3.194  0.7646 -0.7296  0.4282
 2281SOL     OW18475   2.453   1.668   5.054  0.4303  0.1802 -0.1569
 2281SOL    HW118476   2.522   1.621   5.101 -0.9675 -2.1131 -0.3976
 2281SOL    HW218477   2.462   1.746   5.109 -1.9352 -0.6573  1.4186
 2282SOL     OW18478   4.309   2.769   7.714  0.0868  0.0338 -0.4538
 2282SOL    HW118479   4.315   2.862   7.735 -0.4141 -1.0300  4.6538
 2282SOL    HW218480   4.401   2.742   7.706  0.6260  1.6661  0.2575
 2283SOL     OW18481   3.645   1.800   8.689  0.2285 -0.0896  0.1317
 2283SOL    HW118482   3.635   1.792   8.594 -1.7431 -1.9822  0.5072
 2283SOL    HW218483   3.720   1.860   8.693 -0.0207  0.1945  0.6164
 2284SOL     OW18484   1.475   4.666   7.134  0.0003  0.3532 -0.2786
 2284SOL    HW118485   1.510   4.585   7.172  0.7038 -0.0024 -1.6663
 2284SOL    HW218486   1.440   4.717   7.207  0.8316 -1.8490  1.6336
 2285SOL     OW18487   1.775   2.502  17.351  0.1153 -0.1034 -0.7960
 2285SOL    HW118488   1.683   2.484  17.370  0.1588  2.1129  1.3830
 2285SOL    HW218489   1.773   2.557  17.273 -1.5868 -0.5367 -1.0411
 2286SOL     OW18490   3.403   3.739  10.230 -0.3646  0.0862  0.3116
 2286SOL    HW118491   3.439   3.704  10.312  1.1301 -1.2784 -0.9274
 2286SOL    HW218492   3.422   3.833  10.237 -1.1459  0.0518  2.7412
 2287SOL     OW18493   2.956   0.345   7.445 -0.0149  0.0975 -0.7874
 2287SOL    HW118494   2.997   0.391   7.518 -2.0825 -0.3034  0.6277
 2287SOL    HW218495   2.937   0.258   7.482 -0.9901  0.2272 -0.9860
 2288SOL     OW18496   0.440   4.348   3.270 -0.2496 -0.3144  0.0994
 2288SOL    HW118497   0.410   4.369   3.359 -0.4432  1.6095 -0.4205
 2288SOL    HW218498   0.390   4.267   3.261 -2.0363  0.8108 -0.0704
 2289SOL     OW18499   0.270   3.215  14.882  0.1311 -0.3301 -0.1622
 2289SOL    HW118500   0.235   3.302  14.899 -0.2460 -0.0955 -2.1854
 2289SOL    HW218501   0.322   3.213  14.962 -0.4015  3.2558  0.2572
 2290SOL     OW18502   2.375   1.068  11.959 -0.5013 -0.4318 -0.2910
 2290SOL    HW118503   2.387   0.992  11.902  0.1379 -0.6999  0.2097
 2290SOL    HW218504   2.313   1.036  12.025  2.2306 -1.2922  1.8324
 2291SOL     OW18505   1.541   4.523   3.336 -0.2666 -0.0754  0.6922
 2291SOL    HW118506   1.500   4.453   3.285  1.9386 -1.3946  0.7745
 2291SOL    HW218507   1.605   4.481   3.392 -0.0985  1.7960  1.8784
 2292SOL     OW18508   0.527   2.349   7.763 -0.3176  0.2603 -0.2416
 2292SOL    HW118509   0.470   2.285   7.720  1.4076 -0.0918 -2.0126
 2292SOL    HW218510   0.564   2.305   7.840  0.7948  1.9304  0.1870
 2293SOL     OW18511   3.464   4.325  11.382  0.2273 -0.3489  0.3758
 2293SOL    HW118512   3.371   4.335  11.405  0.5512 -0.4285  1.6984
 2293SOL    HW218513   3.476   4.390  11.313  2.4608  1.7215  2.7211
 2294SOL     OW18514   3.347   1.502  15.640 -0.3149  0.0070  0.1845
 2294SOL    HW118515   3.417   1.504  15.576 -1.5542 -3.4145 -1.2712
 2294SOL    HW218516   3.353   1.593  15.667 -0.6347  1.0058 -3.1346
 2295SOL     OW18517   1.235   1.019   6.109 -0.1088  0.8164  0.0991
 2295SOL    HW118518   1.176   1.032   6.034 -0.4323 -0.5081  0.1083
 2295SOL    HW218519   1.300   1.089   6.107 -0.5733  1.2103 -1.3062
 2296SOL     OW18520   1.427   0.972   4.909  0.1652  0.2985  0.1557
 2296SOL    HW118521   1.359   0.994   4.973  0.4282  1.0987  0.1708
 2296SOL    HW218522   1.451   0.893   4.957  0.2976 -0.2872 -0.8788
 2297SOL     OW18523   2.767   0.042   3.490  0.0779 -0.6365  0.1590
 2297SOL    HW118524   2.725   0.041   3.576 -1.6419  1.1465 -0.6792
 2297SOL    HW218525   2.743   4.698   3.447 -0.9079 -0.6908  0.8193
 2298SOL     OW18526   1.203   1.344   5.057 -0.1565 -0.0445  0.5312
 2298SOL    HW118527   1.185   1.356   4.964  0.4578 -0.6841  0.3329
 2298SOL    HW218528   1.298   1.330   5.059 -0.3291 -0.8731  2.6755
 2299SOL     OW18529   3.271   1.695  10.016 -0.3208  0.0682  0.6075
 2299SOL    HW118530   3.361   1.695   9.984 -0.5934  0.5299 -0.1624
 2299SOL    HW218531   3.229   1.651   9.942 -2.5691  1.1135  1.2568
 2300SOL     OW18532   4.527   1.770   7.205 -0.5080  0.3918  0.1086
 2300SOL    HW118533   4.562   1.709   7.140  0.9584  0.2063  1.0508
 2300SOL    HW218534   4.439   1.785   7.173 -0.6659 -0.0889  0.3137
 2301SOL     OW18535   0.752   2.174  10.984 -0.2100  0.1529 -0.1190
 2301SOL    HW118536   0.781   2.149  11.072  0.5494 -0.5437 -0.5702
 2301SOL    HW218537   0.789   2.109  10.924 -3.7530 -1.1238 -0.9398
 2302SOL     OW18538   1.847   0.107   7.215  0.1101 -0.0221  0.1950
 2302SOL    HW118539   1.865   0.186   7.267  1.4755  0.3921 -0.8902
 2302SOL    HW218540   1.760   0.116   7.176  0.1084  0.3783  0.2852
 2303SOL     OW18541   1.937   2.407   5.046 -0.1456 -0.4821 -0.4749
 2303SOL    HW118542   1.847   2.385   5.072  0.1441 -0.0158  0.9157
 2303SOL    HW218543   1.990   2.349   5.100 -0.1578  1.2435  1.3786
 2304SOL     OW18544   4.663   1.385   3.403 -0.8223 -0.5150  0.1294
 2304SOL    HW118545   0.009   1.343   3.384 -1.8578 -1.1813 -3.1052
 2304SOL    HW218546   4.609   1.340   3.338  0.6727 -1.4882 -0.4440
 2305SOL     OW18547   0.557   3.374  17.224  0.0431  0.2747 -0.2530
 2305SOL    HW118548   0.589   3.464  17.232  0.3955  0.4747 -4.0333
 2305SOL    HW218549   0.470   3.390  17.260 -0.1226  1.1632 -1.0462
 2306SOL     OW18550   0.443   0.331   9.650 -0.0372  0.3352  0.1573
 2306SOL    HW118551   0.449   0.274   9.727 -3.4323 -0.4735 -0.1712
 2306SOL    HW218552   0.531   0.320   9.614 -0.6286 -1.5119 -0.7423
 2307SOL     OW18553   2.194   1.955  17.467 -0.5973  0.2812  0.0149
 2307SOL    HW118554   2.166   1.995  17.548  1.3880  3.2124 -0.7547
 2307SOL    HW218555   2.238   1.880  17.507 -2.8843 -0.9965  0.1264
 2308SOL     OW18556   4.342   3.071   8.272 -0.1362 -0.2243  0.1439
 2308SOL    HW118557   4.270   3.066   8.335  1.8176 -2.0448  2.2504
 2308SOL    HW218558   4.401   3.008   8.313  0.2928 -0.9284 -1.5889
 2309SOL     OW18559   2.360   0.178  11.034  0.1122 -0.9491 -0.0658
 2309SOL    HW118560   2.273   0.140  11.051 -1.5359  1.7845 -2.3494
 2309SOL    HW218561   2.372   0.148  10.943  0.2086 -1.2568  0.0494
 2310SOL     OW18562   3.949   3.482   4.505 -0.0876 -0.7818 -0.0671
 2310SOL    HW118563   4.031   3.439   4.481 -0.7877 -2.3049  0.2406
 2310SOL    HW218564   3.975   3.574   4.506 -0.0820 -0.7963  1.0307
 2311SOL     OW18565   0.384   4.379  10.475 -0.3234 -0.0034  0.2444
 2311SOL    HW118566   0.341   4.314  10.531  0.6149  0.2978  1.3129
 2311SOL    HW218567   0.464   4.387  10.528 -0.8220  0.5118  0.9164
 2312SOL     OW18568   4.699   2.934   6.310 -0.7594 -0.2465  1.0121
 2312SOL    HW118569   0.044   2.933   6.357  0.0455 -2.4298 -0.4395
 2312SOL    HW218570   4.687   2.843   6.284  0.2294  0.5476 -2.3083
 2313SOL     OW18571   0.362   2.043   7.266 -0.1258  0.2882  0.1238
 2313SOL    HW118572   0.446   2.069   7.228 -0.5511  1.0643 -0.3000
 2313SOL    HW218573   0.394   2.009   7.349 -0.8441 -0.0550  0.2635
 2314SOL     OW18574   1.670   0.600   8.345 -0.0961 -0.0700 -0.9534
 2314SOL    HW118575   1.622   0.663   8.293  0.5034  0.4957 -0.8247
 2314SOL    HW218576   1.762   0.626   8.341 -0.1429  0.2728  0.0600
 2315SOL     OW18577   2.489   3.040   2.199 -0.1162 -0.1678  0.2736
 2315SOL    HW118578   2.574   2.997   2.201 -0.4198 -0.7176  1.1802
 2315SOL    HW218579   2.430   2.966   2.189  0.3834 -0.6118  0.6245
 2316SOL     OW18580   1.230   2.019   6.499 -0.1472 -0.0370  0.1367
 2316SOL    HW118581   1.181   2.095   6.530  0.0950 -0.2766  1.1262
 2316SOL    HW218582   1.288   2.073   6.446  0.3828  0.3966  1.1474
 2317SOL     OW18583   0.796   4.490   7.327 -0.0076 -0.5656 -0.1280
 2317SOL    HW118584   0.847   4.517   7.404 -1.3367  2.3025 -0.2519
 2317SOL    HW218585   0.865   4.469   7.264 -1.5868  1.0856 -2.4027
 2318SOL     OW18586   0.781   4.337  15.353 -0.0544 -0.3494 -0.0901
 2318SOL    HW118587   0.711   4.391  15.389 -0.7386 -1.1772 -0.1810
 2318SOL    HW218588   0.815   4.310  15.438 -1.7687 -2.3915 -0.0350
 2319SOL     OW18589   0.145   3.937   2.155  0.4390  0.4605  0.3451
 2319SOL    HW118590   0.159   3.854   2.200 -2.8734 -0.1974  0.1482
 2319SOL    HW218591   0.060   3.971   2.183  0.5510  0.9875  0.0476
 2320SOL     OW18592   3.886   0.636   2.044  0.6401  0.0148  0.2123
 2320SOL    HW118593   3.888   0.670   1.954 -1.0482 -1.4648 -0.3901
 2320SOL    HW218594   3.863   0.711   2.099 -1.9613 -1.9142  1.7764
 2321SOL     OW18595   2.665   4.512   6.035  0.4018  0.1580 -0.0224
 2321SOL    HW118596   2.615   4.485   5.958  0.5316 -2.1704  0.7150
 2321SOL    HW218597   2.645   4.450   6.104  1.5174  0.3197  0.4486
 2322SOL     OW18598   3.110   0.790   7.869 -0.2050 -0.1543  0.2478
 2322SOL    HW118599   3.059   0.801   7.788  1.4384  1.7383 -0.5368
 2322SOL    HW218600   3.125   0.698   7.889 -0.7140 -0.1763  0.5290
 2323SOL     OW18601   3.432   3.701   1.163 -0.2738  0.0486  0.7864
 2323SOL    HW118602   3.383   3.756   1.102  0.6609  0.5590  0.5026
 2323SOL    HW218603   3.380   3.712   1.243 -0.4496  0.9562  0.5575
 2324SOL     OW18604   3.465   1.298  11.401 -0.1430 -0.6058 -0.0726
 2324SOL    HW118605   3.373   1.301  11.427 -0.3978 -0.4789 -1.0202
 2324SOL    HW218606   3.469   1.212  11.359  0.7971 -0.1268 -0.9607
 2325SOL     OW18607   4.494   0.709   7.341 -0.0127  0.0380 -0.2730
 2325SOL    HW118608   4.575   0.659   7.351  1.7297  2.6955 -0.9926
 2325SOL    HW218609   4.533   0.780   7.289 -0.1782  0.5096  0.2538
 2326SOL     OW18610   0.694   1.731   4.698  0.0216 -0.2352  0.2310
 2326SOL    HW118611   0.768   1.677   4.670  0.0771 -0.8958  1.6262
 2326SOL    HW218612   0.617   1.675   4.689 -0.5410  0.1853  2.3543
 2327SOL     OW18613   0.644   0.600   3.149 -0.2859  0.7260  0.3926
 2327SOL    HW118614   0.689   0.611   3.066 -1.0018  0.3880 -0.0358
 2327SOL    HW218615   0.656   0.689   3.183 -0.9804  1.4717 -1.3243
 2328SOL     OW18616   1.088   0.538  15.363 -0.1219 -0.6172 -0.1313
 2328SOL    HW118617   1.059   0.582  15.443  0.5272  0.3663 -0.4411
 2328SOL    HW218618   1.151   0.475  15.398 -1.1686 -2.7771 -2.1848
 2329SOL     OW18619   2.547   1.914  15.156 -0.9793  0.9451  0.4161
 2329SOL    HW118620   2.564   1.834  15.206 -3.2519 -0.8213 -1.6224
 2329SOL    HW218621   2.608   1.974  15.199 -1.0728  1.3495 -0.0108
 2330SOL     OW18622   1.969   3.666   1.778 -0.1141 -0.4343 -0.2479
 2330SOL    HW118623   1.999   3.670   1.869 -0.7684 -3.4248  0.0906
 2330SOL    HW218624   2.022   3.733   1.733  0.6589 -0.4100  0.6988
 2331SOL     OW18625   0.623   1.898  10.790  0.3457  0.0596 -0.3502
 2331SOL    HW118626   0.672   1.920  10.869  0.9557 -0.0358 -0.7056
 2331SOL    HW218627   0.680   1.914  10.714  0.2193 -1.9479 -0.8644
 2332SOL     OW18628   0.490   1.294   2.641 -0.5168  0.2321  0.0842
 2332SOL    HW118629   0.497   1.313   2.548  2.9865 -4.2950 -0.5835
 2332SOL    HW218630   0.508   1.200   2.632  0.9964  0.5791 -0.4197
 2333SOL     OW18631   0.011   2.900   1.708  1.1298 -0.0060  0.0005
 2333SOL    HW118632   0.029   2.817   1.753 -1.1797 -0.3175  0.3682
 2333SOL    HW218633   0.081   2.951   1.749 -1.9379  2.3803  2.3157
 2334SOL     OW18634   3.106   2.575   9.553 -0.4097 -0.0078 -0.0580
 2334SOL    HW118635   3.032   2.519   9.576 -0.7508 -0.3062 -1.8364
 2334SOL    HW218636   3.150   2.516   9.491 -0.8742 -0.6019  0.1865
 2335SOL     OW18637   0.422   2.508  15.642 -0.0671 -0.5136 -0.0623
 2335SOL    HW118638   0.414   2.470  15.729  0.5509 -0.0504  0.1909
 2335SOL    HW218639   0.509   2.548  15.639 -1.0435  1.5116 -1.4621
 2336SOL     OW18640   2.607   3.161   7.880  0.3798 -0.0824  0.1678
 2336SOL    HW118641   2.678   3.096   7.878  2.2249  1.9307  0.4018
 2336SOL    HW218642   2.648   3.247   7.876  0.0795 -0.0323 -1.6409
 2337SOL     OW18643   0.932   0.642   7.953 -0.5802  0.5755  0.6933
 2337SOL    HW118644   0.847   0.681   7.936 -0.6747 -0.4294 -1.2101
 2337SOL    HW218645   0.912   0.580   8.023 -1.5278 -0.2963 -0.3459
 2338SOL     OW18646   0.557   0.166  10.635 -0.0871  0.5038 -0.3646
 2338SOL    HW118647   0.501   0.091  10.618 -1.4061  0.5171  3.8419
 2338SOL    HW218648   0.552   0.210  10.551 -1.3068 -1.0886 -1.1236
 2339SOL     OW18649   2.722   2.139   3.171  0.2514 -0.0462  0.2184
 2339SOL    HW118650   2.737   2.054   3.213  0.4496  0.3144  0.8688
 2339SOL    HW218651   2.638   2.121   3.130  0.4288  0.9515 -0.5930
 2340SOL     OW18652   4.550   0.090   6.825  0.4733 -0.5921  0.8472
 2340SOL    HW118653   4.546   0.076   6.919  0.9850  0.7233  1.0663
 2340SOL    HW218654   4.636   0.052   6.807 -0.5254 -1.0012 -3.1627
 2341SOL     OW18655   2.311   1.098  15.698 -0.0093  0.1094  0.3615
 2341SOL    HW118656   2.274   1.180  15.732  0.6332 -0.0799  1.5338
 2341SOL    HW218657   2.401   1.085  15.728 -0.0416 -0.4480  0.2113
 2342SOL     OW18658   1.247   4.266   4.949  0.4550 -0.2448 -0.2778
 2342SOL    HW118659   1.221   4.287   5.039  2.1387  2.7861 -0.4813
 2342SOL    HW218660   1.287   4.181   4.967  1.4746  0.4057  0.5613
 2343SOL     OW18661   2.559   0.102  17.061  0.3231 -0.0288 -0.0710
 2343SOL    HW118662   2.501   0.105  16.985 -1.0750 -1.6166  0.9271
 2343SOL    HW218663   2.526   0.177  17.110  1.9360  0.6633 -0.0558
 2344SOL     OW18664   4.710   2.599   8.164 -0.2524  0.5494  0.5610
 2344SOL    HW118665   4.697   2.559   8.078  0.6104  2.1733 -0.3109
 2344SOL    HW218666   0.027   2.525   8.190 -1.4482 -1.1521 -1.6742
 2345SOL     OW18667   1.637   2.305   7.003 -0.1037 -0.6145  0.0858
 2345SOL    HW118668   1.574   2.259   6.948 -1.9018  1.8755  0.0723
 2345SOL    HW218669   1.656   2.385   6.953  2.2801 -0.1067  1.7667
 2346SOL     OW18670   1.518   0.195   4.566  0.3945  0.0551  0.4378
 2346SOL    HW118671   1.473   0.128   4.616 -0.1689  0.7526  0.8800
 2346SOL    HW218672   1.561   0.153   4.491 -0.2997  1.8968 -1.0182
 2347SOL     OW18673   2.524   0.381  15.549  0.2404 -0.1053  0.0186
 2347SOL    HW118674   2.598   0.441  15.554 -0.2568  0.5716 -0.7022
 2347SOL    HW218675   2.520   0.352  15.458 -0.9830 -0.1576  0.0817
 2348SOL     OW18676   2.047   0.173   4.009 -0.3366 -0.1310  0.6021
 2348SOL    HW118677   2.090   0.258   4.009 -1.5945  0.4918 -1.0566
 2348SOL    HW218678   1.955   0.190   4.026 -0.2994 -0.8794  1.5988
 2349SOL     OW18679   0.534   4.197  12.217 -0.6142  0.6478 -0.1367
 2349SOL    HW118680   0.512   4.106  12.198  4.8305 -0.4744 -0.9451
 2349SOL    HW218681   0.630   4.195  12.220 -0.5508  1.2947 -2.1770
 2350SOL     OW18682   3.249   1.130   9.422 -0.6656  0.0252 -0.4283
 2350SOL    HW118683   3.282   1.216   9.397 -0.7587 -0.7871 -3.2696
 2350SOL    HW218684   3.312   1.115   9.493  0.3287  2.8786 -0.7300
 2351SOL     OW18685   4.130   2.277   3.032 -0.2586  0.2498 -0.3957
 2351SOL    HW118686   4.150   2.266   3.125  0.9074 -0.3067 -0.7113
 2351SOL    HW218687   4.214   2.280   2.985 -0.4057  0.6072 -0.6400
 2352SOL     OW18688   1.779   3.139   9.176  0.4398  0.0001  0.5042
 2352SOL    HW118689   1.738   3.208   9.227  1.1206  0.1930  0.7910
 2352SOL    HW218690   1.865   3.138   9.219  0.1015 -0.2303  1.1685
 2353SOL     OW18691   2.069   1.913   6.745 -0.6067  0.1439  0.5034
 2353SOL    HW118692   2.015   1.835   6.755 -1.4520  0.5692 -0.7792
 2353SOL    HW218693   2.092   1.949   6.832 -1.2756  1.2356  0.2256
 2354SOL     OW18694   0.131   2.294  15.894  0.7562  0.4434  0.3499
 2354SOL    HW118695   0.118   2.354  15.821  0.8677 -1.5424 -1.3097
 2354SOL    HW218696   0.145   2.224  15.830 -0.4908 -0.6615  1.2958
 2355SOL     OW18697   2.174   0.961  12.118  0.0010  0.3111 -0.3464
 2355SOL    HW118698   2.108   1.029  12.105  2.1861  2.0014 -2.3972
 2355SOL    HW218699   2.205   0.997  12.202  3.0160  3.1017 -2.6806
 2356SOL     OW18700   3.331   1.127   2.567  0.1678 -0.1048 -0.6310
 2356SOL    HW118701   3.335   1.124   2.663 -1.1907  0.9605 -0.5374
 2356SOL    HW218702   3.262   1.192   2.556 -0.8663 -1.6165 -3.0331
 2357SOL     OW18703   2.731   4.205   0.790  0.0300  0.7999  0.3067
 2357SOL    HW118704   2.653   4.217   0.736  1.7934 -1.2142 -2.6559
 2357SOL    HW218705   2.794   4.274   0.770  0.5341 -0.4337 -2.3623
 2358SOL     OW18706   1.420   1.064  17.419  0.1140  0.3494  0.0385
 2358SOL    HW118707   1.381   0.989  17.465  0.2082 -0.1492 -0.6956
 2358SOL    HW218708   1.351   1.128  17.437  0.3512  0.2878  1.1447
 2359SOL     OW18709   3.348   3.962  12.056 -0.0929  0.6771 -0.1204
 2359SOL    HW118710   3.344   4.057  12.046  2.2214  0.7159 -0.6833
 2359SOL    HW218711   3.266   3.951  12.104 -0.2603 -0.6276 -0.7108
 2360SOL     OW18712   4.243   3.685   2.185  0.6622  0.3627  0.0610
 2360SOL    HW118713   4.197   3.677   2.101 -2.7995 -0.8715  2.0904
 2360SOL    HW218714   4.312   3.750   2.174  1.8413 -0.7357  0.9703
 2361SOL     OW18715   1.664   0.341  13.893 -0.0460 -0.2130  0.2285
 2361SOL    HW118716   1.723   0.411  13.922  1.6914 -1.3248 -0.5784
 2361SOL    HW218717   1.675   0.362  13.800  0.8561 -0.3782  0.2910
 2362SOL     OW18718   0.141   1.718   2.792 -0.5199 -0.0984  0.3507
 2362SOL    HW118719   0.209   1.656   2.819  0.4247  0.7921  0.0140
 2362SOL    HW218720   0.067   1.667   2.824 -2.0597  1.7876 -0.2438
 2363SOL     OW18721   2.152   1.954   3.978 -0.7688 -0.0919 -0.0085
 2363SOL    HW118722   2.203   1.943   3.898  1.5211 -0.6691  1.5427
 2363SOL    HW218723   2.148   2.049   3.984  0.3706 -0.1424  1.5087
 2364SOL     OW18724   1.080   2.951   7.990  0.3744  0.3740 -0.0995
 2364SOL    HW118725   1.146   3.002   7.944  0.1866  1.0878  0.4103
 2364SOL    HW218726   1.051   2.903   7.912  1.5914  0.9008 -0.8714
 2365SOL     OW18727   3.628   2.774   1.787 -0.0070 -0.1121 -0.3386
 2365SOL    HW118728   3.671   2.758   1.871  0.8280  3.4540 -0.0842
 2365SOL    HW218729   3.698   2.747   1.727  0.5534  0.5440  0.0195
 2366SOL     OW18730   1.917   1.071   5.737 -0.0722  0.0493  0.3894
 2366SOL    HW118731   1.854   1.018   5.688 -0.5963  1.3485 -0.3398
 2366SOL    HW218732   1.887   1.156   5.706 -0.2182  0.0565  0.5545
 2367SOL     OW18733   3.730   3.370  16.882 -0.4298  0.2815 -0.8931
 2367SOL    HW118734   3.739   3.425  16.804  1.0435  1.7557  0.3213
 2367SOL    HW218735   3.668   3.425  16.931 -0.6025  0.9896 -1.8925
 2368SOL     OW18736   4.061   2.254   6.029  0.6299  0.0759 -0.5297
 2368SOL    HW118737   3.987   2.204   5.993  1.3188 -0.5339 -1.1085
 2368SOL    HW218738   4.136   2.203   5.997  0.0735 -2.0833  1.6113
 2369SOL     OW18739   0.063   4.282   5.412  0.2396  0.0447 -0.0748
 2369SOL    HW118740   0.142   4.297   5.360 -0.5195  1.8583 -0.6829
 2369SOL    HW218741   0.076   4.200   5.459  1.5124  0.3727  0.1647
 2370SOL     OW18742   3.763   0.169   3.178 -0.1209  0.0319  0.5874
 2370SOL    HW118743   3.799   0.141   3.262 -2.9087 -0.2911  1.6637
 2370SOL    HW218744   3.831   0.144   3.115 -2.1465 -2.4701 -0.5602
 2371SOL     OW18745   2.763   4.461   6.714  0.0896  0.4025  0.1473
 2371SOL    HW118746   2.698   4.447   6.783 -1.4721  0.6700 -1.2584
 2371SOL    HW218747   2.799   4.545   6.741  1.6275  0.0097 -0.7318
 2372SOL     OW18748   3.432   1.056   3.165  0.2638 -0.7051  0.4904
 2372SOL    HW118749   3.415   1.118   3.094 -0.8429  2.5644  3.5941
 2372SOL    HW218750   3.375   0.985   3.137  0.6439 -0.6404 -0.4496
 2373SOL     OW18751   2.346   2.166   4.560 -0.5058  0.3284  1.2687
 2373SOL    HW118752   2.344   2.106   4.486  0.2145  0.1190  1.4191
 2373SOL    HW218753   2.418   2.131   4.612 -0.0742  0.3100  0.6530
 2374SOL     OW18754   1.450   4.050   2.643 -0.4959  0.4250  0.7404
 2374SOL    HW118755   1.433   4.020   2.554 -3.2303  0.1763  1.3444
 2374SOL    HW218756   1.478   4.141   2.640 -1.6866  0.8121  1.2452
 2375SOL     OW18757   2.035   0.088   1.831  0.0142  0.5322  0.3217
 2375SOL    HW118758   2.076   0.033   1.898  0.0915  0.5580  0.2962
 2375SOL    HW218759   2.099   0.158   1.817 -2.2749  2.0351 -2.6395
 2376SOL     OW18760   1.202   0.208   6.935  0.6249  0.0273  0.3526
 2376SOL    HW118761   1.193   0.256   7.017 -0.8175 -0.9595  0.7730
 2376SOL    HW218762   1.153   0.128   6.955 -2.2641  1.5518 -0.6853
 2377SOL     OW18763   4.280   4.134   3.521 -0.2078  0.7386  0.0167
 2377SOL    HW118764   4.284   4.114   3.428  1.2403  2.2175 -0.2340
 2377SOL    HW218765   4.217   4.070   3.554  0.4135 -0.4441 -1.1026
 2378SOL     OW18766   3.739   0.874   6.678 -0.5749  0.6617  0.2579
 2378SOL    HW118767   3.650   0.869   6.713 -0.5821  0.4924  0.2169
 2378SOL    HW218768   3.732   0.861   6.584  1.6384 -1.1269  0.3367
 2379SOL     OW18769   1.061   0.031   2.828 -0.7500  0.1254  0.2633
 2379SOL    HW118770   1.099   0.029   2.916  1.7784  0.5652 -0.8161
 2379SOL    HW218771   1.104   0.107   2.788  0.9969 -1.3093 -0.5873
 2380SOL     OW18772   2.235   3.094   5.013 -0.2091  0.0647 -0.3208
 2380SOL    HW118773   2.201   3.165   5.067  1.1452  0.3730  0.1358
 2380SOL    HW218774   2.297   3.143   4.959  0.4602  1.8242  2.0547
 2381SOL     OW18775   4.032   3.429  16.409  0.3454  0.0721  0.0159
 2381SOL    HW118776   4.110   3.387  16.373  0.2319 -0.4193  0.3502
 2381SOL    HW218777   4.052   3.457  16.498  1.3147  0.0800 -0.2038
 2382SOL     OW18778   4.293   2.955   2.790  0.1910  0.1589  0.2953
 2382SOL    HW118779   4.330   2.951   2.702  2.3686  0.1510  1.1956
 2382SOL    HW218780   4.348   3.025   2.826 -0.5435  0.8022  0.1630
 2383SOL     OW18781   1.161   1.475   4.762 -0.7372  0.4742  0.3496
 2383SOL    HW118782   1.252   1.468   4.791  0.3954  0.5812 -3.1923
 2383SOL    HW218783   1.155   1.409   4.693 -0.0399  1.2157 -0.4181
 2384SOL     OW18784   2.100   2.274  12.540 -0.5767 -0.4850 -0.0642
 2384SOL    HW118785   2.137   2.305  12.458 -2.5493  2.7665  0.2780
 2384SOL    HW218786   2.132   2.341  12.601 -0.4749  2.1627 -3.0804
 2385SOL     OW18787   0.748   2.135   9.874 -0.0178 -0.1008  0.0656
 2385SOL    HW118788   0.776   2.111   9.786 -1.0500  0.0568 -0.3076
 2385SOL    HW218789   0.713   2.055   9.912  0.1697 -0.6148 -0.8321
 2386SOL     OW18790   0.702   2.666  16.081  0.7851  0.1037 -0.4959
 2386SOL    HW118791   0.718   2.710  16.164  0.8914  0.5277 -0.7430
 2386SOL    HW218792   0.664   2.731  16.022 -0.6116 -0.0923  0.1810
 2387SOL     OW18793   1.666   3.864   3.731  0.1741 -0.9812 -0.2335
 2387SOL    HW118794   1.626   3.780   3.755 -0.6637 -0.7427 -0.7657
 2387SOL    HW218795   1.756   3.832   3.735  1.1426  2.0762  1.9501
 2388SOL     OW18796   3.453   2.086   7.877 -0.0549 -0.2378 -0.6290
 2388SOL    HW118797   3.545   2.065   7.893  0.1974 -0.0657 -1.8267
 2388SOL    HW218798   3.460   2.171   7.834  0.3008 -0.1917 -0.4823
 2389SOL     OW18799   2.630   1.191   4.885 -0.2698  0.0673  0.3326
 2389SOL    HW118800   2.652   1.130   4.815 -1.2157  0.9124 -0.6978
 2389SOL    HW218801   2.658   1.149   4.967 -1.1210  1.1710  1.1927
 2390SOL     OW18802   2.568   2.998   7.487  0.2609 -0.5836 -0.6506
 2390SOL    HW118803   2.517   3.071   7.522  0.9591  0.6895 -2.3341
 2390SOL    HW218804   2.544   2.931   7.552 -2.1313  1.1089  0.2483
 2391SOL     OW18805   3.418   1.472  12.248 -0.2981 -0.2433  0.1305
 2391SOL    HW118806   3.407   1.381  12.275 -1.4446 -0.5454 -1.3465
 2391SOL    HW218807   3.369   1.470  12.166 -0.4538  0.3076  0.2106
 2392SOL     OW18808   4.406   2.126  12.485  0.6046  0.6810 -0.2542
 2392SOL    HW118809   4.374   2.208  12.522  2.7335  2.0862 -1.5116
 2392SOL    HW218810   4.320   2.086  12.478 -0.0703  2.2489 -0.9889
 2393SOL     OW18811   0.285   0.552  16.886 -0.1768 -1.2067 -0.5439
 2393SOL    HW118812   0.287   0.512  16.973  1.7109 -0.7983 -0.3977
 2393SOL    HW218813   0.261   0.644  16.898 -0.5661 -1.2602 -0.8976
 2394SOL     OW18814   3.459   0.662   1.225  0.0812 -0.4995  0.0725
 2394SOL    HW118815   3.443   0.712   1.305  1.1497  0.6391 -0.4167
 2394SOL    HW218816   3.469   0.579   1.272 -0.1709 -0.4396  0.2312
 2395SOL     OW18817   2.683   0.925   6.164  0.0784 -0.0426  0.2915
 2395SOL    HW118818   2.668   0.831   6.154 -0.3318 -0.0310  0.8393
 2395SOL    HW218819   2.659   0.934   6.256 -1.6945  0.3052 -0.2109
 2396SOL     OW18820   0.163   0.159   8.855  0.0609  0.7690  0.4040
 2396SOL    HW118821   0.077   0.119   8.840  0.7064  0.1342 -1.6668
 2396SOL    HW218822   0.151   0.251   8.833 -1.9371  0.9812  2.3737
 2397SOL     OW18823   0.837   0.553  10.704  0.4734  0.3420 -0.5257
 2397SOL    HW118824   0.784   0.489  10.752 -0.1773  0.8847 -0.5235
 2397SOL    HW218825   0.916   0.561  10.757 -0.0941  0.0362  0.3633
 2398SOL     OW18826   3.190   2.539   3.741  0.3365 -0.2068 -0.2067
 2398SOL    HW118827   3.127   2.497   3.683  0.6554  2.1270 -2.2514
 2398SOL    HW218828   3.189   2.472   3.809  0.5792 -0.6104 -0.5998
 2399SOL     OW18829   4.075   3.028  14.345  0.0975  0.3976  0.1436
 2399SOL    HW118830   4.162   3.030  14.305  0.2919 -4.0016  0.3755
 2399SOL    HW218831   4.038   3.116  14.334  0.0910  0.4188  0.3263
 2400SOL     OW18832   3.031   2.096   7.414  0.1165 -0.0501  0.2604
 2400SOL    HW118833   3.000   2.150   7.486 -0.1956  2.1036 -1.4668
 2400SOL    HW218834   3.118   2.135   7.401 -0.7899  1.6446 -0.7320
 2401SOL     OW18835   0.821   0.117   9.235 -0.1955 -0.0052 -0.1222
 2401SOL    HW118836   0.839   0.027   9.207 -1.0773 -0.4878  0.8493
 2401SOL    HW218837   0.776   0.154   9.159 -0.5116 -1.6743 -0.7548
 2402SOL     OW18838   1.086   1.769   6.453 -0.2885 -0.5981 -0.1408
 2402SOL    HW118839   1.135   1.848   6.477 -2.1410  0.5011 -0.0387
 2402SOL    HW218840   1.016   1.776   6.518  0.1330 -1.8159  0.4544
 2403SOL     OW18841   1.600   0.063   3.264 -0.3147 -0.2752  0.0967
 2403SOL    HW118842   1.616   4.713   3.298 -0.3311 -0.1070  0.5418
 2403SOL    HW218843   1.667   0.060   3.195  0.6377 -1.7101  1.0776
 2404SOL     OW18844   1.203   4.028   6.680 -0.0529  0.3287  0.2312
 2404SOL    HW118845   1.227   4.117   6.706  0.1247  0.5087 -0.5701
 2404SOL    HW218846   1.109   4.048   6.674  0.0117  0.8613  1.0090
 2405SOL     OW18847   1.012   3.097  12.875 -0.2707  0.4542 -0.5518
 2405SOL    HW118848   0.968   3.012  12.885  1.3376 -0.3433 -0.3342
 2405SOL    HW218849   1.054   3.078  12.792  1.0741  1.0216 -0.0129
 2406SOL     OW18850   1.994   4.236  10.664 -0.1176  0.1363  0.3185
 2406SOL    HW118851   1.928   4.306  10.670 -1.9613 -1.6686  1.0922
 2406SOL    HW218852   2.021   4.234  10.756 -0.2046  1.9060  0.3861
 2407SOL     OW18853   0.420   1.168   5.442 -0.1433  0.3321 -0.1377
 2407SOL    HW118854   0.379   1.229   5.503  0.5400  1.3188 -0.6648
 2407SOL    HW218855   0.339   1.126   5.412 -1.0920  1.2189  1.2031
 2408SOL     OW18856   0.806   1.796   7.683  0.4733  0.0594 -0.6117
 2408SOL    HW118857   0.893   1.798   7.723  0.2994  0.1864 -0.2350
 2408SOL    HW218858   0.804   1.706   7.650  0.7318  0.4798 -1.7649
 2409SOL     OW18859   4.118   0.482  16.201  0.0910 -0.7213 -0.4131
 2409SOL    HW118860   4.049   0.477  16.267 -1.9871  0.9339 -2.4571
 2409SOL    HW218861   4.164   0.398  16.201  1.6208  0.1069  2.0941
 2410SOL     OW18862   0.300   0.879   3.759  0.1954  0.4366 -0.6483
 2410SOL    HW118863   0.309   0.892   3.854 -0.2888 -2.1949 -0.2437
 2410SOL    HW218864   0.331   0.789   3.747 -2.5675 -0.6788  0.5146
 2411SOL     OW18865   2.318   2.899   4.086  0.4078  0.2563 -0.4403
 2411SOL    HW118866   2.377   2.932   4.154 -0.0061 -0.2930  0.1859
 2411SOL    HW218867   2.234   2.925   4.123 -0.1017 -1.6283 -0.2851
 2412SOL     OW18868   1.332   1.254   4.815  0.1863 -0.5459 -0.0688
 2412SOL    HW118869   1.397   1.324   4.806  0.3180 -0.8376 -1.2652
 2412SOL    HW218870   1.385   1.179   4.843 -0.1551 -0.4235  0.8995
 2413SOL     OW18871   3.995   2.185   3.766  0.3088  0.1368 -0.0821
 2413SOL    HW118872   4.056   2.188   3.840  0.3481  1.1385 -0.1516
 2413SOL    HW218873   3.941   2.111   3.792  0.1602 -0.0985 -1.0821
 2414SOL     OW18874   2.351   4.269   5.912 -0.2614 -0.9905 -0.6104
 2414SOL    HW118875   2.438   4.232   5.899  0.7342  1.1044  0.1444
 2414SOL    HW218876   2.317   4.216   5.984 -0.1918 -1.4724 -0.9386
 2415SOL     OW18877   1.650   4.499   3.049 -0.0478  0.1395  0.2499
 2415SOL    HW118878   1.612   4.418   3.084 -2.2086  1.5807  1.2127
 2415SOL    HW218879   1.632   4.483   2.957  0.7700 -1.6239  0.3991
 2416SOL     OW18880   0.624   4.225   6.794 -0.0417 -0.2142  0.9476
 2416SOL    HW118881   0.658   4.136   6.803 -0.8143 -0.5292  0.7011
 2416SOL    HW218882   0.581   4.247   6.877  1.4813 -2.1552  2.2463
 2417SOL     OW18883   0.765   2.620   4.861  0.4139  0.2922  0.6662
 2417SOL    HW118884   0.678   2.627   4.820  1.4040  0.5456 -1.3696
 2417SOL    HW218885   0.807   2.579   4.786  1.3557  0.5782  1.0432
 2418SOL     OW18886   1.700   3.226   6.457 -0.5272  0.1903 -0.3374
 2418SOL    HW118887   1.710   3.188   6.545 -0.3080  3.6224  1.1289
 2418SOL    HW218888   1.775   3.197   6.407  1.0791  1.2704  1.4327
 2419SOL     OW18889   0.801   1.167   7.154  0.0792 -0.1499  0.1773
 2419SOL    HW118890   0.776   1.075   7.150  1.6223 -0.5807  0.1415
 2419SOL    HW218891   0.849   1.166   7.237  2.0576  0.0239 -0.9501
 2420SOL     OW18892   3.702   4.170   0.318  0.3979 -0.2532  0.0438
 2420SOL    HW118893   3.654   4.089   0.302  0.3474 -0.0749 -0.7195
 2420SOL    HW218894   3.669   4.196   0.404 -0.3558  1.4558 -0.7571
 2421SOL     OW18895   3.268   0.843   3.088 -0.2132 -0.1417 -0.1354
 2421SOL    HW118896   3.196   0.875   3.142 -2.5672 -0.2063 -3.2464
 2421SOL    HW218897   3.293   0.769   3.144  1.7851 -0.1937 -1.1051
 2422SOL     OW18898   4.228   3.676   1.631 -1.0650  0.1376 -0.1913
 2422SOL    HW118899   4.172   3.702   1.704 -0.3556 -2.1324  1.1674
 2422SOL    HW218900   4.300   3.737   1.646 -0.8653 -0.5610  1.7092
 2423SOL     OW18901   2.659   1.767   6.400  1.0508  0.7019 -0.0159
 2423SOL    HW118902   2.716   1.823   6.453  1.0640  0.6690  0.0047
 2423SOL    HW218903   2.627   1.834   6.340  0.5957  0.2536 -0.2786
 2424SOL     OW18904   4.407   3.750   5.705  0.0555 -0.0249 -0.0052
 2424SOL    HW118905   4.468   3.708   5.644  1.0222  1.8102 -0.3143
 2424SOL    HW218906   4.343   3.787   5.644 -0.1570  0.9510  0.8120
 2425SOL     OW18907   2.479   2.102   3.066  0.1028  0.0361  0.0315
 2425SOL    HW118908   2.424   2.025   3.084  0.6449 -0.4187 -0.2464
 2425SOL    HW218909   2.415   2.166   3.034  1.2443  1.5283  0.7668
 2426SOL     OW18910   0.883   3.413  16.935  0.1057 -0.3224  0.3741
 2426SOL    HW118911   0.904   3.327  16.897 -0.9595  0.0741 -1.0656
 2426SOL    HW218912   0.930   3.465  16.870  0.9875 -0.7802  0.6371
 2427SOL     OW18913   4.253   3.136  17.706  0.3218  0.5027 -0.5258
 2427SOL    HW118914   4.209   3.215  17.675  0.6498  0.8552 -0.0913
 2427SOL    HW218915   4.197   3.117   0.032  2.1661 -1.0412  0.4565
 2428SOL     OW18916   1.408   0.350   2.158 -0.1932  0.7463 -0.3617
 2428SOL    HW118917   1.350   0.281   2.189  2.9470 -1.0635  1.4988
 2428SOL    HW218918   1.465   0.343   2.235  0.0474  1.0515 -0.5135
 2429SOL     OW18919   4.347   0.501   4.405 -0.0721  0.8667 -0.7599
 2429SOL    HW118920   4.271   0.529   4.457 -2.0999 -0.1939 -3.1445
 2429SOL    HW218921   4.415   0.554   4.445 -0.5677 -1.2948  2.8657
 2430SOL     OW18922   0.156   2.632   3.742 -0.2549  0.4252  0.1698
 2430SOL    HW118923   0.110   2.655   3.662 -0.7939 -0.2149  0.2935
 2430SOL    HW218924   0.147   2.716   3.787  0.5274  1.0064 -0.7485
 2431SOL     OW18925   2.495   1.532   4.339  0.3044  0.0153  0.1664
 2431SOL    HW118926   2.491   1.602   4.404  0.9885 -0.4733  0.7363
 2431SOL    HW218927   2.454   1.570   4.262 -3.1161 -3.7917  0.1229
 2432SOL     OW18928   2.503   2.840   7.046 -0.0676 -0.2794 -0.2942
 2432SOL    HW118929   2.553   2.842   6.965 -2.1363  1.3231 -1.5232
 2432SOL    HW218930   2.571   2.820   7.111 -1.0163 -0.8202  0.5458
 2433SOL     OW18931   2.500   3.182   3.397 -0.5172  0.0034 -0.7180
 2433SOL    HW118932   2.494   3.094   3.435  0.5334  1.3627  2.6007
 2433SOL    HW218933   2.572   3.165   3.336 -0.1204 -3.3187  0.6765
 2434SOL     OW18934   1.872   2.217   5.619 -0.0491  0.6508 -0.9283
 2434SOL    HW118935   1.961   2.241   5.596  0.5404 -0.6136  0.0147
 2434SOL    HW218936   1.846   2.303   5.652 -1.8060 -0.3211  0.2640
 2435SOL     OW18937   1.064   4.535   1.892  0.0713 -0.8315 -0.1351
 2435SOL    HW118938   1.069   4.539   1.988 -2.1239  1.3950 -0.0973
 2435SOL    HW218939   1.156   4.519   1.870 -0.4342 -0.8296 -2.2101
 2436SOL     OW18940   4.451   2.864   8.454 -0.4974 -0.4030  0.4250
 2436SOL    HW118941   4.543   2.879   8.433 -0.1946 -1.0348  1.2837
 2436SOL    HW218942   4.459   2.800   8.525  3.4265 -0.6153 -0.2233
 2437SOL     OW18943   1.323   1.589  10.430  0.3973 -0.2140 -0.2996
 2437SOL    HW118944   1.346   1.629  10.346  1.3567 -0.5018 -0.1660
 2437SOL    HW218945   1.349   1.656  10.493 -2.1228 -0.8623  1.4126
 2438SOL     OW18946   0.201   0.269   1.766 -0.6949 -0.6023 -0.5743
 2438SOL    HW118947   0.229   0.193   1.715  5.2838  0.6977  0.6754
 2438SOL    HW218948   0.284   0.316   1.775 -1.8925  1.6153 -1.2122
 2439SOL     OW18949   0.924   1.779  15.825  0.1031 -0.9731  0.4478
 2439SOL    HW118950   0.912   1.684  15.826 -0.8937 -0.8708 -1.6322
 2439SOL    HW218951   0.985   1.791  15.898 -0.0956 -0.8887  0.5984
 2440SOL     OW18952   2.032   4.127   3.686 -0.4070 -0.3290  0.1108
 2440SOL    HW118953   2.081   4.192   3.635  1.0886 -0.9930  0.7076
 2440SOL    HW218954   1.949   4.134   3.640  0.0039 -0.3963 -0.6491
 2441SOL     OW18955   4.030   0.395   1.832 -0.1347  0.1190 -0.6164
 2441SOL    HW118956   4.088   0.394   1.908 -0.6819  0.9005 -0.1844
 2441SOL    HW218957   3.949   0.384   1.883 -0.7060  0.2419 -1.4931
 2442SOL     OW18958   3.195   0.290   3.818  0.0509 -0.1782 -0.3692
 2442SOL    HW118959   3.255   0.364   3.827 -0.7353  0.5075 -0.6787
 2442SOL    HW218960   3.244   0.221   3.863  0.6677  0.2372 -0.4064
 2443SOL     OW18961   3.545   3.163   4.002  0.8328  0.7945 -0.0045
 2443SOL    HW118962   3.636   3.149   3.978  0.7427 -0.5239  0.4607
 2443SOL    HW218963   3.520   3.071   4.004  0.2141  0.9756  0.7395
 2444SOL     OW18964   0.364   2.386   2.633 -0.2852  0.1509  0.1218
 2444SOL    HW118965   0.411   2.317   2.679 -0.8490 -0.1345  0.2811
 2444SOL    HW218966   0.422   2.461   2.642 -0.0641  0.0311 -0.3187
 2445SOL     OW18967   2.515   2.980   4.264 -0.2296  0.1582 -0.4117
 2445SOL    HW118968   2.531   2.907   4.323  0.5945  0.6388 -0.0317
 2445SOL    HW218969   2.600   3.022   4.277  1.7647 -4.1302  0.1014
 2446SOL     OW18970   0.143   2.453   8.828  0.3175  0.0186  0.1540
 2446SOL    HW118971   0.225   2.496   8.806  0.7120 -0.3887  0.8374
 2446SOL    HW218972   0.154   2.359   8.814 -3.6273 -0.7202  2.0371
 2447SOL     OW18973   2.854   3.862  12.117 -0.0170  0.4717 -0.1918
 2447SOL    HW118974   2.902   3.884  12.037  0.4206  0.2213  0.0015
 2447SOL    HW218975   2.910   3.802  12.167 -0.2889  1.2579  1.0531
 2448SOL     OW18976   4.408   4.250  11.931  0.2005 -0.8631 -0.3336
 2448SOL    HW118977   4.483   4.226  11.987  1.0263 -0.6268 -1.3356
 2448SOL    HW218978   4.342   4.287  11.989  3.5065  0.2643  2.6806
 2449SOL     OW18979   2.147   0.442   0.039 -0.4679  0.0211  0.4809
 2449SOL    HW118980   2.150   0.381   0.113 -3.1711 -1.4569 -0.6182
 2449SOL    HW218981   2.104   0.516   0.083 -1.8158  0.4179 -1.4918
 2450SOL     OW18982   0.093   2.219   1.838 -0.1533  0.5097 -0.4422
 2450SOL    HW118983   0.081   2.133   1.798 -0.7793  1.2540 -1.8347
 2450SOL    HW218984   0.041   2.266   1.773  0.7995 -0.8491 -2.1883
 2451SOL     OW18985   0.237   4.709  15.908 -0.3203  0.1035 -0.2238
 2451SOL    HW118986   0.245   0.037  15.838  1.6644  1.1338  0.9630
 2451SOL    HW218987   0.332   4.697  15.915 -0.0170  0.7933 -3.0257
 2452SOL     OW18988   4.453   4.181   3.953  1.0987 -0.1014 -0.5267
 2452SOL    HW118989   4.378   4.124   3.938 -1.0253  2.6995 -0.4260
 2452SOL    HW218990   4.514   4.127   3.901  0.6904  0.6254 -1.7537
 2453SOL     OW18991   2.562   1.597   7.923  0.0359 -0.1249 -0.2838
 2453SOL    HW118992   2.590   1.536   7.854  1.9660 -1.1862  1.4498
 2453SOL    HW218993   2.470   1.614   7.902 -0.4488  0.0058  1.9705
 2454SOL     OW18994   1.026   4.507   1.485  0.4299  0.6364  0.1244
 2454SOL    HW118995   0.946   4.522   1.434 -1.4130 -3.6018  1.7859
 2454SOL    HW218996   1.039   4.591   1.528 -0.2554  1.2308 -0.8245
 2455SOL     OW18997   0.651   0.449  16.401 -0.0211 -0.0759  0.6603
 2455SOL    HW118998   0.655   0.542  16.379  1.3336 -0.9607 -2.9177
 2455SOL    HW218999   0.738   0.420  16.375 -0.0102  2.0010 -1.6085
 2456SOL     OW19000   2.052   3.499  16.655  0.2733 -0.1053 -0.2495
 2456SOL    HW119001   2.073   3.406  16.661 -0.1519 -0.1321  0.7233
 2456SOL    HW219002   1.957   3.482  16.656  0.1687  0.6423  2.0159
 2457SOL     OW19003   0.147   4.230   5.774 -0.3020 -0.5252  0.2635
 2457SOL    HW119004   0.125   4.259   5.862  0.1921  0.3007  0.1171
 2457SOL    HW219005   0.067   4.183   5.750  1.4105 -2.5423 -1.5581
 2458SOL     OW19006   1.176   0.562   1.629 -0.8260  0.0611 -0.7142
 2458SOL    HW119007   1.237   0.548   1.701 -1.1951  3.2495  0.1823
 2458SOL    HW219008   1.093   0.551   1.676 -0.1265  1.4935  0.8486
 2459SOL     OW19009   4.449   1.339  11.328  0.0311  0.1475 -0.4550
 2459SOL    HW119010   4.354   1.340  11.319  0.0764 -0.6742 -1.0028
 2459SOL    HW219011   4.484   1.382  11.250  1.0761  0.4581  0.1711
 2460SOL     OW19012   3.603   2.090   6.637 -0.4717 -0.3758 -0.5494
 2460SOL    HW119013   3.598   2.176   6.596 -0.5250 -0.0097  0.2112
 2460SOL    HW219014   3.696   2.076   6.623 -0.4571 -1.3380  0.4376
 2461SOL     OW19015   3.509   1.738   4.247 -0.2852  0.4273  0.3260
 2461SOL    HW119016   3.528   1.720   4.339  0.5463  0.6617  0.2007
 2461SOL    HW219017   3.414   1.744   4.238 -0.2277 -0.0349 -0.5538
 2462SOL     OW19018   4.395   2.785   7.281  0.5508 -0.3726  0.4588
 2462SOL    HW119019   4.429   2.868   7.315  0.5431 -0.7134  1.2863
 2462SOL    HW219020   4.425   2.807   7.192 -1.6733 -0.4439 -0.3067
 2463SOL     OW19021   0.753   2.071   2.045  0.0579 -0.6979  0.0226
 2463SOL    HW119022   0.747   2.005   2.114  0.5428 -2.0314 -1.2057
 2463SOL    HW219023   0.770   2.020   1.966  1.3710 -0.6663  0.2807
 2464SOL     OW19024   4.291   0.535   3.180  0.4820 -0.5634 -0.4275
 2464SOL    HW119025   4.233   0.471   3.222  1.8453 -0.9788  0.8459
 2464SOL    HW219026   4.294   0.506   3.089 -3.1109  2.5018 -1.4833
 2465SOL     OW19027   2.172   4.478   0.947  0.4531  0.4269 -0.4274
 2465SOL    HW119028   2.261   4.459   0.976  0.1460 -0.0387  0.2317
 2465SOL    HW219029   2.131   4.529   1.017 -0.2990  0.4813 -0.9079
 2466SOL     OW19030   3.255   0.426   5.866 -0.8593 -0.1209  0.6253
 2466SOL    HW119031   3.192   0.424   5.794 -0.9818  1.8848  0.6710
 2466SOL    HW219032   3.257   0.520   5.885 -0.7649  0.4208 -2.1767
 2467SOL     OW19033   3.110   0.003   5.309 -0.1553  0.0038  0.3260
 2467SOL    HW119034   3.058   4.719   5.387  0.8156  0.9592  1.2497
 2467SOL    HW219035   3.194   4.720   5.349 -0.0942 -0.8485 -0.2665
 2468SOL     OW19036   2.608   1.014  16.180  0.3319 -0.0588  0.4433
 2468SOL    HW119037   2.650   0.935  16.147 -1.3895  0.8046 -3.7893
 2468SOL    HW219038   2.529   1.014  16.126  1.1586  2.5875 -0.7912
 2469SOL     OW19039   2.874   1.925   3.559  0.0998 -0.3493 -0.6685
 2469SOL    HW119040   2.962   1.959   3.539  0.1439  0.8828  1.6647
 2469SOL    HW219041   2.821   2.004   3.557 -2.0864 -1.7866  0.1349
 2470SOL     OW19042   1.038   3.636   5.037 -0.1840 -0.0495 -0.0128
 2470SOL    HW119043   1.089   3.647   4.957 -1.3664 -4.2525 -1.3515
 2470SOL    HW219044   0.958   3.594   5.006 -0.3609 -0.4661  1.0154
 2471SOL     OW19045   1.422   1.365   5.782 -0.8104  0.3414  0.8872
 2471SOL    HW119046   1.379   1.287   5.816 -0.5501 -0.7000 -1.1525
 2471SOL    HW219047   1.345   1.407   5.741  0.6197  1.5236 -0.6000
 2472SOL     OW19048   4.678   0.641   3.573 -0.1432  0.7602 -0.1754
 2472SOL    HW119049   0.009   0.579   3.596  0.3136  1.2308 -0.2955
 2472SOL    HW219050   4.668   0.609   3.483 -1.8040 -0.8851  0.5892
 2473SOL     OW19051   0.160   3.307   9.871 -0.1900 -0.3969  0.1753
 2473SOL    HW119052   0.228   3.338   9.931  0.6030  2.0556 -2.0029
 2473SOL    HW219053   0.204   3.245   9.814  0.3892  1.9087 -1.8911
 2474SOL     OW19054   0.647   0.891   2.892 -0.2468 -0.3231 -0.1705
 2474SOL    HW119055   0.734   0.873   2.929 -0.7623  0.8243  1.6360
 2474SOL    HW219056   0.624   0.810   2.848 -1.2837 -0.7142  1.0711
 2475SOL     OW19057   0.476   3.208   2.688  0.2838  0.3061  0.4173
 2475SOL    HW119058   0.416   3.153   2.737  0.7686  1.3615  2.2322
 2475SOL    HW219059   0.416   3.270   2.646  0.6441 -0.3204 -0.9907
 2476SOL     OW19060   0.525   4.616   7.280 -0.7192 -0.0598  0.2366
 2476SOL    HW119061   0.456   4.562   7.317 -1.4699 -0.3878 -1.6261
 2476SOL    HW219062   0.608   4.585   7.317 -0.0307 -0.2890 -1.4990
 2477SOL     OW19063   0.512   4.667   0.967 -0.1728  0.0380  0.2445
 2477SOL    HW119064   0.429   4.667   1.015 -0.1692 -0.1822  0.2472
 2477SOL    HW219065   0.545   4.578   0.976  2.1189  0.8897  0.4034
 2478SOL     OW19066   4.554   1.216   1.562 -0.4033 -0.2523  0.4298
 2478SOL    HW119067   4.541   1.131   1.603  2.5597  0.1384  2.2109
 2478SOL    HW219068   4.476   1.204   1.507  0.2025  0.5364 -0.6035
 2479SOL     OW19069   1.095   3.943  10.640 -0.0605 -0.0202  0.7450
 2479SOL    HW119070   1.096   4.029  10.682 -1.0217 -0.2185  1.1810
 2479SOL    HW219071   1.030   3.949  10.570  1.4912  2.6218 -0.4350
 2480SOL     OW19072   1.896   3.743   3.736  0.0329  0.2041 -0.1178
 2480SOL    HW119073   1.913   3.649   3.728  0.6498  0.1594  1.6731
 2480SOL    HW219074   1.957   3.767   3.665  0.8220 -0.6879  0.2511
 2481SOL     OW19075   1.338   1.973   4.862  0.5043 -0.0600 -0.0789
 2481SOL    HW119076   1.279   1.899   4.875 -1.1268  0.9037 -2.0668
 2481SOL    HW219077   1.392   1.953   4.939 -0.3696 -0.0918  0.5278
 2482SOL     OW19078   1.035   1.714  17.273 -0.3805 -0.3188  0.0595
 2482SOL    HW119079   1.020   1.805  17.246 -4.8407 -1.5229 -1.5990
 2482SOL    HW219080   0.943   1.692  17.284  0.2967 -1.8978  2.4707
 2483SOL     OW19081   3.999   1.234   7.985 -0.5058  0.5858  0.2771
 2483SOL    HW119082   3.958   1.148   7.993 -0.9594  0.8613  0.9152
 2483SOL    HW219083   4.037   1.221   7.898 -1.3502  1.9908 -0.3079
 2484SOL     OW19084   3.419   0.362   4.216  0.0275  0.2153  0.1280
 2484SOL    HW119085   3.347   0.304   4.193 -0.5152  1.0968 -0.4010
 2484SOL    HW219086   3.406   0.352   4.310  0.1736  0.5113  0.1784
 2485SOL     OW19087   0.999   3.619   5.309  0.0269  0.3334 -0.8499
 2485SOL    HW119088   0.990   3.607   5.215 -0.7437  1.1867 -0.8807
 2485SOL    HW219089   0.912   3.642   5.341  1.0599  0.4219  1.9064
 2486SOL     OW19090   2.504   0.670   1.485  0.1859  0.1060 -0.1524
 2486SOL    HW119091   2.577   0.731   1.471  1.6718 -1.5271  0.3980
 2486SOL    HW219092   2.511   0.657   1.580 -0.8010 -2.1274 -0.3865
 2487SOL     OW19093   1.646   0.385   5.634 -0.1460 -0.0494  0.0091
 2487SOL    HW119094   1.705   0.394   5.708  0.6856  1.3299 -0.8253
 2487SOL    HW219095   1.563   0.397   5.680 -0.4256  0.5326 -0.6402
 2488SOL     OW19096   2.764   1.015  10.242 -0.4349  0.3374  0.2500
 2488SOL    HW119097   2.710   0.937  10.236 -1.0333  0.7409  0.2992
 2488SOL    HW219098   2.846   0.983  10.206 -0.4956  1.7262 -1.1333
 2489SOL     OW19099   1.367   0.436   6.762 -0.1518  0.3455 -0.0477
 2489SOL    HW119100   1.292   0.458   6.707  0.8385  1.0805 -1.0995
 2489SOL    HW219101   1.431   0.506   6.753 -0.7219  0.9657  0.6472
 2490SOL     OW19102   4.561   4.456   7.377  0.1345 -0.0552  0.1936
 2490SOL    HW119103   4.555   4.463   7.472  0.0543  0.4629  0.1484
 2490SOL    HW219104   4.577   4.362   7.366  0.0535 -0.1102  0.5398
 2491SOL     OW19105   3.392   1.180  12.312 -0.5280 -0.4905 -0.1769
 2491SOL    HW119106   3.427   1.137  12.234  2.9248  2.2848 -0.1495
 2491SOL    HW219107   3.304   1.143  12.313 -0.1137 -1.3770  3.2914
 2492SOL     OW19108   2.708   1.573   9.606 -0.0681  0.3245  1.1748
 2492SOL    HW119109   2.743   1.554   9.518 -0.7206  1.4998  0.6636
 2492SOL    HW219110   2.738   1.662   9.622  1.3065 -0.0112  0.5153
 2493SOL     OW19111   4.497   3.456  10.790  0.5563  0.1720  0.4134
 2493SOL    HW119112   4.590   3.460  10.769  0.6609 -1.2024  0.5786
 2493SOL    HW219113   4.503   3.364  10.818 -2.5900 -0.2783 -0.3813
 2494SOL     OW19114   4.364   2.520   6.789 -0.7329 -0.1304 -0.2857
 2494SOL    HW119115   4.399   2.469   6.716 -1.2264 -1.5441  0.4619
 2494SOL    HW219116   4.325   2.443   6.832  1.0930 -1.3237 -0.7883
 2495SOL     OW19117   3.895   4.002   2.440  0.1312  0.6452  0.2015
 2495SOL    HW119118   3.868   4.094   2.433  0.4260  0.5736 -2.1560
 2495SOL    HW219119   3.827   3.969   2.498 -1.6677 -1.3890 -3.0742
 2496SOL     OW19120   1.743   2.190   7.248  0.2289 -0.0054  0.3125
 2496SOL    HW119121   1.712   2.100   7.242  1.8145 -0.4321 -1.4410
 2496SOL    HW219122   1.695   2.223   7.172  1.3304 -0.6811 -0.6794
 2497SOL     OW19123   1.594   1.760  17.715 -0.0318  0.1825  0.4426
 2497SOL    HW119124   1.641   1.815  17.653  0.6500 -0.9790 -0.0711
 2497SOL    HW219125   1.660   1.692  17.727  0.6331  0.9726  1.2877
 2498SOL     OW19126   3.105   1.100   3.720 -0.4725 -0.5925  0.6252
 2498SOL    HW119127   3.176   1.074   3.661 -0.8359 -1.1001  0.4066
 2498SOL    HW219128   3.142   1.078   3.806  5.2325  2.3013 -1.0750
 2499SOL     OW19129   1.782   1.514  16.518 -0.1164  0.1043  0.1166
 2499SOL    HW119130   1.790   1.488  16.609 -1.6794  2.9379  1.0538
 2499SOL    HW219131   1.874   1.510  16.492 -0.1250  0.1303  0.0822
 2500SOL     OW19132   0.541   4.179   7.504  0.8253 -0.0337 -0.0522
 2500SOL    HW119133   0.519   4.091   7.533  1.8128  0.0078  0.8283
 2500SOL    HW219134   0.461   4.205   7.459  0.7153  0.0137  0.1719
 2501SOL     OW19135   4.498   3.947   4.147  0.0410  0.1667 -0.5724
 2501SOL    HW119136   4.498   3.895   4.066  1.3369  1.3623 -1.3420
 2501SOL    HW219137   4.535   3.886   4.212 -1.9649 -1.1022 -0.6190
 2502SOL     OW19138   4.533   0.047   5.191 -0.2116 -0.0086 -0.0288
 2502SOL    HW119139   4.517   0.080   5.280  0.9364 -0.7512  0.4395
 2502SOL    HW219140   4.490   4.699   5.186 -0.6774  0.1510  1.3228
 2503SOL     OW19141   3.739   1.909   6.098  0.4008 -0.4032 -0.1182
 2503SOL    HW119142   3.735   1.982   6.159 -2.6473 -1.6381  1.1545
 2503SOL    HW219143   3.798   1.939   6.029 -1.9447  2.0060 -1.1117
 2504SOL     OW19144   0.135   2.414   2.899 -0.2474 -0.0802 -0.1944
 2504SOL    HW119145   0.057   2.367   2.929  0.8760 -0.8842  1.4503
 2504SOL    HW219146   0.207   2.353   2.912  1.0062  0.8555 -2.7041
 2505SOL     OW19147   2.256   3.502   0.263 -0.2024 -0.0276 -0.4095
 2505SOL    HW119148   2.205   3.424   0.239 -1.3357  0.9178 -1.0609
 2505SOL    HW219149   2.241   3.560   0.188 -1.8120 -0.5153 -0.4789
 2506SOL     OW19150   1.485   4.036   1.974 -0.3199 -0.1473 -0.1089
 2506SOL    HW119151   1.394   4.048   1.946 -0.4963 -1.5957 -0.1663
 2506SOL    HW219152   1.524   4.100   1.914 -3.5213  1.7088 -0.1932
 2507SOL     OW19153   1.968   4.185   1.647  0.3397 -0.0878 -0.2647
 2507SOL    HW119154   2.031   4.222   1.585  0.4339  1.7568  0.9305
 2507SOL    HW219155   1.922   4.259   1.685 -0.5858 -1.9345  2.2391
 2508SOL     OW19156   2.704   4.699  10.887 -0.5846  0.1457  0.0172
 2508SOL    HW119157   2.637   4.711  10.820 -1.6845  1.1340  1.2935
 2508SOL    HW219158   2.768   0.028  10.863  1.1298 -1.9211 -1.2472
 2509SOL     OW19159   1.962   3.160   9.430  0.0985 -0.5081  0.2293
 2509SOL    HW119160   2.028   3.174   9.362  1.5003 -1.1269  1.4614
 2509SOL    HW219161   1.907   3.238   9.425 -0.0420 -0.8079 -3.2425
 2510SOL     OW19162   2.828   0.088   2.349  0.2336 -0.3513 -0.2061
 2510SOL    HW119163   2.745   0.129   2.325  0.8145  0.6945 -0.4143
 2510SOL    HW219164   2.846   0.127   2.435 -0.7232 -0.0554 -0.1435
 2511SOL     OW19165   3.671   1.525   3.252  0.5016  0.4604 -0.2075
 2511SOL    HW119166   3.617   1.451   3.276  1.7550 -0.7445 -1.0842
 2511SOL    HW219167   3.626   1.602   3.287  1.7280  0.8809  0.4787
 2512SOL     OW19168   4.392   1.601   1.660 -0.1695  0.2222 -0.1793
 2512SOL    HW119169   4.452   1.617   1.587  1.4803  1.2534  1.3735
 2512SOL    HW219170   4.317   1.658   1.644  2.1789  3.7186  1.3162
 2513SOL     OW19171   4.197   1.126   8.485  0.4209 -0.3867 -0.0081
 2513SOL    HW119172   4.216   1.218   8.468  2.9141 -1.2751 -1.9271
 2513SOL    HW219173   4.267   1.109   8.549 -0.3387  0.1303  0.9672
 2514SOL     OW19174   3.426   2.553   6.404  0.8146 -0.5997  0.3310
 2514SOL    HW119175   3.485   2.557   6.329 -0.5537  1.6300 -0.6029
 2514SOL    HW219176   3.342   2.535   6.364  1.1739  0.4484 -0.8685
 2515SOL     OW19177   2.977   0.165   4.345 -0.2380  0.4666 -0.7224
 2515SOL    HW119178   2.993   0.203   4.431  1.2334  2.2279 -1.7644
 2515SOL    HW219179   2.935   0.081   4.363 -1.1473  0.4990 -2.6777
 2516SOL     OW19180   3.824   4.146  16.249 -0.1784  0.2824 -0.1341
 2516SOL    HW119181   3.873   4.095  16.313 -0.4667  1.6622  1.1729
 2516SOL    HW219182   3.790   4.214  16.307  0.9049 -0.1290  0.9630
 2517SOL     OW19183   2.656   0.601  14.711 -0.1696 -0.0346  0.2062
 2517SOL    HW119184   2.665   0.509  14.686 -2.2564  0.1467 -1.2011
 2517SOL    HW219185   2.591   0.630  14.647 -0.5185 -1.5357 -0.1186
 2518SOL     OW19186   1.284   0.700   6.408 -0.6968 -0.7552 -0.3805
 2518SOL    HW119187   1.239   0.691   6.324 -2.4909  0.8735  0.4305
 2518SOL    HW219188   1.225   0.657   6.470 -0.6105 -1.6505 -0.9066
 2519SOL     OW19189   1.949   1.852   6.114 -0.4925  0.2868  0.6955
 2519SOL    HW119190   1.855   1.839   6.120 -0.8966  2.2261 -1.3640
 2519SOL    HW219191   1.972   1.797   6.039 -0.5021  0.0881  0.8380
 2520SOL     OW19192   2.139   1.317   5.138  0.3009 -0.1263 -0.0653
 2520SOL    HW119193   2.053   1.295   5.103  0.7813 -0.2755 -1.1744
 2520SOL    HW219194   2.192   1.239   5.123  0.4451  0.0128 -0.2998
 2521SOL     OW19195   2.507   4.042   8.852 -0.1699  0.3306  0.5323
 2521SOL    HW119196   2.496   4.111   8.917  0.9023  0.0923  0.9793
 2521SOL    HW219197   2.416   4.033   8.826  0.0569  2.2685 -0.8885
 2522SOL     OW19198   2.576   1.605  11.097  0.3392  0.1395 -0.0972
 2522SOL    HW119199   2.620   1.689  11.100  1.5163 -0.4015 -2.1769
 2522SOL    HW219200   2.649   1.546  11.078 -0.5901 -1.1344  0.2302
 2523SOL     OW19201   3.412   0.379   3.002  0.0798  0.0365  0.1341
 2523SOL    HW119202   3.333   0.408   3.047  0.4978 -0.4820  1.2086
 2523SOL    HW219203   3.476   0.369   3.073  0.0005  1.4921  0.4087
 2524SOL     OW19204   0.154   4.178   9.418  0.2215  0.1757  0.2224
 2524SOL    HW119205   0.143   4.166   9.512 -1.9775 -0.9336 -0.1828
 2524SOL    HW219206   0.233   4.125   9.404  1.3480  1.0416  3.3903
 2525SOL     OW19207   2.556   1.680   0.011 -0.2223 -1.0234 -0.2637
 2525SOL    HW119208   2.557   1.614   0.080 -0.5544 -1.8995 -1.0970
 2525SOL    HW219209   2.642   1.717   0.030 -0.9890 -0.4315  2.1460
 2526SOL     OW19210   1.639   3.564   8.199 -0.4596 -0.2829 -0.0839
 2526SOL    HW119211   1.571   3.510   8.159  0.3409  0.0274 -1.8692
 2526SOL    HW219212   1.696   3.503   8.246 -1.3293 -2.2997 -1.6352
 2527SOL     OW19213   2.497   0.937   3.482 -0.8192  0.3027 -0.1130
 2527SOL    HW119214   2.491   0.877   3.556  0.0509  0.6939  0.2676
 2527SOL    HW219215   2.407   0.971   3.481 -0.3800  1.5889  2.4734
 2528SOL     OW19216   4.342   3.308   0.862  0.1066  0.1541 -0.2481
 2528SOL    HW119217   4.387   3.379   0.816 -0.0971  1.1210  1.0392
 2528SOL    HW219218   4.258   3.295   0.818 -0.2614  1.7118 -0.0348
 2529SOL     OW19219   4.154   2.228  11.138 -0.7969 -0.2373 -0.5126
 2529SOL    HW119220   4.220   2.290  11.170 -0.0162 -0.2297 -2.1408
 2529SOL    HW219221   4.103   2.278  11.073 -1.0707 -0.5574 -0.5450
 2530SOL     OW19222   2.951   1.774   3.127 -0.2058  0.4686 -0.2291
 2530SOL    HW119223   3.045   1.776   3.108 -0.2224 -2.2299 -0.7117
 2530SOL    HW219224   2.922   1.749   3.039  0.1399 -0.4390 -0.0883
 2531SOL     OW19225   1.782   1.493   8.140 -1.1168  0.2554  0.7701
 2531SOL    HW119226   1.844   1.546   8.090 -0.1403 -1.7428 -0.1106
 2531SOL    HW219227   1.704   1.549   8.138 -1.1496  0.2017  0.5522
 2532SOL     OW19228   0.269   4.556   7.903  0.5388  0.2463  0.3795
 2532SOL    HW119229   0.243   4.506   7.826  1.1145 -2.5437  1.9926
 2532SOL    HW219230   0.231   4.639   7.876 -0.9539 -0.4162  0.4606
 2533SOL     OW19231   4.149   3.833   5.660  0.2251 -0.1563 -0.0536
 2533SOL    HW119232   4.128   3.920   5.626 -0.2134 -0.2502 -0.0260
 2533SOL    HW219233   4.183   3.855   5.747  0.6307  2.4733 -0.8838
 2534SOL     OW19234   0.606   2.588   3.121 -0.4027  0.0632 -0.2341
 2534SOL    HW119235   0.683   2.628   3.162 -0.5588 -0.0933  0.2069
 2534SOL    HW219236   0.566   2.578   3.207 -0.7270 -0.3006 -0.4290
 2535SOL     OW19237   3.748   2.624  17.332  0.1163 -0.3470 -0.2749
 2535SOL    HW119238   3.836   2.620  17.371 -0.8666 -0.9721  1.8470
 2535SOL    HW219239   3.707   2.557  17.386 -0.4520 -0.3867 -0.7558
 2536SOL     OW19240   0.441   3.305  11.243 -0.2286 -0.8140  0.3697
 2536SOL    HW119241   0.522   3.351  11.267 -0.4031 -0.1094 -0.4241
 2536SOL    HW219242   0.460   3.220  11.202 -0.2223 -0.3668 -0.5519
 2537SOL     OW19243   2.688   2.192  13.128 -0.1300 -0.6782 -0.6210
 2537SOL    HW119244   2.681   2.287  13.119 -0.5466 -0.4416  2.1153
 2537SOL    HW219245   2.744   2.173  13.053  1.2706  0.9275  0.0279
 2538SOL     OW19246   4.067   3.143  16.196 -0.2845 -0.2088  0.0835
 2538SOL    HW119247   3.984   3.185  16.173  0.1160 -1.0496 -2.8763
 2538SOL    HW219248   4.114   3.217  16.234  0.3923 -0.5342 -0.1253
 2539SOL     OW19249   1.108   3.900   5.653 -0.1826  0.4503  0.2674
 2539SOL    HW119250   1.111   3.920   5.747  0.7038  0.7537  0.1748
 2539SOL    HW219251   1.016   3.885   5.634 -0.0968 -2.1713  1.8818
 2540SOL     OW19252   4.194   0.466  17.054  0.4187 -0.4945 -0.7387
 2540SOL    HW119253   4.190   0.432  16.964  1.1594 -0.5025 -0.7720
 2540SOL    HW219254   4.273   0.521  17.049  0.0823  0.1155  0.9356
 2541SOL     OW19255   3.957   4.562   2.873 -0.0764 -0.1854 -0.1763
 2541SOL    HW119256   3.938   4.484   2.925  1.1439  1.4544  2.7211
 2541SOL    HW219257   4.030   4.528   2.821 -1.5319 -2.3744 -0.8413
 2542SOL     OW19258   1.400   0.475  12.054  0.1679  0.3416 -0.2118
 2542SOL    HW119259   1.479   0.423  12.068  0.4352  0.8411  0.1565
 2542SOL    HW219260   1.358   0.438  11.976  0.1508 -1.0770  0.4893
 2543SOL     OW19261   4.112   1.705   7.240  0.1682 -0.3442  0.3743
 2543SOL    HW119262   4.116   1.670   7.151  0.0941  0.1534  0.1816
 2543SOL    HW219263   4.186   1.762   7.219 -0.3514  0.0049 -0.4459
 2544SOL     OW19264   2.744   0.230   6.553  0.5852  0.0937 -0.1133
 2544SOL    HW119265   2.758   0.169   6.625 -0.2073  1.3437  1.0713
 2544SOL    HW219266   2.648   0.230   6.551  0.5945  1.3206 -0.6449
 2545SOL     OW19267   1.876   1.019  13.752  0.3130 -0.5684  0.2089
 2545SOL    HW119268   1.931   1.003  13.676 -0.3904 -0.4416 -0.3324
 2545SOL    HW219269   1.785   1.012  13.723  0.0880 -1.1155  1.0474
 2546SOL     OW19270   4.606   0.656   9.507 -0.0616 -0.3512 -0.1118
 2546SOL    HW119271   4.539   0.657   9.438 -1.3434  1.1425  1.1752
 2546SOL    HW219272   4.612   0.562   9.523 -1.2098 -0.2586  0.8322
 2547SOL     OW19273   2.681   4.036   2.387  0.2935 -0.5740 -0.4990
 2547SOL    HW119274   2.633   4.018   2.467  0.3531  2.9705  0.3316
 2547SOL    HW219275   2.614   4.031   2.319  1.5582  2.3098 -1.9702
 2548SOL     OW19276   4.444   3.492   4.579  0.2527  0.6770  0.5032
 2548SOL    HW119277   4.399   3.484   4.663 -1.9413  0.3049 -0.7119
 2548SOL    HW219278   4.514   3.548   4.611  2.8119 -1.9123 -0.5191
 2549SOL     OW19279   3.412   0.271   8.608 -0.3091  0.1719  0.2369
 2549SOL    HW119280   3.365   0.213   8.548  0.7924 -1.1173  0.6403
 2549SOL    HW219281   3.465   0.206   8.653  0.4485  1.4238  1.1544
 2550SOL     OW19282   4.039   1.839  15.432 -0.4719 -0.0277  0.2628
 2550SOL    HW119283   4.128   1.873  15.425 -1.0566  1.3924 -0.2523
 2550SOL    HW219284   4.041   1.830  15.527  0.0950  0.5959  0.3115
 2551SOL     OW19285   0.710   3.974   3.673  0.0487 -0.5873  1.0951
 2551SOL    HW119286   0.791   4.017   3.698 -1.0233  1.1242  1.6387
 2551SOL    HW219287   0.726   3.974   3.578 -0.7464  0.4487  0.9478
 2552SOL     OW19288   0.478   2.917   5.571 -0.7573  0.1547 -0.6275
 2552SOL    HW119289   0.413   2.854   5.541 -1.6063 -0.2005  1.9849
 2552SOL    HW219290   0.543   2.851   5.593  0.3276  1.7251  0.8443
 2553SOL     OW19291   2.550   1.761   8.299  0.1976 -0.0226 -0.0373
 2553SOL    HW119292   2.581   1.671   8.290  0.0724 -0.0382 -0.3046
 2553SOL    HW219293   2.456   1.748   8.313  0.0333  1.4531  0.2750
 2554SOL     OW19294   3.941   0.717  10.161  0.3754 -0.1957 -0.3290
 2554SOL    HW119295   4.031   0.694  10.138  0.7320  0.2183  0.6690
 2554SOL    HW219296   3.961   0.775  10.234 -2.9572 -0.2355  0.5849
 2555SOL     OW19297   0.398   1.452   6.265 -0.1133 -0.0690  0.1645
 2555SOL    HW119298   0.432   1.382   6.321 -2.5284 -1.2147  0.2002
 2555SOL    HW219299   0.313   1.413   6.244  0.9595 -2.6643  0.5367
 2556SOL     OW19300   2.265   0.815  10.518  0.2777  0.4338  0.0385
 2556SOL    HW119301   2.255   0.848  10.607 -0.3901 -3.9807  1.5981
 2556SOL    HW219302   2.316   0.891  10.489  0.6568  0.2357  0.1851
 2557SOL     OW19303   4.506   0.973  15.555  0.5008  0.1972 -0.0891
 2557SOL    HW119304   4.494   1.054  15.504 -1.7869 -1.3899 -2.0584
 2557SOL    HW219305   4.570   1.014  15.614 -0.3101  1.9210 -0.3914
 2558SOL     OW19306   0.822   1.831   3.767 -0.6390  0.2336  0.1094
 2558SOL    HW119307   0.911   1.824   3.802  0.0862  2.2794 -1.2490
 2558SOL    HW219308   0.844   1.875   3.685  0.7535 -0.0068  0.3543
 2559SOL     OW19309   0.062   1.228   7.431  0.0772  0.0725 -0.1101
 2559SOL    HW119310   0.058   1.146   7.481 -0.2557 -0.4738 -1.0347
 2559SOL    HW219311   0.072   1.201   7.340  1.3161 -1.7857  0.5875
 2560SOL     OW19312   3.958   3.614   0.197  0.0959 -0.7839  0.2769
 2560SOL    HW119313   4.029   3.678   0.193 -0.9585  0.3864  0.3236
 2560SOL    HW219314   3.988   3.555   0.266  0.4778 -0.6419  0.2323
 2561SOL     OW19315   1.237   4.689   9.774 -0.3224 -0.5954  0.6533
 2561SOL    HW119316   1.187   4.645   9.705 -1.4194  0.6644  0.6440
 2561SOL    HW219317   1.234   0.044   9.750  1.8666 -0.6326  0.1768
 2562SOL     OW19318   3.737   3.473  15.880  0.4052 -0.0646 -0.0826
 2562SOL    HW119319   3.808   3.530  15.850  1.1879 -0.9941  0.0201
 2562SOL    HW219320   3.661   3.505  15.831  1.0556  1.6584  0.0519
 2563SOL     OW19321   1.353   4.166   7.418 -0.0382 -0.1828  0.1459
 2563SOL    HW119322   1.391   4.171   7.505 -1.3041 -0.0929  0.7033
 2563SOL    HW219323   1.323   4.075   7.422  1.3790 -0.6310  0.3536
 2564SOL     OW19324   2.699   0.719  13.846 -0.3524  0.2153 -0.1002
 2564SOL    HW119325   2.738   0.684  13.927 -0.4036 -0.7899 -0.5069
 2564SOL    HW219326   2.606   0.726  13.867 -0.3615 -4.4734  1.3782
 2565SOL     OW19327   0.041   1.079   0.673 -0.4937 -0.4993  0.1963
 2565SOL    HW119328   4.693   1.077   0.631  0.0781  3.3576 -1.1377
 2565SOL    HW219329   0.025   1.024   0.750  0.4308 -0.7511  0.2100
 2566SOL     OW19330   2.121   2.664   7.842  0.2509 -0.1999 -0.7420
 2566SOL    HW119331   2.162   2.578   7.847 -1.2606 -0.9312 -0.9076
 2566SOL    HW219332   2.187   2.720   7.882  1.1976 -0.4731 -1.9299
 2567SOL     OW19333   2.017   0.526   3.064 -0.2603 -0.7899  0.6744
 2567SOL    HW119334   1.960   0.552   2.992  0.3589  0.0384  0.4769
 2567SOL    HW219335   1.992   0.434   3.072 -1.0032 -0.8222 -2.1680
 2568SOL     OW19336   3.708   4.461   6.259 -0.3465  0.0328  0.4616
 2568SOL    HW119337   3.624   4.485   6.299 -0.5551  1.2210 -0.6864
 2568SOL    HW219338   3.764   4.533   6.285  1.1113 -1.0162  0.2295
 2569SOL     OW19339   3.922   0.597   5.336  0.8816  0.3285 -0.0877
 2569SOL    HW119340   3.994   0.602   5.273  0.0983  0.0320 -1.0141
 2569SOL    HW219341   3.843   0.578   5.286 -1.0877  0.9229  2.8245
 2570SOL     OW19342   2.429   4.524   8.252  0.3077 -0.9153 -0.7696
 2570SOL    HW119343   2.483   4.451   8.283 -1.7037 -1.2047  2.0705
 2570SOL    HW219344   2.350   4.480   8.220  0.0069 -1.7787  1.1169
 2571SOL     OW19345   2.191   4.226  15.811  0.3060 -1.2827 -0.2547
 2571SOL    HW119346   2.153   4.257  15.893  0.3649 -1.6854 -0.0754
 2571SOL    HW219347   2.194   4.309  15.764 -0.7184 -0.2487  1.5106
 2572SOL     OW19348   3.843   1.929   1.510  0.7260  0.2249  0.3432
 2572SOL    HW119349   3.843   1.855   1.572  1.4512  1.5721  1.9688
 2572SOL    HW219350   3.856   1.888   1.425 -2.8055  1.0491 -0.5728
 2573SOL     OW19351   1.881   3.990   5.712  0.4417  0.4335  0.5471
 2573SOL    HW119352   1.824   4.022   5.782 -0.6110  1.5718 -0.8415
 2573SOL    HW219353   1.915   3.915   5.761 -0.8903 -0.6019 -0.1270
 2574SOL     OW19354   4.215   0.049   7.846  0.5522  0.3080 -0.2320
 2574SOL    HW119355   4.260   0.111   7.903  0.2251 -0.6187  1.0409
 2574SOL    HW219356   4.285   0.016   7.790  0.4129 -0.7693  0.2240
 2575SOL     OW19357   4.062   3.830   5.279 -0.6728 -0.5720  0.4465
 2575SOL    HW119358   4.071   3.840   5.184 -0.2576  0.7775  0.6332
 2575SOL    HW219359   4.007   3.907   5.293 -0.2063 -0.5837  2.4211
 2576SOL     OW19360   1.815   4.610   4.852 -0.4976  0.1467 -0.3061
 2576SOL    HW119361   1.800   4.621   4.758  1.8269  1.6099 -0.5047
 2576SOL    HW219362   1.766   4.679   4.897 -0.1035 -0.2689  0.7689
 2577SOL     OW19363   0.873   2.226   9.130  0.3385 -0.0352 -0.6950
 2577SOL    HW119364   0.802   2.259   9.186  1.9777  1.1146  0.6879
 2577SOL    HW219365   0.847   2.134   9.118 -0.9032  0.0617  1.0752
 2578SOL     OW19366   1.601   3.629   3.001 -0.0472 -0.3192  0.4309
 2578SOL    HW119367   1.587   3.632   2.907  0.0198  0.9429  0.4589
 2578SOL    HW219368   1.657   3.704   3.021 -1.5132  0.9797 -0.3362
 2579SOL     OW19369   2.121   3.124   6.009  0.0337 -0.1216  0.2331
 2579SOL    HW119370   2.215   3.104   6.012 -0.4162 -1.7810  3.8344
 2579SOL    HW219371   2.082   3.037   6.014  2.2210 -1.0732  0.7766
 2580SOL     OW19372   2.524   3.235   3.752 -0.4885 -0.1335 -0.1326
 2580SOL    HW119373   2.613   3.199   3.750 -1.0669 -1.5451 -0.1150
 2580SOL    HW219374   2.541   3.301   3.684  0.9162 -1.8604 -1.4438
 2581SOL     OW19375   0.052   3.441   4.748  0.0973  0.3735 -0.0577
 2581SOL    HW119376   0.143   3.433   4.779  0.1663 -0.6232 -0.5195
 2581SOL    HW219377   0.032   3.356   4.710 -1.2632  0.1428  1.1707
 2582SOL     OW19378   3.341   0.280  12.211 -0.3220 -0.0556 -0.1400
 2582SOL    HW119379   3.339   0.241  12.298 -0.0949 -0.4721 -0.3207
 2582SOL    HW219380   3.257   0.243  12.180 -0.0574 -0.6149 -0.1993
 2583SOL     OW19381   1.217   4.009   4.544 -0.4388  0.0396  0.3946
 2583SOL    HW119382   1.259   3.924   4.530  1.2579  0.5228  2.6087
 2583SOL    HW219383   1.205   4.009   4.639 -0.9650  1.1631  0.3270
 2584SOL     OW19384   3.086   1.905  12.849  0.5038 -0.1338  0.8114
 2584SOL    HW119385   3.081   1.884  12.756  0.5556  1.3297  0.4779
 2584SOL    HW219386   3.125   1.822  12.875  1.3764 -0.1573 -0.6102
 2585SOL     OW19387   2.620   3.999   2.904 -0.3001  0.3351  0.1644
 2585SOL    HW119388   2.642   3.908   2.924  0.5194  1.3353  3.9121
 2585SOL    HW219389   2.711   4.026   2.896 -0.1977 -0.8382 -2.5357
 2586SOL     OW19390   2.550   1.267   2.054  0.1938 -0.4845  0.1663
 2586SOL    HW119391   2.530   1.251   2.146 -0.4849  1.1286  0.2928
 2586SOL    HW219392   2.637   1.307   2.055 -0.3382  0.6774 -0.1642
 2587SOL     OW19393   0.033   4.700   4.668  0.3151  0.0774 -0.0975
 2587SOL    HW119394   4.716   0.036   4.692  1.1540  0.3811  0.8806
 2587SOL    HW219395   4.712   4.627   4.683  0.3973 -0.0891 -0.5897
 2588SOL     OW19396   0.548   3.880   0.058 -0.3085 -0.2617 -0.3784
 2588SOL    HW119397   0.539   3.948  17.741 -0.3732  0.3051  0.2112
 2588SOL    HW219398   0.640   3.891   0.082 -0.9689  0.8229  1.5844
 2589SOL     OW19399   2.257   1.616   7.074 -0.4424 -0.3835  0.3205
 2589SOL    HW119400   2.346   1.635   7.043 -0.7280  0.5627  0.0629
 2589SOL    HW219401   2.272   1.524   7.096  1.9704  0.0506  0.5272
 2590SOL     OW19402   0.699   1.279   5.097  0.4561  0.1254 -0.2646
 2590SOL    HW119403   0.642   1.311   5.167 -0.4148 -1.6489 -0.1703
 2590SOL    HW219404   0.695   1.349   5.032 -1.4163 -1.0736 -1.4412
 2591SOL     OW19405   4.636   0.376   9.549  0.1927 -0.3541 -0.8322
 2591SOL    HW119406   4.704   0.374   9.481  0.4970  0.1902 -0.5511
 2591SOL    HW219407   4.620   0.282   9.546 -1.9530  0.0530 -1.6908
 2592SOL     OW19408   0.221   1.178  13.306 -0.0810  0.1201 -0.3311
 2592SOL    HW119409   0.233   1.093  13.264 -1.9633  0.5123 -1.6356
 2592SOL    HW219410   0.224   1.234  13.228  2.0578 -0.9461 -1.0372
 2593SOL     OW19411   3.907   2.260   9.331 -0.3038  0.2281 -0.5958
 2593SOL    HW119412   3.828   2.206   9.339  0.3449 -0.2642  2.2652
 2593SOL    HW219413   3.953   2.249   9.414  1.5823 -0.7392 -1.7814
 2594SOL     OW19414   3.394   4.074   1.268  0.3202  0.1610 -0.1236
 2594SOL    HW119415   3.302   4.066   1.243  0.2593  0.6192 -0.0376
 2594SOL    HW219416   3.436   4.104   1.187  4.0450 -0.7900  1.4421
 2595SOL     OW19417   3.155   1.453   4.435 -0.1989 -0.1915 -0.1383
 2595SOL    HW119418   3.149   1.534   4.384 -2.0122  0.1404  0.5966
 2595SOL    HW219419   3.250   1.459   4.447  0.1735 -3.0887 -1.7969
 2596SOL     OW19420   1.995   0.779  11.976 -0.2750  0.2299  0.2392
 2596SOL    HW119421   2.027   0.838  12.045 -2.1313  0.7444  0.6778
 2596SOL    HW219422   2.015   0.824  11.894 -0.4432  0.2526  0.2112
 2597SOL     OW19423   4.580   3.313   2.219  0.8536 -0.2668  0.3422
 2597SOL    HW119424   4.542   3.329   2.133 -1.7341 -1.1652  1.3351
 2597SOL    HW219425   4.632   3.394   2.223  3.1060 -1.6047 -1.3752
 2598SOL     OW19426   3.139   4.011   1.159 -0.0747 -0.0760  0.2012
 2598SOL    HW119427   3.043   4.008   1.164 -0.2110  0.2234 -2.0993
 2598SOL    HW219428   3.166   3.942   1.220 -0.7531 -1.4160 -1.0076
 2599SOL     OW19429   3.363   2.072   3.584 -0.2211 -0.3669 -0.0599
 2599SOL    HW119430   3.351   1.985   3.622  0.1006  0.9956  3.0776
 2599SOL    HW219431   3.274   2.094   3.554 -1.0002 -3.7858 -0.2232
 2600SOL     OW19432   2.993   3.527   4.048  1.0925  1.0087  0.2929
 2600SOL    HW119433   2.974   3.620   4.042 -0.3104  0.4378 -3.8086
 2600SOL    HW219434   2.968   3.504   4.138  1.4785  0.8334  0.3574
 2601SOL     OW19435   2.452   1.445   4.871  0.2509 -0.0940 -0.5240
 2601SOL    HW119436   2.506   1.370   4.897 -0.0168 -0.2009 -0.2796
 2601SOL    HW219437   2.484   1.512   4.931  0.1309  1.1019 -1.8112
 2602SOL     OW19438   3.229   1.775   2.510 -0.2554  0.1772 -0.0825
 2602SOL    HW119439   3.269   1.823   2.582 -0.7346  1.6373 -0.7950
 2602SOL    HW219440   3.198   1.698   2.559  1.6120 -1.4225 -1.4270
 2603SOL     OW19441   4.511   3.178   6.362 -0.1863  0.3622  0.0652
 2603SOL    HW119442   4.556   3.260   6.340  2.9815 -1.4434 -0.2267
 2603SOL    HW219443   4.584   3.117   6.357  1.2795  2.2170 -1.5073
 2604SOL     OW19444   3.005   0.550  14.308  0.2098  0.2302 -0.1064
 2604SOL    HW119445   3.004   0.541  14.212  1.5804 -1.8632  0.0702
 2604SOL    HW219446   3.016   0.462  14.343  1.3303  0.4167  0.0208
 2605SOL     OW19447   1.660   1.106  13.500  0.4376  0.3172  0.3326
 2605SOL    HW119448   1.641   1.014  13.521  2.2652 -0.0415  0.4228
 2605SOL    HW219449   1.574   1.145  13.511 -0.6820 -1.6873 -1.3967
 2606SOL     OW19450   4.156   1.745  11.990 -0.0712  0.0166  0.1734
 2606SOL    HW119451   4.062   1.735  12.000  0.1150 -2.4258 -0.5315
 2606SOL    HW219452   4.171   1.651  11.997  0.0379 -0.1700 -2.6447
 2607SOL     OW19453   0.092   3.411   5.520  0.1474 -0.3823  0.3877
 2607SOL    HW119454   0.108   3.461   5.440 -1.5999  0.1778  0.3841
 2607SOL    HW219455   0.178   3.374   5.538  1.1192  1.3769 -0.6526
 2608SOL     OW19456   3.320   2.749  13.153  0.3810  0.0804 -0.6964
 2608SOL    HW119457   3.280   2.765  13.239  0.1044  0.2653 -0.8637
 2608SOL    HW219458   3.336   2.832  13.110 -0.0501  1.3426  1.5611
 2609SOL     OW19459   1.939   2.868   9.069 -0.0129 -0.5115  0.3321
 2609SOL    HW119460   1.886   2.833   9.141  0.2847 -1.0620  0.2834
 2609SOL    HW219461   1.977   2.783   9.046  1.3595 -0.0898  1.0199
 2610SOL     OW19462   0.548   3.575  12.147 -0.2582  0.2218  0.5313
 2610SOL    HW119463   0.492   3.651  12.132  0.7626  0.7927 -0.3933
 2610SOL    HW219464   0.491   3.529  12.210 -0.0445  0.3713  0.8330
 2611SOL     OW19465   4.366   2.053   6.564  0.0767  0.5164  0.2211
 2611SOL    HW119466   4.386   1.987   6.498  0.5047  1.0735 -0.2014
 2611SOL    HW219467   4.274   2.061   6.540  0.4196  3.4968 -0.0901
 2612SOL     OW19468   2.409   1.963   3.448  0.4775 -0.3170  0.1123
 2612SOL    HW119469   2.441   2.047   3.413 -0.4859 -0.6488 -1.5303
 2612SOL    HW219470   2.321   1.992   3.469  0.8267  2.1326 -1.7873
 2613SOL     OW19471   0.148   4.547   4.379  0.2684 -0.2603  0.4782
 2613SOL    HW119472   0.215   4.499   4.332  1.4668  1.3340  0.5636
 2613SOL    HW219473   0.154   4.639   4.352 -0.9013 -0.2371  0.2649
 2614SOL     OW19474   0.400   3.189  13.394  0.1814 -0.2511 -0.4585
 2614SOL    HW119475   0.450   3.260  13.354 -3.3256  2.9091  0.8316
 2614SOL    HW219476   0.437   3.116  13.344 -3.4128 -3.1024  1.0652
 2615SOL     OW19477   2.682   2.776   8.582 -0.0540 -0.2097 -0.5207
 2615SOL    HW119478   2.639   2.806   8.662  2.1677  0.8811  0.2762
 2615SOL    HW219479   2.758   2.730   8.617  1.6318  2.3912 -0.7061
 2616SOL     OW19480   1.581   4.495  16.708  0.2339 -0.7756 -0.3725
 2616SOL    HW119481   1.586   4.473  16.615  1.8792  1.4657 -0.8261
 2616SOL    HW219482   1.589   4.407  16.744  1.9869  0.0521  1.2316
 2617SOL     OW19483   3.668   0.703  14.423 -0.0558 -0.3497  0.1568
 2617SOL    HW119484   3.609   0.763  14.468  0.1639  0.8906 -1.2342
 2617SOL    HW219485   3.690   0.745  14.340  1.5279 -0.6260  0.4263
 2618SOL     OW19486   2.538   2.539   2.243 -0.9085 -0.3971 -0.5760
 2618SOL    HW119487   2.455   2.585   2.230 -1.1934 -0.8059 -0.2190
 2618SOL    HW219488   2.514   2.447   2.255 -2.1282 -0.1372 -1.0761
 2619SOL     OW19489   2.917   2.235   6.222  0.1820  0.2922 -0.0867
 2619SOL    HW119490   2.887   2.266   6.136  0.9235 -2.8414 -1.4915
 2619SOL    HW219491   3.009   2.229   6.196  0.0322  1.2222 -0.8410
 2620SOL     OW19492   2.814   2.006   7.704  0.3052 -0.0717 -0.0020
 2620SOL    HW119493   2.743   2.052   7.659  0.7711  0.8618  0.2015
 2620SOL    HW219494   2.851   1.957   7.630  0.4059 -0.3381  0.2246
 2621SOL     OW19495   2.903   2.430   7.858  0.1674 -0.1360  0.6628
 2621SOL    HW119496   2.993   2.451   7.883 -0.0556  1.7152 -0.1038
 2621SOL    HW219497   2.916   2.339   7.883 -0.4122 -0.2050  0.6962
 2622SOL     OW19498   2.641   2.765  16.117  0.5370 -0.2220  0.5540
 2622SOL    HW119499   2.722   2.728  16.152  0.2509  1.8829  3.4209
 2622SOL    HW219500   2.580   2.701  16.151  2.0668 -1.4724  0.9258
 2623SOL     OW19501   0.124   0.324   1.415  0.3043  0.4637  0.1492
 2623SOL    HW119502   0.047   0.341   1.471 -0.5400  1.5505 -1.3419
 2623SOL    HW219503   0.105   0.390   1.349 -1.5324 -0.7602 -0.5341
 2624SOL     OW19504   2.637   3.858   6.027  0.0412  0.5384  0.0586
 2624SOL    HW119505   2.698   3.932   6.036  1.1022 -0.2455 -0.7550
 2624SOL    HW219506   2.677   3.788   6.079 -1.9348 -1.9050 -1.6840
 2625SOL     OW19507   1.632   2.851   3.817  0.5509 -0.1384 -0.0943
 2625SOL    HW119508   1.622   2.764   3.855  0.5781 -1.2603 -2.6611
 2625SOL    HW219509   1.568   2.839   3.747 -0.6032 -0.2115  0.9853
 2626SOL     OW19510   4.343   0.480   0.581 -0.6433 -0.1124 -0.1857
 2626SOL    HW119511   4.314   0.551   0.638  0.0751  1.1100 -1.3366
 2626SOL    HW219512   4.431   0.511   0.562 -0.1543 -1.3672  0.0027
 2627SOL     OW19513   1.980   0.294   6.401 -0.4721 -0.5486 -0.0220
 2627SOL    HW119514   1.889   0.308   6.428  0.0123 -0.0881  1.4032
 2627SOL    HW219515   1.987   0.210   6.448 -1.1650 -1.0037 -0.7313
 2628SOL     OW19516   2.277   2.708   6.628 -0.4125  0.2348 -0.5763
 2628SOL    HW119517   2.319   2.793   6.641 -1.3311  0.1960  2.4417
 2628SOL    HW219518   2.187   2.737   6.642  0.5553  3.3231 -0.6140
 2629SOL     OW19519   2.509   0.462  13.177 -0.4341 -0.4123 -0.3083
 2629SOL    HW119520   2.485   0.542  13.131 -2.3450 -0.0043  1.4044
 2629SOL    HW219521   2.442   0.395  13.165  1.5132 -2.1040 -1.8878
 2630SOL     OW19522   4.054   2.977   7.244  0.2414  0.2658 -0.3387
 2630SOL    HW119523   4.113   3.012   7.310  1.2319 -2.8492  0.4136
 2630SOL    HW219524   4.007   2.911   7.294  3.4189 -2.3482 -0.8638
 2631SOL     OW19525   2.905   2.667  16.167 -0.1712  0.4185 -0.2123
 2631SOL    HW119526   2.965   2.638  16.236 -0.7906 -0.3607 -0.0072
 2631SOL    HW219527   2.901   2.584  16.119 -0.5483  0.8951 -1.0032
 2632SOL     OW19528   1.527   4.192   9.284 -0.6293 -0.3768  0.6920
 2632SOL    HW119529   1.476   4.256   9.335 -2.8637 -1.4704 -0.1462
 2632SOL    HW219530   1.525   4.217   9.192 -1.6682  0.1523  0.8472
 2633SOL     OW19531   0.177   0.699  15.741 -0.3175 -0.0128  0.1374
 2633SOL    HW119532   0.118   0.750  15.796 -1.6068 -1.6020  0.2234
 2633SOL    HW219533   0.203   0.766  15.678  3.1024 -2.5868 -1.2050
 2634SOL     OW19534   2.607   2.522   8.784 -0.8670 -0.7114 -0.1876
 2634SOL    HW119535   2.546   2.597   8.781 -0.4589 -0.3608  0.3418
 2634SOL    HW219536   2.536   2.459   8.798  0.6281 -2.0652  1.2995
 2635SOL     OW19537   0.345   3.417   2.977  0.2982 -1.0967  0.1595
 2635SOL    HW119538   0.273   3.479   2.986 -0.1381 -1.2970 -1.9275
 2635SOL    HW219539   0.368   3.425   2.885 -0.2486 -3.0926 -0.1493
 2636SOL     OW19540   0.182   3.748   3.937  0.6951  0.0162  0.2698
 2636SOL    HW119541   0.252   3.741   4.001  2.0772  1.2640 -1.1151
 2636SOL    HW219542   0.177   3.657   3.906  2.8428  0.9613 -2.8393
 2637SOL     OW19543   2.850   1.784  17.237 -0.2380  0.0841 -0.1928
 2637SOL    HW119544   2.900   1.717  17.190  0.3217  1.5198 -1.6366
 2637SOL    HW219545   2.914   1.818  17.299 -1.5665  0.9887  0.6940
 2638SOL     OW19546   2.506   1.179   8.490 -0.5923  0.3530 -0.2213
 2638SOL    HW119547   2.496   1.263   8.446 -1.3823  0.1304 -0.4614
 2638SOL    HW219548   2.542   1.129   8.417 -0.9688 -0.8330  0.4068
 2639SOL     OW19549   0.276   0.952   8.849 -0.2528  0.2433 -0.0742
 2639SOL    HW119550   0.362   0.908   8.850  0.9657  2.6339  0.0426
 2639SOL    HW219551   0.222   0.877   8.874 -0.5176  1.2473  2.4172
 2640SOL     OW19552   4.273   3.307   5.259  0.3116  0.0067  0.2464
 2640SOL    HW119553   4.220   3.383   5.282  0.8117  0.5780 -0.4939
 2640SOL    HW219554   4.214   3.238   5.289 -0.9971  0.9663 -0.0853
 2641SOL     OW19555   0.785   2.416  11.718  0.3492  0.1625  0.2773
 2641SOL    HW119556   0.696   2.387  11.696  0.4056 -0.1469  0.4525
 2641SOL    HW219557   0.793   2.498  11.670 -1.8961  1.8555  2.8196
 2642SOL     OW19558   3.786   2.378  16.365  0.0903  0.0282 -0.0454
 2642SOL    HW119559   3.792   2.299  16.311 -0.6506 -1.0445  1.4213
 2642SOL    HW219560   3.763   2.451  16.309  1.1658 -0.0498 -0.5894
 2643SOL     OW19561   2.604   0.447   2.228  0.3718 -0.1051  0.0242
 2643SOL    HW119562   2.660   0.512   2.271  0.0466  0.1804  0.0219
 2643SOL    HW219563   2.647   0.445   2.143 -1.7544 -0.3245 -1.0374
 2644SOL     OW19564   2.734   4.735  17.225 -0.1229 -0.1673 -0.1228
 2644SOL    HW119565   2.657   0.030  17.180  0.5564 -0.2382 -1.3293
 2644SOL    HW219566   2.707   0.003  17.317 -0.2636 -0.7331 -0.1289
 2645SOL     OW19567   3.424   1.511   1.790 -0.5434  0.3471 -0.3518
 2645SOL    HW119568   3.351   1.572   1.782  0.3320  1.4242 -0.1348
 2645SOL    HW219569   3.494   1.552   1.739 -0.7413  2.6078  1.2044
 2646SOL     OW19570   4.161   3.806   8.383 -0.5206 -0.3278 -0.0612
 2646SOL    HW119571   4.190   3.715   8.371 -1.1917 -0.5337 -0.1252
 2646SOL    HW219572   4.244   3.852   8.375 -1.5946  1.7677  1.0317
 2647SOL     OW19573   3.502   4.151  13.515  0.9771 -0.2026 -0.1656
 2647SOL    HW119574   3.424   4.146  13.460  0.0429 -0.7943  1.2085
 2647SOL    HW219575   3.504   4.245  13.527  1.3464 -0.0998 -1.0657
 2648SOL     OW19576   1.425   4.549   5.087 -0.3022 -0.0420 -0.6112
 2648SOL    HW119577   1.471   4.467   5.106  1.8433  0.8461 -1.9275
 2648SOL    HW219578   1.404   4.578   5.176 -1.6455 -0.8478 -0.6683
 2649SOL     OW19579   1.507   0.380  17.695  0.2620 -0.0311 -0.0566
 2649SOL    HW119580   1.585   0.330  17.671 -0.1639 -0.1952 -1.0867
 2649SOL    HW219581   1.545   0.453  17.744 -1.1335 -0.6151  1.9148
 2650SOL     OW19582   1.301   3.897   6.221  0.6151 -1.0455  0.0352
 2650SOL    HW119583   1.221   3.916   6.269  0.6718 -0.1405 -0.2233
 2650SOL    HW219584   1.329   3.984   6.192  0.8310 -1.4034 -0.8492
 2651SOL     OW19585   0.632   4.449  12.394 -0.2929 -0.0482 -0.4467
 2651SOL    HW119586   0.683   4.368  12.397 -0.5927 -0.2319 -0.3000
 2651SOL    HW219587   0.622   4.465  12.488 -0.3266 -3.3786  0.1128
 2652SOL     OW19588   1.003   2.206   4.304  0.2079 -0.6522 -0.0409
 2652SOL    HW119589   1.017   2.114   4.286 -0.2620 -0.7913  0.2963
 2652SOL    HW219590   1.093   2.239   4.310  0.0095 -0.0577 -0.2629
 2653SOL     OW19591   0.030   3.086   9.992 -0.0012 -0.1635 -0.4374
 2653SOL    HW119592   0.052   3.058   9.903  0.9283  0.3243 -0.3675
 2653SOL    HW219593   0.081   3.167   9.996 -0.0447 -0.1720  0.3434
 2654SOL     OW19594   3.838   2.176   1.869  0.1625 -0.2796  0.6489
 2654SOL    HW119595   3.819   2.110   1.936  0.0339 -0.8051  0.0901
 2654SOL    HW219596   3.900   2.226   1.922  0.9564 -0.9832  0.3861
 2655SOL     OW19597   2.653   0.199  14.732 -0.1422  0.7641 -0.4921
 2655SOL    HW119598   2.715   0.265  14.763  0.5438 -1.2251  2.3759
 2655SOL    HW219599   2.706   0.130  14.772  0.7564  1.0560 -1.1640
 2656SOL     OW19600   2.547   1.514   8.793  0.1200 -0.2633  0.2850
 2656SOL    HW119601   2.461   1.472   8.796  0.6431 -1.3406  0.4761
 2656SOL    HW219602   2.609   1.441   8.786  2.9112  2.1680 -0.2683
 2657SOL     OW19603   1.993   3.796   7.327  0.1315  0.0045 -0.6092
 2657SOL    HW119604   2.028   3.710   7.348 -1.3664 -0.7215 -1.1220
 2657SOL    HW219605   1.921   3.801   7.391  0.7343 -1.7046  0.1915
 2658SOL     OW19606   2.369   3.485   6.910  0.3084  0.0334  0.0953
 2658SOL    HW119607   2.379   3.404   6.961 -0.4210 -0.4948 -0.6022
 2658SOL    HW219608   2.410   3.469   6.825  1.9487 -0.1461  0.9182
 2659SOL     OW19609   1.388   0.571  13.921 -0.1616 -0.4694 -0.5784
 2659SOL    HW119610   1.380   0.630  13.996 -1.3957 -1.6127  0.1809
 2659SOL    HW219611   1.354   0.626  13.850 -3.3761  0.5282  1.6983
 2660SOL     OW19612   0.261   0.014   5.374  0.1821 -0.2401 -0.0989
 2660SOL    HW119613   0.185   4.719   5.325 -1.7612  1.9169  1.4369
 2660SOL    HW219614   0.338   4.737   5.320  0.6763  0.4956  0.4018
 2661SOL     OW19615   2.985   1.100  14.120 -0.1282 -0.1339 -0.0472
 2661SOL    HW119616   3.039   1.114  14.042 -0.5863  1.7480 -0.0201
 2661SOL    HW219617   2.900   1.092  14.075 -0.0542  1.6149 -0.5078
 2662SOL     OW19618   0.116   0.527   9.755  0.0434 -0.7908  0.2847
 2662SOL    HW119619   0.071   0.463   9.699  1.6287  0.2103 -2.1313
 2662SOL    HW219620   0.103   0.492   9.843 -1.0937 -2.2082 -0.4375
 2663SOL     OW19621   2.148   0.308   4.477 -0.3653  0.4450  0.4285
 2663SOL    HW119622   2.228   0.299   4.424  1.2252 -0.5382  3.0085
 2663SOL    HW219623   2.138   0.403   4.468  1.2273  0.5417 -0.2751
 2664SOL     OW19624   2.495   0.738   6.228 -0.4617  0.0370 -0.3728
 2664SOL    HW119625   2.453   0.778   6.304  1.1625  1.0079  0.0208
 2664SOL    HW219626   2.480   0.645   6.246 -0.9530  0.0589 -0.6893
 2665SOL     OW19627   1.122   2.188   2.124  0.6819  0.1214  0.1506
 2665SOL    HW119628   1.099   2.118   2.186  1.0135  0.6472  0.8731
 2665SOL    HW219629   1.090   2.156   2.040  1.4538  0.0629 -0.1159
 2666SOL     OW19630   0.899   0.009  10.894  0.2250  0.0539  0.1545
 2666SOL    HW119631   0.981   0.036  10.936  0.4874 -1.7155  0.7664
 2666SOL    HW219632   0.850   0.085  10.926 -0.8547  0.3005 -2.0599
 2667SOL     OW19633   1.485   2.361   3.328  0.5665  0.0843  0.0188
 2667SOL    HW119634   1.417   2.389   3.266 -0.9085 -2.6253  0.4233
 2667SOL    HW219635   1.567   2.360   3.278  0.6118 -0.0417  0.0952
 2668SOL     OW19636   3.837   1.221   8.462 -0.0921  0.0299 -0.1715
 2668SOL    HW119637   3.832   1.226   8.367 -1.8147  2.1186  0.0182
 2668SOL    HW219638   3.897   1.148   8.473  2.8360  2.7422  2.0829
 2669SOL     OW19639   4.700   0.838  14.886  0.1301 -0.1419  0.5003
 2669SOL    HW119640   4.614   0.871  14.860  0.1660  0.5967  1.2982
 2669SOL    HW219641   4.681   0.746  14.905 -1.4242  0.0507 -0.1177
 2670SOL     OW19642   0.933   3.646   3.114  0.2588  0.2048  0.3782
 2670SOL    HW119643   0.839   3.652   3.097  0.6731  0.0766 -1.9379
 2670SOL    HW219644   0.943   3.556   3.084 -0.1945  0.3955 -0.3341
 2671SOL     OW19645   3.733   4.556   8.564 -0.1772 -0.4244  0.1981
 2671SOL    HW119646   3.662   4.504   8.526  0.8452 -2.3572  0.9262
 2671SOL    HW219647   3.725   4.533   8.657  0.2590 -0.2950  0.2669
 2672SOL     OW19648   3.157   3.439   6.367 -0.2487 -0.5651 -0.6494
 2672SOL    HW119649   3.151   3.441   6.272  3.4123 -0.4073 -0.8715
 2672SOL    HW219650   3.188   3.353   6.395 -0.7312 -0.7430 -0.6527
 2673SOL     OW19651   1.053   4.422   5.777 -0.2581 -0.0966 -0.2170
 2673SOL    HW119652   1.121   4.480   5.743  0.4256 -0.3287  0.7343
 2673SOL    HW219653   1.099   4.339   5.788 -0.7316 -0.3231  0.0502
 2674SOL     OW19654   4.100   2.208  15.698 -0.0034  0.0729 -0.1086
 2674SOL    HW119655   4.019   2.173  15.661 -0.8022  3.5915 -1.7285
 2674SOL    HW219656   4.080   2.194  15.791 -1.5040 -0.1102 -0.4510
 2675SOL     OW19657   1.146   3.933  13.816  0.5892  0.3654  0.3437
 2675SOL    HW119658   1.063   3.964  13.779  0.0423 -3.2642 -1.5740
 2675SOL    HW219659   1.158   3.846  13.777  1.8910  1.0301 -0.6919
 2676SOL     OW19660   4.136   0.555   1.617 -0.0274  0.2335 -0.1041
 2676SOL    HW119661   4.097   0.507   1.691  0.2021  1.1605  0.6254
 2676SOL    HW219662   4.114   0.509   1.536 -0.4002 -1.3965  0.9124
 2677SOL     OW19663   0.182   2.342   4.733  0.5970 -0.7932  0.3056
 2677SOL    HW119664   0.230   2.263   4.708 -0.2275 -1.2194  0.0711
 2677SOL    HW219665   0.142   2.325   4.818  1.0955 -1.1235  0.4775
 2678SOL     OW19666   1.348   2.478   3.693 -0.1636  0.4783 -0.3183
 2678SOL    HW119667   1.303   2.423   3.757  1.8438 -0.3055  0.4164
 2678SOL    HW219668   1.323   2.431   3.614  1.2686 -1.3653  0.3111
 2679SOL     OW19669   0.150   4.555   3.258 -0.2106  0.2435 -0.2060
 2679SOL    HW119670   0.124   4.467   3.231  0.2297 -0.3507  1.3344
 2679SOL    HW219671   0.217   4.569   3.190  0.1014 -1.0386 -0.1569
 2680SOL     OW19672   0.916   1.475   5.654 -0.2227 -0.0425  0.3257
 2680SOL    HW119673   0.895   1.551   5.708  0.8287 -0.4587  1.3280
 2680SOL    HW219674   0.900   1.502   5.563  1.0631  0.4207  0.2468
 2681SOL     OW19675   4.290   1.768  14.802 -0.1617  0.1774  1.0793
 2681SOL    HW119676   4.304   1.778  14.896  2.0799  0.4248  0.7383
 2681SOL    HW219677   4.198   1.792  14.807  0.0335  0.7591  1.9540
 2682SOL     OW19678   1.633   0.505   0.165  0.3696  0.1573 -0.4270
 2682SOL    HW119679   1.593   0.507   0.251 -0.4082  1.5688 -0.8321
 2682SOL    HW219680   1.697   0.436   0.185 -0.9645 -0.6020  1.1865
 2683SOL     OW19681   1.635   1.260   1.164 -0.0628 -0.4950 -0.4260
 2683SOL    HW119682   1.568   1.239   1.229  0.3612  2.9045  1.1303
 2683SOL    HW219683   1.716   1.242   1.210  0.1308  4.8626  1.3500
 2684SOL     OW19684   0.435   1.583   5.696 -0.1534  0.3855  0.1806
 2684SOL    HW119685   0.508   1.630   5.655  0.1013 -0.5369 -0.4380
 2684SOL    HW219686   0.382   1.558   5.620 -0.2785  0.4472  0.2477
 2685SOL     OW19687   3.731   2.374  13.115  0.5478  0.0883 -0.0158
 2685SOL    HW119688   3.773   2.429  13.049  1.9524 -0.6882  0.2300
 2685SOL    HW219689   3.787   2.298  13.130  0.5293 -0.1568 -1.2485
 2686SOL     OW19690   0.553   1.170  13.625 -0.2655  0.1845  0.6828
 2686SOL    HW119691   0.514   1.116  13.555  0.1040  1.0601 -0.1940
 2686SOL    HW219692   0.473   1.215  13.654 -1.3349 -1.9230  1.0120
 2687SOL     OW19693   4.561   1.580  11.141  0.0176  0.3436  0.3685
 2687SOL    HW119694   4.521   1.586  11.054 -2.1159 -2.5525  1.1704
 2687SOL    HW219695   4.501   1.634  11.193 -1.2386  0.1470 -0.8718
 2688SOL     OW19696   0.931   4.581  11.971 -0.5544 -0.2652 -0.3661
 2688SOL    HW119697   0.891   4.496  11.987 -1.4932  0.2181 -0.1204
 2688SOL    HW219698   1.013   4.563  12.017  0.5874 -0.3790 -2.4420
 2689SOL     OW19699   2.370   3.756  15.589 -0.1572 -0.5761  0.2133
 2689SOL    HW119700   2.303   3.747  15.657 -0.7345  0.1489 -0.2612
 2689SOL    HW219701   2.419   3.837  15.606 -1.2858  0.2053 -0.2488
 2690SOL     OW19702   2.552   1.006   8.865 -0.0804 -0.2136  0.4339
 2690SOL    HW119703   2.537   0.980   8.775 -1.8358 -0.3255  0.7690
 2690SOL    HW219704   2.544   0.919   8.904  1.4054 -1.3708 -1.8611
 2691SOL     OW19705   4.625   2.280   2.959 -0.1382  0.5752 -0.3148
 2691SOL    HW119706   4.628   2.187   2.978 -3.5218  0.3577 -0.7384
 2691SOL    HW219707   4.569   2.315   3.028  1.3025  1.6217  0.3287
 2692SOL     OW19708   4.538   2.774   8.704  0.3505  0.7675  0.2137
 2692SOL    HW119709   4.586   2.731   8.775 -1.7966 -2.0662 -0.0776
 2692SOL    HW219710   4.598   2.847   8.687  0.5824  1.2064  2.8443
 2693SOL     OW19711   0.398   3.957   5.427 -0.0972 -0.4689 -0.1372
 2693SOL    HW119712   0.413   3.922   5.339 -0.6984 -0.8672 -0.0858
 2693SOL    HW219713   0.323   3.901   5.448  0.3424 -0.4483  1.4744
 2694SOL     OW19714   4.450   0.669  11.467 -0.0654 -0.1403  0.2190
 2694SOL    HW119715   4.454   0.765  11.462 -0.0591 -0.2155 -1.0151
 2694SOL    HW219716   4.415   0.649  11.380  0.2482 -0.7816  0.2448
 2695SOL     OW19717   1.061   0.178  16.394  0.3773 -0.0863 -0.3291
 2695SOL    HW119718   1.143   0.205  16.354 -0.3256  0.3734 -1.4547
 2695SOL    HW219719   1.060   0.226  16.476 -1.2721 -0.1886 -0.2890
 2696SOL     OW19720   1.043   1.733   7.831 -0.0215  0.3450  0.0692
 2696SOL    HW119721   1.138   1.720   7.834 -0.2701 -1.3874  0.3316
 2696SOL    HW219722   1.011   1.643   7.822  0.9379 -0.3518  3.5939
 2697SOL     OW19723   3.078   1.860   5.137  0.3532  0.0029  0.0203
 2697SOL    HW119724   3.153   1.899   5.092 -0.3993 -0.5898 -1.7487
 2697SOL    HW219725   3.052   1.934   5.191  0.0724 -0.6106  0.7307
 2698SOL     OW19726   4.172   1.507  17.310  0.0415  0.3758 -0.3624
 2698SOL    HW119727   4.126   1.459  17.242  1.5310 -2.7139  0.8024
 2698SOL    HW219728   4.103   1.542  17.367 -0.2252 -2.0375  0.7898
 2699SOL     OW19729   2.687   4.520   3.448  0.3424  0.4117 -0.9616
 2699SOL    HW119730   2.670   4.483   3.534 -3.0694  2.1756 -0.8745
 2699SOL    HW219731   2.641   4.466   3.384 -0.5957 -0.6425  0.6060
 2700SOL     OW19732   3.416   2.713  10.307 -0.2075 -0.0705 -0.0248
 2700SOL    HW119733   3.455   2.737  10.223 -1.0988  4.1809  0.7629
 2700SOL    HW219734   3.424   2.618  10.299  0.7250  0.0014 -0.0356
 2701SOL     OW19735   4.076   3.741   2.408  0.6138 -1.1955  0.4896
 2701SOL    HW119736   4.144   3.784   2.355 -0.1077 -1.0374 -0.3028
 2701SOL    HW219737   4.044   3.674   2.347  0.4471  1.7039 -2.6472
 2702SOL     OW19738   0.242   0.609   0.587 -0.3669  1.0380  0.1354
 2702SOL    HW119739   0.182   0.630   0.659 -0.1898  0.4411  0.4556
 2702SOL    HW219740   0.322   0.632   0.633 -0.1880 -0.5770  0.6475
 2703SOL     OW19741   1.665   1.807   9.513 -0.3923  0.4630 -0.4372
 2703SOL    HW119742   1.706   1.768   9.590  2.6883 -0.7657 -2.7010
 2703SOL    HW219743   1.587   1.751   9.512  1.6994 -2.4265  0.1306
 2704SOL     OW19744   4.066   1.305  12.527 -0.1613  0.4484  0.2666
 2704SOL    HW119745   4.143   1.273  12.574 -0.5330  0.7281  1.0653
 2704SOL    HW219746   4.000   1.251  12.571 -0.7826  0.6268 -0.4442
 2705SOL     OW19747   0.789   4.245  12.239  0.1807  0.0779 -0.0868
 2705SOL    HW119748   0.849   4.294  12.294 -0.9430  0.7527  0.5387
 2705SOL    HW219749   0.806   4.278  12.151 -0.4417  1.4362  0.3141
 2706SOL     OW19750   0.793   4.312   8.631  0.8730  0.0994 -0.2352
 2706SOL    HW119751   0.738   4.282   8.559 -0.5039 -1.4256  1.4422
 2706SOL    HW219752   0.723   4.350   8.684  0.5340  1.9648 -2.0092
 2707SOL     OW19753   0.056   4.441   8.531  0.4917  0.4396 -0.1777
 2707SOL    HW119754   4.728   4.381   8.564  0.3939 -1.1893 -3.3242
 2707SOL    HW219755   0.129   4.410   8.585 -0.1250  1.7310  1.3897
 2708SOL     OW19756   2.797   0.491   8.963 -0.2859  0.1158  0.2536
 2708SOL    HW119757   2.839   0.474   8.878 -1.4440  0.4473 -0.3867
 2708SOL    HW219758   2.802   0.586   8.972  0.4677  0.2115 -1.0875
 2709SOL     OW19759   1.913   0.334   3.434 -0.1510  0.2384 -0.3431
 2709SOL    HW119760   1.852   0.269   3.468  1.1123  0.0933  1.6560
 2709SOL    HW219761   1.956   0.374   3.510 -0.4369  1.7578 -0.9822
 2710SOL     OW19762   1.761   0.043  13.115  0.4520 -0.1412  0.6658
 2710SOL    HW119763   1.844   0.087  13.099 -0.1232  0.4010 -0.8245
 2710SOL    HW219764   1.739   0.061  13.207  0.3855  1.6586  0.3109
 2711SOL     OW19765   1.850   0.482   2.586  0.4240  0.2509  0.1258
 2711SOL    HW119766   1.760   0.466   2.559  1.0435  0.5285 -2.0582
 2711SOL    HW219767   1.893   0.441   2.512 -0.2885 -0.7771  0.2687
 2712SOL     OW19768   2.030   2.060  10.693  0.0685 -0.1284  0.3411
 2712SOL    HW119769   1.945   2.094  10.664  1.4586  1.1909 -2.2323
 2712SOL    HW219770   2.046   1.990  10.630 -0.3212  1.3971 -1.4753
 2713SOL     OW19771   1.497   1.131   7.865  0.3081 -0.4271 -0.4078
 2713SOL    HW119772   1.531   1.215   7.895  0.5407 -0.9049  0.6367
 2713SOL    HW219773   1.413   1.129   7.911  0.9534  0.7472  0.8015
 2714SOL     OW19774   4.278   1.879   7.111  0.0892 -0.2463  0.1017
 2714SOL    HW119775   4.293   1.878   7.017 -1.3855 -0.4696 -0.1334
 2714SOL    HW219776   4.245   1.965   7.136 -0.0905  0.0326 -1.0953
 2715SOL     OW19777   1.360   2.549   7.931  0.1866 -0.4519  0.1487
 2715SOL    HW119778   1.304   2.593   7.994  0.8135  2.3530 -1.2696
 2715SOL    HW219779   1.356   2.463   7.974 -1.9414 -1.4804 -2.1179
 2716SOL     OW19780   1.513   3.273   6.008 -0.2503  0.0285  0.0394
 2716SOL    HW119781   1.595   3.309   5.975  0.2376  0.5999  1.8764
 2716SOL    HW219782   1.486   3.346   6.064  1.0875 -0.5264  1.4101
 2717SOL     OW19783   3.626   2.012   5.783 -0.0346  0.3569  0.2889
 2717SOL    HW119784   3.667   1.948   5.725  0.8853  1.0354  0.1865
 2717SOL    HW219785   3.551   1.959   5.808 -1.0971  1.0447 -1.4534
 2718SOL     OW19786   2.479   0.767   7.364  0.0457  0.0191 -0.5203
 2718SOL    HW119787   2.489   0.693   7.424  0.4897  0.8111  0.3953
 2718SOL    HW219788   2.568   0.781   7.332  0.2085 -1.6141 -0.7720
 2719SOL     OW19789   2.822   0.053   5.949 -0.3693 -0.0680  0.0711
 2719SOL    HW119790   2.770   4.718   5.983  1.6160 -1.7602 -0.4516
 2719SOL    HW219791   2.775   0.129   5.981  2.1529  1.5712 -0.0900
 2720SOL     OW19792   1.021   0.824  10.456  0.0086  0.0330 -0.2839
 2720SOL    HW119793   0.982   0.738  10.446  1.4817 -0.7512  0.8450
 2720SOL    HW219794   1.059   0.842  10.369 -0.6608 -0.5377 -0.6913
 2721SOL     OW19795   2.785   4.143  11.919  0.0830 -0.2212 -0.2481
 2721SOL    HW119796   2.764   4.096  11.839  1.7418 -0.5470 -0.4693
 2721SOL    HW219797   2.700   4.149  11.964  0.0324  0.1433 -0.3913
 2722SOL     OW19798   4.503   3.310   7.645  0.0246 -0.5181  0.0904
 2722SOL    HW119799   4.562   3.344   7.712  1.8051 -2.6186 -0.4408
 2722SOL    HW219800   4.562   3.258   7.590  0.0800  2.1683 -2.3673
 2723SOL     OW19801   0.352   4.705   8.932 -0.4232 -0.4991  0.0317
 2723SOL    HW119802   0.311   4.667   9.010 -1.2471  2.6207  1.1350
 2723SOL    HW219803   0.294   0.043   8.918 -2.0899 -2.6546 -4.9469
 2724SOL     OW19804   2.238   2.313   6.861  0.3499  0.3875  0.4065
 2724SOL    HW119805   2.306   2.248   6.845 -0.1910 -0.2469  0.6731
 2724SOL    HW219806   2.165   2.273   6.814  1.2453 -1.2652  0.4465
 2725SOL     OW19807   2.111   4.033  17.334  0.2097  0.3349 -0.3374
 2725SOL    HW119808   2.027   4.077  17.348 -0.6492 -1.6655  0.7153
 2725SOL    HW219809   2.105   4.001  17.245 -2.6684 -0.9728  0.3431
 2726SOL     OW19810   3.477   0.481  13.687 -0.0555 -0.6003 -0.2318
 2726SOL    HW119811   3.404   0.484  13.625 -2.0078  1.9088  2.1953
 2726SOL    HW219812   3.544   0.531  13.639  0.3916 -0.0987  0.9116
 2727SOL     OW19813   1.404   0.655   8.930 -0.1055 -0.2405  0.1576
 2727SOL    HW119814   1.441   0.662   8.842 -3.2470 -0.6308 -1.1829
 2727SOL    HW219815   1.485   0.675   8.977 -0.7884  0.2724  1.1249
 2728SOL     OW19816   0.031   1.817   9.378  0.2148 -0.0260 -0.2346
 2728SOL    HW119817   4.726   1.863   9.451 -1.4410  0.0066 -1.2536
 2728SOL    HW219818   4.713   1.848   9.307 -0.9857 -2.8595 -0.5212
 2729SOL     OW19819   0.272   0.194   4.851  0.0155 -0.2211  0.2860
 2729SOL    HW119820   0.290   0.179   4.758  0.8333 -0.3092  0.4554
 2729SOL    HW219821   0.314   0.278   4.867 -2.2418  1.2475 -1.4379
 2730SOL     OW19822   2.335   3.152   1.823  0.1549  0.8937 -0.2546
 2730SOL    HW119823   2.426   3.172   1.843  0.4640 -1.2246  0.4710
 2730SOL    HW219824   2.296   3.239   1.826  1.6353  1.4926  2.0581
 2731SOL     OW19825   1.362   3.973   3.858  0.1364  0.0058 -0.0243
 2731SOL    HW119826   1.406   3.901   3.812  1.3400 -0.2168  1.4921
 2731SOL    HW219827   1.274   3.936   3.865  0.1442 -0.0651 -0.2782
 2732SOL     OW19828   3.519   3.545  16.938  0.1123 -0.5944 -0.1554
 2732SOL    HW119829   3.513   3.596  16.857 -0.6080  1.0304  0.9372
 2732SOL    HW219830   3.451   3.593  16.984  1.0176 -0.7212  1.3064
 2733SOL     OW19831   4.357   1.847   1.208 -0.3600 -0.2808  0.1799
 2733SOL    HW119832   4.398   1.864   1.123  1.7296 -2.7866  0.6953
 2733SOL    HW219833   4.322   1.758   1.202  0.9180 -0.9538  2.9737
 2734SOL     OW19834   1.980   0.808   2.956  0.7102  0.4892 -0.4792
 2734SOL    HW119835   2.047   0.741   2.969 -1.7211 -1.4593  2.1850
 2734SOL    HW219836   1.916   0.754   2.910 -0.2361  1.6993 -0.5602
 2735SOL     OW19837   3.142   4.186  17.110 -0.2724 -1.0939 -0.0062
 2735SOL    HW119838   3.201   4.196  17.185 -1.6249 -0.0795  0.9126
 2735SOL    HW219839   3.057   4.177  17.151 -0.0102  3.2955  1.5254
 2736SOL     OW19840   0.178   0.598   4.380 -0.6934 -0.3184  0.2948
 2736SOL    HW119841   0.105   0.612   4.440  1.4908 -0.2000  2.9241
 2736SOL    HW219842   0.212   0.517   4.417  0.2653  0.3802  0.9652
 2737SOL     OW19843   3.007   4.370  10.433  0.0519  0.4579 -0.0942
 2737SOL    HW119844   2.984   4.424  10.508 -0.6102 -1.6950  1.2402
 2737SOL    HW219845   2.929   4.345  10.382  0.6629 -1.5959 -0.0384
 2738SOL     OW19846   4.047   1.020   6.525 -0.2824  0.1386  0.0266
 2738SOL    HW119847   4.034   0.927   6.504  1.1332  0.2329 -1.2710
 2738SOL    HW219848   4.124   1.042   6.473 -1.4778  1.8241 -1.0303
 2739SOL     OW19849   3.865   2.719   9.271 -0.0182 -0.5639 -0.1987
 2739SOL    HW119850   3.942   2.730   9.327 -0.9305  1.7445  0.5865
 2739SOL    HW219851   3.899   2.643   9.223  2.2205 -0.0116  0.5249
 2740SOL     OW19852   1.314   3.669   6.024 -0.0072 -0.0096  0.3280
 2740SOL    HW119853   1.353   3.696   5.941  2.7209  1.8666  2.2087
 2740SOL    HW219854   1.338   3.739   6.085 -1.8544 -0.1954  1.2694
 2741SOL     OW19855   4.326   3.013  14.244 -0.7130 -0.6272 -0.4931
 2741SOL    HW119856   4.420   3.009  14.263 -0.1634 -0.1911 -3.2232
 2741SOL    HW219857   4.320   2.967  14.161  2.1920 -0.1380 -0.9700
 2742SOL     OW19858   4.364   0.793  15.409  0.0671  0.2054  0.1345
 2742SOL    HW119859   4.400   0.836  15.487 -3.9115  0.9791  1.5565
 2742SOL    HW219860   4.426   0.815  15.340 -1.4914  0.9781 -0.9967
 2743SOL     OW19861   3.711   2.795   3.136 -0.2210 -0.4440 -0.2247
 2743SOL    HW119862   3.780   2.840   3.184  1.5789 -1.0249 -2.2832
 2743SOL    HW219863   3.723   2.814   3.043  0.6367  0.6868  0.1253
 2744SOL     OW19864   4.379   3.524   7.535 -0.1090 -0.0126  0.2384
 2744SOL    HW119865   4.420   3.444   7.569 -4.4264 -2.3334 -0.0700
 2744SOL    HW219866   4.287   3.503   7.549  0.1840 -1.2467  0.3228
 2745SOL     OW19867   2.050   3.812   3.516 -0.1721 -0.4227 -0.3120
 2745SOL    HW119868   2.035   3.903   3.488 -2.2333 -0.5549  0.4329
 2745SOL    HW219869   2.145   3.817   3.530 -0.4000  0.9446  0.7519
 2746SOL     OW19870   1.248   0.181   2.618  0.1465  0.7336 -0.6376
 2746SOL    HW119871   1.153   0.195   2.619 -0.5653 -4.0288 -0.1049
 2746SOL    HW219872   1.268   0.267   2.655 -0.7406  0.6182  0.1060
 2747SOL     OW19873   3.888   3.045   9.556  0.0453 -0.0610 -0.5884
 2747SOL    HW119874   3.805   3.067   9.514 -0.8444 -1.7111  0.2737
 2747SOL    HW219875   3.884   2.950   9.543 -2.9373  0.0732 -0.7424
 2748SOL     OW19876   1.801   0.588  14.008 -0.1492  0.0435  0.7113
 2748SOL    HW119877   1.878   0.593  14.065 -0.2973  0.2996  0.8898
 2748SOL    HW219878   1.728   0.584  14.071 -0.1431  0.4198  0.7439
 2749SOL     OW19879   0.659   0.740   7.978  0.2697  0.5800  0.5269
 2749SOL    HW119880   0.621   0.825   7.959 -0.0678  0.1298 -0.8039
 2749SOL    HW219881   0.600   0.716   8.050  1.0275  0.0213  0.9575
 2750SOL     OW19882   4.712   2.654   8.898  0.3556 -0.0084  0.0957
 2750SOL    HW119883   0.054   2.698   8.930 -0.3769  1.7129 -0.4045
 2750SOL    HW219884   0.005   2.568   8.869 -1.3432 -0.4205 -0.4593
 2751SOL     OW19885   1.936   1.371   5.865 -0.2412 -0.6921 -0.1328
 2751SOL    HW119886   1.950   1.406   5.953 -1.4029 -0.4441 -0.0470
 2751SOL    HW219887   2.015   1.316   5.859 -0.5814 -1.2713  0.6294
 2752SOL     OW19888   4.634   2.568  11.678  0.0830 -0.0843 -0.3452
 2752SOL    HW119889   4.547   2.534  11.699 -0.7453  2.0638 -0.2737
 2752SOL    HW219890   4.671   2.488  11.642 -0.5682 -0.9503  0.8988
 2753SOL     OW19891   4.457   3.361   1.993 -0.7186 -1.0330 -0.3776
 2753SOL    HW119892   4.490   3.350   1.903 -0.4175 -0.3269 -0.3477
 2753SOL    HW219893   4.387   3.424   1.978  1.0779  0.8253 -0.9233
 2754SOL     OW19894   4.144   3.042  11.597 -0.4726 -0.2826  0.3839
 2754SOL    HW119895   4.189   3.040  11.682 -0.8770  1.2174  0.6345
 2754SOL    HW219896   4.220   3.064  11.544  0.2522 -0.2229  1.4466
 2755SOL     OW19897   1.529   4.377  13.479  0.0798 -0.7540  0.6653
 2755SOL    HW119898   1.487   4.462  13.470  1.1591 -0.3303 -0.3330
 2755SOL    HW219899   1.623   4.396  13.467 -0.3278  0.3472 -0.7739
 2756SOL     OW19900   1.448   2.883   7.578  0.0077 -0.8221 -0.4531
 2756SOL    HW119901   1.400   2.826   7.638 -0.6423 -0.1082 -0.3100
 2756SOL    HW219902   1.516   2.818   7.556  1.2255  0.8138 -1.5624
 2757SOL     OW19903   3.603   3.326   7.801  0.2145  0.0513  0.5003
 2757SOL    HW119904   3.581   3.236   7.826 -0.4645 -0.6953 -2.7659
 2757SOL    HW219905   3.698   3.318   7.785 -0.2045  1.9072 -2.8571
 2758SOL     OW19906   0.378   2.302  15.234 -0.2981 -0.1561  0.2287
 2758SOL    HW119907   0.452   2.248  15.264 -0.1137 -0.3539 -0.5920
 2758SOL    HW219908   0.420   2.372  15.184  1.8236 -1.4777  0.1307
 2759SOL     OW19909   2.028   4.279  14.397 -0.1201  0.4821  0.1191
 2759SOL    HW119910   1.958   4.214  14.388 -0.4386  0.9141 -0.4804
 2759SOL    HW219911   1.982   4.357  14.366 -2.0104 -1.1398 -1.1294
 2760SOL     OW19912   0.808   4.075   7.087  0.1030 -0.4172  0.2033
 2760SOL    HW119913   0.892   4.096   7.128  0.2499 -0.2959 -0.1528
 2760SOL    HW219914   0.746   4.139   7.121 -0.0016 -0.9954  1.1018
 2761SOL     OW19915   2.968   0.089   6.263 -0.0660  0.5263  0.1985
 2761SOL    HW119916   2.983   0.095   6.169  0.3274  0.9595  0.2854
 2761SOL    HW219917   2.900   0.021   6.267  1.1892 -0.7178  0.3274
 2762SOL     OW19918   0.639   4.234   7.239  0.0395 -1.2221 -0.0138
 2762SOL    HW119919   0.613   4.197   7.323 -0.0156  0.1534  0.5770
 2762SOL    HW219920   0.707   4.295   7.269 -2.0022 -0.1309  2.4010
 2763SOL     OW19921   2.764   2.988   1.922  0.2397  0.4110 -0.1395
 2763SOL    HW119922   2.689   3.042   1.898  0.3407  1.1425  1.1682
 2763SOL    HW219923   2.820   2.985   1.845 -1.9363  0.3331 -1.7081
 2764SOL     OW19924   2.921   1.540   8.164  0.4171 -0.2108  0.6506
 2764SOL    HW119925   2.992   1.603   8.153 -0.5398  0.9042  0.8912
 2764SOL    HW219926   2.921   1.533   8.259  0.5388 -0.6298  0.6202
 2765SOL     OW19927   1.796   3.761   9.284 -0.5914  0.0487  0.4869
 2765SOL    HW119928   1.849   3.681   9.287  2.7705  2.2883  0.8076
 2765SOL    HW219929   1.786   3.778   9.191 -0.3079  0.8091  0.5894
 2766SOL     OW19930   3.497   0.220  13.742  0.2363  0.3852 -0.0421
 2766SOL    HW119931   3.435   0.225  13.816 -1.8939  1.8496 -1.9181
 2766SOL    HW219932   3.503   0.315  13.737  0.9557  0.2475 -1.6385
 2767SOL     OW19933   0.636   3.819  13.478 -0.0565  0.2384  0.3269
 2767SOL    HW119934   0.711   3.765  13.453 -1.2546 -2.4891  2.5956
 2767SOL    HW219935   0.582   3.822  13.399 -1.5352 -0.4762  1.3163
 2768SOL     OW19936   3.606   1.183   2.490  0.0208 -0.1520 -0.0305
 2768SOL    HW119937   3.630   1.243   2.562 -1.3806  0.2511  0.0913
 2768SOL    HW219938   3.521   1.156   2.525 -1.1022  1.3467 -1.5950
 2769SOL     OW19939   1.021   1.131   1.885 -0.2589 -0.3642 -0.5364
 2769SOL    HW119940   1.065   1.185   1.820  0.3369  0.0048  0.1729
 2769SOL    HW219941   1.049   1.180   1.962 -0.2631 -1.2723  0.0405
 2770SOL     OW19942   0.758   2.640  12.858  0.3845 -0.1776  0.5742
 2770SOL    HW119943   0.675   2.670  12.893 -0.2424 -0.6652 -0.5119
 2770SOL    HW219944   0.740   2.557  12.814  1.7882 -1.1496  1.8191
 2771SOL     OW19945   2.438   2.328   5.655  0.3465 -0.4162 -0.2476
 2771SOL    HW119946   2.384   2.286   5.721  1.3235 -1.0156  0.1744
 2771SOL    HW219947   2.409   2.284   5.575  0.3481 -2.3284  0.7993
 2772SOL     OW19948   0.726   3.937   1.704 -0.0012 -0.3989  0.2439
 2772SOL    HW119949   0.798   3.874   1.705 -1.3655 -1.9337 -0.8129
 2772SOL    HW219950   0.778   4.006   1.746  0.5365  0.1547 -1.3273
 2773SOL     OW19951   2.836   2.353   1.592 -0.5228 -0.1454  0.1513
 2773SOL    HW119952   2.818   2.396   1.509 -0.7454  0.9359  0.7610
 2773SOL    HW219953   2.905   2.414   1.620  0.2020 -0.2059 -1.5288
 2774SOL     OW19954   0.052   0.614   7.340 -0.5094 -0.1687  0.1376
 2774SOL    HW119955   0.147   0.606   7.326 -0.4860 -0.7178  0.6277
 2774SOL    HW219956   0.050   0.668   7.420 -1.7693 -0.2153  0.1365
 2775SOL     OW19957   2.720   1.191   5.706 -0.3133 -0.3379 -0.1001
 2775SOL    HW119958   2.728   1.237   5.789 -0.3312 -0.5736  0.0307
 2775SOL    HW219959   2.811   1.199   5.675 -0.1732  0.6679  0.5824
 2776SOL     OW19960   0.859   1.527  13.915 -0.2105 -0.0134 -0.5270
 2776SOL    HW119961   0.821   1.443  13.889 -1.6618  1.2625 -2.5023
 2776SOL    HW219962   0.790   1.592  13.900  0.8693  0.5838 -2.8820
 2777SOL     OW19963   1.138   0.974   7.550  0.0172 -0.0205  0.4450
 2777SOL    HW119964   1.091   0.978   7.634  0.1954  1.9456  0.4703
 2777SOL    HW219965   1.212   0.933   7.596 -0.6028  2.5264  3.7899
 2778SOL     OW19966   4.199   1.761  10.010  0.0277 -0.0016 -0.3386
 2778SOL    HW119967   4.133   1.737   9.945  0.0893 -0.0071 -0.3993
 2778SOL    HW219968   4.277   1.748   9.956 -0.7058 -0.5617 -1.2627
 2779SOL     OW19969   2.910   3.926  15.694  0.2859 -0.4130 -0.3258
 2779SOL    HW119970   2.877   3.909  15.783 -1.6099 -0.7852 -1.1083
 2779SOL    HW219971   2.830   3.894  15.652 -0.0759 -1.4240  1.1158
 2780SOL     OW19972   2.031   4.269   6.873  0.1668  0.0475  0.0941
 2780SOL    HW119973   1.991   4.254   6.787  1.2785  0.2669 -0.4626
 2780SOL    HW219974   1.962   4.249   6.937  0.2951  0.5896  0.3984
 2781SOL     OW19975   3.413   2.144   0.909 -0.6442 -0.1210 -0.1476
 2781SOL    HW119976   3.447   2.092   0.982 -0.1845  1.9374  1.1018
 2781SOL    HW219977   3.336   2.093   0.884 -0.8265  0.1740 -0.1857
 2782SOL     OW19978   3.398   0.460   6.856 -0.4479  0.4733  0.6327
 2782SOL    HW119979   3.312   0.499   6.874 -0.1678  2.0184 -1.4062
 2782SOL    HW219980   3.370   0.404   6.784 -0.4359  3.0397 -1.3715
 2783SOL     OW19981   2.988   4.041   7.712  0.1979  0.0038  0.4625
 2783SOL    HW119982   3.021   4.055   7.623 -0.9747 -1.4169 -0.1925
 2783SOL    HW219983   2.984   3.946   7.716  1.5676 -0.0681  0.1755
 2784SOL     OW19984   2.274   3.885  16.731  0.0688  0.0099  0.2017
 2784SOL    HW119985   2.202   3.923  16.682 -0.5626  0.6375  1.6031
 2784SOL    HW219986   2.231   3.806  16.764  0.4065 -1.1973 -2.2699
 2785SOL     OW19987   2.631   2.232   4.619  0.0030  0.1455  0.4021
 2785SOL    HW119988   2.599   2.304   4.565 -2.3687  0.0122  1.6521
 2785SOL    HW219989   2.718   2.267   4.639  0.5131 -0.3600 -0.9086
 2786SOL     OW19990   2.287   1.465   2.861 -0.1362 -0.4395 -0.2245
 2786SOL    HW119991   2.267   1.423   2.945  0.5216 -0.8963 -0.2877
 2786SOL    HW219992   2.270   1.557   2.877  0.6438 -0.2792 -0.3260
 2787SOL     OW19993   1.221   1.763   6.825  0.5583 -0.0825  0.3512
 2787SOL    HW119994   1.296   1.787   6.879  1.5114  3.0041 -2.3402
 2787SOL    HW219995   1.212   1.669   6.840 -1.1596  0.0135  0.0176
 2788SOL     OW19996   0.997   2.186   6.663 -0.0005  0.4786  0.2681
 2788SOL    HW119997   0.904   2.195   6.641 -0.0102 -1.0114 -0.2892
 2788SOL    HW219998   0.999   2.107   6.718  0.0145  1.2688  1.4101
 2789SOL     OW19999   2.832   3.324   6.946  0.7164 -0.1123 -0.4185
 2789SOL    HW120000   2.807   3.389   6.881 -0.6902  1.3683  1.6258
 2789SOL    HW220001   2.928   3.324   6.947  0.7101  0.0206  0.1379
 2790SOL     OW20002   0.734   4.351   6.574 -0.2631 -0.3308 -0.7910
 2790SOL    HW120003   0.715   4.442   6.597  3.2925  0.5593 -1.3386
 2790SOL    HW220004   0.684   4.312   6.645 -0.7356  0.7125 -0.5534
 2791SOL     OW20005   4.696   2.878   5.817 -0.3050  0.3038  0.0087
 2791SOL    HW120006   0.037   2.901   5.866  0.3942  0.6741 -1.2932
 2791SOL    HW220007   4.625   2.933   5.850  0.0617 -0.1712  1.5940
 2792SOL     OW20008   2.786   3.818  12.849 -0.2678 -0.3653 -0.0849
 2792SOL    HW120009   2.779   3.790  12.940  0.0548 -1.3162 -0.3479
 2792SOL    HW220010   2.864   3.774  12.813 -0.0912 -2.0568  2.4196
 2793SOL     OW20011   0.136   1.742  10.309 -0.0014  0.0843  0.7080
 2793SOL    HW120012   0.107   1.832  10.299  0.5594  0.4855  2.7767
 2793SOL    HW220013   0.201   1.752  10.378  1.8096 -0.7008 -0.8582
 2794SOL     OW20014   1.194   3.028   6.387 -0.0751  0.3084  0.2048
 2794SOL    HW120015   1.234   3.110   6.417  1.6247 -0.6473  0.5581
 2794SOL    HW220016   1.107   3.055   6.357 -0.1722 -1.3187 -0.9557
 2795SOL     OW20017   4.644   2.647   6.156  0.3442  0.4105  0.3529
 2795SOL    HW120018   4.577   2.596   6.202 -1.1470  1.7496 -0.3639
 2795SOL    HW220019   4.607   2.664   6.070  0.9560  2.2061  0.4496
 2796SOL     OW20020   1.816   3.961   9.934 -0.4368 -0.2879 -0.1626
 2796SOL    HW120021   1.907   3.942   9.910 -0.6887 -0.5706 -0.8778
 2796SOL    HW220022   1.779   3.975   9.847  0.7195  0.7572 -0.4857
 2797SOL     OW20023   3.847   3.233   7.886  0.0958 -0.0694  0.2786
 2797SOL    HW120024   3.881   3.199   7.969  1.1495 -0.9731 -0.5253
 2797SOL    HW220025   3.866   3.326   7.896 -0.5728 -0.1983  2.8969
 2798SOL     OW20026   3.014   3.396   8.614  0.0933 -0.1437 -0.9268
 2798SOL    HW120027   3.038   3.446   8.536  1.6380  3.0282  1.6244
 2798SOL    HW220028   3.071   3.438   8.679 -0.7543 -0.1764 -0.1587
 2799SOL     OW20029   2.832   2.717   3.473 -0.0319  0.8586  0.0891
 2799SOL    HW120030   2.834   2.783   3.404  0.9153  1.4402  0.6694
 2799SOL    HW220031   2.750   2.724   3.522 -0.2489  1.6344 -0.3932
 2800SOL     OW20032   1.171   2.074   1.333  0.0206  0.1301  0.5782
 2800SOL    HW120033   1.149   2.167   1.340 -2.7822 -0.5218  0.4918
 2800SOL    HW220034   1.267   2.071   1.339  0.0554 -0.7461 -0.5886
 2801SOL     OW20035   2.730   2.918   2.218  0.3375 -0.0593 -0.3316
 2801SOL    HW120036   2.814   2.895   2.256 -0.0966  0.2304  0.8129
 2801SOL    HW220037   2.742   2.913   2.123 -0.7095 -0.8802 -0.4280
 2802SOL     OW20038   0.014   1.007   6.515  0.3282  0.0681  0.4132
 2802SOL    HW120039   0.041   1.039   6.601  0.6292  1.5680 -0.2419
 2802SOL    HW220040   0.068   1.060   6.456 -2.8853  2.7520 -0.0503
 2803SOL     OW20041   4.521   4.311   6.642  0.3766 -0.3154  0.4870
 2803SOL    HW120042   4.586   4.341   6.578  0.3739 -1.6082 -0.1206
 2803SOL    HW220043   4.497   4.222   6.615  2.8789 -0.6477 -0.6180
 2804SOL     OW20044   1.108   3.170   4.124  0.4319  0.3584 -0.3242
 2804SOL    HW120045   1.104   3.265   4.139 -1.3071  0.1890  0.2428
 2804SOL    HW220046   1.015   3.160   4.103  0.1495 -2.1303  2.1608
 2805SOL     OW20047   0.902   3.931   2.287 -0.1092 -0.4493  0.8397
 2805SOL    HW120048   0.811   3.961   2.294 -0.2893 -0.7307 -0.1690
 2805SOL    HW220049   0.889   3.836   2.284  2.5287 -0.8620  3.4576
 2806SOL     OW20050   0.858   0.837   3.120 -0.1762  0.2498 -0.4186
 2806SOL    HW120051   0.869   0.928   3.095 -0.9125  0.0510 -1.4653
 2806SOL    HW220052   0.784   0.835   3.180 -0.2698 -0.5185 -0.5516
 2807SOL     OW20053   0.775   4.079  10.215 -0.3620  0.0840 -0.3265
 2807SOL    HW120054   0.717   4.093  10.289 -0.7077  1.4770 -0.8634
 2807SOL    HW220055   0.764   4.164  10.172 -3.0864  0.5093  1.2016
 2808SOL     OW20056   2.807   4.301   0.324  0.2834  0.5588 -0.4512
 2808SOL    HW120057   2.849   4.381   0.355  2.8693 -0.5038 -1.2400
 2808SOL    HW220058   2.839   4.297   0.234 -0.3528 -0.2745 -0.6421
 2809SOL     OW20059   0.110   2.211   4.050  0.4904 -0.7349  0.0561
 2809SOL    HW120060   0.074   2.294   4.017 -0.9721 -1.4116 -0.0283
 2809SOL    HW220061   0.204   2.219   4.030 -0.4642  0.3457 -4.2112
 2810SOL     OW20062   0.155   2.814   8.715  0.2152  0.3182 -0.3782
 2810SOL    HW120063   0.220   2.865   8.762 -1.6213  2.0435  0.3102
 2810SOL    HW220064   0.170   2.723   8.740  0.0320  0.4963  0.3761
 2811SOL     OW20065   2.049   2.222   3.970 -0.1256  0.3926 -0.7461
 2811SOL    HW120066   2.066   2.237   3.877  0.3140  2.6237 -0.2923
 2811SOL    HW220067   1.982   2.287   3.989 -0.0837 -0.1566  1.3074
 2812SOL     OW20068   1.576   2.084   6.079  0.7001 -0.0904  0.6894
 2812SOL    HW120069   1.571   2.028   6.002 -1.3410 -1.3315  1.6985
 2812SOL    HW220070   1.565   2.173   6.048 -3.0238 -0.4395  0.9226
 2813SOL     OW20071   4.036   4.017   3.640 -0.1280  0.5745 -0.7969
 2813SOL    HW120072   3.981   4.081   3.683  0.2834  0.9505 -0.8326
 2813SOL    HW220073   3.980   3.991   3.567  1.4801 -0.8123 -1.5569
 2814SOL     OW20074   3.070   0.962   4.943 -0.4744  0.8165  0.1208
 2814SOL    HW120075   3.106   1.025   4.881  0.5225  0.6589  0.5350
 2814SOL    HW220076   3.013   1.011   5.003  1.4315  2.2562  0.7551
 2815SOL     OW20077   1.204   0.584   0.120  0.0970  0.2660 -0.3933
 2815SOL    HW120078   1.266   0.617   0.055  0.1192 -0.2586 -0.6399
 2815SOL    HW220079   1.186   0.660   0.176  0.7518 -0.7690  1.2382
 2816SOL     OW20080   2.773   0.759   8.985 -0.2233 -0.1574  0.0412
 2816SOL    HW120081   2.779   0.814   8.907 -1.4717  0.0635  0.0913
 2816SOL    HW220082   2.741   0.814   9.056  0.5924 -0.7036  0.8236
 2817SOL     OW20083   4.425   4.316   6.344 -0.7073 -0.4327  1.1658
 2817SOL    HW120084   4.476   4.353   6.272 -0.4147  1.2649  2.2579
 2817SOL    HW220085   4.339   4.357   6.331  0.2014  0.1508 -2.9027
 2818SOL     OW20086   4.400   1.212  15.463 -0.2557 -0.8254  0.4376
 2818SOL    HW120087   4.419   1.295  15.418 -0.2362 -0.8965  0.3136
 2818SOL    HW220088   4.325   1.242  15.513 -1.7780 -3.6551 -0.1527
 2819SOL     OW20089   0.831   1.175   4.670 -0.5823  0.2848  0.2282
 2819SOL    HW120090   0.796   1.262   4.652  4.1945  2.4155  1.3267
 2819SOL    HW220091   0.836   1.150   4.578 -0.1282 -0.7228  0.5131
 2820SOL     OW20092   0.833   1.303   5.905  0.4433 -0.4644  0.3453
 2820SOL    HW120093   0.893   1.377   5.900  0.4757 -0.5125 -0.0041
 2820SOL    HW220094   0.749   1.347   5.918  0.7690  0.5934 -1.0415
 2821SOL     OW20095   1.276   0.418   9.544 -0.0977  0.0232 -0.3441
 2821SOL    HW120096   1.279   0.422   9.448  0.5590 -2.2724 -0.4190
 2821SOL    HW220097   1.248   0.506   9.570  0.9898 -0.8334  3.6784
 2822SOL     OW20098   1.808   4.132  14.386  0.4418 -0.7751  0.6553
 2822SOL    HW120099   1.756   4.162  14.461  0.2055  0.1776  0.1086
 2822SOL    HW220100   1.744   4.068  14.356  0.6306 -0.6236 -0.0641
 2823SOL     OW20101   2.154   3.250   7.275 -0.2672 -0.6805 -0.1641
 2823SOL    HW120102   2.141   3.258   7.180  0.4790 -1.5323 -0.3396
 2823SOL    HW220103   2.211   3.173   7.274 -1.2145 -1.4167  0.9493
 2824SOL     OW20104   4.191   1.671  17.742 -0.1900 -0.1426  0.0758
 2824SOL    HW120105   4.146   1.672   0.076  0.6472  0.5744  0.5182
 2824SOL    HW220106   4.232   1.585  17.729  1.7453  0.7854  0.0740
 2825SOL     OW20107   0.199   1.819   4.381  0.0707 -0.1824 -0.1249
 2825SOL    HW120108   0.143   1.742   4.392 -2.5921  1.9933  1.3302
 2825SOL    HW220109   0.227   1.803   4.290  2.2171 -3.3396  1.0813
 2826SOL     OW20110   3.020   2.174   1.982 -0.1482 -0.1724 -0.2143
 2826SOL    HW120111   2.979   2.251   2.020  0.5803 -0.1397  0.5219
 2826SOL    HW220112   2.957   2.160   1.912 -0.1546  0.8969 -0.4135
 2827SOL     OW20113   0.315   1.361   4.870 -0.2819  0.2883 -0.0797
 2827SOL    HW120114   0.231   1.314   4.873  0.3344 -0.5713  3.9150
 2827SOL    HW220115   0.329   1.367   4.964 -0.1387 -1.4224 -0.0043
 2828SOL     OW20116   3.652   3.363   5.727 -0.0286  0.3297 -0.5295
 2828SOL    HW120117   3.712   3.289   5.736 -1.9277 -1.0488  0.7639
 2828SOL    HW220118   3.587   3.336   5.662  1.4186  2.1489 -2.7426
 2829SOL     OW20119   0.853   4.557   3.106 -0.1756  0.0278  0.4843
 2829SOL    HW120120   0.793   4.513   3.166  0.3015 -2.0601 -0.5864
 2829SOL    HW220121   0.884   4.481   3.056 -3.1633 -0.8114 -0.0596
 2830SOL     OW20122   2.903   1.110  15.248  0.1126  0.0024 -0.3897
 2830SOL    HW120123   2.987   1.080  15.212 -0.0265 -0.8425 -0.0121
 2830SOL    HW220124   2.846   1.037  15.222 -1.3365  0.6312  0.9853
 2831SOL     OW20125   0.058   2.529   5.416 -0.1584 -0.0384 -0.1307
 2831SOL    HW120126   0.100   2.579   5.486  0.4210 -1.0070  0.2133
 2831SOL    HW220127   0.010   2.596   5.367  0.7920  0.3326 -0.5436
 2832SOL     OW20128   4.073   2.653   3.847 -0.6086 -0.1790  0.5120
 2832SOL    HW120129   3.991   2.661   3.897 -0.8586 -2.1766  0.4013
 2832SOL    HW220130   4.113   2.738   3.866  0.6512 -0.5533 -0.4325
 2833SOL     OW20131   0.141   1.327   3.200 -0.3423  0.6397  0.2637
 2833SOL    HW120132   0.195   1.377   3.261 -0.3838  1.4008 -0.3185
 2833SOL    HW220133   0.148   1.242   3.243 -2.5064  0.2069 -0.2613
 2834SOL     OW20134   0.505   2.600   2.595  0.2353 -0.2785 -0.0648
 2834SOL    HW120135   0.596   2.582   2.574  0.0414 -1.1974 -0.1084
 2834SOL    HW220136   0.509   2.694   2.616  1.0832 -0.0659 -1.1788
 2835SOL     OW20137   3.087   3.115   3.003  0.3483  0.1248 -0.2668
 2835SOL    HW120138   3.110   3.207   3.019  2.8308 -0.6222  0.4023
 2835SOL    HW220139   3.109   3.075   3.087  1.2982  1.6799  0.2339
 2836SOL     OW20140   0.554   3.841   4.591 -0.0953 -0.3334  0.2839
 2836SOL    HW120141   0.548   3.827   4.496  0.8433  2.8047 -0.2366
 2836SOL    HW220142   0.532   3.752   4.619 -2.2345 -0.2570 -1.1389
 2837SOL     OW20143   1.650   4.134  12.708  0.1625  0.0299  0.9397
 2837SOL    HW120144   1.618   4.206  12.654  0.0559 -0.2117  0.6816
 2837SOL    HW220145   1.721   4.178  12.754 -0.4698  1.1553  0.8125
 2838SOL     OW20146   2.613   2.596  12.837  0.1691 -0.5055 -0.1649
 2838SOL    HW120147   2.534   2.591  12.891 -0.4077  0.8582 -0.8960
 2838SOL    HW220148   2.624   2.691  12.829  0.3743 -0.2854  2.6614
 2839SOL     OW20149   3.006   3.759   4.364  0.3412 -0.2748  0.1897
 2839SOL    HW120150   2.994   3.760   4.459 -1.9929  0.7768 -0.1189
 2839SOL    HW220151   2.939   3.701   4.330 -1.8573  0.2598  3.5639
 2840SOL     OW20152   1.787   4.025   6.541  0.2374  0.1818  0.2601
 2840SOL    HW120153   1.728   3.970   6.593 -0.0407  0.2731  0.0488
 2840SOL    HW220154   1.730   4.043   6.466  0.2501  1.6400  0.6079
 2841SOL     OW20155   3.722   0.152   4.201 -0.3180 -0.1681  0.1512
 2841SOL    HW120156   3.631   0.130   4.179 -0.9964  1.6152  1.2031
 2841SOL    HW220157   3.770   0.070   4.189 -2.3465 -1.0126 -2.2538
 2842SOL     OW20158   4.724   3.781   8.503  0.6828 -0.2671 -0.0412
 2842SOL    HW120159   0.079   3.797   8.487  0.6931 -0.8859 -0.5984
 2842SOL    HW220160   4.715   3.847   8.572  1.1832 -0.3384  0.0906
 2843SOL     OW20161   2.661   2.510   6.621 -0.1487  0.2539  0.3612
 2843SOL    HW120162   2.590   2.503   6.558  0.6930 -1.2606 -0.4341
 2843SOL    HW220163   2.697   2.598   6.610 -0.1860  0.4707  1.9421
 2844SOL     OW20164   4.347   2.558  17.302 -0.0302 -0.0186 -0.3141
 2844SOL    HW120165   4.294   2.580  17.378  1.3387  3.0018 -0.2037
 2844SOL    HW220166   4.351   2.640  17.252  1.3622 -0.1265 -0.3952
 2845SOL     OW20167   4.457   2.119  14.711 -0.0531  0.0555 -0.4362
 2845SOL    HW120168   4.403   2.178  14.764  0.8843  1.4789 -1.0539
 2845SOL    HW220169   4.526   2.172  14.672 -1.0493 -0.8530 -3.3976
 2846SOL     OW20170   3.515   4.266   4.901 -0.2936 -0.2338 -0.3095
 2846SOL    HW120171   3.535   4.176   4.927 -0.2988  0.1462  0.9950
 2846SOL    HW220172   3.424   4.269   4.928 -0.1560  1.6667 -0.0646
 2847SOL     OW20173   3.223   1.602   8.910 -0.0256 -0.1422 -0.2378
 2847SOL    HW120174   3.180   1.621   8.993  1.0155 -2.3539  0.7996
 2847SOL    HW220175   3.162   1.649   8.854 -2.0674 -1.9774  0.4399
 2848SOL     OW20176   3.263   3.427   1.986  0.1560  0.6339 -0.4019
 2848SOL    HW120177   3.229   3.498   2.041 -2.0907 -0.8208  0.0665
 2848SOL    HW220178   3.208   3.433   1.908  0.8807  1.1620 -0.8748
 2849SOL     OW20179   4.115   2.250   1.346  0.0955  0.1818 -0.2577
 2849SOL    HW120180   4.070   2.233   1.429 -1.3775  2.1524 -0.6575
 2849SOL    HW220181   4.097   2.344   1.338  2.5800  0.6698  0.1160
 2850SOL     OW20182   0.149   3.856   5.061  0.8083  0.4174  0.3650
 2850SOL    HW120183   0.219   3.913   5.029 -0.7817  3.0540  1.6274
 2850SOL    HW220184   0.196   3.773   5.063  0.0771 -0.0085 -0.1155
 2851SOL     OW20185   4.728   1.841   5.206 -0.0547  0.1725 -0.1895
 2851SOL    HW120186   0.040   1.917   5.176  0.7982 -1.6060 -3.3664
 2851SOL    HW220187   4.637   1.868   5.206 -0.0294  0.2562  0.3734
 2852SOL     OW20188   1.285   0.094   8.087  0.4428  0.7292 -0.0429
 2852SOL    HW120189   1.244   0.142   8.158 -2.1052 -0.5345 -0.6584
 2852SOL    HW220190   1.368   0.141   8.095  1.4154 -1.1556  1.0800
 2853SOL     OW20191   0.538   2.584   5.774  0.3288 -0.4264 -0.0561
 2853SOL    HW120192   0.517   2.495   5.801  0.1756  0.3866  2.4208
 2853SOL    HW220193   0.632   2.571   5.786  0.2811 -1.7087 -1.0762
 2854SOL     OW20194   4.626   2.642  12.054  0.1156  0.4191 -0.4648
 2854SOL    HW120195   4.704   2.607  12.010 -0.8129 -0.4934 -1.3731
 2854SOL    HW220196   4.618   2.604  12.142  0.2875  1.6145  0.0724
 2855SOL     OW20197   2.847   3.870   4.574 -0.4208 -0.4518 -0.0682
 2855SOL    HW120198   2.822   3.911   4.491  1.0454 -2.2755 -1.3950
 2855SOL    HW220199   2.761   3.846   4.610 -0.3907 -0.4060  0.0336
 2856SOL     OW20200   2.523   1.225  15.930 -0.0305  0.2030 -0.6837
 2856SOL    HW120201   2.567   1.277  15.997  2.2039 -1.7202 -0.6640
 2856SOL    HW220202   2.575   1.234  15.851 -0.6446 -1.4157 -1.2782
 2857SOL     OW20203   1.494   1.007   5.281  0.1637  0.1268 -0.1301
 2857SOL    HW120204   1.562   1.027   5.216  1.5006 -1.7406  0.6648
 2857SOL    HW220205   1.510   1.084   5.335 -0.2280 -0.6253  1.0585
 2858SOL     OW20206   0.340   0.062   3.999 -0.1340 -0.1398  0.3078
 2858SOL    HW120207   0.331   0.155   3.976  1.8165 -0.0284  0.0036
 2858SOL    HW220208   0.310   0.066   4.090  1.3585  0.7852  0.7753
 2859SOL     OW20209   1.492   0.591  10.704  0.4105  0.0258  0.0973
 2859SOL    HW120210   1.431   0.532  10.748 -0.6371  0.1229 -1.2452
 2859SOL    HW220211   1.444   0.673  10.691  0.5554  0.1041  0.0563
 2860SOL     OW20212   1.324   2.015   3.621 -1.1721 -0.5471 -0.5348
 2860SOL    HW120213   1.327   1.994   3.528 -0.3599  0.3810 -0.7098
 2860SOL    HW220214   1.370   2.099   3.622 -0.9952 -0.6435 -0.4077
 2861SOL     OW20215   3.318   2.109   9.205 -0.2441  0.1682  0.4559
 2861SOL    HW120216   3.402   2.068   9.226 -0.3573 -0.1436  0.3046
 2861SOL    HW220217   3.308   2.094   9.111  1.0593  1.6110  0.0837
 2862SOL     OW20218   3.829   2.342   6.242  0.0388  0.1813  0.2871
 2862SOL    HW120219   3.756   2.308   6.190  1.0316 -2.4854  0.6719
 2862SOL    HW220220   3.877   2.390   6.175 -3.5703  2.3374 -0.7484
 2863SOL     OW20221   3.552   4.652   3.663  0.2318  0.3246  0.2562
 2863SOL    HW120222   3.615   4.594   3.708 -1.8584 -2.2101 -0.0898
 2863SOL    HW220223   3.477   4.594   3.651 -0.6630  1.3534  0.9374
 2864SOL     OW20224   1.403   2.622   6.286  0.0084 -0.5736  0.2540
 2864SOL    HW120225   1.452   2.692   6.243 -0.2653  0.2206  1.2323
 2864SOL    HW220226   1.472   2.558   6.269 -0.0770 -0.2531 -1.2819
 2865SOL     OW20227   2.134   2.027   8.689 -0.5624 -0.0479 -0.7823
 2865SOL    HW120228   2.158   2.113   8.654 -2.6944  1.4584  1.4277
 2865SOL    HW220229   2.058   2.059   8.738  1.0815 -0.0580  1.7717
 2866SOL     OW20230   3.579   1.435   1.165 -0.3912 -0.2160 -0.4270
 2866SOL    HW120231   3.484   1.426   1.158 -0.3197 -0.6181 -0.8361
 2866SOL    HW220232   3.588   1.495   1.091  0.2288 -0.1117 -0.2609
 2867SOL     OW20233   1.764   1.121   7.763  0.0597  0.5856  0.0251
 2867SOL    HW120234   1.669   1.121   7.764  0.1062  2.6403  3.4471
 2867SOL    HW220235   1.787   1.210   7.789 -0.9494  0.9828 -0.4515
 2868SOL     OW20236   2.463   3.572   3.728 -0.0746  0.6004  0.1457
 2868SOL    HW120237   2.399   3.609   3.667 -0.7814 -1.3139 -0.2588
 2868SOL    HW220238   2.407   3.539   3.798  0.5117  0.7604  0.6836
 2869SOL     OW20239   1.529   4.552   6.898  0.0335 -0.2032  0.1187
 2869SOL    HW120240   1.614   4.540   6.939  1.7961  2.0231 -2.9665
 2869SOL    HW220241   1.487   4.596   6.972  1.9173  3.2110 -0.8699
 2870SOL     OW20242   2.227   1.002   4.404 -0.1252 -0.2031 -0.1849
 2870SOL    HW120243   2.227   0.940   4.331 -0.8431 -1.9102  1.2821
 2870SOL    HW220244   2.259   1.079   4.358  0.5481 -1.2208 -1.4058
 2871SOL     OW20245   2.167   4.396   2.563  0.6101 -0.2568  0.1923
 2871SOL    HW120246   2.079   4.401   2.525  1.3371 -0.9607 -1.5812
 2871SOL    HW220247   2.218   4.436   2.493 -0.8364 -1.4983 -1.5584
 2872SOL     OW20248   0.522   4.397   9.508 -0.2138 -0.3273 -1.0592
 2872SOL    HW120249   0.471   4.477   9.495 -1.4669 -1.1287 -1.1522
 2872SOL    HW220250   0.488   4.358   9.589 -0.4944 -1.4225 -1.6990
 2873SOL     OW20251   2.678   2.593  14.220 -0.3698 -0.3059 -0.1198
 2873SOL    HW120252   2.743   2.550  14.276 -1.2569  0.0530  1.1747
 2873SOL    HW220253   2.707   2.681  14.244  0.1132 -0.7526  0.9516
 2874SOL     OW20254   4.337   1.761   3.112 -0.2493 -0.0164 -0.8016
 2874SOL    HW120255   4.388   1.681   3.099 -1.9351 -1.2057 -0.0207
 2874SOL    HW220256   4.322   1.756   3.206  3.0620 -0.6934 -0.3228
 2875SOL     OW20257   2.279   3.985  10.012  0.1458 -0.3269  0.3435
 2875SOL    HW120258   2.353   3.934   9.980  1.5633  1.1038  1.3451
 2875SOL    HW220259   2.255   3.937  10.092 -2.0911  0.3185  0.0778
 2876SOL     OW20260   1.258   4.469  14.060 -0.2603 -0.0181 -0.4657
 2876SOL    HW120261   1.284   4.406  14.127 -1.0173  0.8392  0.6414
 2876SOL    HW220262   1.346   4.489  14.028  0.4996 -0.2396  1.5038
 2877SOL     OW20263   3.598   0.318   7.581  0.8157  0.0943  0.1564
 2877SOL    HW120264   3.618   0.237   7.534 -0.3765  0.3531 -0.8094
 2877SOL    HW220265   3.531   0.350   7.520  0.1135 -1.1792  0.2641
 2878SOL     OW20266   1.165   2.549   5.885 -0.1060  0.1663  0.0148
 2878SOL    HW120267   1.248   2.532   5.841 -0.7161 -1.0591 -0.6550
 2878SOL    HW220268   1.185   2.602   5.963 -1.9627 -1.6119  1.6945
 2879SOL     OW20269   1.268   1.083   2.423 -0.1635 -0.1142 -0.2566
 2879SOL    HW120270   1.297   1.174   2.424  2.3398 -0.9040 -1.5862
 2879SOL    HW220271   1.177   1.085   2.393 -0.2339 -0.1658 -0.0434
 2880SOL     OW20272   2.180   1.395   3.740  0.4851  0.4370  0.4122
 2880SOL    HW120273   2.226   1.442   3.671 -2.6247 -0.9346 -2.5680
 2880SOL    HW220274   2.093   1.433   3.731  0.1160  0.0365  2.2053
 2881SOL     OW20275   4.537   0.545  15.472 -0.4478  0.0761 -0.1936
 2881SOL    HW120276   4.498   0.620  15.427  0.2551 -0.0091 -0.9560
 2881SOL    HW220277   4.555   0.590  15.555 -1.5178 -2.1208  1.2244
 2882SOL     OW20278   2.497   1.328   0.650 -0.0196  0.0453  0.2196
 2882SOL    HW120279   2.406   1.300   0.638 -0.0472 -0.1245  0.8460
 2882SOL    HW220280   2.501   1.325   0.745 -2.8268 -0.6570  0.3255
 2883SOL     OW20281   4.708   3.758   6.690 -0.5926 -0.1828  0.0933
 2883SOL    HW120282   0.064   3.757   6.673 -0.5541 -0.0146  0.2883
 2883SOL    HW220283   4.689   3.842   6.648 -2.1295 -0.6249 -0.0927
 2884SOL     OW20284   3.358   4.071   5.064  0.1172  0.0651 -0.4402
 2884SOL    HW120285   3.309   4.007   5.013  0.7269 -0.7329 -0.0134
 2884SOL    HW220286   3.404   4.022   5.131 -0.1490  1.4372  0.7578
 2885SOL     OW20287   4.341   2.868   5.186 -0.0775  0.1342 -0.0938
 2885SOL    HW120288   4.280   2.858   5.258  0.9627 -0.0645  0.7617
 2885SOL    HW220289   4.284   2.863   5.109 -1.1790 -0.2796  0.7545
 2886SOL     OW20290   1.322   0.391  15.024  0.5776  0.9125  0.1831
 2886SOL    HW120291   1.231   0.403  15.050  0.1171  0.5119 -1.2798
 2886SOL    HW220292   1.318   0.327  14.953 -0.0328  1.7928 -0.5697
 2887SOL     OW20293   3.641   2.341  17.122  0.1715  0.3700  0.6278
 2887SOL    HW120294   3.633   2.252  17.089  1.1146  0.7520 -0.6425
 2887SOL    HW220295   3.560   2.383  17.093 -0.5553 -1.1628  0.4430
 2888SOL     OW20296   3.832   3.400  11.700 -0.0478  0.4073  0.5400
 2888SOL    HW120297   3.791   3.329  11.650 -1.2022  0.6636  1.1138
 2888SOL    HW220298   3.821   3.370  11.790 -1.9920  1.7262  0.7549
 2889SOL     OW20299   0.187   0.658   4.971  0.3080  0.5709  0.2699
 2889SOL    HW120300   0.163   0.646   5.063 -1.1873  1.1494 -0.0485
 2889SOL    HW220301   0.129   0.597   4.925  1.2517 -1.1411  1.2993
 2890SOL     OW20302   2.914   2.166   7.924  0.0974  0.1124 -0.0165
 2890SOL    HW120303   2.917   2.121   8.008  1.4976 -0.6170 -0.4611
 2890SOL    HW220304   2.916   2.087   7.871 -0.5318  0.4994 -0.6273
 2891SOL     OW20305   0.715   1.577   6.319  0.1790 -0.2861 -0.1523
 2891SOL    HW120306   0.692   1.659   6.363  0.2360 -0.0724 -0.5259
 2891SOL    HW220307   0.751   1.611   6.237 -0.8040  0.0627 -0.4316
 2892SOL     OW20308   2.107   3.158   2.221 -0.1280 -0.2114 -0.5035
 2892SOL    HW120309   2.145   3.190   2.303 -1.3087 -1.9775  0.7476
 2892SOL    HW220310   2.169   3.171   2.150  1.6327  1.0538  1.2550
 2893SOL     OW20311   1.227   1.387   8.479 -0.2582 -0.2308  0.5466
 2893SOL    HW120312   1.183   1.379   8.563 -1.6522 -0.7891 -0.2399
 2893SOL    HW220313   1.180   1.324   8.424 -0.5555  0.3312  0.1596
 2894SOL     OW20314   1.825   1.628  17.527  0.6955 -0.0298  0.2198
 2894SOL    HW120315   1.853   1.564  17.461  0.8125 -0.9819  1.1962
 2894SOL    HW220316   1.841   1.707  17.476  0.4837 -0.4550 -0.5090
 2895SOL     OW20317   4.654   2.330   3.550  0.1174  0.2038  0.1398
 2895SOL    HW120318   4.602   2.409   3.538  1.3684  0.6468 -2.2815
 2895SOL    HW220319   4.721   2.339   3.482 -0.0075  3.1912  0.4128
 2896SOL     OW20320   3.634   2.338   7.990 -0.1811 -0.1531 -0.0462
 2896SOL    HW120321   3.607   2.382   7.909  0.8565  0.6195  0.0091
 2896SOL    HW220322   3.662   2.418   8.035  1.9756 -0.9561  0.0677
 2897SOL     OW20323   3.389   2.415  11.511 -0.0258  0.5231 -0.2517
 2897SOL    HW120324   3.341   2.428  11.593 -0.6695  0.1706 -0.5792
 2897SOL    HW220325   3.330   2.360  11.461 -2.2232  1.1724  1.6463
 2898SOL     OW20326   0.882   2.402  13.847  0.0220 -0.4027 -0.2105
 2898SOL    HW120327   0.923   2.348  13.779 -0.3764 -0.1144 -0.6763
 2898SOL    HW220328   0.915   2.488  13.820 -1.3035  0.9389  2.5132
 2899SOL     OW20329   0.929   0.107   5.567  0.2574 -0.5069  0.2639
 2899SOL    HW120330   0.969   0.138   5.486  0.5299  1.0055  0.9726
 2899SOL    HW220331   0.971   0.024   5.592 -1.5457 -1.4872  0.0757
 2900SOL     OW20332   3.780   3.391   4.707  0.4699  0.0890  0.1310
 2900SOL    HW120333   3.849   3.435   4.658  1.7388 -1.9198  0.1205
 2900SOL    HW220334   3.827   3.351   4.780 -1.2673  4.2498  3.5784
 2901SOL     OW20335   4.224   0.580   7.254 -0.6775 -0.4805  0.7348
 2901SOL    HW120336   4.262   0.664   7.281 -1.5211 -0.0027  0.4605
 2901SOL    HW220337   4.134   0.608   7.235 -0.1153  0.5369 -0.4721
 2902SOL     OW20338   0.299   4.504   6.987 -0.3597 -0.4206  0.2876
 2902SOL    HW120339   0.362   4.436   7.012  1.1599  0.9091  0.0920
 2902SOL    HW220340   0.284   4.485   6.894 -0.2317  0.8870 -0.0042
 2903SOL     OW20341   4.281   4.379   4.948 -0.8549 -0.0379 -0.1636
 2903SOL    HW120342   4.311   4.295   4.983 -0.1593 -0.0668 -0.8493
 2903SOL    HW220343   4.191   4.374   4.980 -0.3805 -0.8508  1.0402
 2904SOL     OW20344   4.386   0.860  10.987  0.9261 -0.6110  0.2439
 2904SOL    HW120345   4.382   0.867  11.082  1.2210 -0.0865  0.2207
 2904SOL    HW220346   4.460   0.921  10.979  0.9620 -0.7730 -0.6771
 2905SOL     OW20347   0.063   4.496   5.615 -0.1337  0.5111  0.0367
 2905SOL    HW120348   0.068   4.410   5.572 -1.8120 -0.3632  1.5652
 2905SOL    HW220349   0.012   4.544   5.550  0.7831  2.5921  0.8731
 2906SOL     OW20350   0.999   0.272   7.925  0.7420  0.6076 -0.3822
 2906SOL    HW120351   1.047   0.331   7.984  1.0316  0.9548 -0.9631
 2906SOL    HW220352   0.913   0.268   7.967  1.8453  1.0928  1.9132
 2907SOL     OW20353   1.364   0.770   6.037 -0.3877 -0.6202 -0.9377
 2907SOL    HW120354   1.302   0.840   6.060 -0.7006 -1.3991  0.6393
 2907SOL    HW220355   1.401   0.809   5.958 -0.0457 -3.4879 -2.1952
 2908SOL     OW20356   3.232   0.033   3.933  0.2028 -0.1068 -0.2165
 2908SOL    HW120357   3.163   4.733   3.987 -0.9515  2.2366 -0.0578
 2908SOL    HW220358   3.275   4.690   3.905 -3.1169 -1.9150 -0.0890
 2909SOL     OW20359   0.555   3.413   0.608  0.2572 -0.6829 -0.5606
 2909SOL    HW120360   0.508   3.384   0.530  0.0604  1.4404 -1.2296
 2909SOL    HW220361   0.531   3.359   0.683  2.5169 -1.8420 -0.6769
 2910SOL     OW20362   1.065   0.766   7.361  0.7523 -0.3547 -0.2930
 2910SOL    HW120363   1.020   0.704   7.418  0.3180 -0.5798 -0.8873
 2910SOL    HW220364   1.080   0.839   7.421  1.6106 -1.8131  1.2768
 2911SOL     OW20365   3.531   2.280   3.673 -0.3221 -0.0476 -0.1480
 2911SOL    HW120366   3.568   2.316   3.593  0.3747 -0.7424 -0.1461
 2911SOL    HW220367   3.482   2.207   3.633  1.0428 -2.0888  1.9071
 2912SOL     OW20368   1.713   3.727  16.578 -0.7311 -0.5367  0.3819
 2912SOL    HW120369   1.781   3.702  16.515 -0.5478 -0.9016  0.7249
 2912SOL    HW220370   1.731   3.661  16.645 -2.4732 -0.4869  0.8929
 2913SOL     OW20371   0.676   4.586  14.721  0.3853  0.5439 -0.0318
 2913SOL    HW120372   0.695   4.523  14.790 -1.3407 -2.0343 -1.9267
 2913SOL    HW220373   0.711   4.537  14.647  1.3289  1.2050 -0.0183
 2914SOL     OW20374   4.634   1.700   8.445  0.3153  0.0934 -0.7425
 2914SOL    HW120375   4.668   1.722   8.359  0.0849  1.8227 -0.3752
 2914SOL    HW220376   4.700   1.641   8.481 -0.1428 -0.7123 -1.1923
 2915SOL     OW20377   0.647   3.353  10.789 -0.5538 -0.2330  0.4406
 2915SOL    HW120378   0.630   3.405  10.868 -1.6533  0.7003 -0.4297
 2915SOL    HW220379   0.743   3.352  10.792 -0.6229 -0.8917  2.4578
 2916SOL     OW20380   4.395   3.529   5.430  0.1168 -0.3492  0.1409
 2916SOL    HW120381   4.341   3.484   5.495  0.8781 -0.3357  0.7798
 2916SOL    HW220382   4.355   3.616   5.422  0.4576 -0.2975 -1.0277
 2917SOL     OW20383   3.273   4.372   4.851  0.3127  0.4097  0.2614
 2917SOL    HW120384   3.314   4.373   4.765 -0.5726 -0.3114 -0.1590
 2917SOL    HW220385   3.323   4.441   4.895  0.7343 -0.5775  1.3400
 2918SOL     OW20386   1.476   4.525   6.007 -0.6133 -0.4366  0.5167
 2918SOL    HW120387   1.420   4.534   6.084  0.1171 -3.3745  1.3774
 2918SOL    HW220388   1.556   4.480   6.033  0.3456  0.2916 -1.1537
 2919SOL     OW20389   2.207   4.319   4.370  0.1187 -0.4966 -0.2257
 2919SOL    HW120390   2.235   4.273   4.291 -0.8169 -2.3337  0.5231
 2919SOL    HW220391   2.258   4.274   4.438  1.5042  0.8791 -0.3359
 2920SOL     OW20392   4.096   4.217   8.951 -0.2169  0.1781  0.1328
 2920SOL    HW120393   4.118   4.151   9.017 -0.5432  0.9057  0.9671
 2920SOL    HW220394   4.162   4.283   8.972 -0.0508 -0.3909  1.4630
 2921SOL     OW20395   0.203   4.598   6.127 -0.4867  0.6990  0.2577
 2921SOL    HW120396   0.133   4.664   6.125 -1.3469 -0.2061  0.2364
 2921SOL    HW220397   0.280   4.644   6.093  0.8398 -1.3436  0.4893
 2922SOL     OW20398   1.522   4.622   8.200  0.8111  0.6651 -0.1155
 2922SOL    HW120399   1.512   4.658   8.112 -0.6825 -0.3495 -0.3627
 2922SOL    HW220400   1.542   4.531   8.180 -1.0124 -0.2585  2.2407
 2923SOL     OW20401   4.542   3.549  15.013  0.8034 -0.1216  0.5985
 2923SOL    HW120402   4.472   3.530  14.950  1.4576  2.9166 -1.0604
 2923SOL    HW220403   4.563   3.459  15.039 -2.1127 -1.6420 -2.2448
 2924SOL     OW20404   2.526   2.501   3.601  0.0006  0.2815  0.1875
 2924SOL    HW120405   2.439   2.461   3.610  0.9703 -2.0514 -0.6675
 2924SOL    HW220406   2.520   2.528   3.510 -0.6652  2.5965  0.9261
 2925SOL     OW20407   0.440   1.606   4.686  0.3412  0.1713 -0.2421
 2925SOL    HW120408   0.373   1.651   4.635 -0.5937  0.4429  1.2512
 2925SOL    HW220409   0.385   1.541   4.729  0.7236 -1.9880 -2.9588
 2926SOL     OW20410   4.018   1.398   2.480  0.6364 -0.2792  0.3095
 2926SOL    HW120411   3.950   1.370   2.419 -0.5253  2.5200  0.3440
 2926SOL    HW220412   3.979   1.429   2.561 -0.7005 -0.7701 -0.1516
 2927SOL     OW20413   3.668   2.923   8.367 -0.2401  0.6757  0.2198
 2927SOL    HW120414   3.674   3.016   8.347 -0.8908  0.3945 -1.3190
 2927SOL    HW220415   3.652   2.926   8.461 -2.8660 -1.4049 -0.1572
 2928SOL     OW20416   0.227   2.582  15.862  0.7731  0.2455 -0.2755
 2928SOL    HW120417   0.172   2.568  15.786 -0.3502  1.8313  0.2503
 2928SOL    HW220418   0.198   2.505  15.910  2.4031 -0.9325 -1.1677
 2929SOL     OW20419   0.240   3.108   9.737 -0.0366 -0.1614 -0.0410
 2929SOL    HW120420   0.183   3.036   9.707 -0.6916 -0.8142  2.7735
 2929SOL    HW220421   0.309   3.096   9.671 -0.1259  0.2280 -0.2053
 2930SOL     OW20422   4.152   3.778   8.686 -0.0471 -0.2332 -0.2377
 2930SOL    HW120423   4.177   3.776   8.594  1.3410 -0.5461  0.1517
 2930SOL    HW220424   4.105   3.861   8.695  1.7606  0.6120  1.4619
 2931SOL     OW20425   1.491   3.185   2.088 -0.1629 -0.3834  0.1225
 2931SOL    HW120426   1.461   3.247   2.022 -0.2299  0.1028  0.6071
 2931SOL    HW220427   1.565   3.147   2.041  0.3479 -0.0904  0.6653
 2932SOL     OW20428   3.245   0.969  10.509 -0.0141  0.3802  0.7077
 2932SOL    HW120429   3.304   0.898  10.533 -0.6862  0.1746  1.7473
 2932SOL    HW220430   3.207   1.006  10.590 -1.0706 -0.0510  0.4089
 2933SOL     OW20431   2.360   0.567   8.558  0.0958  0.1561 -0.1883
 2933SOL    HW120432   2.273   0.588   8.525  0.8922  1.0184 -1.7005
 2933SOL    HW220433   2.376   0.500   8.492  0.1482  0.3631 -0.3849
 2934SOL     OW20434   1.014   2.855  11.873  0.4779  0.4749 -0.5727
 2934SOL    HW120435   1.098   2.882  11.837  1.4653  1.1977  2.2599
 2934SOL    HW220436   1.017   2.906  11.954  0.4806  0.4893 -0.5821
 2935SOL     OW20437   4.231   1.212   2.506  0.7149 -0.1071  0.2882
 2935SOL    HW120438   4.203   1.161   2.431 -0.3228 -1.8043  1.8198
 2935SOL    HW220439   4.160   1.276   2.503 -1.2176 -2.3145 -0.3018
 2936SOL     OW20440   2.042   3.652  15.444  0.1299 -0.2875 -0.3478
 2936SOL    HW120441   2.099   3.633  15.370 -1.3671  0.7497 -1.7575
 2936SOL    HW220442   2.048   3.567  15.488  1.8894 -1.1898 -2.3541
 2937SOL     OW20443   3.296   0.563   4.069 -0.6161  0.0458 -0.0264
 2937SOL    HW120444   3.334   0.500   4.131 -1.4226  1.0507  1.5075
 2937SOL    HW220445   3.341   0.637   4.111  1.3136 -1.1175 -0.0253
 2938SOL     OW20446   1.477   1.695  16.388  0.5587  0.0393 -0.0397
 2938SOL    HW120447   1.406   1.759  16.381  2.0730  1.6472 -0.6388
 2938SOL    HW220448   1.484   1.664  16.297 -0.2537 -0.1835 -0.0321
 2939SOL     OW20449   1.067   0.446  15.103 -0.1988  0.3777 -0.2710
 2939SOL    HW120450   0.974   0.423  15.105  0.4158 -2.0369 -0.3074
 2939SOL    HW220451   1.059   0.506  15.177  0.8615 -0.8881  0.8545
 2940SOL     OW20452   1.963   0.192   2.152  0.1848  0.1233  0.0092
 2940SOL    HW120453   1.962   0.282   2.119  0.9540  0.1219 -0.0096
 2940SOL    HW220454   1.985   0.202   2.244 -0.3905  0.4531  0.1102
 2941SOL     OW20455   4.511   3.703   4.328  0.0310  0.2487  0.2920
 2941SOL    HW120456   4.576   3.672   4.264  0.2302 -3.3057  2.2390
 2941SOL    HW220457   4.533   3.669   4.414  3.0617 -2.2156 -1.4322
 2942SOL     OW20458   3.150   2.144   7.737  0.1104 -0.0341  0.2509
 2942SOL    HW120459   3.196   2.198   7.801  1.7937 -2.0838  0.7796
 2942SOL    HW220460   3.103   2.207   7.683 -0.0375  0.4759  0.9718
 2943SOL     OW20461   1.161   2.693   5.281  0.3569  0.6187 -0.2797
 2943SOL    HW120462   1.126   2.732   5.201  0.5701 -1.9148 -1.5768
 2943SOL    HW220463   1.113   2.610   5.283  0.7248  0.3927 -0.8903
 2944SOL     OW20464   4.470   1.609   9.320 -0.7191  0.3350  0.5913
 2944SOL    HW120465   4.481   1.704   9.319  0.5976  0.1694 -0.8656
 2944SOL    HW220466   4.467   1.596   9.225  2.4028 -1.8267  0.7994
 2945SOL     OW20467   4.683   1.430   8.007  0.1415  0.0831 -0.4250
 2945SOL    HW120468   0.006   1.426   7.933  0.8901  0.3255  0.1654
 2945SOL    HW220469   4.606   1.476   7.974  0.1174  1.8195  2.0122
 2946SOL     OW20470   3.134   3.752   7.203  0.1871 -0.2038 -0.3346
 2946SOL    HW120471   3.098   3.729   7.117  1.3981 -2.3272 -0.2632
 2946SOL    HW220472   3.202   3.811   7.171  0.1605  0.3276  0.5992
 2947SOL     OW20473   4.279   0.401  12.765 -0.1912  0.4162 -0.1676
 2947SOL    HW120474   4.224   0.462  12.715 -1.9984  1.8836  3.5958
 2947SOL    HW220475   4.366   0.439  12.757  0.4681 -0.5880  2.1393
 2948SOL     OW20476   2.784   3.956   8.617  0.0654 -0.2958 -0.2103
 2948SOL    HW120477   2.785   3.925   8.707  3.9286  0.9684  0.1932
 2948SOL    HW220478   2.705   4.009   8.613 -0.8970 -1.9125 -2.6927
 2949SOL     OW20479   1.391   3.888   5.270 -0.1506  0.5686  0.2225
 2949SOL    HW120480   1.447   3.965   5.260 -1.0070  1.1173 -0.3630
 2949SOL    HW220481   1.420   3.855   5.355 -0.0876  0.5615  0.1990
 2950SOL     OW20482   4.457   3.162   9.255 -0.2993  0.3784  0.1712
 2950SOL    HW120483   4.447   3.222   9.181  0.9676 -1.2160 -1.3115
 2950SOL    HW220484   4.396   3.192   9.322  0.8329  3.0793  0.0192
 2951SOL     OW20485   4.714   3.273   9.648 -0.0354  0.8034  0.1782
 2951SOL    HW120486   0.007   3.364   9.647 -2.2610  1.5439  0.8775
 2951SOL    HW220487   0.039   3.240   9.712  1.1853  1.4378 -0.6779
 2952SOL     OW20488   4.626   1.223   0.912  0.2739 -0.2571 -0.3888
 2952SOL    HW120489   4.609   1.288   0.843 -0.5550  1.7285  1.6638
 2952SOL    HW220490   4.552   1.240   0.970 -0.4834 -1.2579 -1.0551
 2953SOL     OW20491   4.068   3.903   2.659 -0.0576  0.8383 -0.1075
 2953SOL    HW120492   4.102   3.816   2.679 -1.0410  0.3141 -0.7036
 2953SOL    HW220493   4.055   3.883   2.566  0.5852  0.2893 -0.0798
 2954SOL     OW20494   1.928   2.632   6.111  0.5538 -0.6615 -0.1297
 2954SOL    HW120495   1.963   2.633   6.200  1.0022  1.5789 -0.3382
 2954SOL    HW220496   1.903   2.540   6.104 -0.7280 -0.2189 -1.2243
 2955SOL     OW20497   2.620   3.281   5.946  0.1322  0.6779 -0.2233
 2955SOL    HW120498   2.586   3.366   5.973 -1.0423  0.3775 -0.7462
 2955SOL    HW220499   2.710   3.293   5.976  0.2928  0.0847 -0.4690
 2956SOL     OW20500   1.583   1.098   6.418 -0.1530  0.8954  0.0764
 2956SOL    HW120501   1.530   1.028   6.379 -0.0793  1.2875 -0.7130
 2956SOL    HW220502   1.520   1.154   6.463 -1.0898  1.6975 -2.2343
 2957SOL     OW20503   4.117   3.702   8.089  0.3086 -0.0703 -0.7487
 2957SOL    HW120504   4.198   3.691   8.138 -0.1319  1.0392  0.2132
 2957SOL    HW220505   4.149   3.754   8.015 -2.8079  0.8272 -1.4776
 2958SOL     OW20506   4.334   1.353   6.122 -0.1919  0.8723  0.1774
 2958SOL    HW120507   4.305   1.294   6.053  3.8330  1.9304 -2.4260
 2958SOL    HW220508   4.276   1.426   6.100  0.3845  1.9213  2.1856
 2959SOL     OW20509   0.118   0.592   1.001 -0.3051 -0.7071 -0.1163
 2959SOL    HW120510   0.061   0.639   0.940 -1.0937 -2.6549 -0.9031
 2959SOL    HW220511   0.203   0.632   0.987  0.3519 -1.9727  0.2580
 2960SOL     OW20512   2.535   0.340   0.460 -0.0314 -0.3961  0.2304
 2960SOL    HW120513   2.545   0.432   0.435  1.3708 -0.7170 -0.4249
 2960SOL    HW220514   2.440   0.327   0.459 -0.2180  1.1882 -1.7056
 2961SOL     OW20515   4.301   2.660   1.801  0.0453  0.0136  0.2830
 2961SOL    HW120516   4.375   2.700   1.846  1.1583 -0.3696 -1.2330
 2961SOL    HW220517   4.265   2.742   1.769  1.0182  0.5962  0.6727
 2962SOL     OW20518   0.239   2.747  12.783  0.1005  0.0660 -0.5199
 2962SOL    HW120519   0.144   2.736  12.794  0.2712 -0.7254  0.1157
 2962SOL    HW220520   0.255   2.840  12.801  3.1352 -0.5993  0.1914
 2963SOL     OW20521   2.305   1.897  17.222 -0.5022  0.4273  0.3119
 2963SOL    HW120522   2.260   1.918  17.304 -0.5536 -1.0845  0.6782
 2963SOL    HW220523   2.251   1.827  17.186 -1.1054  0.8398  0.4244
 2964SOL     OW20524   2.871   4.125   4.432 -0.3033  0.2378  0.0114
 2964SOL    HW120525   2.853   4.212   4.395 -3.6825 -0.1458  0.7199
 2964SOL    HW220526   2.782   4.091   4.440 -0.4474  0.4376 -0.7319
 2965SOL     OW20527   0.818   3.576  12.836 -0.1444 -0.2436  0.1894
 2965SOL    HW120528   0.827   3.606  12.926  0.4369  0.6366 -0.1595
 2965SOL    HW220529   0.864   3.492  12.842 -0.7871 -0.4036  2.6484
 2966SOL     OW20530   0.228   4.592   3.881  0.0831 -0.3895  0.7208
 2966SOL    HW120531   0.260   4.658   3.942  0.2064 -1.4173  1.7648
 2966SOL    HW220532   0.312   4.573   3.838 -0.9831  0.2409 -1.6639
 2967SOL     OW20533   1.533   3.786   4.683  0.1698 -0.0102  0.1620
 2967SOL    HW120534   1.627   3.770   4.679  0.3823  1.0702  0.7198
 2967SOL    HW220535   1.506   3.761   4.595 -1.9736 -3.1135  1.7027
 2968SOL     OW20536   2.271   3.945   9.401  0.5465  0.6386 -0.2980
 2968SOL    HW120537   2.330   3.963   9.475  1.0018 -0.3883 -0.4070
 2968SOL    HW220538   2.328   3.959   9.326  1.3544  0.4225  0.2798
 2969SOL     OW20539   1.253   3.753   9.949  0.9224  0.1173 -0.0070
 2969SOL    HW120540   1.329   3.774  10.003  0.9110 -1.6685  0.6715
 2969SOL    HW220541   1.226   3.837   9.910  0.1387 -0.3600 -0.4721
 2970SOL     OW20542   2.790   1.364   0.013 -0.3346  0.0203  0.0461
 2970SOL    HW120543   2.875   1.329   0.041  1.1445  2.6969 -0.9575
 2970SOL    HW220544   2.787   1.422   0.089 -1.1143 -0.5709  0.4622
 2971SOL     OW20545   1.655   2.503  11.709  0.4828 -0.2893 -0.0061
 2971SOL    HW120546   1.564   2.474  11.707  0.0784  1.1155 -1.4750
 2971SOL    HW220547   1.685   2.468  11.793 -4.4773 -0.7230  1.6292
 2972SOL     OW20548   0.196   1.087   3.361 -0.0375  0.0157 -0.1274
 2972SOL    HW120549   0.289   1.064   3.354  0.5151  1.4576  2.2369
 2972SOL    HW220550   0.198   1.101   3.456  1.8446 -0.9618 -0.0197
 2973SOL     OW20551   1.609   1.700   8.446  0.0850  0.2894  0.0179
 2973SOL    HW120552   1.606   1.689   8.351 -2.7162 -1.2790  0.2903
 2973SOL    HW220553   1.557   1.627   8.481 -0.6082 -0.0500 -1.7498
 2974SOL     OW20554   1.596   1.471  13.864 -0.3331 -0.6414  0.2394
 2974SOL    HW120555   1.519   1.420  13.836 -1.2165  0.2033  1.1362
 2974SOL    HW220556   1.659   1.408  13.830 -0.2141 -1.0746  1.2642
 2975SOL     OW20557   2.957   3.868   8.408 -0.1002  0.4837  0.2336
 2975SOL    HW120558   2.898   3.883   8.481  0.2575 -0.6435  0.7451
 2975SOL    HW220559   2.992   3.956   8.394  2.3537 -0.9152 -2.5854
 2976SOL     OW20560   3.910   2.961   3.233  0.4853 -0.4611 -0.2491
 2976SOL    HW120561   3.952   3.018   3.297  1.1465 -1.2378  0.0188
 2976SOL    HW220562   3.933   2.980   3.142 -1.9699  1.2459 -0.5039
 2977SOL     OW20563   4.300   3.008   8.853 -0.2582 -0.4768  0.5778
 2977SOL    HW120564   4.261   2.945   8.914 -0.4035 -0.3350  0.6300
 2977SOL    HW220565   4.263   2.973   8.772 -1.4401 -0.4687  1.1083
 2978SOL     OW20566   0.353   3.417  16.113  0.0898 -0.2857 -0.1923
 2978SOL    HW120567   0.284   3.420  16.046 -0.6415  0.8273  0.6201
 2978SOL    HW220568   0.326   3.501  16.149 -1.4719 -0.7702 -0.2225
 2979SOL     OW20569   1.575   3.433  14.487 -0.0049 -0.1284  0.8537
 2979SOL    HW120570   1.613   3.365  14.431 -4.8543 -0.4477 -2.0502
 2979SOL    HW220571   1.636   3.501  14.460  2.0251 -1.6900  1.5030
 2980SOL     OW20572   2.665   4.650   6.401  0.6706  0.5139 -0.1787
 2980SOL    HW120573   2.644   4.727   6.455 -1.8288  0.2625 -0.7742
 2980SOL    HW220574   2.627   4.687   6.321  0.2000  0.7659  0.1618
 2981SOL     OW20575   1.957   2.589   3.020  0.0035 -0.4095 -0.5462
 2981SOL    HW120576   2.032   2.539   2.989  1.1294  0.1690  1.2999
 2981SOL    HW220577   1.974   2.593   3.114 -0.9612  0.2089 -0.3954
 2982SOL     OW20578   0.490   1.033  13.347 -0.3915  0.3134 -0.5039
 2982SOL    HW120579   0.434   1.109  13.357  1.3797  1.5184  0.1900
 2982SOL    HW220580   0.451   0.981  13.417 -0.4300  0.5325 -0.3653
 2983SOL     OW20581   3.461   2.909   3.538  0.5524 -0.4972  0.2557
 2983SOL    HW120582   3.496   2.953   3.461 -0.0411 -1.1503 -0.3836
 2983SOL    HW220583   3.441   2.991   3.583 -0.7731 -1.4200  1.3494
 2984SOL     OW20584   1.788   1.393   3.194  0.2156 -0.7153 -0.0913
 2984SOL    HW120585   1.696   1.382   3.170  0.6398  0.6538 -2.3731
 2984SOL    HW220586   1.788   1.432   3.281 -2.5166  0.6817 -0.7289
 2985SOL     OW20587   1.901   0.900  17.577  0.0029  0.5458  0.6569
 2985SOL    HW120588   1.967   0.858  17.632  0.7830  0.5103 -0.3065
 2985SOL    HW220589   1.956   0.916  17.500  0.0094  1.0616  0.7698
 2986SOL     OW20590   0.532   0.446   6.228  0.1941  0.0906 -0.0826
 2986SOL    HW120591   0.533   0.422   6.135 -2.9025 -0.5330  0.0321
 2986SOL    HW220592   0.443   0.424   6.258 -0.3733  0.5584 -1.4193
 2987SOL     OW20593   3.250   1.838   3.727  0.6068 -0.1068 -0.3311
 2987SOL    HW120594   3.203   1.762   3.695  0.4220 -0.5867  1.0905
 2987SOL    HW220595   3.192   1.864   3.798 -1.2317  1.1125 -2.2873
 2988SOL     OW20596   1.661   0.740  13.195 -0.4396  0.2197 -0.4467
 2988SOL    HW120597   1.676   0.780  13.109  1.7707 -0.6975 -0.4716
 2988SOL    HW220598   1.684   0.649  13.179 -0.1605  0.4754 -1.5119
 2989SOL     OW20599   2.315   1.269   2.329 -0.7518  0.6651  0.0888
 2989SOL    HW120600   2.274   1.216   2.261 -0.5135  1.1697 -0.4536
 2989SOL    HW220601   2.266   1.228   2.400 -0.0157 -0.6871 -0.1729
 2990SOL     OW20602   4.484   2.864   2.281 -0.4080 -0.2942 -0.2414
 2990SOL    HW120603   4.400   2.834   2.246  0.7002 -3.8293  0.0923
 2990SOL    HW220604   4.512   2.916   2.206 -0.4415 -0.8926 -0.6704
 2991SOL     OW20605   4.698   2.179   0.271  0.0424  0.3416  0.0894
 2991SOL    HW120606   0.041   2.139   0.303  0.3490  1.2589  0.4675
 2991SOL    HW220607   4.633   2.120   0.310 -0.9902  0.5226 -1.3897
 2992SOL     OW20608   4.709   3.867   8.802 -0.2095 -0.1563 -0.1619
 2992SOL    HW120609   4.621   3.830   8.802 -0.0892 -0.4478  0.1756
 2992SOL    HW220610   4.697   3.952   8.844  1.3329 -0.6991  1.3828
 2993SOL     OW20611   0.318   2.438   5.232 -0.2521  0.0132  0.0956
 2993SOL    HW120612   0.393   2.470   5.182 -0.5998  1.3816  0.4412
 2993SOL    HW220613   0.253   2.499   5.198 -0.4271 -0.6887 -0.8148
 2994SOL     OW20614   1.006   0.679  16.395 -0.0924 -0.2786  0.2683
 2994SOL    HW120615   1.030   0.752  16.338  0.3903 -0.9868 -0.4352
 2994SOL    HW220616   1.056   0.703  16.472 -1.5994  1.7329  0.6195
 2995SOL     OW20617   0.949   0.212   8.674  0.1471  0.4512  0.4799
 2995SOL    HW120618   0.911   0.249   8.754  0.3507 -2.4215  1.8964
 2995SOL    HW220619   0.942   0.118   8.690 -2.1458  0.8931  2.1103
 2996SOL     OW20620   3.159   3.398   6.043  0.4128  0.1976  0.6064
 2996SOL    HW120621   3.133   3.490   6.038 -1.4648 -0.3383  0.3840
 2996SOL    HW220622   3.188   3.392   5.952  0.4880  1.5506  0.5464
 2997SOL     OW20623   2.292   3.784   2.660  0.3863  0.1825  0.0841
 2997SOL    HW120624   2.197   3.772   2.657  0.4410 -0.0167 -0.8651
 2997SOL    HW220625   2.309   3.876   2.643 -1.5738  0.1366 -2.0033
 2998SOL     OW20626   3.115   0.254   8.408  0.0388 -0.2486 -0.7156
 2998SOL    HW120627   3.182   0.193   8.378 -0.2668 -0.2177 -1.4532
 2998SOL    HW220628   3.166   0.335   8.404  1.8242 -1.4267 -1.3716
 2999SOL     OW20629   4.470   1.472   8.241 -0.2089  0.4229  0.2360
 2999SOL    HW120630   4.461   1.455   8.147 -0.5510 -1.0833  0.5383
 2999SOL    HW220631   4.562   1.459   8.262 -0.4134  2.1990  2.2615
 3000SOL     OW20632   2.699   3.773   5.226 -0.0444 -0.2157 -0.1785
 3000SOL    HW120633   2.721   3.859   5.261  0.0705 -0.3093 -0.0226
 3000SOL    HW220634   2.699   3.727   5.309 -0.4729 -1.7141 -1.0044
 3001SOL     OW20635   2.204   3.176   1.553 -0.3254  0.1783 -0.2906
 3001SOL    HW120636   2.258   3.159   1.630 -0.0133 -1.0551 -0.7765
 3001SOL    HW220637   2.146   3.242   1.590  0.5000  0.2649  0.8339
 3002SOL     OW20638   3.527   0.792   1.456  0.1641 -0.1048 -0.0649
 3002SOL    HW120639   3.540   0.882   1.427  0.3353 -0.4137 -0.9449
 3002SOL    HW220640   3.461   0.813   1.522  1.3423 -2.3940  1.8292
 3003SOL     OW20641   0.845   0.259   3.827 -0.4006  0.1225  0.3697
 3003SOL    HW120642   0.806   0.183   3.871 -0.5637  0.9924  1.7202
 3003SOL    HW220643   0.769   0.315   3.814  1.1388  1.8706 -1.1064
 3004SOL     OW20644   2.681   3.671   1.506  0.8791 -0.1658  0.0999
 3004SOL    HW120645   2.610   3.721   1.465  1.2669  1.0084  0.8577
 3004SOL    HW220646   2.671   3.590   1.456  2.7670 -0.7075  0.5997
 3005SOL     OW20647   0.771   2.770   3.271  0.0708 -0.6068 -0.2586
 3005SOL    HW120648   0.762   2.751   3.364  0.2932 -1.8823 -0.5079
 3005SOL    HW220649   0.779   2.865   3.257 -1.3706 -0.5156 -0.4039
 3006SOL     OW20650   2.845   4.139   9.474  0.3930  0.3798  0.0348
 3006SOL    HW120651   2.850   4.046   9.499  2.7553  0.0059 -1.8118
 3006SOL    HW220652   2.938   4.155   9.492  0.7325  0.7159 -2.0529
 3007SOL     OW20653   2.460   4.202   6.893 -0.7102 -0.0896 -0.1759
 3007SOL    HW120654   2.394   4.272   6.887  0.0491  0.6810  0.4339
 3007SOL    HW220655   2.408   4.123   6.880 -0.0902 -0.5757  0.2828
 3008SOL     OW20656   4.694   3.019   7.659  0.4001 -0.1015  0.4196
 3008SOL    HW120657   0.046   2.998   7.686  0.7109 -0.3414 -0.8130
 3008SOL    HW220658   4.701   3.100   7.610 -1.3594  0.4168  1.0012
 3009SOL     OW20659   2.019   1.140  12.018  0.2516  0.3472  0.0680
 3009SOL    HW120660   2.003   1.190  12.098  0.5854  1.0985 -0.3372
 3009SOL    HW220661   1.994   1.203  11.950  1.4462  0.1079 -0.5868
 3010SOL     OW20662   1.985   4.543   6.019  0.2735 -0.3649 -0.0525
 3010SOL    HW120663   1.964   4.573   5.930 -2.0376  0.2498  0.7027
 3010SOL    HW220664   1.960   4.617   6.075 -0.1044  0.0097 -0.7177
 3011SOL     OW20665   2.469   4.555   9.624  0.3380 -0.5918  0.8348
 3011SOL    HW120666   2.468   4.606   9.705  0.5907  1.2060 -0.2772
 3011SOL    HW220667   2.554   4.513   9.626  1.7557  2.2703  0.6730
 3012SOL     OW20668   4.236   3.130  16.502  0.6517  0.9292 -0.5811
 3012SOL    HW120669   4.146   3.102  16.485  0.3275  1.2359  0.6419
 3012SOL    HW220670   4.272   3.048  16.538  0.3714  1.6646  1.3606
 3013SOL     OW20671   0.780   2.658   0.636 -0.4917  0.6995 -0.1873
 3013SOL    HW120672   0.838   2.714   0.688 -0.6982  1.7490 -1.0742
 3013SOL    HW220673   0.768   2.585   0.696 -0.6039 -0.3901 -1.5338
 3014SOL     OW20674   1.032   0.094  10.427  0.0564 -0.2464 -0.5939
 3014SOL    HW120675   1.090   0.147  10.372  0.2799 -0.6972 -0.7927
 3014SOL    HW220676   1.040   0.005  10.392 -1.1098  0.0645 -1.6336
 3015SOL     OW20677   2.955   3.608   9.207  0.0903  0.4373  0.3470
 3015SOL    HW120678   3.013   3.630   9.281  0.1226 -0.2097  0.5159
 3015SOL    HW220679   3.004   3.541   9.160  0.1106 -1.3033  2.8826
 3016SOL     OW20680   3.560   4.471   8.148  0.1925  0.1258 -0.8822
 3016SOL    HW120681   3.556   4.544   8.086 -1.6863  0.5788 -0.2264
 3016SOL    HW220682   3.636   4.426   8.110  0.7959 -0.6210  1.2329
 3017SOL     OW20683   4.733   2.711   0.403  0.6392  0.7444  0.0401
 3017SOL    HW120684   0.009   2.713   0.308 -1.5139  0.0170 -0.3078
 3017SOL    HW220685   0.069   2.656   0.428 -0.1888  0.0755  0.9970
 3018SOL     OW20686   0.004   4.683   0.062 -0.0643 -0.1160  0.6272
 3018SOL    HW120687   0.078   4.667   0.003  0.6564 -0.0814  1.5213
 3018SOL    HW220688   4.682   4.616   0.030 -0.4104  0.3912  0.2129
 3019SOL     OW20689   3.157   3.151   6.462 -0.1712  0.3955 -0.3747
 3019SOL    HW120690   3.234   3.117   6.416 -0.2016  2.0626 -1.6945
 3019SOL    HW220691   3.087   3.111   6.410 -0.3055  0.4074 -0.2023
 3020SOL     OW20692   2.787   1.142  12.177 -0.2577  0.2635  0.2046
 3020SOL    HW120693   2.817   1.107  12.261 -1.2349  1.6830  1.1515
 3020SOL    HW220694   2.715   1.081  12.162 -0.3584  0.2644  0.6944
 3021SOL     OW20695   3.206   3.477  14.572  0.1916  0.1693  0.0894
 3021SOL    HW120696   3.116   3.501  14.550 -0.5201 -0.8776  1.7965
 3021SOL    HW220697   3.249   3.495  14.489  2.6672  1.7689  1.7321
 3022SOL     OW20698   3.499   3.875   8.352 -0.4381 -0.1999 -0.1101
 3022SOL    HW120699   3.536   3.789   8.330  0.2680  0.5817 -1.9778
 3022SOL    HW220700   3.500   3.857   8.446 -1.1983 -1.2541 -0.3044
 3023SOL     OW20701   1.410   1.072  12.475  0.4498  0.3729  0.6775
 3023SOL    HW120702   1.445   1.021  12.402 -0.7672 -0.0232  0.3807
 3023SOL    HW220703   1.445   1.160  12.462 -0.6067  1.0080  2.1388
 3024SOL     OW20704   4.493   0.751  12.910 -0.0720 -0.5894 -0.0220
 3024SOL    HW120705   4.531   0.712  12.831 -0.7578  1.9268 -1.5825
 3024SOL    HW220706   4.448   0.822  12.865  1.4187  0.4351  0.0944
 3025SOL     OW20707   1.503   2.602   2.500 -0.0441  0.7194 -0.3144
 3025SOL    HW120708   1.592   2.637   2.503  0.8767 -1.8185  1.3743
 3025SOL    HW220709   1.515   2.512   2.469 -0.6299  0.2124  0.9237
 3026SOL     OW20710   4.093   3.128   3.402  0.0667 -0.3276  0.0018
 3026SOL    HW120711   4.050   3.201   3.445 -0.2155 -0.1238 -0.6311
 3026SOL    HW220712   4.133   3.081   3.476  0.2528 -1.4344 -0.7989
 3027SOL     OW20713   3.357   1.660   0.172  0.9992 -1.1214 -0.4778
 3027SOL    HW120714   3.417   1.720   0.129 -0.5350  0.7942  0.0706
 3027SOL    HW220715   3.277   1.711   0.178  1.1872 -0.7542 -1.1597
 3028SOL     OW20716   2.002   3.886   4.294 -0.2624 -0.1443 -0.4832
 3028SOL    HW120717   2.091   3.867   4.323 -0.1311 -0.9493 -1.4353
 3028SOL    HW220718   1.982   3.974   4.326 -0.0013 -0.1784 -0.2253
 3029SOL     OW20719   3.247   2.471   5.992  0.3866  0.4994  0.0547
 3029SOL    HW120720   3.202   2.538   5.941  2.4643 -0.7429 -3.3516
 3029SOL    HW220721   3.279   2.414   5.922 -0.7630 -1.7257  1.3365
 3030SOL     OW20722   2.286   2.291  12.964  0.2577  0.1466  0.4124
 3030SOL    HW120723   2.351   2.337  13.017 -0.0964 -2.4766  3.1462
 3030SOL    HW220724   2.207   2.301  13.017 -0.6146  1.2940 -1.1292
 3031SOL     OW20725   4.100   4.265   0.205 -0.6376 -0.4587 -0.2703
 3031SOL    HW120726   4.123   4.324   0.277 -0.0523 -1.6821  0.5509
 3031SOL    HW220727   4.054   4.323   0.144 -1.7843  0.0725  1.1252
 3032SOL     OW20728   2.931   1.299   6.648 -0.5333 -0.0116  0.4576
 3032SOL    HW120729   2.859   1.350   6.609 -0.2950 -0.3778 -0.4580
 3032SOL    HW220730   2.930   1.339   6.735 -2.2279  0.7791  0.0780
 3033SOL     OW20731   1.067   2.302   4.909  0.2177 -0.2106  0.1279
 3033SOL    HW120732   1.022   2.235   4.857 -0.4904  1.9159 -2.0454
 3033SOL    HW220733   1.158   2.275   4.895  0.7064  1.7603 -0.4427
 3034SOL     OW20734   0.376   3.001   3.604 -0.1835 -0.2217  0.1070
 3034SOL    HW120735   0.413   2.949   3.533  1.6721 -0.3997  1.1912
 3034SOL    HW220736   0.286   3.016   3.574  0.1627  0.2857 -0.6669
 3035SOL     OW20737   0.984   3.531   7.546  0.2978  0.0186  0.2183
 3035SOL    HW120738   0.988   3.624   7.569 -2.0192 -0.2968  1.9712
 3035SOL    HW220739   0.932   3.502   7.622 -0.0726  1.3370  0.4645
 3036SOL     OW20740   3.469   1.330   2.006 -1.0270  0.3184  0.1746
 3036SOL    HW120741   3.548   1.330   2.060 -1.3296 -0.3758  0.6119
 3036SOL    HW220742   3.489   1.405   1.950  0.7388 -0.9275 -0.8635
 3037SOL     OW20743   1.641   1.723   4.678  0.4238 -0.1729 -0.1972
 3037SOL    HW120744   1.698   1.755   4.748  0.7494 -1.0607 -0.0636
 3037SOL    HW220745   1.700   1.714   4.603  0.4608  1.8475 -0.4266
 3038SOL     OW20746   4.604   1.716   8.818 -0.5784 -0.4767  0.5049
 3038SOL    HW120747   4.690   1.757   8.818 -0.9162  0.2315  0.8880
 3038SOL    HW220748   4.569   1.761   8.742  1.5893 -1.8781 -1.2980
 3039SOL     OW20749   1.262   2.444  16.314 -0.9265  0.1395  0.3571
 3039SOL    HW120750   1.278   2.488  16.397 -0.5996  0.7197 -0.0181
 3039SOL    HW220751   1.332   2.379  16.313  0.6159  1.8338  0.3808
 3040SOL     OW20752   0.174   0.578   8.643  0.2216  0.4155 -0.9515
 3040SOL    HW120753   0.132   0.597   8.727  0.1856  0.0710 -0.8901
 3040SOL    HW220754   0.130   0.497   8.616  0.8534  0.1675 -1.2145
 3041SOL     OW20755   2.218   3.209   8.727  0.8522  0.6363 -0.0368
 3041SOL    HW120756   2.156   3.140   8.754  0.6105 -0.3193 -3.0428
 3041SOL    HW220757   2.246   3.248   8.810 -3.5894  1.6870  1.0160
 3042SOL     OW20758   4.573   3.663  13.575  0.5023 -0.6852 -0.4415
 3042SOL    HW120759   4.484   3.671  13.609  0.1083  0.2869 -1.7073
 3042SOL    HW220760   4.602   3.752  13.593  0.0511 -0.0423 -2.9155
 3043SOL     OW20761   1.018   3.383   4.385 -0.1455 -0.3284 -0.8302
 3043SOL    HW120762   1.069   3.370   4.465 -1.3752 -0.2663 -0.0481
 3043SOL    HW220763   0.929   3.353   4.402  0.3169 -1.5388 -0.5966
 3044SOL     OW20764   2.228   3.639   4.307  0.1507  0.2433  0.4692
 3044SOL    HW120765   2.216   3.563   4.364 -0.0754  0.4995  0.7679
 3044SOL    HW220766   2.141   3.662   4.274 -0.6713  0.3059  2.7114
 3045SOL     OW20767   2.165   1.252  17.625  0.5865 -0.1699 -0.2560
 3045SOL    HW120768   2.154   1.308  17.549 -0.0132 -0.4822 -0.3972
 3045SOL    HW220769   2.191   1.168  17.587 -0.0586  0.9750 -3.2172
 3046SOL     OW20770   2.882   1.733   5.030  0.1710  0.3126  0.2219
 3046SOL    HW120771   2.962   1.770   5.069  0.5166 -1.7325  1.4439
 3046SOL    HW220772   2.858   1.808   4.975 -1.4010 -0.7963 -0.5918
 3047SOL     OW20773   0.828   2.486   3.609  0.3231 -0.7973  0.0750
 3047SOL    HW120774   0.808   2.579   3.606 -0.7390 -0.9803  1.6918
 3047SOL    HW220775   0.902   2.475   3.549  2.0232 -1.0611  2.2448
 3048SOL     OW20776   0.529   2.609   4.747 -0.4285  0.5161  0.3123
 3048SOL    HW120777   0.533   2.516   4.769 -2.1575  0.4300  0.2511
 3048SOL    HW220778   0.493   2.642   4.829  1.5974  3.0890  0.1544
 3049SOL     OW20779   2.325   1.962  15.017  0.2668 -0.2644  0.0953
 3049SOL    HW120780   2.396   1.950  15.081 -0.5493 -1.7905  0.7060
 3049SOL    HW220781   2.287   2.040  15.057  0.7855  0.7870 -1.4819
 3050SOL     OW20782   3.549   0.153   1.682  0.0846 -0.3982 -0.0580
 3050SOL    HW120783   3.569   0.232   1.733  1.2304 -1.1923  0.7326
 3050SOL    HW220784   3.642   0.130   1.680 -0.1488 -1.4633  1.2019
 3051SOL     OW20785   0.927   3.573   8.078  0.4987 -0.2031  0.3077
 3051SOL    HW120786   0.998   3.516   8.048 -0.6585 -1.3359 -0.2732
 3051SOL    HW220787   0.858   3.507   8.076  1.6755 -1.4037 -0.7636
 3052SOL     OW20788   3.641   0.106  12.594 -0.4362  0.0953 -0.3264
 3052SOL    HW120789   3.644   0.131  12.502 -5.8702  1.1083 -0.2388
 3052SOL    HW220790   3.565   0.048  12.597 -1.2647  1.1420 -0.9652
 3053SOL     OW20791   1.955   1.170   3.223 -0.1640  0.8793  0.3438
 3053SOL    HW120792   2.023   1.199   3.282  1.3469 -1.1132 -0.4229
 3053SOL    HW220793   1.927   1.251   3.180  0.6633  0.6217 -0.6676
 3054SOL     OW20794   3.941   1.540   1.898 -0.1578  0.0241 -0.5764
 3054SOL    HW120795   3.922   1.450   1.872  0.4285  0.1024 -1.2595
 3054SOL    HW220796   3.943   1.581   1.812 -1.0830 -2.1416 -1.6362
 3055SOL     OW20797   1.155   3.327   6.919 -0.6151  0.4585  0.4773
 3055SOL    HW120798   1.090   3.281   6.972  0.4588 -2.2504 -0.5452
 3055SOL    HW220799   1.116   3.414   6.904 -1.9147 -0.4630 -1.5100
 3056SOL     OW20800   0.374   3.710  17.690 -0.3445  0.0749 -0.0855
 3056SOL    HW120801   0.311   3.756  17.636 -0.7607 -0.0775  0.2716
 3056SOL    HW220802   0.413   3.785  17.734 -0.2813  0.0293 -0.0634
 3057SOL     OW20803   4.718   3.386   8.911 -0.2328 -0.1929  0.1225
 3057SOL    HW120804   0.015   3.429   8.833  0.9631 -0.1651  0.6648
 3057SOL    HW220805   4.733   3.457   8.974  0.3941 -1.2179  1.1307
 3058SOL     OW20806   1.732   2.242   1.633  0.1521  0.4111  0.1409
 3058SOL    HW120807   1.776   2.157   1.631 -0.1290  0.2831 -0.4639
 3058SOL    HW220808   1.642   2.210   1.645  0.8793 -1.6970 -0.0010
 3059SOL     OW20809   1.238   4.382   2.754  0.0895 -0.1025 -0.5334
 3059SOL    HW120810   1.250   4.333   2.673 -0.5886 -1.6914  0.3446
 3059SOL    HW220811   1.307   4.354   2.814 -0.6437 -1.8064 -0.5066
 3060SOL     OW20812   1.929   3.955   9.447  0.4738 -0.4320 -0.0647
 3060SOL    HW120813   1.978   3.880   9.482  0.1477 -1.0089 -0.8324
 3060SOL    HW220814   1.864   3.912   9.391  1.0146 -1.7068  0.2880
 3061SOL     OW20815   4.684   2.937  10.186  0.2140  0.8928  0.6548
 3061SOL    HW120816   4.718   2.963  10.101  2.0019 -0.2050  1.0378
 3061SOL    HW220817   0.022   2.912  10.239  0.2413  0.2883  0.3334
 3062SOL     OW20818   3.268   3.958  11.496 -0.3035 -0.4954 -0.2086
 3062SOL    HW120819   3.225   4.042  11.484  0.9046 -0.1436 -2.1187
 3062SOL    HW220820   3.353   3.986  11.530 -1.3678  1.9016  0.4454
 3063SOL     OW20821   3.695   0.032   5.257 -0.2103  0.0459 -0.2948
 3063SOL    HW120822   3.643   4.731   5.186 -0.3644  0.3712 -0.3586
 3063SOL    HW220823   3.632   0.074   5.315  0.8254 -0.7184  1.3802
 3064SOL     OW20824   4.072   3.526   4.980  0.1170 -0.0158  0.0846
 3064SOL    HW120825   4.060   3.513   5.074 -0.7934  1.2587  0.1441
 3064SOL    HW220826   3.981   3.551   4.963 -0.4663 -0.5592  2.3533
 3065SOL     OW20827   0.814   0.113   0.763 -0.1454  0.3231  0.0880
 3065SOL    HW120828   0.727   0.143   0.789  0.3239  0.4512  1.4984
 3065SOL    HW220829   0.863   0.078   0.837  0.6853  2.5183  0.6014
 3066SOL     OW20830   4.205   1.057   6.284 -0.4654  0.2339 -0.0875
 3066SOL    HW120831   4.223   1.092   6.197 -1.5949  0.7331 -0.1190
 3066SOL    HW220832   4.295   1.028   6.299 -0.9279 -0.4803  1.3356
 3067SOL     OW20833   3.900   2.913  13.200  0.8744  0.0252 -0.1416
 3067SOL    HW120834   3.916   2.863  13.280  1.8119  0.2366 -0.1979
 3067SOL    HW220835   3.805   2.916  13.190  0.6759  0.6101  1.8095
 3068SOL     OW20836   1.972   3.258   8.407  0.0058  0.1747 -0.2363
 3068SOL    HW120837   1.944   3.179   8.452 -1.7420  0.5761 -0.5960
 3068SOL    HW220838   2.061   3.245   8.376  0.1101  0.2906  0.0173
 3069SOL     OW20839   4.505   2.351   8.826 -0.5056  0.5066  0.4003
 3069SOL    HW120840   4.465   2.345   8.739  0.7962 -0.8547 -0.0927
 3069SOL    HW220841   4.582   2.299   8.806  0.5194  1.4829  1.8371
 3070SOL     OW20842   0.327   1.305  12.561 -0.1199  0.3304  0.1424
 3070SOL    HW120843   0.311   1.269  12.474 -0.8183  0.5502  0.1810
 3070SOL    HW220844   0.255   1.368  12.572  0.1489  0.8840 -1.3106
 3071SOL     OW20845   1.023   4.083   7.288  0.2196  0.1000  0.0757
 3071SOL    HW120846   0.958   4.041   7.344 -1.6380  1.7304 -0.8729
 3071SOL    HW220847   1.108   4.062   7.328  0.4950 -0.6373 -0.9064
 3072SOL     OW20848   3.200   2.030   2.936  0.2005  0.0104  0.2518
 3072SOL    HW120849   3.119   2.073   2.964 -1.0464 -0.8271 -2.1165
 3072SOL    HW220850   3.235   2.094   2.874  2.3742  0.2741  1.7388
 3073SOL     OW20851   4.643   4.113   5.670 -0.7267  0.2963 -0.4802
 3073SOL    HW120852   4.685   4.050   5.612 -1.0748  0.9684 -1.4788
 3073SOL    HW220853   4.575   4.067   5.719 -0.5307 -2.3555 -2.7209
 3074SOL     OW20854   3.337   0.433   8.039  0.0818 -0.0380  0.2493
 3074SOL    HW120855   3.392   0.355   8.046  0.6664  0.1823 -1.8530
 3074SOL    HW220856   3.341   0.466   8.129 -2.0215 -2.7255  1.3259
 3075SOL     OW20857   3.999   1.141   3.385  0.2512 -0.1261 -0.1713
 3075SOL    HW120858   4.006   1.055   3.344 -1.2243 -1.1870  1.7572
 3075SOL    HW220859   4.092   1.157   3.400  0.1504  1.1604 -0.9315
 3076SOL     OW20860   3.234   3.632  16.283 -0.2814  0.3265  0.2002
 3076SOL    HW120861   3.144   3.642  16.315 -0.2291  1.3547  0.0272
 3076SOL    HW220862   3.286   3.649  16.361  0.4662 -2.6183  0.3446
 3077SOL     OW20863   3.382   1.054  11.190  0.2027  0.0165  0.0490
 3077SOL    HW120864   3.448   1.095  11.133 -1.8114  2.2202 -0.7007
 3077SOL    HW220865   3.440   1.004  11.247 -0.2733 -2.6718 -1.8120
 3078SOL     OW20866   2.553   0.826   4.450  0.0307  0.9240  0.0229
 3078SOL    HW120867   2.530   0.736   4.471  1.3769  0.6166  0.1507
 3078SOL    HW220868   2.514   0.845   4.365  1.0811  0.6293 -0.5260
 3079SOL     OW20869   1.174   3.064   7.153 -0.4099  0.1533  0.5251
 3079SOL    HW120870   1.232   3.061   7.078  0.7864 -0.3953  1.4684
 3079SOL    HW220871   1.093   3.023   7.123 -0.0036 -1.1616  1.2220
 3080SOL     OW20872   2.534   0.150   5.334 -0.7566 -0.1535  0.6062
 3080SOL    HW120873   2.585   0.203   5.274 -0.9164 -0.0856  0.5308
 3080SOL    HW220874   2.447   0.179   5.307  0.3690  3.1038  0.5379
 3081SOL     OW20875   2.232   2.901   7.063  0.0346 -0.2713  0.1335
 3081SOL    HW120876   2.319   2.878   7.032  0.0931  0.6916 -0.3942
 3081SOL    HW220877   2.244   2.919   7.156 -0.9272  1.2942 -0.0548
 3082SOL     OW20878   2.184   2.633  15.321  0.1842 -0.3532 -0.0565
 3082SOL    HW120879   2.217   2.544  15.333 -1.1335 -1.1498 -2.3043
 3082SOL    HW220880   2.267   2.679  15.307 -1.3995  1.9745 -1.8620
 3083SOL     OW20881   2.496   2.659   1.454  0.0580  0.3215  0.2592
 3083SOL    HW120882   2.576   2.615   1.424 -1.2536 -2.3254  0.6566
 3083SOL    HW220883   2.461   2.587   1.506 -1.4114  0.0032 -1.1685
 3084SOL     OW20884   0.337   0.586  12.376  0.2503 -0.3085  0.6450
 3084SOL    HW120885   0.387   0.668  12.381 -0.7708  0.1965  2.7857
 3084SOL    HW220886   0.319   0.555  12.465 -0.3839  0.0005  0.6223
 3085SOL     OW20887   3.008   0.315  14.452 -0.0745 -0.0729  0.2204
 3085SOL    HW120888   2.986   0.222  14.450  1.2191 -0.3781  0.3366
 3085SOL    HW220889   3.085   0.320  14.509  0.1556  2.6256 -0.3147
 3086SOL     OW20890   3.961   2.628   2.376 -0.6326  0.1219  0.1551
 3086SOL    HW120891   3.874   2.634   2.337  0.6949 -1.0109 -3.0216
 3086SOL    HW220892   3.941   2.600   2.465 -0.8615  0.9002  0.3419
 3087SOL     OW20893   3.545   0.708   4.803  1.0865  0.7885  0.1621
 3087SOL    HW120894   3.544   0.730   4.710  1.2205 -0.4708 -0.1337
 3087SOL    HW220895   3.580   0.783   4.851 -0.3910  1.6612 -0.1141
 3088SOL     OW20896   4.559   1.623   7.833  0.3403 -0.2903 -0.4915
 3088SOL    HW120897   4.469   1.619   7.867  0.7920  0.4778  0.8083
 3088SOL    HW220898   4.556   1.583   7.747  0.3616  1.3159 -1.2406
 3089SOL     OW20899   0.602   0.345   4.643 -0.5782  0.4863  0.2069
 3089SOL    HW120900   0.664   0.418   4.650 -1.5647  1.3559 -0.1834
 3089SOL    HW220901   0.553   0.355   4.725  1.4670  0.0447  1.5162
 3090SOL     OW20902   2.765   2.813   1.578  0.0774 -0.0024  0.2261
 3090SOL    HW120903   2.728   2.773   1.500  2.2091  0.2735 -0.9066
 3090SOL    HW220904   2.684   2.832   1.626  1.0499  1.3432  1.3411
 3091SOL     OW20905   1.296   3.764  15.446 -0.0105 -0.0085  0.4870
 3091SOL    HW120906   1.210   3.723  15.433 -0.0658  0.4993 -0.6729
 3091SOL    HW220907   1.287   3.845  15.396  0.4304  0.8504  1.7911
 3092SOL     OW20908   2.087   4.586   5.200  0.0094  0.3763  0.2188
 3092SOL    HW120909   2.086   4.660   5.260 -1.5877  0.3712  0.2032
 3092SOL    HW220910   2.056   4.529   5.270 -0.7808 -0.4665 -0.8198
 3093SOL     OW20911   1.794   3.825  13.348 -0.1169 -0.4052  0.3751
 3093SOL    HW120912   1.815   3.918  13.351  0.2054 -0.5029  1.1638
 3093SOL    HW220913   1.721   3.833  13.287 -0.4838 -1.5545  0.6643
 3094SOL     OW20914   2.580   2.084   4.838 -0.1057 -0.0136 -0.5081
 3094SOL    HW120915   2.532   2.003   4.823 -2.1787  1.4315 -1.8294
 3094SOL    HW220916   2.595   2.116   4.749  0.3223 -2.6254 -1.3626
 3095SOL     OW20917   2.648   3.759   2.080  0.0525 -0.6350 -0.3410
 3095SOL    HW120918   2.620   3.791   2.166 -1.9735 -0.3893 -1.1038
 3095SOL    HW220919   2.713   3.823   2.053 -0.1464 -0.3998 -0.2590
 3096SOL     OW20920   1.882   0.985  14.195  0.2595 -0.6583 -0.0634
 3096SOL    HW120921   1.897   1.074  14.227 -0.2485 -0.2524 -0.9726
 3096SOL    HW220922   1.808   0.971  14.254  0.3030 -0.8832 -0.0630
 3097SOL     OW20923   0.657   3.142   3.338 -0.3693  0.0503 -0.5501
 3097SOL    HW120924   0.645   3.177   3.426 -0.4666 -2.5322  0.4776
 3097SOL    HW220925   0.609   3.212   3.295 -0.4580 -1.1213 -2.3626
 3098SOL     OW20926   1.023   4.002   8.017 -0.4949 -0.0112  0.0428
 3098SOL    HW120927   1.113   3.997   7.986 -0.2779  1.1851  0.4751
 3098SOL    HW220928   1.019   3.958   8.102 -0.5161 -1.0823 -0.5128
 3099SOL     OW20929   4.397   2.499   2.873 -0.1569 -0.2198 -0.1346
 3099SOL    HW120930   4.339   2.437   2.830 -1.8018  1.6189 -0.5511
 3099SOL    HW220931   4.468   2.475   2.813  1.0370 -0.1213  1.2199
 3100SOL     OW20932   0.062   3.506   9.132  0.1643 -0.1582 -0.1870
 3100SOL    HW120933   0.050   3.446   9.205  1.2863  0.1326  0.2373
 3100SOL    HW220934   0.148   3.545   9.150  1.5223 -1.8411 -3.0832
 3101SOL     OW20935   3.071   1.435  10.298  0.3367  0.3909 -0.2788
 3101SOL    HW120936   2.990   1.486  10.305 -0.5592 -0.8539 -1.6837
 3101SOL    HW220937   3.027   1.350  10.303 -1.2750  1.2545  0.1238
 3102SOL     OW20938   3.624   0.671   3.621  0.2039 -0.1598  0.6405
 3102SOL    HW120939   3.623   0.767   3.628 -1.3381 -0.1283 -0.1573
 3102SOL    HW220940   3.539   0.644   3.587  0.8513 -0.9744 -0.3424
 3103SOL     OW20941   2.693   0.740  13.590  0.0896  0.4987 -0.1929
 3103SOL    HW120942   2.700   0.755  13.684  0.6955  0.4016 -0.2231
 3103SOL    HW220943   2.659   0.826  13.567 -1.2367  0.0937  0.2919
 3104SOL     OW20944   3.210   1.503  13.333  0.1758 -0.8238 -0.0599
 3104SOL    HW120945   3.264   1.557  13.391  0.3836 -0.1758 -0.8422
 3104SOL    HW220946   3.176   1.448  13.403  1.4117 -1.1961  0.2464
 3105SOL     OW20947   0.345   3.344   9.161  0.4605 -0.2068  0.0977
 3105SOL    HW120948   0.369   3.390   9.242  2.2364 -1.5944  0.3646
 3105SOL    HW220949   0.343   3.424   9.109  1.3585  0.3623  0.9352
 3106SOL     OW20950   2.925   2.763   8.351  0.0587  0.1707 -0.5278
 3106SOL    HW120951   3.002   2.780   8.297  1.8135 -1.3587  1.4861
 3106SOL    HW220952   2.911   2.679   8.308 -2.6810  0.5423 -0.3642
 3107SOL     OW20953   1.923   1.681   5.016 -0.3626  0.5837  0.5809
 3107SOL    HW120954   1.944   1.708   5.105 -0.4579  0.2036  0.7211
 3107SOL    HW220955   2.012   1.665   4.982 -0.7208  0.5513 -0.3484
 3108SOL     OW20956   2.019   1.046   6.386  0.3818  0.0742 -0.4157
 3108SOL    HW120957   1.970   0.964   6.381  0.0692  0.2809 -0.8076
 3108SOL    HW220958   1.954   1.111   6.359  1.8053  0.9248 -1.7504
 3109SOL     OW20959   2.021   3.486  12.853 -0.2815 -0.2823 -0.6656
 3109SOL    HW120960   2.084   3.436  12.905 -0.9678  0.6548  1.0711
 3109SOL    HW220961   1.945   3.485  12.911  0.9897 -0.0193  1.0068
 3110SOL     OW20962   3.106   4.045   2.387 -0.2266  0.3112  0.5746
 3110SOL    HW120963   3.045   4.028   2.458  0.4063 -0.3277  0.9659
 3110SOL    HW220964   3.069   3.980   2.327  1.2114 -0.2410  0.2754
 3111SOL     OW20965   2.907   1.088   8.710  0.6007 -0.4163  0.3328
 3111SOL    HW120966   2.995   1.050   8.711 -0.7694 -3.6093  0.2302
 3111SOL    HW220967   2.855   1.013   8.681 -1.7384  1.3739 -0.0691
 3112SOL     OW20968   2.561   1.821   5.266  0.1082 -0.8466 -0.0962
 3112SOL    HW120969   2.621   1.879   5.220  2.6761 -1.4200  2.5626
 3112SOL    HW220970   2.595   1.834   5.354 -1.9940 -0.4582  0.6539
 3113SOL     OW20971   3.765   1.027  11.838  0.3081 -0.2834  0.1268
 3113SOL    HW120972   3.707   1.003  11.910  1.9398 -0.4888  1.3773
 3113SOL    HW220973   3.785   1.115  11.869  1.5562  0.3099 -2.3751
 3114SOL     OW20974   2.550   2.643   3.895  0.8008 -0.0068 -0.2003
 3114SOL    HW120975   2.455   2.652   3.907  0.7715 -2.6374  1.6456
 3114SOL    HW220976   2.553   2.616   3.803 -0.5293  1.0615 -0.5621
 3115SOL     OW20977   3.910   1.897   4.860 -0.3601 -0.6028 -0.1904
 3115SOL    HW120978   3.990   1.908   4.912 -1.7849  0.4502  1.8056
 3115SOL    HW220979   3.906   1.802   4.855  0.2120 -0.6995  1.2724
 3116SOL     OW20980   2.879   3.912  11.121  0.5087  0.5862  0.4968
 3116SOL    HW120981   2.962   3.888  11.080 -0.7763 -1.0784 -1.1418
 3116SOL    HW220982   2.907   3.913  11.212 -2.3349  2.4401  1.3364
 3117SOL     OW20983   0.352   4.709   9.958 -0.7684  0.9531 -0.3224
 3117SOL    HW120984   0.389   0.001  10.041 -2.4945  2.0176  0.0518
 3117SOL    HW220985   0.342   0.057   9.918  3.0727  1.4466 -0.1868
 3118SOL     OW20986   3.073   3.879   3.268  0.0612  0.2463 -0.1148
 3118SOL    HW120987   3.015   3.887   3.344  0.7026 -0.5759  0.4595
 3118SOL    HW220988   3.128   3.807   3.298  0.9812  1.0015  0.0114
 3119SOL     OW20989   3.682   2.219   1.653  0.4795 -0.6074 -0.1680
 3119SOL    HW120990   3.690   2.314   1.660  0.9434 -0.6106 -0.6402
 3119SOL    HW220991   3.715   2.190   1.738  1.0908  1.5466  0.3243
 3120SOL     OW20992   1.658   2.637   0.344  0.2603  0.0872 -0.4030
 3120SOL    HW120993   1.654   2.676   0.257 -0.2979  0.7698 -0.0734
 3120SOL    HW220994   1.729   2.575   0.327  0.2327 -0.1542  0.3728
 3121SOL     OW20995   3.933   2.031   4.572  0.8791  0.1084 -0.0325
 3121SOL    HW120996   3.953   2.012   4.664 -0.9633  1.8370  0.7321
 3121SOL    HW220997   4.014   2.076   4.550  0.4650  0.3242 -1.0900
 3122SOL     OW20998   4.077   1.583  10.439  0.0358  0.2731 -0.1074
 3122SOL    HW120999   4.168   1.576  10.469 -0.5562  0.5068  1.7260
 3122SOL    HW221000   4.065   1.489  10.427 -1.0529  0.4860 -0.6481
 3123SOL     OW21001   0.226   1.209   1.699  0.4764 -0.6783  0.1883
 3123SOL    HW121002   0.313   1.221   1.662 -0.2094 -0.6306 -1.4593
 3123SOL    HW221003   0.247   1.117   1.713 -0.1210 -0.7726  0.4711
 3124SOL     OW21004   3.783   0.653   6.913  0.0014 -0.5036  0.6146
 3124SOL    HW121005   3.737   0.570   6.927  0.4798 -0.7690  0.5836
 3124SOL    HW221006   3.836   0.639   6.835 -0.1912 -1.9238  0.7436
 3125SOL     OW21007   2.395   4.464  17.503  0.0467  0.0605  0.1382
 3125SOL    HW121008   2.468   4.411  17.534 -1.7007 -1.8297  0.9833
 3125SOL    HW221009   2.424   4.554  17.520 -1.8889  0.3685  1.8158
 3126SOL     OW21010   3.031   1.751   8.802  0.4144  0.8341 -0.2000
 3126SOL    HW121011   3.012   1.770   8.710  3.1795  3.0171 -0.3216
 3126SOL    HW221012   2.948   1.753   8.848  0.9675  0.8788  0.7993
 3127SOL     OW21013   4.200   2.174   7.231  0.1140 -0.4481  0.3934
 3127SOL    HW121014   4.295   2.162   7.234  0.3114  0.4209 -1.8846
 3127SOL    HW221015   4.184   2.209   7.318  0.1107 -3.3440  1.5801
 3128SOL     OW21016   0.331   4.077   1.393 -0.3019 -0.6103  0.5924
 3128SOL    HW121017   0.270   4.004   1.404  0.6357 -1.4959 -0.1411
 3128SOL    HW221018   0.410   4.032   1.362  0.3581  1.8390 -1.3503
 3129SOL     OW21019   0.514   4.374   6.198  0.1278  0.1843  0.0077
 3129SOL    HW121020   0.500   4.417   6.283  2.5396 -0.5126  0.7524
 3129SOL    HW221021   0.520   4.455   6.147  0.8662 -0.0974 -0.3557
 3130SOL     OW21022   2.840   3.733   4.961 -0.0328  0.1538  0.3764
 3130SOL    HW121023   2.903   3.789   5.006  0.8851  0.6929 -1.5761
 3130SOL    HW221024   2.763   3.738   5.018  0.4008  0.0576  0.9631
 3131SOL     OW21025   0.158   4.214   4.309 -0.6086 -0.4084 -0.4080
 3131SOL    HW121026   0.076   4.241   4.267 -1.0443 -0.5501  0.3623
 3131SOL    HW221027   0.138   4.234   4.400  0.1679  0.3440 -0.4057
 3132SOL     OW21028   2.786   4.085   7.345 -0.1175 -0.2367 -0.4127
 3132SOL    HW121029   2.812   3.993   7.351 -2.3995 -0.9827 -1.7964
 3132SOL    HW221030   2.721   4.090   7.415  2.9193 -3.5622  2.6957
 3133SOL     OW21031   0.339   4.043   3.960  0.3364  0.6224 -0.3420
 3133SOL    HW121032   0.280   4.003   3.897  0.2113  1.6006 -0.8537
 3133SOL    HW221033   0.282   4.111   3.995 -0.4669 -0.8587  1.1634
 3134SOL     OW21034   2.900   4.119   2.913  0.0529  0.1822 -0.4915
 3134SOL    HW121035   2.906   4.177   2.837  2.8722 -0.6350 -0.8996
 3134SOL    HW221036   2.993   4.109   2.934 -0.2569 -1.1013  0.2462
 3135SOL     OW21037   3.030   1.248   0.064  0.3951 -0.4788  0.1405
 3135SOL    HW121038   3.093   1.319   0.081  0.8111 -0.5177 -1.1935
 3135SOL    HW221039   3.078   1.206  17.742  1.7558  2.1667 -0.5372
 3136SOL     OW21040   0.173   2.327   1.385 -0.1224  0.5750 -0.3637
 3136SOL    HW121041   0.155   2.308   1.293 -0.4354  1.4370 -0.4760
 3136SOL    HW221042   0.198   2.419   1.379  2.9610 -0.2731 -0.6702
 3137SOL     OW21043   0.181   3.492   6.336 -0.2201  0.3338  0.0788
 3137SOL    HW121044   0.176   3.583   6.308  2.2717  1.5152  3.4493
 3137SOL    HW221045   0.268   3.496   6.376  0.1556 -0.4847 -0.6499
 3138SOL     OW21046   0.735   0.920   1.725 -0.3174  0.2096  0.0608
 3138SOL    HW121047   0.819   0.893   1.763  1.4591  2.3014 -2.3831
 3138SOL    HW221048   0.724   1.011   1.752 -1.3790 -0.4532  1.8725
 3139SOL     OW21049   3.697   0.830   6.414 -0.3241  0.2984  0.4126
 3139SOL    HW121050   3.779   0.861   6.376 -0.3253 -0.8187 -0.5299
 3139SOL    HW221051   3.635   0.847   6.343 -1.9960 -0.6717  1.6402
 3140SOL     OW21052   4.394   3.618   3.283  0.1809 -0.1975  0.1930
 3140SOL    HW121053   4.479   3.596   3.247 -0.0177 -1.7872  0.7208
 3140SOL    HW221054   4.348   3.535   3.272  2.5217 -1.5708  0.9023
 3141SOL     OW21055   3.331   2.520   8.974  0.2955  0.5280 -0.0915
 3141SOL    HW121056   3.316   2.496   9.065  3.8416  0.7199  0.5597
 3141SOL    HW221057   3.426   2.507   8.978 -0.0329 -0.4385  4.0203
 3142SOL     OW21058   4.168   3.203   3.139 -0.3630  0.4960  0.6007
 3142SOL    HW121059   4.212   3.287   3.153 -0.4182  0.7073 -0.4488
 3142SOL    HW221060   4.134   3.199   3.228  0.2126  0.9971  0.8439
 3143SOL     OW21061   4.600   1.139   2.007 -0.0559 -0.1055  0.0992
 3143SOL    HW121062   4.635   1.228   2.002  0.2552 -0.2550 -0.3846
 3143SOL    HW221063   4.547   1.142   2.087 -0.2723  0.9082 -0.0891
 3144SOL     OW21064   4.396   3.639   6.762 -0.3693  0.2173 -0.0233
 3144SOL    HW121065   4.436   3.650   6.848 -0.0001 -0.0135 -0.1642
 3144SOL    HW221066   4.394   3.731   6.735 -0.5311  0.1331 -0.2990
 3145SOL     OW21067   3.652   2.107   9.226 -0.0384  0.1169  0.3673
 3145SOL    HW121068   3.696   2.023   9.218 -0.1292 -0.0665  1.8265
 3145SOL    HW221069   3.673   2.143   9.139  0.4234 -0.1532  0.3684
 3146SOL     OW21070   2.061   3.687   2.039  0.0103 -0.0259 -0.1903
 3146SOL    HW121071   2.082   3.629   2.112 -3.3602 -0.2019  0.6548
 3146SOL    HW221072   2.007   3.755   2.079  1.0704  0.1366  0.9727
 3147SOL     OW21073   2.094   0.082   8.041  0.5024 -0.0026  0.1796
 3147SOL    HW121074   2.017   0.041   8.078  1.0724 -0.6197  0.6865
 3147SOL    HW221075   2.154   0.093   8.116 -1.7325 -1.2529  2.1333
 3148SOL     OW21076   0.530   0.326  13.858  0.3137 -0.0921  0.1708
 3148SOL    HW121077   0.559   0.236  13.871  1.2889  0.5014  2.1323
 3148SOL    HW221078   0.615   0.368  13.841  1.5301 -2.0744  1.3480
 3149SOL     OW21079   4.307   2.924   4.829  0.6933 -0.0885  0.3235
 3149SOL    HW121080   4.398   2.897   4.816  0.5352 -1.2246  1.5915
 3149SOL    HW221081   4.305   3.017   4.803  1.4145 -0.6781 -1.8713
 3150SOL     OW21082   0.309   2.236   8.724  0.6311 -0.2315 -0.1106
 3150SOL    HW121083   0.316   2.239   8.629 -1.7139 -0.4503 -0.2766
 3150SOL    HW221084   0.379   2.299   8.742  0.7938 -1.1492  2.4758
 3151SOL     OW21085   4.183   1.925   5.393  0.3216  0.6912  0.6086
 3151SOL    HW121086   4.207   1.961   5.308 -2.2221 -0.7305 -0.7073
 3151SOL    HW221087   4.211   1.990   5.458 -1.3561  0.7332  1.3121
 3152SOL     OW21088   2.135   1.388   5.417 -0.4179  0.3250  0.0316
 3152SOL    HW121089   2.118   1.296   5.435 -2.4802  0.3812 -1.6885
 3152SOL    HW221090   2.141   1.379   5.322  0.4713 -1.6772  0.2897
 3153SOL     OW21091   0.488   3.958   1.861  0.0484 -0.1130  0.4630
 3153SOL    HW121092   0.428   4.008   1.806 -0.3260 -1.6724 -0.5373
 3153SOL    HW221093   0.567   3.988   1.816 -1.6231 -0.6503 -2.8348
 3154SOL     OW21094   3.430   0.705  15.330 -0.6268 -0.0128  0.5095
 3154SOL    HW121095   3.445   0.611  15.324  1.8597  0.3372  1.2498
 3154SOL    HW221096   3.355   0.697  15.388 -1.8935  1.7575 -0.8786
 3155SOL     OW21097   4.279   0.226   5.965  0.5142 -0.1319  0.6856
 3155SOL    HW121098   4.337   0.301   5.977  0.4682 -0.0611  0.4628
 3155SOL    HW221099   4.320   0.197   5.884 -2.1490 -1.9272 -0.0001
 3156SOL     OW21100   1.662   3.656  11.858  0.0572  0.0906 -0.5058
 3156SOL    HW121101   1.724   3.584  11.872  2.3560  2.2420  0.4046
 3156SOL    HW221102   1.688   3.726  11.917 -0.4571  0.5685 -0.8544
 3157SOL     OW21103   3.327   1.765   4.683 -0.2124  0.0094 -0.3616
 3157SOL    HW121104   3.280   1.683   4.696 -1.6016  0.6779 -1.1195
 3157SOL    HW221105   3.321   1.792   4.774 -0.0775 -0.4590 -0.2157
 3158SOL     OW21106   2.931   1.905  14.640 -0.1116  0.2616 -0.0952
 3158SOL    HW121107   2.984   1.884  14.563 -0.4568  1.0850 -0.5532
 3158SOL    HW221108   2.863   1.838  14.627  0.7443 -0.1456 -2.4886
 3159SOL     OW21109   2.666   2.787   7.280 -0.0143  0.5255 -0.0229
 3159SOL    HW121110   2.662   2.863   7.338 -0.3600 -0.0133  0.6604
 3159SOL    HW221111   2.758   2.785   7.254  0.0520  1.4374  0.1624
 3160SOL     OW21112   1.291   4.579  16.413 -0.0526  0.0711 -0.2705
 3160SOL    HW121113   1.244   4.501  16.383 -2.0833  0.5789  1.6403
 3160SOL    HW221114   1.373   4.536  16.435 -0.2672  0.0492  0.4629
 3161SOL     OW21115   1.974   3.824  13.900 -0.5519 -0.1946  0.4863
 3161SOL    HW121116   1.943   3.748  13.852 -1.4157  0.6448 -0.2906
 3161SOL    HW221117   1.940   3.894  13.844 -1.3193 -0.4778  0.5913
 3162SOL     OW21118   2.646   0.937   7.009 -0.1110  0.0316  0.2511
 3162SOL    HW121119   2.651   0.908   7.100 -2.7760 -1.4783 -0.0842
 3162SOL    HW221120   2.587   0.866   6.982  1.7293 -1.3086 -0.2463
 3163SOL     OW21121   0.879   2.879  12.950  0.1800  0.2221  0.4405
 3163SOL    HW121122   0.871   2.785  12.935 -1.4755  0.1275  1.9391
 3163SOL    HW221123   0.796   2.907  12.990 -0.3624 -0.5878 -0.1345
 3164SOL     OW21124   2.056   0.477   5.917 -0.3682  0.8970 -0.0718
 3164SOL    HW121125   2.042   0.502   6.009  0.1798  1.7363 -0.2212
 3164SOL    HW221126   2.135   0.521   5.885  0.0155  0.6272  0.4990
 3165SOL     OW21127   0.290   3.756   4.181  0.3261 -0.0899 -0.0374
 3165SOL    HW121128   0.298   3.680   4.238  0.0162 -0.9336 -1.1152
 3165SOL    HW221129   0.294   3.828   4.244 -1.2933 -1.9407  2.1975
 3166SOL     OW21130   4.044   1.857   4.132  0.2658 -0.4587 -0.0567
 3166SOL    HW121131   4.069   1.938   4.178  2.6366 -0.6848 -0.9566
 3166SOL    HW221132   4.012   1.809   4.209  1.3547 -0.7842  0.1950
 3167SOL     OW21133   2.327   0.600   1.832 -0.2009 -0.1590 -0.1323
 3167SOL    HW121134   2.366   0.513   1.842  0.6662  0.2886  0.3638
 3167SOL    HW221135   2.409   0.645   1.813 -0.2993  0.0411 -0.0804
 3168SOL     OW21136   2.980   3.857  11.743 -0.2523  0.1414 -0.5837
 3168SOL    HW121137   3.028   3.929  11.784 -1.6878  1.5053 -1.3334
 3168SOL    HW221138   3.051   3.793  11.737 -1.0981 -0.7852 -0.8040
 3169SOL     OW21139   1.478   2.187   5.070 -0.4011 -0.1744 -0.7980
 3169SOL    HW121140   1.561   2.141   5.058 -0.6366 -0.1472 -2.5800
 3169SOL    HW221141   1.421   2.121   5.109  0.1430 -0.6262 -0.7734
 3170SOL     OW21142   3.787   0.629   8.651 -0.0217  0.2954 -0.2615
 3170SOL    HW121143   3.766   0.537   8.634  0.2107  0.0938  0.5104
 3170SOL    HW221144   3.779   0.665   8.563  0.3648  0.5036 -0.2147
 3171SOL     OW21145   0.945   3.617   3.395 -0.5994 -0.2865 -0.3859
 3171SOL    HW121146   0.850   3.611   3.381 -0.4874  0.8605 -1.6493
 3171SOL    HW221147   0.970   3.655   3.311  0.0025 -2.0247 -0.9978
 3172SOL     OW21148   0.859   3.511   4.779  0.4002  0.1557  0.3674
 3172SOL    HW121149   0.904   3.426   4.777 -0.5716 -0.2470 -3.7840
 3172SOL    HW221150   0.885   3.539   4.692  1.6419 -1.2114  0.2953
 3173SOL     OW21151   3.793   0.519   5.078  0.3365 -0.4964 -0.1596
 3173SOL    HW121152   3.841   0.458   5.023 -0.8457 -0.7544 -0.8952
 3173SOL    HW221153   3.701   0.504   5.054  0.1190 -0.8105  0.8555
 3174SOL     OW21154   4.107   1.545   2.932 -0.3809 -0.1088 -0.1589
 3174SOL    HW121155   4.036   1.539   2.995 -0.0771 -1.2527  0.0666
 3174SOL    HW221156   4.115   1.640   2.946  0.4220 -0.0063 -1.2232
 3175SOL     OW21157   1.500   0.551   6.515  0.2643 -1.1239  0.4754
 3175SOL    HW121158   1.418   0.600   6.509  0.2129 -1.3050 -0.3484
 3175SOL    HW221159   1.549   0.629   6.541 -1.7159  0.2426  0.1791
 3176SOL     OW21160   1.548   0.020   2.110 -0.4368  0.5343 -0.0064
 3176SOL    HW121161   1.642   0.025   2.125 -0.7191 -0.5507  2.1733
 3176SOL    HW221162   1.505   0.063   2.185  1.1029  1.1767  0.5157
 3177SOL     OW21163   4.064   0.406  16.793  0.1836  0.4011  0.2657
 3177SOL    HW121164   4.061   0.437  16.702  0.1539 -1.2474 -0.2964
 3177SOL    HW221165   3.974   0.380  16.807  0.6085 -0.3506  1.5866
 3178SOL     OW21166   3.783   2.035   4.237 -0.4741  0.6609  0.5828
 3178SOL    HW121167   3.794   1.945   4.268 -3.1958  1.2509  3.2802
 3178SOL    HW221168   3.717   2.032   4.168  0.3857 -0.1622 -0.1989
 3179SOL     OW21169   2.587   4.284  13.645  0.5172 -0.0204 -0.7003
 3179SOL    HW121170   2.623   4.309  13.731  1.4386 -0.1327 -1.0571
 3179SOL    HW221171   2.541   4.365  13.619  1.0020 -0.0154 -1.5300
 3180SOL     OW21172   2.605   0.686   8.545  0.9269  0.0541 -0.8767
 3180SOL    HW121173   2.547   0.748   8.589 -0.1845 -1.2401 -0.5385
 3180SOL    HW221174   2.556   0.606   8.562  1.9391 -0.2263  0.7653
 3181SOL     OW21175   2.692   2.915   2.739 -0.0815  0.8062  0.6783
 3181SOL    HW121176   2.616   2.974   2.729 -0.4529  0.2352  0.1482
 3181SOL    HW221177   2.758   2.978   2.768 -0.4092  0.5910  1.8691
 3182SOL     OW21178   1.134   3.102  15.601 -0.0728  0.0830  0.3473
 3182SOL    HW121179   1.107   3.177  15.656  0.0198  0.2062  0.2236
 3182SOL    HW221180   1.151   3.030  15.661 -0.6296  0.2861  0.7518
 3183SOL     OW21181   1.236   1.608  13.858 -0.3479 -0.2843  0.1474
 3183SOL    HW121182   1.161   1.560  13.822 -1.4858  0.4395  1.5381
 3183SOL    HW221183   1.295   1.539  13.890  1.2591  1.6982  1.4722
 3184SOL     OW21184   4.272   2.387   1.898 -0.7195  0.5456 -0.0863
 3184SOL    HW121185   4.343   2.336   1.859 -0.0749  0.3952  1.3031
 3184SOL    HW221186   4.285   2.468   1.848  0.8198  0.8348  0.7882
 3185SOL     OW21187   3.601   2.987   6.865  1.0207  0.1709  1.0024
 3185SOL    HW121188   3.525   2.948   6.822  1.0102 -0.0696  1.2362
 3185SOL    HW221189   3.650   3.017   6.788 -0.3267  0.5573  0.2966
 3186SOL     OW21190   3.666   0.401   8.553 -0.0047 -0.6315 -0.1493
 3186SOL    HW121191   3.581   0.389   8.594  0.0310 -1.2328 -0.2473
 3186SOL    HW221192   3.637   0.390   8.462 -1.1353  0.7564  0.0304
 3187SOL     OW21193   4.331   4.507   8.523  0.3025  0.3414  0.3258
 3187SOL    HW121194   4.266   4.524   8.455  0.7007 -0.0157 -0.1445
 3187SOL    HW221195   4.393   4.446   8.482  1.1089  0.6206  1.1162
 3188SOL     OW21196   3.448   2.589   9.571 -0.1295 -0.0780  0.3737
 3188SOL    HW121197   3.526   2.596   9.516 -0.6870  0.7807 -0.3084
 3188SOL    HW221198   3.404   2.513   9.533 -1.2838  0.8822 -0.2054
 3189SOL     OW21199   3.378   0.264   5.657 -0.1749  0.1720  0.3293
 3189SOL    HW121200   3.416   0.340   5.700 -0.0041 -0.5387  1.4472
 3189SOL    HW221201   3.283   0.274   5.668 -0.1122 -1.4947  2.4073
 3190SOL     OW21202   0.268   0.177   2.871 -0.1391  0.2774  0.0825
 3190SOL    HW121203   0.241   0.086   2.863  0.7514 -0.2010  2.4434
 3190SOL    HW221204   0.189   0.217   2.907  1.0717  1.8897  1.0008
 3191SOL     OW21205   1.580   4.092   2.348  0.7698  0.1228  0.4684
 3191SOL    HW121206   1.583   4.185   2.325 -0.9021  0.2631  0.8147
 3191SOL    HW221207   1.485   4.083   2.349  0.6075  1.3896 -1.6165
 3192SOL     OW21208   4.085   1.325  10.508 -0.0384 -0.3154  0.0371
 3192SOL    HW121209   4.077   1.236  10.541  0.4151 -1.2079 -2.3358
 3192SOL    HW221210   4.007   1.325  10.453  1.1836 -2.4783 -1.6539
 3193SOL     OW21211   3.133   0.084   9.778 -0.1375  0.3660 -0.1391
 3193SOL    HW121212   3.130   0.089   9.874  0.1055  2.1252 -0.2312
 3193SOL    HW221213   3.044   0.112   9.759 -0.6221 -0.6804  0.5930
 3194SOL     OW21214   0.703   1.209   2.074  0.9950  0.3701 -0.4907
 3194SOL    HW121215   0.638   1.140   2.064 -1.3784  2.3255  1.4910
 3194SOL    HW221216   0.695   1.220   2.169 -0.2587 -0.7990 -0.4605
 3195SOL     OW21217   0.842   3.602  13.440  0.1491 -0.3311 -0.5204
 3195SOL    HW121218   0.923   3.557  13.416  0.2900 -0.2702 -0.1621
 3195SOL    HW221219   0.777   3.536  13.465  0.4057 -0.6708 -0.7585
 3196SOL     OW21220   4.089   3.277  10.205 -0.2001  0.2191  0.4852
 3196SOL    HW121221   4.069   3.290  10.112  1.4819  0.1675  0.1048
 3196SOL    HW221222   4.159   3.212  10.212 -1.3342 -1.3894 -3.0150
 3197SOL     OW21223   3.649   4.185  10.258  0.5043  0.4884 -0.1171
 3197SOL    HW121224   3.628   4.273  10.288  0.9228  0.1228  1.2511
 3197SOL    HW221225   3.715   4.151  10.319  0.1397 -0.6908 -0.3804
 3198SOL     OW21226   0.486   2.597   3.372  0.0512 -0.0694  0.3936
 3198SOL    HW121227   0.537   2.652   3.431 -0.6285  0.2262  0.7035
 3198SOL    HW221228   0.454   2.534   3.437  1.9146  0.5302  1.8964
 3199SOL     OW21229   0.198   1.192  12.341 -0.3903  0.2260  0.2490
 3199SOL    HW121230   0.104   1.191  12.355 -0.3426  1.4729  0.7237
 3199SOL    HW221231   0.209   1.276  12.295 -0.2526  0.5919  0.9519
 3200SOL     OW21232   2.640   0.613   2.579 -0.6292 -0.0353  0.5408
 3200SOL    HW121233   2.642   0.708   2.591 -1.6405  0.4917 -3.7103
 3200SOL    HW221234   2.616   0.584   2.667 -0.2089  1.0193  1.0027
 3201SOL     OW21235   0.513   0.580   1.969  0.4706  0.2183 -0.2156
 3201SOL    HW121236   0.540   0.613   1.883 -1.1564 -1.1748 -1.2610
 3201SOL    HW221237   0.576   0.510   1.986 -3.6011 -3.6706 -1.2154
 3202SOL     OW21238   2.588   2.433   8.058 -0.6771  0.2874  0.1739
 3202SOL    HW121239   2.500   2.445   8.094 -0.8729 -2.0280  0.4176
 3202SOL    HW221240   2.616   2.524   8.043  1.1232  0.3557  4.0498
 3203SOL     OW21241   3.598   3.072   6.581  0.1529  0.0909  0.0508
 3203SOL    HW121242   3.617   3.109   6.495  1.2038  3.4917  1.7402
 3203SOL    HW221243   3.577   2.985   6.547  0.7494 -0.2850  0.6495
 3204SOL     OW21244   2.467   1.717   8.965 -0.2402 -0.2841 -0.0934
 3204SOL    HW121245   2.486   1.628   8.936  0.5548  0.4001 -1.6477
 3204SOL    HW221246   2.549   1.762   8.982  0.8941 -2.2106 -0.5679
 3205SOL     OW21247   1.400   1.394   6.107  0.1154  0.0557  0.1417
 3205SOL    HW121248   1.372   1.312   6.067 -1.9705  0.7901  0.0752
 3205SOL    HW221249   1.480   1.363   6.149 -0.1016 -0.1558  0.3947
 3206SOL     OW21250   0.906   4.560   8.053 -0.2792 -0.4675  0.1995
 3206SOL    HW121251   1.000   4.566   8.071 -0.5153  0.9552  0.9478
 3206SOL    HW221252   0.906   4.473   8.013 -0.1351 -0.6729  0.6484
 3207SOL     OW21253   0.612   2.089   7.105  0.1514  0.2909 -0.0214
 3207SOL    HW121254   0.662   2.161   7.143 -1.4968  1.4527 -0.0453
 3207SOL    HW221255   0.674   2.016   7.112  0.0623  0.4302  2.0257
 3208SOL     OW21256   4.539   1.614   1.026  0.1975 -0.5583 -0.1865
 3208SOL    HW121257   4.556   1.706   1.044 -0.3083 -0.5029  0.0067
 3208SOL    HW221258   4.486   1.617   0.946 -2.4237 -0.8874  1.5379
 3209SOL     OW21259   4.277   2.697   6.401 -0.0331 -0.2029  0.5170
 3209SOL    HW121260   4.366   2.665   6.386  0.4106  2.2842 -2.0289
 3209SOL    HW221261   4.289   2.749   6.481 -2.4959  0.0290  0.7502
 3210SOL     OW21262   3.415   3.038  11.965 -0.7986 -0.0813  0.2535
 3210SOL    HW121263   3.328   3.079  11.968 -0.6994  0.1981 -0.8457
 3210SOL    HW221264   3.444   3.045  12.056  1.9710 -0.6579 -0.5871
 3211SOL     OW21265   0.732   2.844   2.882  0.1808  0.3892  0.0024
 3211SOL    HW121266   0.812   2.825   2.833 -1.9355 -0.8980 -2.9546
 3211SOL    HW221267   0.765   2.874   2.967 -0.1896 -0.0732  0.3104
 3212SOL     OW21268   3.196   3.329   2.524 -0.0718 -0.1755  0.5557
 3212SOL    HW121269   3.166   3.353   2.611  2.5681  1.3777  1.0295
 3212SOL    HW221270   3.125   3.360   2.467 -0.2529 -0.9248  0.3716
 3213SOL     OW21271   3.790   0.582  11.971 -0.0875  0.2934  0.0489
 3213SOL    HW121272   3.840   0.657  11.940 -0.5937  1.0994  1.1805
 3213SOL    HW221273   3.735   0.632  12.032  0.9582  2.4325 -0.7765
 3214SOL     OW21274   0.735   4.066  15.451 -0.1868 -0.8928  0.6605
 3214SOL    HW121275   0.737   4.026  15.364  1.1578 -1.2428  0.8492
 3214SOL    HW221276   0.644   4.058  15.481 -0.3657  1.1076  0.6447
 3215SOL     OW21277   0.526   0.759   6.572 -0.6960 -0.0886  0.4162
 3215SOL    HW121278   0.497   0.719   6.654 -4.1475  0.6179 -0.4752
 3215SOL    HW221279   0.556   0.684   6.520  1.3690  0.6838  0.4908
 3216SOL     OW21280   3.973   0.309   7.584  0.5101  1.0213  0.1823
 3216SOL    HW121281   4.034   0.378   7.608  1.5396  0.1039  0.2316
 3216SOL    HW221282   3.896   0.360   7.610 -1.3382 -1.7434  0.2668
 3217SOL     OW21283   1.045   4.718  13.284 -0.0832 -0.1956 -0.1366
 3217SOL    HW121284   1.026   4.636  13.330 -1.2683 -0.5929 -1.3301
 3217SOL    HW221285   1.000   0.038  13.345 -0.0225  0.7440 -0.9881
 3218SOL     OW21286   1.389   3.612   6.883  0.4186  0.2083  0.4943
 3218SOL    HW121287   1.397   3.707   6.897  0.1419  0.1401  1.1173
 3218SOL    HW221288   1.342   3.587   6.962  0.7800  0.1564  0.6900
 3219SOL     OW21289   1.549   0.158  15.854  0.3372  0.2826 -0.3541
 3219SOL    HW121290   1.637   0.195  15.850  0.7493 -0.6727 -0.1703
 3219SOL    HW221291   1.568   0.064  15.863  0.3301  0.1660 -1.5262
 3220SOL     OW21292   2.210   3.193   2.478 -0.2986 -0.3238 -0.0061
 3220SOL    HW121293   2.159   3.233   2.548 -1.2293 -2.2223  0.3986
 3220SOL    HW221294   2.263   3.127   2.523 -1.0400  0.9417  2.6802
 3221SOL     OW21295   2.784   0.569   7.383 -0.4732  0.3394 -0.2402
 3221SOL    HW121296   2.710   0.558   7.442  0.2882  0.2011  0.6923
 3221SOL    HW221297   2.840   0.499   7.416  1.9450  1.5944 -1.6582
 3222SOL     OW21298   4.155   1.918   1.911 -0.0884  0.3165  0.1133
 3222SOL    HW121299   4.175   1.893   1.821  1.8950  0.1662  0.5897
 3222SOL    HW221300   4.149   1.832   1.953  0.6612 -0.3445 -1.1139
 3223SOL     OW21301   4.544   2.721  11.186 -0.2901  0.0946  0.1226
 3223SOL    HW121302   4.466   2.755  11.231  0.0647  0.0498  0.7630
 3223SOL    HW221303   4.569   2.656  11.252 -0.1147 -0.2295 -0.2589
 3224SOL     OW21304   3.112   3.647   3.413 -0.0114 -0.3270  0.2772
 3224SOL    HW121305   3.046   3.586   3.448  0.1310 -1.0653 -0.7244
 3224SOL    HW221306   3.175   3.660   3.483  0.6108 -1.6894 -0.0274
 3225SOL     OW21307   1.643   4.152  14.624 -0.4422  0.0151  0.5134
 3225SOL    HW121308   1.670   4.071  14.667 -3.6242 -0.4675  1.5989
 3225SOL    HW221309   1.549   4.151  14.640 -1.0514 -0.6377 -3.1989
 3226SOL     OW21310   1.372   1.046   3.786  0.4048  0.2435 -0.4831
 3226SOL    HW121311   1.413   1.128   3.814  0.5742 -0.4705  1.3514
 3226SOL    HW221312   1.293   1.090   3.755  0.3104 -0.2281 -0.9200
 3227SOL     OW21313   1.016   3.289   7.742 -0.5461  0.2120 -0.0476
 3227SOL    HW121314   0.983   3.258   7.658  0.3215 -2.5013  0.6053
 3227SOL    HW221315   1.103   3.320   7.719 -0.0174 -1.7040 -0.5604
 3228SOL     OW21316   0.327   2.094   4.695  0.1340  0.3725  0.3229
 3228SOL    HW121317   0.281   2.021   4.737  3.1590 -1.3310  0.7120
 3228SOL    HW221318   0.346   2.049   4.613  0.8321  1.2624 -0.0108
 3229SOL     OW21319   0.479   3.541   3.648  0.2015  0.0281 -0.5161
 3229SOL    HW121320   0.463   3.624   3.603 -0.2347 -0.1165 -0.6231
 3229SOL    HW221321   0.407   3.544   3.711 -0.9309  2.2992 -1.9094
 3230SOL     OW21322   2.081   2.076   6.251  0.3106 -0.0226 -0.0082
 3230SOL    HW121323   2.026   2.005   6.220  0.8379 -0.6827  0.5662
 3230SOL    HW221324   2.025   2.152   6.271 -1.9074 -1.8860  0.8285
 3231SOL     OW21325   1.687   0.514   7.994  0.2563 -0.2240  0.2468
 3231SOL    HW121326   1.719   0.563   7.919 -0.9753 -2.9493 -2.0496
 3231SOL    HW221327   1.660   0.588   8.049  2.6323 -2.5485  4.5712
 3232SOL     OW21328   1.006   4.046   2.054  0.3955 -0.0733  0.6525
 3232SOL    HW121329   1.003   4.033   2.149 -0.2926 -1.7430  0.4029
 3232SOL    HW221330   0.917   4.075   2.034  0.0241 -0.6921  1.4152
 3233SOL     OW21331   4.229   4.712   3.628  0.1807 -0.2970 -0.2209
 3233SOL    HW121332   4.295   4.648   3.655  0.2968 -0.1084 -0.0554
 3233SOL    HW221333   4.238   0.037   3.700 -0.9329 -0.2857 -0.0925
 3234SOL     OW21334   1.162   2.745   7.140 -0.7078  0.0916  0.5855
 3234SOL    HW121335   1.161   2.752   7.236  2.8824  0.3737  0.6029
 3234SOL    HW221336   1.176   2.651   7.133 -1.7375  0.1153 -1.6998
 3235SOL     OW21337   4.720   3.668   4.124 -0.0680  0.4307 -0.1260
 3235SOL    HW121338   0.075   3.694   4.121  0.2597 -0.7598 -0.3098
 3235SOL    HW221339   4.696   3.718   4.046 -0.6302 -1.0995 -0.9193
 3236SOL     OW21340   3.572   1.218  11.055  0.1574 -0.4378  0.7138
 3236SOL    HW121341   3.660   1.181  11.058 -0.3674 -1.6252  1.4066
 3236SOL    HW221342   3.589   1.306  11.090  0.8331  0.2365 -1.3265
 3237SOL     OW21343   1.986   3.689   2.973  0.0664 -0.1661  0.2036
 3237SOL    HW121344   1.927   3.624   2.933  1.5528 -1.8665  0.7611
 3237SOL    HW221345   1.988   3.761   2.910  2.0925 -1.3550 -1.0886
 3238SOL     OW21346   2.125   0.113  17.028 -0.4558 -0.0728  0.2067
 3238SOL    HW121347   2.205   0.108  17.082  0.5670 -1.6148 -1.4495
 3238SOL    HW221348   2.067   0.168  17.080 -0.1921 -0.6122  1.0809
 3239SOL     OW21349   0.491   4.468  14.476  0.4599 -0.7212  0.8560
 3239SOL    HW121350   0.470   4.522  14.552  1.5150 -0.7411  1.1480
 3239SOL    HW221351   0.443   4.390  14.503 -0.5403 -0.3903  0.0399
 3240SOL     OW21352   2.893   0.492   5.246 -0.1869  0.1773 -0.5251
 3240SOL    HW121353   2.837   0.491   5.323 -0.6281 -0.5861 -0.8569
 3240SOL    HW221354   2.984   0.483   5.274 -0.2796  0.5306 -0.1194
 3241SOL     OW21355   3.635   1.679   6.040  0.1177  0.3782  0.1236
 3241SOL    HW121356   3.667   1.638   6.121  2.0221  2.3856  0.3582
 3241SOL    HW221357   3.669   1.767   6.056 -0.8553  0.5470  1.3592
 3242SOL     OW21358   0.461   3.489   2.197  0.0007  0.0803 -0.4895
 3242SOL    HW121359   0.476   3.580   2.223 -1.1230  0.8563 -2.5712
 3242SOL    HW221360   0.538   3.442   2.229 -0.3182 -0.2812 -0.2580
 3243SOL     OW21361   0.928   0.850  14.590  0.7914  0.0623 -0.3100
 3243SOL    HW121362   0.845   0.865  14.634  1.2423  1.8691 -0.0837
 3243SOL    HW221363   0.990   0.868  14.661 -0.1731  1.6699  0.1216
 3244SOL     OW21364   0.405   2.826   6.870 -0.1576 -0.1839 -0.0880
 3244SOL    HW121365   0.489   2.832   6.824  0.3092  3.3680  1.2949
 3244SOL    HW221366   0.431   2.875   6.948 -0.8807 -0.2613  0.2095
 3245SOL     OW21367   0.653   2.547   0.299  0.1385 -0.0263  0.0696
 3245SOL    HW121368   0.597   2.578   0.228  0.2962 -1.2895 -0.6092
 3245SOL    HW221369   0.650   2.456   0.272  0.2436  0.2751 -0.9675
 3246SOL     OW21370   0.147   2.830  11.799  0.0674  0.3567 -0.1654
 3246SOL    HW121371   0.200   2.752  11.784 -1.7209 -0.9797  0.5057
 3246SOL    HW221372   0.162   2.875  11.715 -0.0897  1.0529  0.1804
 3247SOL     OW21373   0.749   2.482  15.326 -0.3139  0.1430  0.4267
 3247SOL    HW121374   0.773   2.395  15.295 -2.1361 -0.2492  0.1068
 3247SOL    HW221375   0.800   2.475  15.407 -0.4066 -0.6760  0.4154
 3248SOL     OW21376   1.311   2.764   4.544 -0.3564  0.1504  0.0125
 3248SOL    HW121377   1.271   2.688   4.501 -2.1505  0.4187  1.2213
 3248SOL    HW221378   1.289   2.838   4.486  0.8796 -0.2695 -1.0150
 3249SOL     OW21379   0.027   2.938   2.966 -0.5893 -0.1376  0.0136
 3249SOL    HW121380   0.106   2.975   3.006  0.3951 -1.8133 -0.3805
 3249SOL    HW221381   0.048   2.845   2.952  1.0147  0.0933  0.9238
 3250SOL     OW21382   2.006   0.202   7.793  0.6689  0.2820 -0.2184
 3250SOL    HW121383   1.979   0.149   7.868 -0.1248  1.4567  0.3222
 3250SOL    HW221384   2.101   0.190   7.797  0.7435  0.2051 -2.0627
 3251SOL     OW21385   0.598   0.486   8.921 -0.4147 -0.2459  0.4615
 3251SOL    HW121386   0.560   0.500   9.008 -1.1010 -1.0495  0.2906
 3251SOL    HW221387   0.533   0.421   8.895  0.3989 -0.5898 -0.6892
 3252SOL     OW21388   1.844   4.728   3.917 -0.4031  0.1378 -0.1688
 3252SOL    HW121389   1.884   4.646   3.948 -0.9522  0.4131  1.3078
 3252SOL    HW221390   1.915   0.013   3.857 -0.8087 -0.2919 -0.8093
 3253SOL     OW21391   2.612   0.929   5.770 -0.1062 -0.3031  0.4055
 3253SOL    HW121392   2.652   1.014   5.754 -2.3597  0.8055  0.7230
 3253SOL    HW221393   2.576   0.900   5.687 -0.3839 -2.1527  1.1625
 3254SOL     OW21394   0.034   4.259   7.020  0.4653  0.4459  0.1268
 3254SOL    HW121395   4.679   4.283   7.028  0.4195 -0.3035  1.9240
 3254SOL    HW221396   0.080   4.324   6.967 -0.6274  0.6029 -0.6295
 3255SOL     OW21397   4.402   1.860   0.562  0.2269 -0.2689  0.1526
 3255SOL    HW121398   4.473   1.879   0.501  0.1029 -1.3770 -0.3386
 3255SOL    HW221399   4.424   1.908   0.641 -1.3857 -0.8635  0.9703
 3256SOL     OW21400   2.771   4.668   9.605  0.0614  0.0852  0.0440
 3256SOL    HW121401   2.800   4.587   9.648 -0.3748 -0.6365 -1.0252
 3256SOL    HW221402   2.811   0.006   9.649  0.8592 -0.2604 -0.0781
 3257SOL     OW21403   4.425   0.070   6.556 -0.2346 -0.2767 -0.3939
 3257SOL    HW121404   4.493   0.083   6.490 -0.7292  3.0770 -0.2885
 3257SOL    HW221405   4.472   0.076   6.639  0.7487  1.4950 -1.0852
 3258SOL     OW21406   1.548   4.192   4.221 -0.3194  0.2833 -0.1735
 3258SOL    HW121407   1.463   4.154   4.199 -0.3260  1.0046 -1.4079
 3258SOL    HW221408   1.551   4.148   4.306 -1.4827  0.2975 -0.1262
 3259SOL     OW21409   4.258   3.775   4.514 -0.3101 -0.3733 -0.3901
 3259SOL    HW121410   4.322   3.753   4.446  0.3826  0.3862  0.0214
 3259SOL    HW221411   4.260   3.871   4.507 -0.7580 -0.3390 -0.0300
 3260SOL     OW21412   2.563   2.390   9.142 -0.3220  0.5894  0.1505
 3260SOL    HW121413   2.649   2.348   9.141  0.3508  1.9475  0.8949
 3260SOL    HW221414   2.589   2.476   9.176 -0.4998  0.7723 -0.1739
 3261SOL     OW21415   4.097   3.862   6.867  0.0815 -0.0810 -0.6779
 3261SOL    HW121416   4.174   3.908   6.832  0.1525 -0.8272 -1.4994
 3261SOL    HW221417   4.038   3.937   6.873 -1.4001 -1.4586  1.6918
 3262SOL     OW21418   1.585   0.315   9.128 -0.4069  0.2940 -0.1390
 3262SOL    HW121419   1.552   0.293   9.215  1.9885 -1.3595  0.3902
 3262SOL    HW221420   1.558   0.240   9.074  1.7987 -0.6466  0.0372
 3263SOL     OW21421   0.201   3.351   0.568  0.4678  0.4241 -0.1649
 3263SOL    HW121422   0.118   3.399   0.564  0.4714  0.5321  1.0797
 3263SOL    HW221423   0.251   3.400   0.503  1.8538 -0.0408  0.5565
 3264SOL     OW21424   0.283   1.797   0.950 -0.0329 -0.1428 -0.2453
 3264SOL    HW121425   0.265   1.704   0.935  0.0654 -0.2244  0.1390
 3264SOL    HW221426   0.245   1.814   1.037  0.5542  1.2752 -0.2722
 3265SOL     OW21427   3.811   4.603   8.056 -0.0969 -0.0984  0.1079
 3265SOL    HW121428   3.829   4.522   8.007  1.1517 -0.8558  1.8231
 3265SOL    HW221429   3.874   4.668   8.026 -0.7543  0.1555 -0.7219
 3266SOL     OW21430   2.411   1.166   7.858  0.1196 -0.1735  0.3583
 3266SOL    HW121431   2.349   1.095   7.877 -2.6090  1.0271 -4.1990
 3266SOL    HW221432   2.416   1.199   7.948  0.9920 -0.3024  0.3593
 3267SOL     OW21433   0.002   2.815  14.070  0.2571 -0.0988  0.5181
 3267SOL    HW121434   4.654   2.778  14.089  1.4081 -1.7496  2.6052
 3267SOL    HW221435   4.731   2.894  14.124  3.6538  1.1463 -0.7253
 3268SOL     OW21436   2.546   4.638   0.122  0.0817  0.2266  0.4326
 3268SOL    HW121437   2.576   4.569   0.182  0.1797  0.5096  0.7084
 3268SOL    HW221438   2.585   4.719   0.153 -0.8505 -0.2871  2.9363
 3269SOL     OW21439   1.777   0.016  11.159  0.7338 -0.4142  0.2219
 3269SOL    HW121440   1.701   0.075  11.165 -0.3544 -1.4568 -2.9847
 3269SOL    HW221441   1.731   4.682  11.115  0.3422 -1.1473  1.8528
 3270SOL     OW21442   2.489   3.402  15.289 -0.1162  0.4972 -0.4902
 3270SOL    HW121443   2.479   3.462  15.215  2.0073 -1.0439 -2.0214
 3270SOL    HW221444   2.442   3.450  15.357  1.1304  0.4033  0.4349
 3271SOL     OW21445   3.310   3.300   8.004 -0.0258 -0.3747  0.6680
 3271SOL    HW121446   3.222   3.292   7.967 -0.1149  0.2616  0.7363
 3271SOL    HW221447   3.329   3.207   8.016 -1.3828 -0.7232  0.1275
 3272SOL     OW21448   2.893   4.729  15.542 -0.0183 -0.0090  0.1212
 3272SOL    HW121449   2.816   4.711  15.596 -1.1408  1.9127 -0.8392
 3272SOL    HW221450   2.959   4.699  15.604 -1.1063 -0.4215  1.0982
 3273SOL     OW21451   2.188   0.913   7.068  0.2968  0.0492  0.1987
 3273SOL    HW121452   2.187   0.855   6.993  1.8894 -1.0637  1.0537
 3273SOL    HW221453   2.152   0.992   7.027 -2.1041 -2.0717 -1.7264
 3274SOL     OW21454   3.204   4.642   8.434 -0.4816  0.2670 -0.4275
 3274SOL    HW121455   3.158   4.577   8.381 -0.6277  0.4747 -0.5563
 3274SOL    HW221456   3.142   4.629   8.506 -0.9708 -1.5457 -1.1810
 3275SOL     OW21457   1.498   1.436   5.420 -0.0422  0.2748 -0.2571
 3275SOL    HW121458   1.558   1.402   5.354 -0.5972  1.4061 -1.3200
 3275SOL    HW221459   1.470   1.353   5.460  3.0295 -0.5608  0.1761
 3276SOL     OW21460   1.620   2.822  17.273 -0.1752  0.7754 -0.5384
 3276SOL    HW121461   1.669   2.786  17.199  2.1336  1.0351  0.8591
 3276SOL    HW221462   1.549   2.758  17.286  1.6863 -1.2009 -0.0655
 3277SOL     OW21463   3.640   1.543   5.759 -0.4486 -0.0229 -0.0807
 3277SOL    HW121464   3.651   1.634   5.733 -2.8184 -0.1797 -1.6481
 3277SOL    HW221465   3.642   1.558   5.854  2.5039 -0.4548 -0.0633
 3278SOL     OW21466   3.144   1.147   7.136  0.2477 -0.5148  0.6614
 3278SOL    HW121467   3.129   1.071   7.081 -1.4526  1.9900 -2.3492
 3278SOL    HW221468   3.059   1.191   7.130  0.6261  0.1908  0.4293
 3279SOL     OW21469   0.441   1.152   6.956 -0.3523 -0.2314 -0.5470
 3279SOL    HW121470   0.373   1.203   7.001 -0.2473  0.1204 -0.7895
 3279SOL    HW221471   0.441   1.207   6.878 -0.4764 -0.0516 -0.4211
 3280SOL     OW21472   2.180   4.210   9.395  0.1960 -0.3980  0.0669
 3280SOL    HW121473   2.193   4.115   9.396 -0.2731 -0.4730 -0.8499
 3280SOL    HW221474   2.230   4.233   9.473 -1.2632 -0.3188  0.9769
 3281SOL     OW21475   3.427   2.957   8.040  0.2511 -0.4258 -0.1166
 3281SOL    HW121476   3.374   2.917   7.971 -2.2022  0.9397  0.9494
 3281SOL    HW221477   3.468   3.022   7.984 -3.7821  1.5093 -0.8859
 3282SOL     OW21478   2.850   2.047   5.607  0.2013 -0.4490 -0.5770
 3282SOL    HW121479   2.813   2.135   5.606  2.8154  0.6311 -0.4601
 3282SOL    HW221480   2.943   2.058   5.589 -0.0684  1.3943 -0.8348
 3283SOL     OW21481   3.358   1.432   7.185  0.1041  0.0426 -0.3609
 3283SOL    HW121482   3.437   1.395   7.224 -0.3138 -1.0781 -0.5797
 3283SOL    HW221483   3.367   1.408   7.093 -2.3245  2.6893 -1.3186
 3284SOL     OW21484   1.460   4.295   9.039  0.2530 -0.1333  0.4981
 3284SOL    HW121485   1.369   4.269   9.052 -0.0122  0.4639 -0.1877
 3284SOL    HW221486   1.471   4.273   8.947  0.4595 -0.5139  0.6099
 3285SOL     OW21487   1.883   1.157  15.833 -0.1752  0.4021 -0.3780
 3285SOL    HW121488   1.817   1.174  15.901 -0.7072 -0.8667 -0.5805
 3285SOL    HW221489   1.933   1.238  15.843 -0.9298  0.3950  3.6380
 3286SOL     OW21490   3.448   2.271  15.947  0.1534  0.0477  0.0854
 3286SOL    HW121491   3.418   2.242  16.033 -0.4911  0.8284  0.1252
 3286SOL    HW221492   3.382   2.230  15.891  0.1454  0.7157 -0.3993
 3287SOL     OW21493   4.662   2.257   1.550  0.1369 -0.2724  0.3050
 3287SOL    HW121494   4.681   2.164   1.566 -0.3511 -0.2510  1.0103
 3287SOL    HW221495   4.730   2.289   1.491  0.7509 -2.0748  0.0099
 3288SOL     OW21496   4.657   0.495   1.526  0.0202 -0.0463  0.4395
 3288SOL    HW121497   4.593   0.454   1.468  0.4275  0.3143 -0.2541
 3288SOL    HW221498   4.615   0.580   1.513 -0.2093  0.1136  2.1566
 3289SOL     OW21499   1.389   1.852   5.320  0.0279 -0.7247  0.1715
 3289SOL    HW121500   1.354   1.778   5.369 -0.7491  1.0986  2.4018
 3289SOL    HW221501   1.474   1.815   5.297  0.6670  0.1667  1.1052
 3290SOL     OW21502   1.116   0.305   6.677 -0.1004 -0.0753 -0.4602
 3290SOL    HW121503   1.047   0.241   6.694 -0.7086  0.8724  0.6634
 3290SOL    HW221504   1.160   0.301   6.763  1.6807  0.7701 -1.3209
 3291SOL     OW21505   1.998   3.442  14.806 -0.6111 -0.1415  0.1289
 3291SOL    HW121506   2.017   3.435  14.899  1.4699  1.5733 -0.1775
 3291SOL    HW221507   1.902   3.443  14.804 -0.6078 -0.2750 -0.2098
 3292SOL     OW21508   3.750   3.603   6.727  0.0917 -0.3043  0.5151
 3292SOL    HW121509   3.743   3.622   6.820 -0.8175 -1.4236  0.6727
 3292SOL    HW221510   3.705   3.519   6.721  1.4656 -1.0298  0.3827
 3293SOL     OW21511   2.915   4.095  17.252  0.3027  0.4866  0.2579
 3293SOL    HW121512   2.823   4.119  17.248  0.0591 -0.5767 -0.5334
 3293SOL    HW221513   2.914   4.009  17.210 -0.7667  0.7614 -0.2711
 3294SOL     OW21514   2.070   0.431   5.621 -0.0859  0.0818  0.5778
 3294SOL    HW121515   2.013   0.358   5.597 -1.4387  1.1298  0.6156
 3294SOL    HW221516   2.095   0.418   5.712 -1.4897 -0.6136  0.8591
 3295SOL     OW21517   0.564   0.825   5.483  0.5646 -0.2748 -0.6186
 3295SOL    HW121518   0.563   0.921   5.476 -1.6611 -0.1010  1.9877
 3295SOL    HW221519   0.509   0.799   5.410  1.1389 -0.5527 -0.9507
 3296SOL     OW21520   0.486   1.072   0.982  0.3791 -0.2052  0.7037
 3296SOL    HW121521   0.560   1.117   0.942  0.9650 -2.9120 -1.2139
 3296SOL    HW221522   0.427   1.147   0.984  0.4972 -0.1291  1.6495
 3297SOL     OW21523   0.821   2.844   7.157 -0.3764  0.6298 -0.5348
 3297SOL    HW121524   0.886   2.864   7.089 -0.1218 -0.5271 -0.6207
 3297SOL    HW221525   0.758   2.792   7.108  1.8071 -2.4645 -0.0298
 3298SOL     OW21526   2.116   4.088   2.664  0.5871 -0.3264 -0.8160
 3298SOL    HW121527   2.062   4.102   2.586 -2.0640 -0.4623  0.9843
 3298SOL    HW221528   2.160   4.173   2.659  1.0782 -0.4771  0.8424
 3299SOL     OW21529   4.732   4.614   2.211  0.5171 -0.0800 -0.3616
 3299SOL    HW121530   4.678   4.609   2.132 -1.0813  2.1229  0.5863
 3299SOL    HW221531   0.039   4.697   2.196 -0.0109  0.3719  0.5542
 3300SOL     OW21532   2.234   3.232  16.680 -0.0607  0.4405 -0.1403
 3300SOL    HW121533   2.229   3.137  16.682 -0.3580  0.4220 -2.1277
 3300SOL    HW221534   2.262   3.247  16.589 -0.8649 -0.3890 -0.5173
 3301SOL     OW21535   2.874   0.573  12.156  0.4034  0.2181  0.1914
 3301SOL    HW121536   2.829   0.503  12.109 -1.0553 -0.5894  2.7945
 3301SOL    HW221537   2.819   0.583  12.234  0.1752  1.6448 -0.1556
 3302SOL     OW21538   4.342   4.048   6.239 -0.1200  0.3264  0.6020
 3302SOL    HW121539   4.361   4.136   6.207  1.4605 -0.7808 -1.5595
 3302SOL    HW221540   4.252   4.030   6.212  0.5373 -0.7805 -0.8774
 3303SOL     OW21541   0.875   4.618  15.438 -0.1723 -0.4499 -0.5126
 3303SOL    HW121542   0.963   4.655  15.442 -0.3920 -0.4023  3.5606
 3303SOL    HW221543   0.886   4.527  15.465 -2.9024 -1.6802 -3.4134
 3304SOL     OW21544   2.951   1.260  14.865  0.5523 -0.0553 -1.0651
 3304SOL    HW121545   2.992   1.198  14.804 -0.9123 -1.9647 -0.1126
 3304SOL    HW221546   2.862   1.270  14.832  0.1738  0.8059  0.2537
 3305SOL     OW21547   1.185   4.576   8.079  0.0256 -0.0835  0.1085
 3305SOL    HW121548   1.236   4.657   8.086 -1.2820  0.8021 -0.5191
 3305SOL    HW221549   1.209   4.530   8.159 -0.2244  0.8006  0.6983
 3306SOL     OW21550   4.149   1.621   7.554  0.2463  0.7233 -0.1367
 3306SOL    HW121551   4.214   1.669   7.503  2.1080 -1.8876 -0.1886
 3306SOL    HW221552   4.174   1.634   7.646  0.5763 -1.0388  0.0157
 3307SOL     OW21553   0.569   2.877  14.383  0.1811 -0.5248  0.7319
 3307SOL    HW121554   0.653   2.832  14.369  0.1997 -0.5581  0.9563
 3307SOL    HW221555   0.517   2.822  14.325 -1.1315  0.7902  0.6604
 3308SOL     OW21556   0.183   2.684   2.812  0.3718 -0.1022  0.1775
 3308SOL    HW121557   0.267   2.694   2.857  0.0352  1.9015  0.3686
 3308SOL    HW221558   0.165   2.599   2.851  0.6420 -0.7273 -1.0505
 3309SOL     OW21559   0.326   0.257   6.088  0.0430  0.0316  0.2456
 3309SOL    HW121560   0.349   0.180   6.035 -0.2772  0.4814 -0.5437
 3309SOL    HW221561   0.263   0.303   6.033  1.8097  1.2555 -0.7173
 3310SOL     OW21562   0.090   0.747   6.879  0.1014  0.1863 -0.7807
 3310SOL    HW121563   0.037   0.825   6.862 -0.3337  0.3075  1.1563
 3310SOL    HW221564   0.031   0.678   6.908 -0.7437  1.7339  1.1676
 3311SOL     OW21565   3.591   1.743   3.557 -0.0778  0.4158 -0.3269
 3311SOL    HW121566   3.503   1.752   3.522 -1.5257 -2.3966  2.5735
 3311SOL    HW221567   3.651   1.743   3.482  1.5436 -1.0962  0.9431
 3312SOL     OW21568   4.533   2.255   5.322  0.4592 -0.3924  0.6580
 3312SOL    HW121569   4.503   2.346   5.331 -0.9897 -0.8423  0.3977
 3312SOL    HW221570   4.603   2.259   5.387 -0.9789  0.1255  2.1890
 3313SOL     OW21571   4.070   4.540   1.508  0.0880 -0.2844 -0.1431
 3313SOL    HW121572   3.991   4.593   1.514 -0.1774 -0.5758 -1.0727
 3313SOL    HW221573   4.085   4.530   1.414 -2.9749  1.9251 -0.8686
 3314SOL     OW21574   0.063   3.590   2.956 -0.3930  0.1351  0.5494
 3314SOL    HW121575   0.012   3.671   2.965  1.0249  1.3812 -2.9807
 3314SOL    HW221576   0.006   3.521   2.991 -0.0773 -0.2404  0.3260
 3315SOL     OW21577   0.597   0.887   8.746  0.3984  0.2804  0.6773
 3315SOL    HW121578   0.646   0.879   8.665 -1.9084 -0.1512 -0.6714
 3315SOL    HW221579   0.524   0.827   8.730  0.4704  0.3435  0.1057
 3316SOL     OW21580   0.007   1.652   3.085 -0.2100 -0.0005 -0.5006
 3316SOL    HW121581   4.667   1.612   3.125  0.2161  1.0558  1.3916
 3316SOL    HW221582   0.046   1.584   3.030 -1.2498  1.7712 -3.4007
 3317SOL     OW21583   1.549   2.231   9.029  0.2594  0.5278 -0.4383
 3317SOL    HW121584   1.535   2.173   9.105 -1.1439  0.4585 -0.7446
 3317SOL    HW221585   1.641   2.254   9.035  0.6052 -0.4344 -2.2370
 3318SOL     OW21586   1.271   3.347   1.863 -0.3481  0.0416  0.3332
 3318SOL    HW121587   1.357   3.309   1.844  0.3327  1.0087  1.4514
 3318SOL    HW221588   1.279   3.437   1.832  2.8523 -1.4121 -3.0977
 3319SOL     OW21589   0.613   2.545  13.595 -0.1909 -0.1623 -0.1830
 3319SOL    HW121590   0.663   2.621  13.626  0.9965 -0.3227 -1.7694
 3319SOL    HW221591   0.674   2.474  13.611  1.4642  0.9897 -1.4413
 3320SOL     OW21592   2.491   0.282  10.798 -0.0102 -0.2501  0.7275
 3320SOL    HW121593   2.455   0.356  10.848 -1.7425 -1.3299  1.0676
 3320SOL    HW221594   2.569   0.324  10.763 -0.5137 -0.0735 -0.1979
 3321SOL     OW21595   3.821   0.522   3.513  0.0546  0.4167 -0.0531
 3321SOL    HW121596   3.758   0.565   3.570  3.4100  0.7774  3.4270
 3321SOL    HW221597   3.775   0.446   3.477  2.4012 -0.9527 -0.1377
 3322SOL     OW21598   1.479   1.745   1.459  0.2366  0.2819 -0.0323
 3322SOL    HW121599   1.509   1.659   1.428  1.1805  0.3540  0.6651
 3322SOL    HW221600   1.424   1.770   1.385  0.6249 -1.0197 -0.7616
 3323SOL     OW21601   1.668   1.123   4.119  0.3089 -0.2671  0.0784
 3323SOL    HW121602   1.587   1.146   4.165  0.9981  1.0840  0.6093
 3323SOL    HW221603   1.643   1.031   4.106 -1.3623 -0.0358  1.8316
 3324SOL     OW21604   4.180   2.824   5.419  0.3902 -0.6761 -0.3035
 3324SOL    HW121605   4.091   2.810   5.451  1.0611 -1.5133  1.1768
 3324SOL    HW221606   4.242   2.772   5.470  0.1155 -1.3368 -0.6444
 3325SOL     OW21607   0.536   4.698   4.977  0.7002 -0.0742 -0.0476
 3325SOL    HW121608   0.554   4.611   4.941  2.1297 -1.2829  3.6764
 3325SOL    HW221609   0.626   4.731   4.970  1.0954 -1.5093 -2.0401
 3326SOL     OW21610   2.310   0.364   9.048 -0.0878 -0.0460  0.5929
 3326SOL    HW121611   2.349   0.377   8.961 -2.5312  0.2781 -0.4410
 3326SOL    HW221612   2.332   0.444   9.096 -3.4755  1.2430 -0.0310
 3327SOL     OW21613   3.854   2.222   9.957  0.3623  0.0682 -0.2368
 3327SOL    HW121614   3.819   2.268   9.881  0.6024  1.2844  0.3977
 3327SOL    HW221615   3.898   2.148   9.915  1.8959  0.7375  0.2062
 3328SOL     OW21616   3.107   2.071   9.370  0.0716 -0.4198  0.2813
 3328SOL    HW121617   3.085   2.164   9.367  0.0601 -0.4535 -0.7113
 3328SOL    HW221618   3.183   2.072   9.311 -0.0850 -1.0854  0.0728
 3329SOL     OW21619   3.996   1.814  16.428  0.8725 -0.6178 -0.1844
 3329SOL    HW121620   4.024   1.903  16.407 -0.8953 -0.0748 -0.2606
 3329SOL    HW221621   3.963   1.835  16.515 -0.8066  0.5064 -1.0878
 3330SOL     OW21622   1.297   1.139   6.845  0.0189 -0.3580 -0.4992
 3330SOL    HW121623   1.291   1.069   6.779 -0.5530  0.0337 -0.8629
 3330SOL    HW221624   1.212   1.179   6.827 -0.3782 -0.8950  0.1599
 3331SOL     OW21625   1.512   0.157  17.273 -0.0834  0.0092 -0.4159
 3331SOL    HW121626   1.566   0.124  17.201 -0.1642  1.7680 -1.2699
 3331SOL    HW221627   1.425   0.137  17.239  0.0617 -0.9469 -0.2303
 3332SOL     OW21628   1.831   1.085   4.353  0.4046 -0.4029 -0.8546
 3332SOL    HW121629   1.740   1.084   4.384  0.0303 -1.3465 -2.0021
 3332SOL    HW221630   1.811   1.121   4.266  1.1362 -2.2465 -1.7826
 3333SOL     OW21631   3.875   0.723   8.048  0.0149  0.2264  0.4553
 3333SOL    HW121632   3.849   0.709   8.140  0.0211  1.1341  0.5950
 3333SOL    HW221633   3.830   0.646   8.012  1.1659 -0.6976  0.9984
 3334SOL     OW21634   1.654   1.098  12.711 -0.1207 -0.7160 -0.0478
 3334SOL    HW121635   1.645   1.164  12.642 -1.2778 -1.8276 -0.9549
 3334SOL    HW221636   1.586   1.130  12.771  0.2660 -0.1041  0.0681
 3335SOL     OW21637   2.317   3.988   6.825  1.0504 -0.8169 -0.3418
 3335SOL    HW121638   2.285   3.927   6.891  0.3444 -0.1666 -0.0856
 3335SOL    HW221639   2.242   4.001   6.767  0.1170  0.7432  1.2374
 3336SOL     OW21640   1.150   0.235  10.243  0.3261  0.1053 -0.0375
 3336SOL    HW121641   1.171   0.328  10.251 -0.8118  0.2201  1.4793
 3336SOL    HW221642   1.114   0.231  10.154 -0.0890 -3.3950  0.2673
 3337SOL     OW21643   4.703   2.654   6.495 -0.2044 -0.1116 -0.7728
 3337SOL    HW121644   0.054   2.687   6.508 -0.0295 -0.8903  0.0089
 3337SOL    HW221645   4.649   2.729   6.519 -1.1769 -0.8383 -0.7120
 3338SOL     OW21646   4.232   4.624   7.577  1.1039  0.4603  0.2853
 3338SOL    HW121647   4.145   4.647   7.545  2.0456 -0.4942 -2.9728
 3338SOL    HW221648   4.287   4.623   7.499 -0.2097 -3.0212 -0.6022
 3339SOL     OW21649   1.148   1.797  16.038 -0.3232 -0.0916  0.2732
 3339SOL    HW121650   1.235   1.804  16.079  0.2042 -2.7334 -0.3847
 3339SOL    HW221651   1.120   1.886  16.019 -0.2265  0.3069  1.9849
 3340SOL     OW21652   1.358   2.751   9.613  0.3013 -0.6285  0.2677
 3340SOL    HW121653   1.273   2.753   9.657  0.1790 -0.0809  0.0046
 3340SOL    HW221654   1.409   2.800   9.677  0.3932 -0.3256 -0.0346
 3341SOL     OW21655   2.243   0.463   4.113  0.3770 -0.0845  0.4751
 3341SOL    HW121656   2.199   0.498   4.191 -0.3209 -3.0888  1.4525
 3341SOL    HW221657   2.327   0.443   4.154 -0.1429 -0.8239  1.1911
 3342SOL     OW21658   4.532   2.743   2.629 -0.8476  0.1634 -0.0367
 3342SOL    HW121659   4.627   2.748   2.619 -0.7692 -0.0630  0.6075
 3342SOL    HW221660   4.525   2.654   2.664  0.3697  0.4509  0.9289
 3343SOL     OW21661   3.685   2.310  10.181  0.1335 -0.8449  0.0247
 3343SOL    HW121662   3.742   2.234  10.166  0.0462 -0.6339 -1.3593
 3343SOL    HW221663   3.646   2.315  10.094 -0.2488 -2.2548  0.1103
 3344SOL     OW21664   2.455   0.154   4.690 -0.1407 -0.3726  0.0666
 3344SOL    HW121665   2.490   0.125   4.774  0.1359 -0.2417 -0.0045
 3344SOL    HW221666   2.412   0.075   4.657 -3.0643  0.3298  2.2741
 3345SOL     OW21667   2.569   4.656   3.705 -0.8399 -0.1412  0.5434
 3345SOL    HW121668   2.504   4.670   3.637 -0.0474  1.5842  0.1516
 3345SOL    HW221669   2.585   0.008   3.735 -0.9051  0.6623 -1.8160
 3346SOL     OW21670   1.852   1.827   6.919  0.2022  0.7926 -0.2122
 3346SOL    HW121671   1.868   1.761   6.987 -0.5013 -0.2670 -1.0782
 3346SOL    HW221672   1.905   1.904   6.942  1.5351  0.6141 -2.7152
 3347SOL     OW21673   0.457   0.616   9.608  0.0611 -0.0122  0.4507
 3347SOL    HW121674   0.548   0.642   9.625  0.0546 -0.2156  0.8016
 3347SOL    HW221675   0.455   0.521   9.622 -0.3997 -0.1457 -0.6049
 3348SOL     OW21676   3.192   1.664   6.244 -0.2770 -0.2454  0.4484
 3348SOL    HW121677   3.170   1.578   6.281  2.1334 -0.0482  2.3084
 3348SOL    HW221678   3.210   1.644   6.152 -1.5208  2.6326 -0.4174
 3349SOL     OW21679   0.097   3.459  12.348 -0.6138 -0.2062  0.0600
 3349SOL    HW121680   0.019   3.505  12.318 -0.1161  1.8184  1.9594
 3349SOL    HW221681   0.092   3.457  12.443  0.5529 -0.1305  0.1220
 3350SOL     OW21682   0.854   0.841   4.655  0.1336  0.4172  0.4283
 3350SOL    HW121683   0.875   0.930   4.685 -2.0398  0.3728  2.0994
 3350SOL    HW221684   0.903   0.840   4.573 -0.2352  0.3177  0.2078
 3351SOL     OW21685   3.943   4.434  15.392 -0.2496  0.2514 -0.0654
 3351SOL    HW121686   3.942   4.344  15.359 -2.3004 -0.3404  1.6037
 3351SOL    HW221687   3.968   4.476  15.310  1.2673 -2.0855 -0.8008
 3352SOL     OW21688   2.342   0.182   4.254 -0.2325 -0.2481 -0.5018
 3352SOL    HW121689   2.281   0.132   4.200  0.8577  1.2208 -3.1215
 3352SOL    HW221690   2.404   0.122   4.297  0.2982  1.5965  1.3313
 3353SOL     OW21691   2.126   2.980   3.662  0.7598 -0.3531 -0.6445
 3353SOL    HW121692   2.178   3.055   3.691 -0.2284  0.2078 -0.3009
 3353SOL    HW221693   2.078   2.962   3.743 -0.0051  1.4396 -0.6973
 3354SOL     OW21694   2.008   2.420   7.305  0.1335 -0.1749  0.4439
 3354SOL    HW121695   2.043   2.382   7.224 -1.6735  0.8099 -0.7881
 3354SOL    HW221696   2.033   2.511   7.290 -0.6483 -0.2681 -1.3929
 3355SOL     OW21697   3.436   2.251  13.728  0.6716  0.4595 -0.2329
 3355SOL    HW121698   3.371   2.319  13.711 -0.1798 -0.6624 -1.4213
 3355SOL    HW221699   3.448   2.265  13.822 -0.1378  0.5668 -0.1495
 3356SOL     OW21700   1.194   2.506   4.641  0.3945 -0.1512  0.4342
 3356SOL    HW121701   1.110   2.460   4.637  1.1206 -1.3763 -0.6359
 3356SOL    HW221702   1.181   2.538   4.731  1.1665  3.7261 -0.8893
 3357SOL     OW21703   2.208   4.335   2.041 -0.0832 -0.1959  0.3968
 3357SOL    HW121704   2.259   4.258   2.016  0.4129  0.1851  0.2332
 3357SOL    HW221705   2.245   4.413   2.000  0.9422 -0.9653 -0.1264
 3358SOL     OW21706   2.904   0.435   6.472 -0.5137 -0.2854 -0.9054
 3358SOL    HW121707   2.895   0.479   6.557  1.3651 -1.8434  0.1082
 3358SOL    HW221708   2.853   0.356   6.490 -1.1646 -0.1221 -2.0756
 3359SOL     OW21709   0.896   0.349   4.987  0.5596  0.3245 -0.6572
 3359SOL    HW121710   0.926   0.422   4.934 -1.1788  0.3605 -1.5682
 3359SOL    HW221711   0.875   0.392   5.070  0.4693 -1.0439  0.0476
 3360SOL     OW21712   3.256   2.396  17.640  0.1984 -0.2106  0.0772
 3360SOL    HW121713   3.186   2.461  17.637 -1.8565 -2.4892 -1.4202
 3360SOL    HW221714   3.287   2.394  17.549 -0.0078 -0.6860  0.0134
 3361SOL     OW21715   2.481   4.078   5.674  0.7244 -0.1554 -0.2030
 3361SOL    HW121716   2.511   4.159   5.633 -0.2654 -0.1175 -0.8417
 3361SOL    HW221717   2.502   4.089   5.766 -1.9930  2.3096  0.1324
 3362SOL     OW21718   4.608   4.224   3.409  0.2428 -0.5796 -0.1743
 3362SOL    HW121719   4.622   4.130   3.418  3.1675 -0.1032  0.3837
 3362SOL    HW221720   4.513   4.232   3.411  0.3812  0.7288  0.9073
 3363SOL     OW21721   1.731   3.263   5.467 -0.1596 -0.1846 -0.1466
 3363SOL    HW121722   1.668   3.196   5.495 -1.4889  1.1167 -0.0480
 3363SOL    HW221723   1.676   3.330   5.428 -1.2622 -0.1706  1.4307
 3364SOL     OW21724   2.533   0.029   3.253 -0.2403 -0.8315 -0.0919
 3364SOL    HW121725   2.597   4.732   3.192  1.3574  1.0462  0.5233
 3364SOL    HW221726   2.575   0.113   3.269 -2.7551  0.1732  1.2516
 3365SOL     OW21727   4.042   2.458   4.742  0.5140  0.0182 -1.0510
 3365SOL    HW121728   4.008   2.541   4.710  1.0599  1.2593  1.6312
 3365SOL    HW221729   4.136   2.475   4.739  0.4405  0.9620  2.6311
 3366SOL     OW21730   3.338   4.572  11.648 -0.0644  0.2858 -0.4685
 3366SOL    HW121731   3.363   4.598  11.737 -2.0634 -1.2258  0.5135
 3366SOL    HW221732   3.290   4.491  11.663  0.1388 -0.1553 -2.2386
 3367SOL     OW21733   0.062   4.694   5.192  0.7640 -0.4017 -0.2751
 3367SOL    HW121734   0.102   4.687   5.106 -3.3327 -0.2202 -2.1797
 3367SOL    HW221735   4.723   0.011   5.178  1.7017  0.7910 -0.7273
 3368SOL     OW21736   4.021   3.931  15.092  0.0029  0.0745 -0.2274
 3368SOL    HW121737   4.034   3.911  15.000  1.3918 -1.7240  0.3776
 3368SOL    HW221738   3.938   3.888  15.115 -0.3915 -0.6054 -2.8750
 3369SOL     OW21739   2.580   3.152   6.590 -0.2916 -0.2652  0.3783
 3369SOL    HW121740   2.595   3.242   6.561 -0.9447 -0.8367 -1.7446
 3369SOL    HW221741   2.630   3.162   6.671  1.3718 -1.0509 -0.5439
 3370SOL     OW21742   3.217   1.501   6.635 -0.1360 -0.0879  0.5776
 3370SOL    HW121743   3.137   1.464   6.595  0.4713 -0.3667 -0.3783
 3370SOL    HW221744   3.200   1.595   6.626 -2.1721 -0.6225 -1.4306
 3371SOL     OW21745   4.476   2.367   8.290  0.4860  0.0850 -0.1380
 3371SOL    HW121746   4.510   2.407   8.370  0.1973  1.3947 -0.6757
 3371SOL    HW221747   4.442   2.443   8.243  1.9333  1.4766  1.0744
 3372SOL     OW21748   1.289   3.017   7.801 -0.3861  0.1309 -0.4205
 3372SOL    HW121749   1.311   2.925   7.783  0.0524 -0.2080  1.8352
 3372SOL    HW221750   1.375   3.056   7.815  0.2990 -1.3621 -0.4381
 3373SOL     OW21751   0.268   2.223   5.708  0.5285  0.0900 -0.0516
 3373SOL    HW121752   0.305   2.250   5.624  2.4844 -1.6695  0.2381
 3373SOL    HW221753   0.176   2.214   5.683  0.1551  0.4939  1.2065
 3374SOL     OW21754   4.029   3.136   2.371 -0.3104  0.3667 -0.3382
 3374SOL    HW121755   4.091   3.067   2.392  1.2948  0.8855 -3.3154
 3374SOL    HW221756   3.968   3.126   2.443 -0.2594 -0.6480 -0.4414
 3375SOL     OW21757   3.996   3.538  11.539  0.3549  0.4754 -0.6484
 3375SOL    HW121758   4.064   3.482  11.500 -1.0501  0.5311 -3.1793
 3375SOL    HW221759   3.962   3.480  11.607  2.4265 -0.5637 -0.4652
 3376SOL     OW21760   4.031   4.447   1.244  0.0215 -0.2064 -0.2863
 3376SOL    HW121761   3.973   4.380   1.281  2.5530 -1.7574  0.8837
 3376SOL    HW221762   4.017   4.435   1.150 -1.6187  3.0500 -0.4476
 3377SOL     OW21763   2.691   4.186  14.225  0.0409 -0.1529 -0.5281
 3377SOL    HW121764   2.768   4.233  14.194  0.8109 -0.1788  1.3343
 3377SOL    HW221765   2.659   4.137  14.150 -1.4875 -1.6293  1.0620
 3378SOL     OW21766   2.660   0.299   7.300  0.4047 -0.4207  0.0833
 3378SOL    HW121767   2.680   0.326   7.389  0.6828  3.6996 -1.2265
 3378SOL    HW221768   2.622   0.212   7.309 -0.8962  0.3889  2.3918
 3379SOL     OW21769   2.490   0.385   1.795  0.2339 -0.2032 -0.8813
 3379SOL    HW121770   2.566   0.405   1.850 -0.0348  2.2129 -1.3956
 3379SOL    HW221771   2.545   0.371   1.717 -0.0363 -1.1717 -0.8980
 3380SOL     OW21772   0.957   2.804   0.774  0.6072  0.0548 -0.0725
 3380SOL    HW121773   0.942   2.785   0.867 -1.6355 -1.0181 -0.6685
 3380SOL    HW221774   1.053   2.800   0.770  0.5733 -2.7357  1.8668
 3381SOL     OW21775   3.566   1.783   2.595 -0.3341  0.4498 -0.0585
 3381SOL    HW121776   3.489   1.839   2.608 -1.3810 -1.1609  0.7918
 3381SOL    HW221777   3.575   1.751   2.685  0.0105 -3.1364 -1.3809
 3382SOL     OW21778   1.708   2.013  17.576  0.0995  0.5223  0.0467
 3382SOL    HW121779   1.709   2.076  17.648 -3.2016 -1.1667  1.6233
 3382SOL    HW221780   1.750   2.072  17.514 -1.6537  1.1063 -0.5974
 3383SOL     OW21781   2.471   3.414  11.787  0.0800  0.3821  0.1877
 3383SOL    HW121782   2.505   3.406  11.698  2.5700  2.3274  0.9754
 3383SOL    HW221783   2.526   3.353  11.834 -1.9854 -1.1760  0.5922
 3384SOL     OW21784   2.821   1.350   2.103 -0.2485  0.5162  0.1029
 3384SOL    HW121785   2.797   1.411   2.173  2.1385 -0.8627  2.1185
 3384SOL    HW221786   2.879   1.292   2.152 -2.9040 -0.6462  1.9367
 3385SOL     OW21787   4.114   0.641   5.152 -0.6887 -0.1518  0.1411
 3385SOL    HW121788   4.167   0.563   5.135 -1.3317 -0.8050  1.0806
 3385SOL    HW221789   4.074   0.641   5.065 -1.8487 -3.0357  0.6834
 3386SOL     OW21790   3.944   4.369   5.755 -0.0610  0.2061 -0.4216
 3386SOL    HW121791   4.006   4.403   5.819 -3.0206 -0.2613  2.6765
 3386SOL    HW221792   3.915   4.446   5.707 -0.3501 -0.5710 -1.4934
 3387SOL     OW21793   0.908   3.354   3.892 -0.1816 -0.3588  0.3190
 3387SOL    HW121794   0.862   3.438   3.895 -0.1519 -0.2625 -2.2957
 3387SOL    HW221795   0.973   3.368   3.823 -0.4181 -0.4996  0.0649
 3388SOL     OW21796   1.587   0.150  10.574  0.8105  0.1503 -0.4597
 3388SOL    HW121797   1.611   0.087  10.506 -0.6897 -0.1866 -0.6738
 3388SOL    HW221798   1.569   0.227  10.520 -0.0606  0.0481 -0.3204
 3389SOL     OW21799   0.409   2.386   8.049  0.3982  0.0713  0.4292
 3389SOL    HW121800   0.443   2.302   8.018 -0.0689  1.1143 -2.8717
 3389SOL    HW221801   0.364   2.426   7.975  1.6826 -1.7073 -1.2952
 3390SOL     OW21802   0.437   0.649   0.724  0.0386 -0.4464 -0.6512
 3390SOL    HW121803   0.503   0.717   0.712 -1.0683  0.2748 -2.5779
 3390SOL    HW221804   0.392   0.681   0.802 -0.7172 -2.3775 -0.2971
 3391SOL     OW21805   3.784   1.326   4.981 -0.2367  0.0578 -0.7197
 3391SOL    HW121806   3.730   1.352   5.056  2.1194  0.7370  0.7059
 3391SOL    HW221807   3.771   1.231   4.988 -0.4460  0.0636 -1.0127
 3392SOL     OW21808   3.258   3.423  14.222 -0.1140  0.6053 -0.1956
 3392SOL    HW121809   3.348   3.399  14.197 -0.3144 -1.3098  0.9124
 3392SOL    HW221810   3.262   3.519  14.220  0.3510  0.6201  1.1259
 3393SOL     OW21811   1.396   0.075  17.486 -0.1975 -0.4916 -0.0537
 3393SOL    HW121812   1.441   4.733  17.459 -0.7535 -0.5761 -0.7563
 3393SOL    HW221813   1.434   0.121  17.412 -0.2247  0.2519  0.3997
 3394SOL     OW21814   0.162   2.458   6.090 -0.5798 -0.1634 -0.0474
 3394SOL    HW121815   0.086   2.505   6.124  0.0257 -0.2162  1.3866
 3394SOL    HW221816   0.214   2.451   6.170 -0.4838  1.8808  0.0641
 3395SOL     OW21817   2.536   2.685  14.813  0.7195  0.7626  0.5604
 3395SOL    HW121818   2.587   2.764  14.795  1.5632 -0.0908 -0.7247
 3395SOL    HW221819   2.479   2.676  14.737  1.6510  1.4396 -0.2080
 3396SOL     OW21820   3.148   0.434  16.773 -0.0703 -0.2661  0.2168
 3396SOL    HW121821   3.055   0.433  16.753  0.4840  0.4053 -2.4400
 3396SOL    HW221822   3.155   0.428  16.868  3.3678  0.2967  0.0228
 3397SOL     OW21823   2.453   0.902   5.344  0.2305  0.3903  0.4151
 3397SOL    HW121824   2.404   0.981   5.364  2.1423  1.7982 -0.4257
 3397SOL    HW221825   2.484   0.877   5.431  0.7771 -0.7866 -0.1158
 3398SOL     OW21826   2.292   0.663  17.021 -0.0042 -0.4321  0.4363
 3398SOL    HW121827   2.281   0.612  17.101  0.2570  1.5721  1.7725
 3398SOL    HW221828   2.237   0.740  17.035  2.3256  1.5462 -1.1049
 3399SOL     OW21829   1.404   0.427   7.889 -0.3977 -0.1127  0.2236
 3399SOL    HW121830   1.482   0.448   7.940 -0.7136  0.1419  0.6074
 3399SOL    HW221831   1.379   0.509   7.848 -1.9157 -0.1865  0.9995
 3400SOL     OW21832   3.937   2.998   7.698  0.1660  0.3021 -0.4530
 3400SOL    HW121833   4.020   2.963   7.727 -1.2397 -2.1891  0.5549
 3400SOL    HW221834   3.920   3.023   7.789  0.9608  1.7828 -0.7025
 3401SOL     OW21835   3.263   0.348  17.331  0.5328 -0.3887 -0.2113
 3401SOL    HW121836   3.270   0.279  17.397  1.7158 -1.4183 -1.4076
 3401SOL    HW221837   3.177   0.380  17.357  0.8720  0.9496 -0.7089
 3402SOL     OW21838   0.698   1.123   5.473  0.2557  0.1993  0.1934
 3402SOL    HW121839   0.631   1.191   5.481  1.4406  0.9884  3.4465
 3402SOL    HW221840   0.683   1.093   5.383 -1.3432 -0.1258  0.5735
 3403SOL     OW21841   3.869   2.606   5.380 -0.2654 -0.0181  0.1081
 3403SOL    HW121842   3.893   2.543   5.448 -0.3974  0.3329  0.4795
 3403SOL    HW221843   3.928   2.578   5.310 -0.4119  1.9252 -0.7843
 3404SOL     OW21844   1.358   3.386   3.333 -0.0550 -0.5079  0.2397
 3404SOL    HW121845   1.326   3.440   3.260  0.5973 -0.9408 -0.3596
 3404SOL    HW221846   1.281   3.331   3.348 -1.2746  1.3426  0.8998
 3405SOL     OW21847   2.698   0.891   5.224  0.6559 -0.0443  0.2185
 3405SOL    HW121848   2.611   0.883   5.263  0.9035  0.2769  0.8239
 3405SOL    HW221849   2.694   0.837   5.144  0.4760  0.0936  0.1333
 3406SOL     OW21850   4.552   1.905   8.166 -0.0633  0.6190  0.5923
 3406SOL    HW121851   4.535   1.997   8.148  0.7079  0.3624 -1.3978
 3406SOL    HW221852   4.463   1.871   8.176 -0.3758  1.1540 -0.4174
 3407SOL     OW21853   1.928   0.477  17.458 -0.8168 -0.3542 -0.0849
 3407SOL    HW121854   1.852   0.426  17.429 -0.6839 -0.1578 -0.7830
 3407SOL    HW221855   1.916   0.569  17.435 -0.7532 -0.2821  0.1763
 3408SOL     OW21856   2.144   2.904   8.081 -0.5688 -0.0499  0.2309
 3408SOL    HW121857   2.174   2.818   8.110  0.0245 -0.8107 -2.6753
 3408SOL    HW221858   2.184   2.964   8.144 -1.6158  2.3191 -1.3821
 3409SOL     OW21859   0.085   1.950   3.840 -0.7484  0.0462  0.5232
 3409SOL    HW121860   0.015   2.005   3.877 -0.7465  0.2269  0.2592
 3409SOL    HW221861   0.060   1.862   3.866  0.1750 -0.4232 -0.1643
 3410SOL     OW21862   3.986   3.270  14.232 -0.8189  0.3571 -0.0136
 3410SOL    HW121863   3.917   3.325  14.195 -2.1501  0.4098  2.5842
 3410SOL    HW221864   4.052   3.293  14.167  1.2359 -0.1445  1.9206
 3411SOL     OW21865   3.606   0.953  12.027 -0.2050  0.5940 -0.3635
 3411SOL    HW121866   3.600   0.905  12.110  2.6271 -0.5657 -0.8189
 3411SOL    HW221867   3.529   1.008  12.037 -1.2003 -0.7627 -0.6144
 3412SOL     OW21868   3.034   4.368   6.686  0.0189  0.4242  0.2907
 3412SOL    HW121869   2.938   4.376   6.687 -0.1065 -1.1284  1.3011
 3412SOL    HW221870   3.047   4.315   6.765  0.2937 -3.1290 -2.1572
 3413SOL     OW21871   0.925   0.758   5.522 -0.1226 -0.1944  0.2370
 3413SOL    HW121872   0.852   0.728   5.468  0.1890 -0.1792 -0.1915
 3413SOL    HW221873   0.959   0.680   5.566  0.0393 -0.8883 -1.1192
 3414SOL     OW21874   0.544   2.333   4.767 -0.4474 -0.3964 -0.2344
 3414SOL    HW121875   0.611   2.297   4.826  1.4007  3.7746  0.2053
 3414SOL    HW221876   0.483   2.261   4.749  1.6090 -2.6063  1.5107
 3415SOL     OW21877   2.123   2.429   2.810 -0.0124  0.1529  0.0368
 3415SOL    HW121878   2.030   2.409   2.801  0.6198 -1.2343 -3.3767
 3415SOL    HW221879   2.141   2.467   2.724 -0.1034  0.1706  0.0261
 3416SOL     OW21880   3.449   0.155   6.819 -0.5241 -0.1650 -0.5641
 3416SOL    HW121881   3.538   0.189   6.806 -0.2698 -0.6541 -0.1014
 3416SOL    HW221882   3.394   0.186   6.747 -0.1803  2.0654  0.1323
 3417SOL     OW21883   1.202   3.910   7.117  0.1590  0.3850  0.7802
 3417SOL    HW121884   1.239   3.879   7.200  0.0394 -1.5896  0.0852
 3417SOL    HW221885   1.126   3.962   7.142  1.9307  3.1492  0.3925
 3418SOL     OW21886   3.878   0.155   7.363  0.1844 -0.3298 -0.1368
 3418SOL    HW121887   3.811   0.116   7.420 -0.3026  2.4184  1.1575
 3418SOL    HW221888   3.917   0.221   7.420  0.2503 -2.4193  2.2438
 3419SOL     OW21889   3.545   1.477   3.664 -0.1920 -0.5668 -0.3693
 3419SOL    HW121890   3.553   1.494   3.758  1.7924  3.2441 -1.2047
 3419SOL    HW221891   3.597   1.552   3.634  0.2608 -1.0763 -0.8485
 3420SOL     OW21892   3.584   3.526   7.265 -0.0389 -0.2343 -0.1395
 3420SOL    HW121893   3.527   3.577   7.207  1.4649  0.8429 -0.6775
 3420SOL    HW221894   3.660   3.584   7.259 -0.2049  0.1377  1.6226
 3421SOL     OW21895   1.370   2.432   8.974  0.4446 -0.1994  0.2791
 3421SOL    HW121896   1.424   2.356   8.997 -0.7378 -0.8829  0.8332
 3421SOL    HW221897   1.342   2.455   9.062  2.0905  3.0494 -0.0491
 3422SOL     OW21898   2.189   1.208   5.675  0.0845 -0.4525 -0.3072
 3422SOL    HW121899   2.093   1.214   5.678  0.1960  1.0786  0.0249
 3422SOL    HW221900   2.227   1.205   5.763  2.3532 -1.5872 -1.3321
 3423SOL     OW21901   2.761   4.714   8.265  0.0818 -0.4500  0.0069
 3423SOL    HW121902   2.817   0.036   8.215  0.2786  0.9465  1.9272
 3423SOL    HW221903   2.777   0.003   8.355  1.0845 -0.5219 -0.1471
 3424SOL     OW21904   0.399   1.055   5.133  0.0720 -0.3856  0.0024
 3424SOL    HW121905   0.408   1.150   5.131  3.5734 -0.7326 -0.1559
 3424SOL    HW221906   0.344   1.048   5.210 -1.6595  1.5323 -1.0687
 3425SOL     OW21907   1.485   2.296  16.301 -0.4503 -0.3129  0.0224
 3425SOL    HW121908   1.549   2.335  16.241 -1.0375 -1.0436 -1.0621
 3425SOL    HW221909   1.471   2.207  16.270 -0.3555  0.0796 -1.1584
 3426SOL     OW21910   2.037   1.508  16.437  0.8513  0.1387  0.0075
 3426SOL    HW121911   2.065   1.461  16.359 -2.7602 -2.1500  0.0998
 3426SOL    HW221912   2.089   1.588  16.425  1.0855  0.0679  0.5325
 3427SOL     OW21913   2.430   1.570   7.465  0.7118  0.5618  0.0666
 3427SOL    HW121914   2.361   1.627   7.499 -0.1527  1.1461 -2.6288
 3427SOL    HW221915   2.403   1.489   7.508 -2.0842  0.9372 -0.9840
 3428SOL     OW21916   0.270   1.916   9.223 -0.0008  0.2277 -0.3059
 3428SOL    HW121917   0.245   1.952   9.308  1.3903  1.9298 -0.6007
 3428SOL    HW221918   0.198   1.924   9.161 -1.6465  0.5194  1.6635
 3429SOL     OW21919   2.470   2.762   5.172  0.1258  0.0880 -0.2578
 3429SOL    HW121920   2.472   2.854   5.146  0.1190  0.3853  0.7927
 3429SOL    HW221921   2.376   2.747   5.180  0.2830 -0.5312  0.5322
 3430SOL     OW21922   1.787   4.584   1.293 -0.4280  0.3790  0.5693
 3430SOL    HW121923   1.839   4.664   1.295  0.5774 -0.1755 -3.3561
 3430SOL    HW221924   1.709   4.612   1.341 -0.6330 -0.3090  0.6378
 3431SOL     OW21925   3.303   3.808  14.938 -0.2312 -0.2194 -0.3393
 3431SOL    HW121926   3.242   3.864  14.891 -0.3691 -0.1997 -0.1359
 3431SOL    HW221927   3.312   3.859  15.018 -0.8944 -0.0370 -0.3857
 3432SOL     OW21928   4.695   1.645   1.641 -0.2422  0.0674  0.1207
 3432SOL    HW121929   4.732   1.698   1.571  0.2485  0.4364  0.6584
 3432SOL    HW221930   4.697   1.559   1.599  0.7018 -0.3295  0.9804
 3433SOL     OW21931   2.574   3.768   7.031  0.1921  0.2146 -0.6955
 3433SOL    HW121932   2.562   3.816   7.113 -0.8832 -1.0241 -0.1325
 3433SOL    HW221933   2.483   3.768   7.002  0.1311  0.4813 -0.5050
 3434SOL     OW21934   0.929   2.704   8.169  0.1742  0.1877  0.5142
 3434SOL    HW121935   0.892   2.706   8.257  1.4944  0.1311  1.0775
 3434SOL    HW221936   0.876   2.775   8.133 -1.3304  0.1455  2.6175
 3435SOL     OW21937   2.799   3.453   3.298  0.3544 -0.1635  0.2408
 3435SOL    HW121938   2.727   3.500   3.339  0.7443  0.8533 -0.2351
 3435SOL    HW221939   2.800   3.496   3.212  1.2238 -0.3495  0.1574
 3436SOL     OW21940   2.848   0.164  12.204  0.3618  0.3345  0.3046
 3436SOL    HW121941   2.819   0.238  12.152 -1.2103 -1.0325 -0.7687
 3436SOL    HW221942   2.763   0.162  12.249  1.0066 -0.6372  1.4878
 3437SOL     OW21943   2.231   0.255   2.749 -0.1710  0.3100  0.2728
 3437SOL    HW121944   2.247   0.332   2.803  1.1187  0.2663 -0.0317
 3437SOL    HW221945   2.267   0.187   2.806 -1.2475  1.4729  2.3219
 3438SOL     OW21946   2.520   0.390   2.848 -0.2442 -0.3248  0.0503
 3438SOL    HW121947   2.431   0.413   2.875 -0.8414 -3.1051  0.4031
 3438SOL    HW221948   2.562   0.473   2.871  0.8456 -1.7599  3.2313
 3439SOL     OW21949   0.753   2.483  15.876  0.1925  0.3841 -0.0537
 3439SOL    HW121950   0.749   2.552  15.942  1.4448  2.1334 -1.7963
 3439SOL    HW221951   0.834   2.439  15.904  1.0350  0.6851 -2.0134
 3440SOL     OW21952   0.012   4.626   2.486  0.2312  0.0183 -0.4888
 3440SOL    HW121953   0.014   4.626   2.390  1.0528 -3.1098 -0.4455
 3440SOL    HW221954   0.045   4.715   2.499  1.1188 -0.4052  0.1751
 3441SOL     OW21955   2.716   0.992   4.133 -0.0776 -0.2201  0.1236
 3441SOL    HW121956   2.763   1.075   4.142 -0.0323 -0.1056 -1.1716
 3441SOL    HW221957   2.629   1.032   4.141 -0.3144 -0.4243 -1.3245
 3442SOL     OW21958   1.679   1.813  17.066  0.1902  0.1537 -0.0945
 3442SOL    HW121959   1.651   1.818  17.157 -0.7921 -0.6026 -0.3608
 3442SOL    HW221960   1.603   1.845  17.018  1.8508  2.1879 -1.3983
 3443SOL     OW21961   0.047   1.702   2.525 -0.1815  0.1264  0.3164
 3443SOL    HW121962   0.124   1.666   2.569 -0.6612  0.6710  1.6215
 3443SOL    HW221963   0.060   1.791   2.559  1.4452  0.1644 -0.4339
 3444SOL     OW21964   2.473   2.519  14.348  0.0241 -0.0706  0.0237
 3444SOL    HW121965   2.479   2.425  14.361 -1.4256 -0.3487 -1.3000
 3444SOL    HW221966   2.549   2.542  14.295  1.7219 -0.0800  2.4864
 3445SOL     OW21967   3.064   2.130   4.044 -0.0978  0.2870  0.1601
 3445SOL    HW121968   3.075   2.044   4.004 -0.9857  0.1002  0.3164
 3445SOL    HW221969   3.089   2.104   4.133  0.2126 -1.6998 -0.5099
 3446SOL     OW21970   1.263   3.539  16.460  0.1871  0.8063  0.2842
 3446SOL    HW121971   1.212   3.610  16.499 -1.4603 -1.7926  2.8277
 3446SOL    HW221972   1.198   3.469  16.457  0.3964  0.6876 -1.7755
 3447SOL     OW21973   2.694   4.354  13.894  0.2798  0.4463 -0.0267
 3447SOL    HW121974   2.633   4.402  13.950 -2.1913 -0.6345 -1.7664
 3447SOL    HW221975   2.715   4.287  13.958 -0.3924  1.3586  1.1581
 3448SOL     OW21976   0.017   1.835   7.588  0.6793 -0.3893 -0.3845
 3448SOL    HW121977   4.706   1.794   7.659  0.3674 -1.0619 -0.9982
 3448SOL    HW221978   0.070   1.901   7.634  0.9453  0.2268 -1.5912
 3449SOL     OW21979   4.568   4.225   1.711  0.2310  0.4710  0.0505
 3449SOL    HW121980   4.635   4.199   1.774  0.5042 -0.1998 -0.5222
 3449SOL    HW221981   4.549   4.316   1.736  2.3514  0.6363  1.0348
 3450SOL     OW21982   0.821   1.057  12.928 -0.2180  0.6477 -0.6780
 3450SOL    HW121983   0.776   1.047  13.012  2.4367 -1.6453  0.4368
 3450SOL    HW221984   0.909   1.084  12.952  1.5466 -2.0767 -4.1471
 3451SOL     OW21985   1.801   1.377   7.128  0.4140 -0.3035  0.3769
 3451SOL    HW121986   1.894   1.397   7.141  0.6907 -0.6645 -1.0526
 3451SOL    HW221987   1.804   1.281   7.127  0.6892 -0.2605 -2.2043
 3452SOL     OW21988   1.709   4.701  17.571 -0.4477  0.4044  0.1140
 3452SOL    HW121989   1.616   4.692  17.550 -0.7235  0.3862  1.3850
 3452SOL    HW221990   1.727   4.622  17.621 -1.0026  0.3576  0.2402
 3453SOL     OW21991   4.185   2.935  11.863 -0.0746  0.0236  0.3241
 3453SOL    HW121992   4.178   2.840  11.860  0.3460 -0.0344  1.1262
 3453SOL    HW221993   4.122   2.955  11.932  0.8605  2.1286  0.5862
 3454SOL     OW21994   1.295   1.710   4.421  0.0122  0.2670 -0.7297
 3454SOL    HW121995   1.301   1.778   4.353  0.1985  2.3895  1.4187
 3454SOL    HW221996   1.338   1.753   4.495 -0.5863  1.2405 -0.9521
 3455SOL     OW21997   4.118   3.501  16.679  0.3463  0.4166 -0.0076
 3455SOL    HW121998   4.062   3.433  16.718 -0.2708  0.1163 -1.4202
 3455SOL    HW221999   4.198   3.481  16.727  0.5605  1.8610  0.2475
 3456SOL     OW22000   3.760   2.730  16.746  0.1177 -0.0518  0.4913
 3456SOL    HW122001   3.807   2.684  16.816  0.2699  1.4482  1.3740
 3456SOL    HW222002   3.782   2.675  16.671  1.5222 -0.4109  1.1795
 3457SOL     OW22003   0.305   0.831   8.270 -0.0823  0.0709 -0.5221
 3457SOL    HW122004   0.367   0.758   8.264  0.0573  0.1247  0.2170
 3457SOL    HW222005   0.365   0.905   8.269  0.8712 -0.6997 -0.2550
 3458SOL     OW22006   0.636   1.132  16.599 -0.0519  0.0393 -0.6115
 3458SOL    HW122007   0.658   1.225  16.593  2.7099 -0.7105 -2.0601
 3458SOL    HW222008   0.541   1.147  16.597 -0.0465 -0.0038 -1.2564
 3459SOL     OW22009   2.810   3.996   5.314 -0.5768  0.1506  0.4069
 3459SOL    HW122010   2.781   4.078   5.274  0.1644 -0.2035 -0.8562
 3459SOL    HW222011   2.876   4.027   5.376  0.1320 -0.5597  0.0090
 3460SOL     OW22012   0.534   3.741   1.576 -0.1526 -0.1182 -0.6097
 3460SOL    HW122013   0.621   3.776   1.599 -1.8746  2.2072  2.3821
 3460SOL    HW222014   0.515   3.795   1.499 -0.7464 -1.3064 -1.2947
 3461SOL     OW22015   0.493   3.624   7.372  1.1655  0.0829 -0.4678
 3461SOL    HW122016   0.501   3.585   7.458 -1.7018  3.1068  1.1729
 3461SOL    HW222017   0.450   3.704   7.403  1.5364  0.4994 -1.0324
 3462SOL     OW22018   1.304   0.955   8.769 -0.0514  0.1165  0.2877
 3462SOL    HW122019   1.372   1.006   8.815  0.4668  1.4241 -1.9178
 3462SOL    HW222020   1.337   0.866   8.776 -3.2819 -1.1654 -0.9551
 3463SOL     OW22021   2.206   1.538   0.121 -0.2822  0.0059  0.1251
 3463SOL    HW122022   2.230   1.600   0.190 -0.0126  0.8126 -0.6901
 3463SOL    HW222023   2.215   1.588   0.041  1.8704  1.5712  1.3295
 3464SOL     OW22024   4.084   1.410   7.365 -0.2023  0.0606 -1.1482
 3464SOL    HW122025   4.019   1.390   7.432  0.0022  0.6950 -0.7626
 3464SOL    HW222026   4.107   1.501   7.386 -2.8503  0.7137 -1.1239
 3465SOL     OW22027   1.889   4.664   8.109 -0.6418  0.0565 -0.2518
 3465SOL    HW122028   1.837   4.627   8.038  1.4449 -1.7196 -0.8626
 3465SOL    HW222029   1.843   0.007   8.133 -1.2856 -0.3501 -0.1188
 3466SOL     OW22030   1.423   2.896  17.062 -0.1676  0.6705 -0.1863
 3466SOL    HW122031   1.412   2.828  17.128  0.6985 -1.1539 -1.9231
 3466SOL    HW222032   1.391   2.975  17.105  0.9012  0.1988  1.4749
 3467SOL     OW22033   0.402   1.145   8.428 -0.3739 -0.6656 -0.5806
 3467SOL    HW122034   0.468   1.209   8.402 -0.4380 -0.2704  0.2502
 3467SOL    HW222035   0.393   1.171   8.519 -0.2464 -0.9540 -0.4860
 3468SOL     OW22036   0.289   2.470  17.057 -0.0155 -0.3217  1.0347
 3468SOL    HW122037   0.207   2.425  17.076 -0.6721  0.4053 -0.0933
 3468SOL    HW222038   0.354   2.403  17.078  0.5950 -0.8351 -2.4687
 3469SOL     OW22039   1.798   0.804   8.169 -0.2725 -0.1099 -0.4087
 3469SOL    HW122040   1.808   0.773   8.079 -1.7075  0.9228 -0.9244
 3469SOL    HW222041   1.878   0.854   8.185 -1.6915  1.1464  2.7072
 3470SOL     OW22042   4.391   2.206   1.333 -0.0927  0.2377  0.1055
 3470SOL    HW122043   4.310   2.254   1.318  0.2845  1.1060  0.8367
 3470SOL    HW222044   4.367   2.128   1.384  1.0486  0.2293  0.6417
 3471SOL     OW22045   3.592   0.868  12.345 -0.7595  0.2317 -0.0560
 3471SOL    HW122046   3.510   0.857  12.394  0.7736 -0.4760  2.3332
 3471SOL    HW222047   3.627   0.944  12.391 -1.6333  1.2697 -1.0954
 3472SOL     OW22048   3.793   1.799   5.664  0.5593  1.0744 -0.8936
 3472SOL    HW122049   3.887   1.816   5.661  1.0450 -1.5132 -0.5404
 3472SOL    HW222050   3.773   1.778   5.573  3.2436 -1.9387 -0.7662
 3473SOL     OW22051   1.358   2.849   5.428 -0.0108  0.1313  0.1725
 3473SOL    HW122052   1.375   2.763   5.467 -3.0185 -0.1145  1.0044
 3473SOL    HW222053   1.298   2.815   5.361  2.2065 -0.9658 -1.2632
 3474SOL     OW22054   3.959   0.707   1.757 -0.2859  0.0848  0.2243
 3474SOL    HW122055   4.024   0.662   1.703 -0.8757 -0.3566 -0.1112
 3474SOL    HW222056   3.895   0.717   1.687  0.5539  1.1099 -0.3974
 3475SOL     OW22057   3.684   3.444   2.497  0.9248  0.0192 -0.0662
 3475SOL    HW122058   3.745   3.518   2.495  2.0060 -0.8418  1.0646
 3475SOL    HW222059   3.708   3.406   2.412 -0.9807 -1.0407 -0.1185
 3476SOL     OW22060   1.464   3.553   4.821 -0.0238 -0.2792  0.5095
 3476SOL    HW122061   1.526   3.624   4.802 -0.2648 -0.1494  0.1885
 3476SOL    HW222062   1.438   3.529   4.732 -0.7140 -1.3928  1.0143
 3477SOL     OW22063   2.666   2.502   2.013 -0.6832 -0.0950 -0.1909
 3477SOL    HW122064   2.618   2.536   2.089 -3.2201 -2.8907 -0.5047
 3477SOL    HW222065   2.758   2.497   2.037 -0.8460 -1.4899  0.1393
 3478SOL     OW22066   3.310   3.418   9.842  0.7525  0.0026  0.2115
 3478SOL    HW122067   3.233   3.369   9.873  1.4091 -0.9483  0.3317
 3478SOL    HW222068   3.353   3.439   9.925  2.2151  0.9980 -0.8146
 3479SOL     OW22069   4.696   2.264   4.607 -0.1082  0.4161  0.2148
 3479SOL    HW122070   4.720   2.270   4.514 -0.6874 -2.2019 -0.1170
 3479SOL    HW222071   0.030   2.305   4.654 -0.9527  3.9117 -1.5169
 3480SOL     OW22072   0.059   3.981   5.487 -0.3935 -0.4662 -0.2561
 3480SOL    HW122073   4.716   3.956   5.443 -0.7674 -1.9708  1.3039
 3480SOL    HW222074   0.116   3.908   5.463 -0.9470 -0.5603 -1.2860
 3481SOL     OW22075   0.336   0.171   1.410 -0.2428 -0.1221 -0.1816
 3481SOL    HW122076   0.338   0.111   1.484  0.9258  3.1589  2.4277
 3481SOL    HW222077   0.252   0.217   1.420 -1.1857 -1.7756 -0.4852
 3482SOL     OW22078   2.746   0.415   7.085 -1.1024 -0.0683  0.0293
 3482SOL    HW122079   2.712   0.327   7.070  0.2744 -0.6974  0.5846
 3482SOL    HW222080   2.717   0.437   7.174 -1.8512  1.2807 -0.5535
 3483SOL     OW22081   3.192   1.133   8.239 -0.1638  0.3148 -0.4738
 3483SOL    HW122082   3.145   1.182   8.307  0.6528 -0.3646  0.5922
 3483SOL    HW222083   3.276   1.118   8.283 -0.5300 -0.0095  0.1335
 3484SOL     OW22084   0.493   3.071   4.216 -0.0573  0.3070 -0.3734
 3484SOL    HW122085   0.412   3.044   4.259  0.0180 -0.8790 -0.9809
 3484SOL    HW222086   0.488   3.167   4.218 -2.0706  0.1991 -0.8264
 3485SOL     OW22087   1.884   4.046   4.041  0.1707  0.3258  0.2082
 3485SOL    HW122088   1.903   3.962   4.085 -0.8711  0.0152  0.0691
 3485SOL    HW222089   1.789   4.049   4.039  0.1758 -0.0190 -0.5669
 3486SOL     OW22090   4.259   2.568   7.096  0.2722 -0.1180 -0.0975
 3486SOL    HW122091   4.204   2.538   7.024  2.8558 -0.3854 -1.9442
 3486SOL    HW222092   4.337   2.599   7.051 -0.7277 -1.5009 -2.7566
 3487SOL     OW22093   2.872   2.770   3.859  0.2660  0.1796 -0.4631
 3487SOL    HW122094   2.810   2.819   3.914  1.1517 -0.1682  0.8284
 3487SOL    HW222095   2.876   2.681   3.894 -2.3727 -0.1664 -1.0374
 3488SOL     OW22096   2.187   3.830   4.881  0.3324  0.4643  0.2708
 3488SOL    HW122097   2.158   3.742   4.856  0.8842  0.6922 -1.1301
 3488SOL    HW222098   2.221   3.814   4.969  1.3585  0.7601 -0.0794
 3489SOL     OW22099   3.127   1.181   3.987 -0.1242 -0.1610 -0.0018
 3489SOL    HW122100   3.118   1.191   4.082 -1.1907  2.3127 -0.3753
 3489SOL    HW222101   3.204   1.124   3.985  0.1220  0.1765 -0.1164
 3490SOL     OW22102   4.345   1.615   5.812 -0.0902 -0.0247 -0.2608
 3490SOL    HW122103   4.353   1.548   5.744  1.2845 -0.3427  0.2081
 3490SOL    HW222104   4.437   1.644   5.809 -0.1258  0.0108 -1.0932
 3491SOL     OW22105   1.608   4.725  14.072  0.5646  0.4813  0.5328
 3491SOL    HW122106   1.661   4.734  13.992 -1.2770 -0.2265 -0.7685
 3491SOL    HW222107   1.664   4.666  14.123 -0.7486 -0.8494  0.4543
 3492SOL     OW22108   3.248   1.322   2.158 -0.5797 -0.0920 -0.3266
 3492SOL    HW122109   3.323   1.321   2.099  0.9554  2.9851  1.5767
 3492SOL    HW222110   3.277   1.295   2.245 -0.4966 -0.2687 -0.4081
 3493SOL     OW22111   4.057   4.359   6.602 -0.0867 -0.5981  0.0649
 3493SOL    HW122112   4.089   4.361   6.693  0.3062  0.3813 -0.1015
 3493SOL    HW222113   4.122   4.410   6.554  1.7024 -3.1614 -0.2471
 3494SOL     OW22114   0.845   0.302   8.912  0.2753 -0.0587 -0.3853
 3494SOL    HW122115   0.861   0.385   8.956  0.5365  1.7093 -3.7901
 3494SOL    HW222116   0.764   0.277   8.956  0.4812 -0.9773 -0.5230
 3495SOL     OW22117   1.323   1.030  12.736 -0.2664  0.3543  0.5731
 3495SOL    HW122118   1.391   1.076  12.785 -0.0209 -0.0641  0.6267
 3495SOL    HW222119   1.360   1.048  12.650  0.9359  0.2105  1.0547
 3496SOL     OW22120   4.175   0.173   8.210 -0.0619  0.7433 -0.0048
 3496SOL    HW122121   4.190   0.163   8.304 -0.8959 -0.2250  0.0288
 3496SOL    HW222122   4.264   0.168   8.175 -0.0843  1.4470 -0.1693
 3497SOL     OW22123   3.133   0.060  15.939 -0.3908  0.1950 -0.3285
 3497SOL    HW122124   3.147   0.035  15.847  1.3441 -1.3888  0.3627
 3497SOL    HW222125   3.155   4.725  15.996  2.1711 -0.4450 -2.1192
 3498SOL     OW22126   2.923   1.770   2.193 -1.1041 -0.4450 -0.1057
 3498SOL    HW122127   2.935   1.865   2.187  0.8336 -0.6168  1.1803
 3498SOL    HW222128   3.006   1.736   2.225 -1.7024 -1.7538  0.0513
 3499SOL     OW22129   4.370   1.276   4.448 -0.0345  0.6511  1.1073
 3499SOL    HW122130   4.337   1.229   4.525  0.4163  0.2936  1.0837
 3499SOL    HW222131   4.396   1.195   4.403 -2.8281  0.5499 -0.3143
 3500SOL     OW22132   4.276   1.101   5.709  0.1345 -0.8285  0.2952
 3500SOL    HW122133   4.298   1.013   5.740  0.5122 -0.3203  1.4861
 3500SOL    HW222134   4.198   1.091   5.654 -0.5252  0.8476  0.9032
 3501SOL     OW22135   0.547   2.057   9.196  0.3565  0.1972  0.0868
 3501SOL    HW122136   0.489   2.134   9.191  1.0279  0.8752  2.8730
 3501SOL    HW222137   0.508   2.009   9.123  1.1529  0.2468 -0.3713
 3502SOL     OW22138   0.345   2.276   5.451 -0.1391 -0.0005  0.7215
 3502SOL    HW122139   0.364   2.337   5.379 -0.8893 -1.6900 -0.8934
 3502SOL    HW222140   0.381   2.190   5.429 -0.2570 -0.6697  3.1249
 3503SOL     OW22141   3.133   2.126   3.390  0.4347 -0.1019  0.4109
 3503SOL    HW122142   3.163   2.217   3.394  0.4488 -0.1241  0.8295
 3503SOL    HW222143   3.050   2.142   3.345  1.4527  2.2156 -0.6376
 3504SOL     OW22144   1.562   3.676   5.759 -0.1519  0.0144 -0.1242
 3504SOL    HW122145   1.586   3.739   5.827 -1.2467  1.9817 -1.5703
 3504SOL    HW222146   1.484   3.721   5.726 -0.3477 -0.1519  0.1178
 3505SOL     OW22147   2.315   3.650   5.457 -0.5208  0.1338  0.2255
 3505SOL    HW122148   2.374   3.718   5.489  1.2769 -1.2116 -0.2404
 3505SOL    HW222149   2.271   3.627   5.539 -1.0301  2.1851  0.5346
 3506SOL     OW22150   4.024   0.914   2.623  0.2169  1.1646 -0.2007
 3506SOL    HW122151   4.036   0.967   2.702  0.4214  0.0994  0.4899
 3506SOL    HW222152   4.027   0.983   2.558  1.1449 -0.4507 -1.8813
 3507SOL     OW22153   1.845   2.039  14.391  0.1098  0.2966 -0.2496
 3507SOL    HW122154   1.825   2.068  14.302 -0.5554  0.4576 -0.0480
 3507SOL    HW222155   1.757   2.036  14.430  1.5092 -0.8050  2.8148
 3508SOL     OW22156   3.205   0.768   5.076  0.0263 -0.0578  0.2438
 3508SOL    HW122157   3.153   0.833   5.027  0.9080 -0.4924 -1.2783
 3508SOL    HW222158   3.289   0.773   5.029 -0.2876  1.0456 -0.2096
 3509SOL     OW22159   4.082   4.499   5.968 -0.1250 -0.2192  0.4682
 3509SOL    HW122160   4.053   4.445   6.042  2.6336 -2.1199  0.1620
 3509SOL    HW222161   4.017   4.569   5.961  1.0642  0.8554  0.2507
 3510SOL     OW22162   0.673   0.713   2.201 -0.1649 -0.2726  0.0391
 3510SOL    HW122163   0.585   0.679   2.188  0.6630 -1.8186 -1.5422
 3510SOL    HW222164   0.724   0.632   2.206  1.3983  0.6131 -1.5797
 3511SOL     OW22165   3.100   3.368   6.900  0.7899 -0.3202  0.1605
 3511SOL    HW122166   3.167   3.377   6.968  0.7618 -2.6592  0.4964
 3511SOL    HW222167   3.150   3.339   6.824 -0.2748 -0.1590 -0.5954
 3512SOL     OW22168   0.741   2.777   5.585 -0.6764 -0.0971 -0.1276
 3512SOL    HW122169   0.817   2.831   5.562 -0.5239 -1.0609 -1.8327
 3512SOL    HW222170   0.762   2.703   5.528  0.8268 -2.0219  2.8849
 3513SOL     OW22171   3.908   4.094   5.720 -0.0008  0.0952  0.3595
 3513SOL    HW122172   3.985   4.072   5.668 -0.0005 -1.6060  1.0839
 3513SOL    HW222173   3.904   4.188   5.702 -1.5146 -0.2087 -0.8360
 3514SOL     OW22174   2.943   2.783   6.804  0.1538  0.3092  0.0757
 3514SOL    HW122175   2.960   2.700   6.848 -2.8196 -0.2578  0.1378
 3514SOL    HW222176   2.925   2.753   6.715 -1.5396 -0.4506  0.6616
 3515SOL     OW22177   2.161   3.647  16.847 -0.4955 -0.1216  0.4805
 3515SOL    HW122178   2.109   3.600  16.912  1.2191 -1.3582  0.9630
 3515SOL    HW222179   2.132   3.610  16.763  1.6444 -0.4057 -0.1492
 3516SOL     OW22180   0.069   3.776   3.238  0.1736 -0.2811 -0.1171
 3516SOL    HW122181   0.051   3.707   3.302 -0.7492 -0.3805 -0.4737
 3516SOL    HW222182   0.003   3.749   3.175  2.1644 -1.5479 -1.6473
 3517SOL     OW22183   3.787   2.535  16.990  0.2505 -0.1002 -0.1685
 3517SOL    HW122184   3.732   2.487  17.052  0.8326  0.6827  0.9407
 3517SOL    HW222185   3.867   2.489  17.015  1.9214  2.0920 -1.4455
 3518SOL     OW22186   3.642   2.943   4.854  0.3060 -0.1586  0.9389
 3518SOL    HW122187   3.587   2.965   4.779 -0.6365  0.2141  1.7364
 3518SOL    HW222188   3.715   2.999   4.827 -0.4459  0.8870  1.0660
 3519SOL     OW22189   1.289   1.815   7.250  0.0083 -0.0851 -0.3691
 3519SOL    HW122190   1.372   1.847   7.287 -0.4781  1.4464 -0.6131
 3519SOL    HW222191   1.323   1.792   7.164  0.6587 -0.0173 -0.1260
 3520SOL     OW22192   4.256   0.179  12.004 -0.3958  0.1525  0.0577
 3520SOL    HW122193   4.304   0.110  12.051 -0.5924  1.5564  2.2690
 3520SOL    HW222194   4.329   0.235  11.977 -1.7344  0.0668 -3.6974
 3521SOL     OW22195   3.985   0.047   8.006  0.0327 -0.1524 -0.2207
 3521SOL    HW122196   4.071   0.042   7.963  1.8786 -1.1025  3.6434
 3521SOL    HW222197   4.021   0.082   8.087  2.0308 -0.4931 -0.9430
 3522SOL     OW22198   1.055   2.012   5.834 -0.2854  0.0288  0.1969
 3522SOL    HW122199   0.985   2.035   5.896 -1.1214  0.6791 -0.9980
 3522SOL    HW222200   1.123   2.075   5.860  1.9206 -2.0087 -0.6103
 3523SOL     OW22201   1.657   3.936   8.285 -0.2737  0.2028 -0.8648
 3523SOL    HW122202   1.644   3.858   8.339 -0.7644  0.3481 -0.7813
 3523SOL    HW222203   1.678   4.006   8.346 -0.7599 -0.7451  0.3881
 3524SOL     OW22204   3.476   2.179   4.328  0.2090  0.0675 -0.0957
 3524SOL    HW122205   3.458   2.110   4.392  1.1749 -0.7797 -0.7502
 3524SOL    HW222206   3.432   2.132   4.257 -0.9217 -0.4041  0.9059
 3525SOL     OW22207   1.196   2.505  16.061 -0.3812 -0.0405 -0.2165
 3525SOL    HW122208   1.223   2.470  16.146 -0.0487  0.2633 -0.1972
 3525SOL    HW222209   1.202   2.599  16.081  0.2683 -0.0739 -0.2449
 3526SOL     OW22210   1.813   3.028   3.623 -0.7054  0.0400 -0.5536
 3526SOL    HW122211   1.896   3.018   3.670 -0.9819  0.9533  0.1223
 3526SOL    HW222212   1.769   2.969   3.684  0.0981  0.3822  0.3698
 3527SOL     OW22213   0.956   0.068   1.869 -0.5785  0.1554  0.4803
 3527SOL    HW122214   0.938   0.092   1.778  1.8530 -1.6469 -0.4771
 3527SOL    HW222215   0.998   4.720   1.863  0.7561  0.7589  1.2214
 3528SOL     OW22216   2.768   1.274  10.403 -0.6527  0.0439 -0.3096
 3528SOL    HW122217   2.792   1.188  10.368  0.6100  0.7374 -1.1305
 3528SOL    HW222218   2.726   1.246  10.485  2.3154 -4.8775 -0.5182
 3529SOL     OW22219   0.656   0.352   7.496  0.4139 -0.1103  0.1417
 3529SOL    HW122220   0.595   0.390   7.559  0.5796 -1.3350  1.0574
 3529SOL    HW222221   0.725   0.340   7.561  0.6802 -0.5563 -0.2181
 3530SOL     OW22222   4.325   0.322   2.658 -0.5500  0.9360  0.5598
 3530SOL    HW122223   4.306   0.412   2.633  1.2958  0.8498 -1.1439
 3530SOL    HW222224   4.279   0.280   2.585 -0.9269  1.2831  0.6006
 3531SOL     OW22225   2.914   2.299  17.543  0.2755 -0.2853  0.0432
 3531SOL    HW122226   2.831   2.335  17.512  0.3153 -1.0112 -0.8965
 3531SOL    HW222227   2.893   2.270  17.632 -3.4289  3.8088  0.5209
 3532SOL     OW22228   4.264   3.456   4.806 -0.4632  0.7168  0.2003
 3532SOL    HW122229   4.264   3.363   4.827 -0.3489  0.5058 -0.7445
 3532SOL    HW222230   4.208   3.493   4.875  0.5110  2.2556  0.1558
 3533SOL     OW22231   0.604   4.103   3.931 -0.0227 -0.9943  0.1981
 3533SOL    HW122232   0.510   4.086   3.935  0.0401 -1.0599  1.3455
 3533SOL    HW222233   0.617   4.057   3.848  0.3211  2.9157 -1.9231
 3534SOL     OW22234   1.820   0.950  17.293 -0.2209  0.0633  0.0568
 3534SOL    HW122235   1.857   1.007  17.225  1.0522  0.0085  0.7083
 3534SOL    HW222236   1.769   1.014  17.344  0.7543 -0.2174  1.3689
 3535SOL     OW22237   2.120   2.575  16.292  0.4406  0.7184  0.0599
 3535SOL    HW122238   2.103   2.576  16.198 -1.1606  0.9772  0.3342
 3535SOL    HW222239   2.044   2.627  16.320  1.5405  1.5136  1.5853
 3536SOL     OW22240   4.509   0.660  10.274 -0.2548 -0.1115 -0.5079
 3536SOL    HW122241   4.491   0.700  10.189  0.7927  1.3625 -0.0185
 3536SOL    HW222242   4.455   0.705  10.340  1.4457 -0.7861  1.3571
 3537SOL     OW22243   3.552   3.114   3.046 -0.1792  0.5762 -0.3046
 3537SOL    HW122244   3.515   3.037   3.002  0.0734  1.0306 -1.2980
 3537SOL    HW222245   3.515   3.185   2.993 -1.5147  0.9896  1.1795
 3538SOL     OW22246   3.022   0.954   1.646  0.1322  0.3451  0.4400
 3538SOL    HW122247   3.056   1.033   1.603 -0.9215  1.0577  0.9130
 3538SOL    HW222248   3.044   0.979   1.736 -0.5946 -1.4213  1.1013
 3539SOL     OW22249   0.410   1.947   4.478 -0.1171  0.4425  0.1579
 3539SOL    HW122250   0.341   1.887   4.448  1.7703 -1.0922 -1.1819
 3539SOL    HW222251   0.431   1.995   4.398 -2.5172  1.1478 -0.0487
 3540SOL     OW22252   4.622   2.290   6.169  0.5651 -0.0321 -0.3940
 3540SOL    HW122253   4.637   2.210   6.119 -1.4526  0.1192 -1.2032
 3540SOL    HW222254   4.538   2.323   6.138  0.3960 -1.2887 -1.2551
 3541SOL     OW22255   2.130   0.109   0.103 -0.2581 -0.5296 -0.0756
 3541SOL    HW122256   2.045   0.067   0.092 -0.3587 -0.6093  1.0322
 3541SOL    HW222257   2.188   0.035   0.123  0.8315  0.3935  0.1916
 3542SOL     OW22258   3.034   4.573  10.097  0.4117 -0.1286 -0.2054
 3542SOL    HW122259   3.029   4.668  10.091 -0.7763 -0.3787 -2.7923
 3542SOL    HW222260   3.039   4.550  10.005 -1.8921 -1.3599 -0.0356
 3543SOL     OW22261   3.924   2.756   1.683  0.0125 -0.7386 -0.3986
 3543SOL    HW122262   3.961   2.803   1.608 -0.3525  3.0995  1.8657
 3543SOL    HW222263   3.950   2.807   1.760 -0.7472 -0.0380 -0.6169
 3544SOL     OW22264   0.818   2.740   8.398 -0.5553 -0.0556  0.0997
 3544SOL    HW122265   0.786   2.795   8.470  0.4890  1.0321 -0.2498
 3544SOL    HW222266   0.847   2.664   8.448 -1.5537  0.2975  1.2162
 3545SOL     OW22267   1.718   0.746   7.852  0.3147 -0.0016 -0.0087
 3545SOL    HW122268   1.662   0.733   7.775 -2.1085  2.0593  1.4104
 3545SOL    HW222269   1.667   0.808   7.904 -1.5245 -1.9132  0.4726
 3546SOL     OW22270   0.190   4.091   8.335 -0.4191 -0.3145  0.6478
 3546SOL    HW122271   0.253   4.159   8.358  1.4156 -1.5270 -0.8372
 3546SOL    HW222272   0.248   4.028   8.293 -0.8310  1.0811 -1.9620
 3547SOL     OW22273   3.855   1.836   4.411  0.0458  0.3749  0.1450
 3547SOL    HW122274   3.852   1.764   4.474 -1.2905  1.0661  0.8613
 3547SOL    HW222275   3.889   1.904   4.469  0.1215  0.1183  0.4014
 3548SOL     OW22276   4.137   3.125   3.731  0.4486 -0.1805  0.6915
 3548SOL    HW122277   4.150   3.117   3.826  2.7577  1.0296  0.4771
 3548SOL    HW222278   4.063   3.186   3.731 -0.5833 -1.4154  2.3014
 3549SOL     OW22279   3.183   0.677   3.492 -0.4281 -0.0783  0.6336
 3549SOL    HW122280   3.223   0.698   3.577  2.1758 -1.9300 -0.1368
 3549SOL    HW222281   3.117   0.614   3.520 -2.1301  1.0642 -0.7830
 3550SOL     OW22282   4.372   1.149   0.755  0.2519 -0.2914  0.3270
 3550SOL    HW122283   4.404   1.219   0.811 -3.2088  1.2324  0.4507
 3550SOL    HW222284   4.455   1.115   0.724 -0.3165 -0.2208 -1.2933
 3551SOL     OW22285   3.049   2.956   7.092  0.1339  0.6831 -0.9298
 3551SOL    HW122286   3.055   3.029   7.154  0.8157  0.3245 -0.5680
 3551SOL    HW222287   3.085   3.000   7.014  0.3409  1.3791 -0.4409
 3552SOL     OW22288   2.036   2.945  12.309  0.3334 -0.2975 -1.0325
 3552SOL    HW122289   2.014   2.876  12.247 -4.3028  0.6977 -0.5204
 3552SOL    HW222290   1.996   2.911  12.389  0.5376  0.6118 -0.5436
 3553SOL     OW22291   0.831   0.176  10.227 -0.7304  0.1155  0.2721
 3553SOL    HW122292   0.887   0.141  10.296 -1.7363  2.9271  2.5094
 3553SOL    HW222293   0.897   0.206  10.165  1.0729 -1.1574  1.5860
 3554SOL     OW22294   0.851   1.960  12.203  0.2003  0.0082  0.1721
 3554SOL    HW122295   0.825   1.926  12.289 -0.8466  1.9035  0.6069
 3554SOL    HW222296   0.940   1.991  12.220 -0.0825  1.6868 -1.4668
 3555SOL     OW22297   4.030   0.273  10.927 -0.3289  0.3863 -0.1983
 3555SOL    HW122298   4.058   0.224  11.004 -2.0474  0.2029  0.3171
 3555SOL    HW222299   4.106   0.278  10.869 -0.5134  0.5629 -0.4233
 3556SOL     OW22300   1.575   1.674   9.744 -0.0927  0.4445  0.5805
 3556SOL    HW122301   1.670   1.679   9.736 -0.1161 -1.5498 -1.1021
 3556SOL    HW222302   1.574   1.578   9.753  0.1425  0.2441 -1.5740
 3557SOL     OW22303   0.969   2.816   1.952 -0.1360 -0.3687 -0.6818
 3557SOL    HW122304   0.929   2.904   1.956  0.7866  0.0337 -0.2492
 3557SOL    HW222305   1.062   2.835   1.943  0.3720 -1.4220  2.3380
 3558SOL     OW22306   0.703   3.483   6.985 -0.5046 -0.2210  0.9027
 3558SOL    HW122307   0.700   3.390   7.009 -2.0156 -0.5579 -0.5316
 3558SOL    HW222308   0.707   3.488   6.890 -1.6885  1.3891  0.9463
 3559SOL     OW22309   2.924   2.228   4.866 -0.4977 -0.2164  0.1732
 3559SOL    HW122310   2.963   2.253   4.950  0.2893 -4.1374  1.0003
 3559SOL    HW222311   2.905   2.315   4.832 -0.4815 -0.2483  0.0813
 3560SOL     OW22312   4.298   1.936   0.171  0.1063  0.2264 -0.1235
 3560SOL    HW122313   4.230   1.881   0.210  0.8945 -0.2467  0.5784
 3560SOL    HW222314   4.299   2.016   0.223  2.3072 -0.0531  0.2619
 3561SOL     OW22315   1.634   4.433  16.188 -0.5608  0.0870  0.1691
 3561SOL    HW122316   1.622   4.351  16.140 -0.8595  0.1947  0.0597
 3561SOL    HW222317   1.694   4.494  16.147 -1.5600  0.4776 -0.7094
 3562SOL     OW22318   0.870   2.312   5.972  0.2163  0.3996 -0.1485
 3562SOL    HW122319   0.794   2.262   5.943 -0.7330  0.2444  2.6286
 3562SOL    HW222320   0.931   2.247   6.007 -1.1750 -0.1200  1.3306
 3563SOL     OW22321   0.326   2.709   8.376  0.4495 -0.5124 -0.3328
 3563SOL    HW122322   0.305   2.626   8.419 -0.6761  0.1474  0.3856
 3563SOL    HW222323   0.341   2.678   8.286  1.8827  3.1380 -1.3534
 3564SOL     OW22324   2.815   1.245   4.183 -0.3547  0.1628  1.0875
 3564SOL    HW122325   2.779   1.270   4.097 -2.8724  1.9430  2.6524
 3564SOL    HW222326   2.818   1.328   4.231 -1.5611  1.4327 -1.0199
 3565SOL     OW22327   4.632   4.408   8.952  0.0029 -0.3471  0.4378
 3565SOL    HW122328   4.726   4.419   8.938 -0.4330  2.8092  0.0573
 3565SOL    HW222329   4.627   4.340   9.020 -1.2716 -0.6044  0.0875
 3566SOL     OW22330   4.427   3.253   2.782 -0.4553 -0.3720 -0.5607
 3566SOL    HW122331   4.467   3.312   2.718  3.3238 -1.3824  0.8194
 3566SOL    HW222332   4.498   3.190   2.797 -1.3127 -0.4314  3.1076
 3567SOL     OW22333   1.431   0.028   0.990  0.4295 -0.0490 -0.4133
 3567SOL    HW122334   1.369   4.696   1.010 -0.2279  0.3919 -0.8818
 3567SOL    HW222335   1.446   0.007   0.898 -0.1245  0.1579 -0.5488
 3568SOL     OW22336   0.926   1.111   7.375  0.2861  0.0683 -0.1789
 3568SOL    HW122337   1.017   1.084   7.389  0.2421 -0.2192 -0.4403
 3568SOL    HW222338   0.896   1.116   7.466 -0.2863  4.3525 -0.6408
 3569SOL     OW22339   3.086   0.820  14.302 -0.2399  0.6893  0.0535
 3569SOL    HW122340   3.057   0.838  14.212  1.0664  0.4384 -0.4130
 3569SOL    HW222341   3.072   0.726  14.313 -1.0058  0.5905 -1.6864
 3570SOL     OW22342   2.535   0.555   3.363  0.4930 -0.1500 -0.8125
 3570SOL    HW122343   2.577   0.540   3.448 -4.6584 -0.8039  1.6221
 3570SOL    HW222344   2.484   0.635   3.376 -2.4890 -2.1496 -0.1637
 3571SOL     OW22345   1.759   0.697  17.397  0.0458 -0.2138 -0.3859
 3571SOL    HW122346   1.782   0.721  17.486  0.2698  3.7668 -1.5052
 3571SOL    HW222347   1.763   0.786  17.361 -1.0255  0.2368  0.6259
 3572SOL     OW22348   4.067   1.256   6.871  0.1998  0.3987 -0.2811
 3572SOL    HW122349   4.060   1.164   6.896 -0.8493  0.9704  1.4925
 3572SOL    HW222350   3.990   1.283   6.820  0.0169  0.4899  0.0452
 3573SOL     OW22351   3.709   4.123  11.932 -0.4596  0.3451  0.1615
 3573SOL    HW122352   3.727   4.082  11.847  1.9756 -0.1517  0.9019
 3573SOL    HW222353   3.716   4.047  11.990 -1.5448 -0.2993 -0.5545
 3574SOL     OW22354   3.384   1.155  12.012  0.4449  0.4134  0.4418
 3574SOL    HW122355   3.317   1.206  12.058 -1.6324 -1.4179 -0.5444
 3574SOL    HW222356   3.440   1.215  11.963  0.4303  0.1335  0.0793
 3575SOL     OW22357   1.209   3.671   4.833 -0.1691  0.5466 -0.0477
 3575SOL    HW122358   1.237   3.649   4.744 -1.0591  0.8494 -0.4048
 3575SOL    HW222359   1.287   3.651   4.885  1.5019  2.5012 -1.7876
 3576SOL     OW22360   0.017   0.215   6.433  0.0716 -0.9261 -0.4057
 3576SOL    HW122361   4.709   0.138   6.467 -4.5548  2.2250  0.5406
 3576SOL    HW222362   0.064   0.235   6.514 -3.4155 -1.7237  1.8401
 3577SOL     OW22363   3.298   2.304   8.666 -0.0158 -0.4476  0.1166
 3577SOL    HW122364   3.230   2.313   8.733 -0.0083  0.2997  0.0346
 3577SOL    HW222365   3.261   2.245   8.601 -1.1137  0.8842 -0.4872
 3578SOL     OW22366   1.972   1.907   9.895 -0.0494 -0.3652  0.5514
 3578SOL    HW122367   1.890   1.953   9.910  0.5085  0.8704 -0.1644
 3578SOL    HW222368   2.015   1.978   9.848  1.0957 -2.1094 -1.0018
 3579SOL     OW22369   2.628   0.884   2.615  0.2819 -0.0477  0.3866
 3579SOL    HW122370   2.617   0.975   2.589 -0.1876  0.1121  1.1547
 3579SOL    HW222371   2.682   0.894   2.694 -0.0097  2.4295  0.2880
 3580SOL     OW22372   1.173   1.194   3.709  0.4510  0.2035  0.2421
 3580SOL    HW122373   1.208   1.234   3.629 -1.4967 -0.1773 -0.8173
 3580SOL    HW222374   1.117   1.125   3.672  0.2005 -1.2233  3.3158
 3581SOL     OW22375   2.566   1.414  11.376  0.5003  0.0022  0.0810
 3581SOL    HW122376   2.504   1.352  11.337  0.2011  0.9038 -0.8725
 3581SOL    HW222377   2.569   1.481  11.307  4.0791 -1.3009 -1.0113
 3582SOL     OW22378   0.215   4.259   7.881 -0.6030  0.2966 -0.2687
 3582SOL    HW122379   0.125   4.274   7.910 -0.5403 -2.3130  1.2896
 3582SOL    HW222380   0.209   4.282   7.788 -1.8394 -0.6969 -0.4503
 3583SOL     OW22381   2.207   3.078   7.845  0.2639 -0.3619  0.0180
 3583SOL    HW122382   2.161   3.031   7.915  0.3072 -0.4002  0.0211
 3583SOL    HW222383   2.274   3.010   7.843 -0.4142 -1.0287 -0.2045
 3584SOL     OW22384   3.353   3.507   7.429 -0.2038 -0.0851 -0.0119
 3584SOL    HW122385   3.449   3.511   7.424 -0.2693  0.2918 -1.0230
 3584SOL    HW222386   3.337   3.426   7.476 -2.3906 -1.1318 -2.5914
 3585SOL     OW22387   3.800   3.057  15.118 -0.1432  0.5524 -0.2940
 3585SOL    HW122388   3.750   2.978  15.137  1.1422  0.2730  2.0401
 3585SOL    HW222389   3.800   3.055  15.022 -0.6203 -2.0909 -0.2373
 3586SOL     OW22390   2.348   0.285   8.129 -0.1670 -0.7315 -0.8926
 3586SOL    HW122391   2.334   0.237   8.048 -0.4979 -3.1501  0.6002
 3586SOL    HW222392   2.396   0.366   8.109  0.2272 -0.3558  1.4939
 3587SOL     OW22393   4.592   0.122   8.274  0.2845 -0.2522 -0.6229
 3587SOL    HW122394   4.655   0.050   8.279  1.2100  0.8670  3.6449
 3587SOL    HW222395   4.608   0.159   8.361  0.4539  1.1277 -1.2475
 3588SOL     OW22396   1.828   4.127   7.398  0.8891  0.1404 -0.3800
 3588SOL    HW122397   1.802   4.067   7.327  0.0947 -2.7558  2.3757
 3588SOL    HW222398   1.771   4.098   7.469  1.0793  1.8095  0.4406
 3589SOL     OW22399   0.887   1.177   8.400 -0.2205  0.0238  0.0950
 3589SOL    HW122400   0.879   1.172   8.495 -0.2051 -0.7882  0.0580
 3589SOL    HW222401   0.870   1.084   8.381  2.2019 -0.5016  0.5330
 3590SOL     OW22402   3.413   2.033   3.321  0.0432  0.3887  0.1331
 3590SOL    HW122403   3.322   2.028   3.348 -0.5611 -0.0392 -1.9635
 3590SOL    HW222404   3.451   2.085   3.391 -1.1947 -0.1016  1.1665
 3591SOL     OW22405   4.120   3.931   7.160  0.2832 -0.0065 -0.6312
 3591SOL    HW122406   4.055   3.971   7.217  0.4625 -2.0815  1.0094
 3591SOL    HW222407   4.123   3.996   7.089  0.6604  2.0862  1.3163
 3592SOL     OW22408   0.387   1.429  16.795 -0.3532  0.2435 -0.0864
 3592SOL    HW122409   0.446   1.496  16.831  1.7636 -1.9566  0.5016
 3592SOL    HW222410   0.319   1.472  16.743 -0.4528 -1.6734 -1.5019
 3593SOL     OW22411   3.240   3.527   4.851  0.3216 -0.3562  0.3325
 3593SOL    HW122412   3.144   3.535   4.850  0.3342 -0.2787 -1.3138
 3593SOL    HW222413   3.254   3.550   4.759  0.5892 -0.6563  0.2996
 3594SOL     OW22414   0.880   4.468   5.582  0.4823  0.1596  0.3675
 3594SOL    HW122415   0.866   4.387   5.532  0.4375  1.1822 -1.2745
 3594SOL    HW222416   0.954   4.442   5.637  0.0040 -0.4907  0.7031
 3595SOL     OW22417   1.643   4.578   1.620 -0.2308  0.0216  0.1731
 3595SOL    HW122418   1.566   4.522   1.611  1.5399 -2.2575 -0.8127
 3595SOL    HW222419   1.631   4.636   1.545  0.6155  1.5402  1.2174
 3596SOL     OW22420   4.140   0.675   7.887  0.5770  0.3972  0.2259
 3596SOL    HW122421   4.046   0.690   7.890  0.3360 -1.0890  0.2011
 3596SOL    HW222422   4.167   0.765   7.905  2.9454 -0.2298 -0.1098
 3597SOL     OW22423   2.809   3.643   5.822  0.0713 -0.4476 -0.4343
 3597SOL    HW122424   2.838   3.563   5.779  0.1102 -0.8237  0.3051
 3597SOL    HW222425   2.733   3.612   5.871  0.1617 -0.3358 -0.2271
 3598SOL     OW22426   3.642   2.571   7.839  0.4404 -0.2659 -0.2696
 3598SOL    HW122427   3.627   2.604   7.751  1.2785 -1.2298 -0.7722
 3598SOL    HW222428   3.713   2.626   7.873  2.5384 -2.7600 -0.5346
 3599SOL     OW22429   2.756   2.001   9.645 -0.8406 -0.4415 -0.3477
 3599SOL    HW122430   2.689   1.967   9.704  0.3166 -0.4900  0.9258
 3599SOL    HW222431   2.716   1.989   9.559 -0.6177 -1.8559 -0.2555
 3600SOL     OW22432   3.248   1.542   8.045  0.4610 -0.1464 -0.2522
 3600SOL    HW122433   3.292   1.460   8.022  1.6729  0.2121  0.7710
 3600SOL    HW222434   3.235   1.583   7.959 -1.2695 -0.6272 -0.2026
 3601SOL     OW22435   0.022   0.879   9.509  0.2444 -0.3069  0.3354
 3601SOL    HW122436   4.713   0.795   9.513 -0.9446  0.3968  1.3122
 3601SOL    HW222437   0.098   0.858   9.564  2.0405  4.4817 -0.3896
 3602SOL     OW22438   1.446   3.557  16.241 -0.1938  0.4870 -0.2560
 3602SOL    HW122439   1.384   3.532  16.309  1.7959 -1.4468  0.8470
 3602SOL    HW222440   1.390   3.617  16.192 -0.5113  0.1155 -0.3504
 3603SOL     OW22441   0.062   0.906  15.903  0.0032  0.3445 -0.1977
 3603SOL    HW122442   0.000   0.844  15.941  1.4877 -0.4500  0.9100
 3603SOL    HW222443   0.069   0.978  15.966  0.3425  0.3293 -0.2180
 3604SOL     OW22444   1.562   4.595  17.135 -0.2547  0.2316 -0.1226
 3604SOL    HW122445   1.476   4.607  17.095 -0.9305 -1.6682  0.7840
 3604SOL    HW222446   1.610   4.668  17.096 -0.0608 -0.9833 -2.1348
 3605SOL     OW22447   4.420   0.967   8.998  0.2892  0.0781 -0.0144
 3605SOL    HW122448   4.473   1.031   8.951 -0.1077 -0.4746 -1.1961
 3605SOL    HW222449   4.333   0.980   8.959  0.4540 -2.5106 -1.2500
 3606SOL     OW22450   3.901   3.096  11.492  0.7357 -0.9097  0.1495
 3606SOL    HW122451   3.856   3.108  11.575 -3.1393 -2.3349 -1.7227
 3606SOL    HW222452   3.991   3.097  11.525  0.2383 -1.6539  1.5330
 3607SOL     OW22453   3.905   1.177   5.317  0.3570  0.0668 -0.0481
 3607SOL    HW122454   3.828   1.204   5.367  0.7702 -0.9349  1.1219
 3607SOL    HW222455   3.884   1.097   5.269 -1.2909 -0.7678  2.0466
 3608SOL     OW22456   1.336   0.377  17.475  0.0346  0.2260 -0.2065
 3608SOL    HW122457   1.412   0.363  17.531 -1.1954 -0.0347  1.4134
 3608SOL    HW222458   1.331   0.289  17.439 -0.3090 -0.3647  1.2952
 3609SOL     OW22459   1.710   2.131   2.344  0.1712  0.1988 -0.4156
 3609SOL    HW122460   1.676   2.062   2.287  2.3499  0.3593 -1.9479
 3609SOL    HW222461   1.730   2.076   2.420  1.7742  3.0273  1.2118
 3610SOL     OW22462   4.218   0.161   6.989 -0.4079 -0.0455  0.1688
 3610SOL    HW122463   4.213   0.088   6.927  0.4951  1.0643 -1.2292
 3610SOL    HW222464   4.310   0.187   6.978 -1.0282  0.6093 -3.4447
 3611SOL     OW22465   4.006   0.702   2.454  0.3877 -0.1594 -0.4623
 3611SOL    HW122466   4.015   0.768   2.524 -2.1886  0.2932 -0.5770
 3611SOL    HW222467   3.980   0.755   2.378 -0.3270 -1.1297 -0.8839
 3612SOL     OW22468   3.730   0.534   7.675 -0.0418  0.5685  0.2021
 3612SOL    HW122469   3.655   0.593   7.687  0.6079  1.0243  1.8997
 3612SOL    HW222470   3.689   0.455   7.639  2.2681  0.4284 -2.1403
 3613SOL     OW22471   2.029   0.955   6.074 -0.1324 -0.2565 -0.5322
 3613SOL    HW122472   2.091   1.028   6.087 -0.5218  0.1803 -1.1077
 3613SOL    HW222473   2.059   0.929   5.987 -0.5689 -1.6180 -0.2647
 3614SOL     OW22474   3.373   3.766   3.259 -0.2262  0.2737  0.3143
 3614SOL    HW122475   3.463   3.733   3.261 -0.1745  0.3887 -0.0464
 3614SOL    HW222476   3.381   3.861   3.253 -0.5007  0.1780 -1.4788
 3615SOL     OW22477   3.667   1.201   2.931 -0.4042 -0.5586 -0.4823
 3615SOL    HW122478   3.659   1.107   2.915 -0.0942 -0.9744  1.8153
 3615SOL    HW222479   3.695   1.207   3.022 -0.0247  2.0203 -0.7459
 3616SOL     OW22480   0.070   1.568   7.290  0.1672  0.1253 -0.1048
 3616SOL    HW122481   4.729   1.518   7.309 -0.3925  0.0675 -2.6435
 3616SOL    HW222482   0.045   1.659   7.300 -1.3361 -0.4981  1.8821
 3617SOL     OW22483   4.446   2.406   9.280 -0.5229  0.5513  0.0375
 3617SOL    HW122484   4.359   2.444   9.288 -0.4420  0.8360 -0.4345
 3617SOL    HW222485   4.474   2.442   9.195 -0.0671  1.4621  0.5748
 3618SOL     OW22486   1.303   2.505  10.309 -0.0834 -0.1834 -0.9653
 3618SOL    HW122487   1.307   2.487  10.403  0.0639  1.5549 -0.6339
 3618SOL    HW222488   1.244   2.580  10.304  1.1704  0.6869 -2.8672
 3619SOL     OW22489   3.071   2.280   8.215 -0.0909 -0.0576  0.1555
 3619SOL    HW122490   3.150   2.275   8.161 -0.8553 -0.3445 -0.9457
 3619SOL    HW222491   3.030   2.197   8.192  0.4789 -0.3710  0.2571
 3620SOL     OW22492   0.828   3.082  12.560  0.1928  0.1276 -0.4455
 3620SOL    HW122493   0.773   3.028  12.616 -0.8533 -0.1428 -1.7403
 3620SOL    HW222494   0.918   3.054  12.579 -0.0264  0.1623  0.6572
 3621SOL     OW22495   2.630   4.279   6.180 -0.1460 -0.1388  0.0893
 3621SOL    HW122496   2.563   4.225   6.222 -1.8433  1.3554 -0.7260
 3621SOL    HW222497   2.698   4.235   6.232  0.1576  0.7498  0.4378
 3622SOL     OW22498   0.130   2.691   0.159  0.4399 -0.2417  0.5552
 3622SOL    HW122499   0.087   2.638   0.091  0.3010 -2.5081  2.4117
 3622SOL    HW222500   0.103   2.780   0.137 -1.0829 -1.1669 -1.4100
 3623SOL     OW22501   4.475   1.453   4.168 -0.2106  0.7049  0.7727
 3623SOL    HW122502   4.433   1.367   4.167  0.9132  0.1614  0.9444
 3623SOL    HW222503   4.443   1.487   4.085  0.5195  1.0065  0.6176
 3624SOL     OW22504   2.764   2.836   4.465  0.3462 -0.1726  0.4611
 3624SOL    HW122505   2.704   2.859   4.536  0.5372  1.2013  0.1751
 3624SOL    HW222506   2.706   2.782   4.411 -1.2957 -0.6317  2.6683
 3625SOL     OW22507   4.614   4.641   4.446  0.5122 -0.2815 -0.1605
 3625SOL    HW122508   4.666   4.565   4.419 -0.6967 -1.4517  0.7652
 3625SOL    HW222509   4.662   4.710   4.400  0.9326 -0.6751 -0.3146
 3626SOL     OW22510   4.228   4.012   4.171 -0.1315 -0.3542  0.3515
 3626SOL    HW122511   4.191   3.986   4.086 -1.2680  0.5822  0.5572
 3626SOL    HW222512   4.313   3.970   4.165 -0.2242 -0.5274  0.2591
 3627SOL     OW22513   2.298   2.718   3.869  0.5085  0.3597 -0.1164
 3627SOL    HW122514   2.277   2.798   3.917 -0.0593  0.6774 -0.9026
 3627SOL    HW222515   2.211   2.681   3.856  0.1516  0.7708  1.1368
 3628SOL     OW22516   1.188   2.287   8.290 -0.4370  0.7194 -0.6108
 3628SOL    HW122517   1.106   2.322   8.256 -0.7914 -0.1161 -0.6039
 3628SOL    HW222518   1.200   2.345   8.365 -1.3430 -1.7927  1.4528
 3629SOL     OW22519   4.077   0.501   4.462 -0.2175 -0.4640  0.0633
 3629SOL    HW122520   3.989   0.473   4.435 -0.2853 -0.9231  0.7769
 3629SOL    HW222521   4.048   0.556   4.534  1.8392 -0.9079  1.2055
 3630SOL     OW22522   1.588   1.854  16.111  0.7704 -0.2142 -0.4603
 3630SOL    HW122523   1.684   1.847  16.112  0.5675 -2.8094  0.5382
 3630SOL    HW222524   1.554   1.766  16.096  0.1362 -0.2339  1.0949
 3631SOL     OW22525   0.235   2.066   6.523  0.0668  0.0810  0.0229
 3631SOL    HW122526   0.176   2.109   6.461 -0.2724  1.6170  1.4228
 3631SOL    HW222527   0.185   2.040   6.600  1.7171 -0.9743  0.7439
 3632SOL     OW22528   4.344   4.370   8.923  0.1262 -0.5840 -0.4130
 3632SOL    HW122529   4.336   4.318   8.843 -0.2834 -1.1476  0.0025
 3632SOL    HW222530   4.440   4.370   8.928  0.0394 -0.4538  1.1872
 3633SOL     OW22531   3.045   2.554   1.990  0.1676 -0.0700  0.4351
 3633SOL    HW122532   3.140   2.564   1.998  0.2594 -0.9674  0.4275
 3633SOL    HW222533   3.024   2.635   2.037 -1.0140 -0.3000  0.3073
 3634SOL     OW22534   3.820   1.926  15.243  0.2206 -0.2975  0.2445
 3634SOL    HW122535   3.894   1.919  15.304 -0.0843 -2.4053  0.3433
 3634SOL    HW222536   3.751   1.896  15.301  0.5113 -0.4059  0.5362
 3635SOL     OW22537   2.119   1.254   2.030 -0.0377 -0.1609 -0.1425
 3635SOL    HW122538   2.050   1.195   2.060  0.4957  0.0651  1.5064
 3635SOL    HW222539   2.150   1.225   1.944  4.6731  1.1106  1.1442
 3636SOL     OW22540   4.443   0.658   4.627  0.4585 -0.0376  0.3635
 3636SOL    HW122541   4.469   0.649   4.719  0.5233  2.1104  0.5405
 3636SOL    HW222542   4.513   0.720   4.607  0.7884  0.3628  2.7884
 3637SOL     OW22543   0.103   3.871   4.675  0.3290 -0.2334 -0.8232
 3637SOL    HW122544   0.177   3.931   4.678  0.8259 -0.8732 -0.3054
 3637SOL    HW222545   0.025   3.926   4.686  0.3306 -0.4293  0.1809
 3638SOL     OW22546   0.465   2.335   5.869 -0.1109 -0.2096  0.3364
 3638SOL    HW122547   0.516   2.258   5.845 -0.0069 -0.0959  0.1935
 3638SOL    HW222548   0.391   2.311   5.813  0.5560  1.5147 -1.2542
 3639SOL     OW22549   3.940   0.904   4.696  0.0563 -0.0336  0.1520
 3639SOL    HW122550   4.023   0.926   4.654 -1.4856  1.8764 -1.8756
 3639SOL    HW222551   3.896   0.989   4.698 -0.0277 -0.1115  1.9859
 3640SOL     OW22552   1.875   1.982   4.347  0.3183 -0.4068 -0.0191
 3640SOL    HW122553   1.906   1.949   4.263  0.3514 -1.7594  0.5373
 3640SOL    HW222554   1.910   2.071   4.335 -0.7436 -0.1459 -1.1726
 3641SOL     OW22555   1.889   2.858   0.224  0.1369 -0.0264 -0.1878
 3641SOL    HW122556   1.882   2.898   0.137 -1.8625  0.4008  0.1835
 3641SOL    HW222557   1.858   2.770   0.206  0.5472 -0.2910  0.4019
 3642SOL     OW22558   4.243   0.563   2.567 -0.5537  0.2360 -0.1421
 3642SOL    HW122559   4.261   0.641   2.620  1.5364 -2.4916  3.1780
 3642SOL    HW222560   4.157   0.589   2.535 -0.2129  1.2213 -0.2551
 3643SOL     OW22561   2.862   1.541   6.398  0.0172  0.4224 -0.7565
 3643SOL    HW122562   2.885   1.608   6.462 -1.8673  1.8755 -1.5876
 3643SOL    HW222563   2.768   1.558   6.392  0.3158  1.6879 -1.8995
 3644SOL     OW22564   2.020   0.782   7.287  0.1977 -0.7659  0.1493
 3644SOL    HW122565   2.008   0.692   7.255  1.9412 -0.9159 -0.0498
 3644SOL    HW222566   1.970   0.827   7.219  1.9982  2.1216  0.7552
 3645SOL     OW22567   4.271   1.864   4.365  0.5362 -0.5557  0.1809
 3645SOL    HW122568   4.212   1.791   4.386 -0.1462 -0.6006 -1.8530
 3645SOL    HW222569   4.361   1.836   4.379  0.3015 -0.6246  1.5466
 3646SOL     OW22570   3.221   2.911   0.853  0.3353 -0.0001 -0.4273
 3646SOL    HW122571   3.168   2.897   0.932  1.9940 -0.3682  0.6136
 3646SOL    HW222572   3.187   2.995   0.823  1.1005  0.5972  0.4007
 3647SOL     OW22573   1.804   3.684   8.722  0.3691  0.0706  0.0707
 3647SOL    HW122574   1.899   3.673   8.718  0.3003 -0.3519 -0.4246
 3647SOL    HW222575   1.790   3.765   8.672  1.4438 -0.2993 -0.8456
 3648SOL     OW22576   0.752   1.164   1.823 -0.2587 -0.5690 -0.2861
 3648SOL    HW122577   0.842   1.133   1.805  0.4026  0.5320  1.1636
 3648SOL    HW222578   0.764   1.182   1.916  0.1201  0.6029 -0.5623
 3649SOL     OW22579   3.105   3.021   3.248 -0.4138 -0.1444  0.4450
 3649SOL    HW122580   3.010   3.024   3.246 -0.4146  1.0954  2.1044
 3649SOL    HW222581   3.122   2.927   3.249  0.4580  0.0210  1.0810
 3650SOL     OW22582   3.965   0.952  14.686  0.4300  0.2065 -0.0318
 3650SOL    HW122583   3.909   0.874  14.678 -1.8305  1.8861 -0.4324
 3650SOL    HW222584   4.015   0.932  14.606 -1.6113  0.3153 -1.3366
 3651SOL     OW22585   0.158   4.294   4.867 -0.2457  0.1199  0.9119
 3651SOL    HW122586   0.200   4.378   4.847  0.0518  0.0420  1.2119
 3651SOL    HW222587   0.154   4.291   4.963 -0.8326 -0.8650  0.8492
 3652SOL     OW22588   3.548   3.555   3.640 -0.0659 -0.2135 -0.2874
 3652SOL    HW122589   3.592   3.558   3.555 -0.3150 -0.6806 -0.4291
 3652SOL    HW222590   3.466   3.511   3.618  0.0083 -0.1163 -0.7476
 3653SOL     OW22591   3.609   3.976   2.514 -0.5577 -0.3045  0.1403
 3653SOL    HW122592   3.597   3.899   2.570  1.2732  0.3838  1.4774
 3653SOL    HW222593   3.524   3.992   2.473  0.0237 -1.0853 -1.3388
 3654SOL     OW22594   3.629   2.015   3.986  0.2946 -0.4748 -0.3301
 3654SOL    HW122595   3.720   2.009   3.957  0.7541  1.1257  0.7532
 3654SOL    HW222596   3.591   1.944   3.934  0.1317 -0.1827 -0.6108
 3655SOL     OW22597   2.533   4.276   7.206 -0.4963 -0.0790 -0.1033
 3655SOL    HW122598   2.460   4.325   7.170  0.8495  1.0253 -1.3100
 3655SOL    HW222599   2.505   4.192   7.244  0.4538 -0.0748  0.6223
 3656SOL     OW22600   3.911   2.108   1.228 -0.4548 -0.3334 -0.0922
 3656SOL    HW122601   3.961   2.187   1.246  1.3368 -1.6264  0.6025
 3656SOL    HW222602   3.831   2.131   1.276 -1.2154 -0.6329 -1.2101
 3657SOL     OW22603   3.147   2.764   4.097  0.0152  0.0555  0.2768
 3657SOL    HW122604   3.064   2.722   4.074 -0.1056  0.5192 -0.1204
 3657SOL    HW222605   3.206   2.688   4.101 -0.4841 -0.3084  0.7088
 3658SOL     OW22606   3.340   1.242   6.631 -0.2155  0.0207 -0.3688
 3658SOL    HW122607   3.382   1.251   6.716  0.2965  1.0589 -0.7242
 3658SOL    HW222608   3.281   1.317   6.626 -0.9472 -0.5448 -0.2853
 3659SOL     OW22609   3.979   2.941   4.112 -0.1397  0.0584  0.4408
 3659SOL    HW122610   3.934   3.024   4.125 -1.3090 -0.6018  0.6118
 3659SOL    HW222611   4.051   2.975   4.059  0.1307 -2.4494 -0.7899
 3660SOL     OW22612   0.663   2.842  16.336  0.4482  0.7117 -0.0733
 3660SOL    HW122613   0.648   2.926  16.293  1.0669  1.2634  0.8111
 3660SOL    HW222614   0.629   2.873  16.420  1.1894 -0.5849  0.7058
 3661SOL     OW22615   2.074   2.394   4.818  0.1099  0.3185 -0.0172
 3661SOL    HW122616   2.149   2.450   4.839  1.8772 -2.3442  0.7480
 3661SOL    HW222617   2.022   2.389   4.898  0.3545 -0.7404  0.0646
 3662SOL     OW22618   3.699   4.101   8.342 -0.0591 -0.0468  0.4115
 3662SOL    HW122619   3.769   4.061   8.394 -2.0069 -0.2955  2.8474
 3662SOL    HW222620   3.641   4.026   8.326  1.6157 -1.1393 -0.4604
 3663SOL     OW22621   4.392   1.652  17.222 -0.4865 -0.2055  0.1039
 3663SOL    HW122622   4.314   1.610  17.258 -0.2293 -0.8983 -0.1468
 3663SOL    HW222623   4.393   1.612  17.135  0.5367  0.9531 -0.4136
 3664SOL     OW22624   2.141   4.275  12.203  0.0471 -0.5309 -0.1493
 3664SOL    HW122625   2.196   4.224  12.262 -0.0426 -0.6662 -0.1829
 3664SOL    HW222626   2.187   4.357  12.190  0.1468 -0.3441  1.3853
 3665SOL     OW22627   4.289   1.986   9.433 -0.0889 -0.2861  0.1804
 3665SOL    HW122628   4.295   2.074   9.396 -1.3310  0.1638  1.0757
 3665SOL    HW222629   4.241   2.017   9.509  1.1939  2.4163 -0.1049
 3666SOL     OW22630   2.245   0.142   7.411 -0.1081  0.1556  0.5745
 3666SOL    HW122631   2.316   0.122   7.473  0.4444 -0.9249 -0.4138
 3666SOL    HW222632   2.235   0.053   7.376  0.0026  0.5615 -0.4755
 3667SOL     OW22633   3.787   3.016  16.749  0.2116  0.1750  0.8590
 3667SOL    HW122634   3.788   3.060  16.664  0.7798  0.0868  0.8176
 3667SOL    HW222635   3.796   2.921  16.736  1.6533  0.2762  1.1134
 3668SOL     OW22636   1.418   3.467   9.819 -0.2881  0.0585  0.7855
 3668SOL    HW122637   1.445   3.534   9.757  1.4507 -1.5118 -0.1415
 3668SOL    HW222638   1.327   3.486   9.844  0.6660  0.8171  3.6910
 3669SOL     OW22639   2.990   1.521   1.685  0.0653 -0.4798  0.4450
 3669SOL    HW122640   2.956   1.583   1.620 -0.3306 -1.1749 -0.0003
 3669SOL    HW222641   2.954   1.567   1.761 -0.6343 -0.4039  0.0649
 3670SOL     OW22642   4.571   0.312   3.790 -0.0753  0.7969 -0.2806
 3670SOL    HW122643   4.529   0.322   3.705 -0.1425 -0.4104 -0.3938
 3670SOL    HW222644   4.539   0.391   3.834 -0.6411  0.6774 -0.4865
 3671SOL     OW22645   3.017   2.342   7.618  0.4432 -0.1099  0.2868
 3671SOL    HW122646   2.952   2.361   7.550  2.1871  0.0220 -1.3315
 3671SOL    HW222647   2.983   2.378   7.701 -0.3890 -0.7004  0.2033
 3672SOL     OW22648   3.209   3.617   7.996 -0.2794 -0.2322 -0.0716
 3672SOL    HW122649   3.193   3.581   7.909  2.1773  0.4403 -0.7881
 3672SOL    HW222650   3.120   3.612   8.030 -1.0543  0.2171 -2.0613
 3673SOL     OW22651   3.529   3.806   4.197 -0.1302  0.0835  0.2435
 3673SOL    HW122652   3.579   3.726   4.210 -2.3282 -0.9698  2.2243
 3673SOL    HW222653   3.438   3.775   4.194 -0.3459  0.8371 -1.4079
 3674SOL     OW22654   3.360   1.646   8.440 -0.0488  0.4529 -0.2311
 3674SOL    HW122655   3.374   1.670   8.532  0.2761  0.1356 -0.1977
 3674SOL    HW222656   3.312   1.564   8.451 -1.4524  1.0534 -1.8071
 3675SOL     OW22657   4.520   1.487   4.421  0.1312  0.6101 -0.1178
 3675SOL    HW122658   4.479   1.400   4.423  0.6504  0.3989  1.1299
 3675SOL    HW222659   4.515   1.500   4.326 -1.2234 -0.7372 -0.2350
 3676SOL     OW22660   2.766   1.842  11.805  0.2099 -0.1370 -0.0614
 3676SOL    HW122661   2.753   1.778  11.876  1.4579  0.7072  0.9143
 3676SOL    HW222662   2.720   1.916  11.844 -2.4511 -1.5428 -0.4882
 3677SOL     OW22663   3.317   1.400   1.157  0.0673 -0.6368  0.8374
 3677SOL    HW122664   3.290   1.462   1.224  2.2686  2.6569 -1.3008
 3677SOL    HW222665   3.239   1.384   1.104  0.9278 -1.7846 -0.0837
 3678SOL     OW22666   2.332   3.986  16.288 -0.3016 -0.5873  0.2887
 3678SOL    HW122667   2.239   3.966  16.300  0.0703 -1.7578  1.1863
 3678SOL    HW222668   2.342   3.969  16.195  1.7008 -0.7893  0.5383
 3679SOL     OW22669   1.164   1.264  17.747 -0.3767 -0.3441  0.5399
 3679SOL    HW122670   1.205   1.350  17.747  1.9407 -1.4356 -1.0693
 3679SOL    HW222671   1.144   1.259  17.653  1.2531 -1.3429  0.2475
 3680SOL     OW22672   3.244   3.194   4.648 -0.1225 -0.7008  0.4380
 3680SOL    HW122673   3.182   3.188   4.575 -0.4165 -0.6548  0.6829
 3680SOL    HW222674   3.323   3.232   4.611 -0.9280  0.1906 -0.3624
 3681SOL     OW22675   4.056   2.225  14.004 -0.5006 -0.3453  0.3555
 3681SOL    HW122676   4.047   2.135  14.035 -0.4438  0.6592  3.3120
 3681SOL    HW222677   3.974   2.256  14.042 -1.7632 -0.6618 -2.1329
 3682SOL     OW22678   1.115   2.683   1.622 -0.4424 -0.2075 -0.1305
 3682SOL    HW122679   1.110   2.636   1.706 -1.4462 -3.0433 -1.7632
 3682SOL    HW222680   1.059   2.621   1.576  1.7892 -0.4272 -2.5024
 3683SOL     OW22681   1.163   0.296   1.373 -0.2250 -0.2281  0.6951
 3683SOL    HW122682   1.155   0.344   1.456 -1.1486  0.7365  0.0644
 3683SOL    HW222683   1.171   0.362   1.303 -4.2329 -1.3582 -0.8239
 3684SOL     OW22684   3.085   3.662   6.012  0.7361 -0.8222 -0.1913
 3684SOL    HW122685   3.126   3.695   5.932  0.3092 -0.4693 -0.2699
 3684SOL    HW222686   2.993   3.687   5.999  1.2387 -0.0157 -2.2257
 3685SOL     OW22687   1.265   2.876   1.924 -0.3634 -0.1618  0.3171
 3685SOL    HW122688   1.320   2.858   1.848 -0.8634  2.1131 -0.5867
 3685SOL    HW222689   1.236   2.961   1.892  1.1340  0.3717  0.3527
 3686SOL     OW22690   1.349   2.292  10.987 -0.0204 -0.0649  0.3949
 3686SOL    HW122691   1.418   2.227  10.999 -1.0233 -0.5817  3.3485
 3686SOL    HW222692   1.391   2.349  10.922 -0.4229  1.3418  1.3741
 3687SOL     OW22693   2.650   4.320   9.627 -0.6793  0.2180  0.4217
 3687SOL    HW122694   2.686   4.321   9.716  2.0256 -1.3265 -0.6662
 3687SOL    HW222695   2.726   4.294   9.576 -0.1856  1.3056  0.6068
 3688SOL     OW22696   3.953   4.656   4.489 -0.7362  0.0891 -0.5900
 3688SOL    HW122697   4.025   4.601   4.521  0.3978  2.3706  0.7753
 3688SOL    HW222698   4.007   4.724   4.446  0.8294  0.1620  1.5024
 3689SOL     OW22699   2.695   1.885   4.137 -0.8364  0.5173 -0.4969
 3689SOL    HW122700   2.632   1.948   4.104 -1.8886 -0.5161 -0.4692
 3689SOL    HW222701   2.719   1.833   4.060 -1.3480  1.4508 -1.2742
 3690SOL     OW22702   1.846   2.633   5.318 -0.5163  0.1294  0.1562
 3690SOL    HW122703   1.874   2.708   5.369  0.3778 -1.1196  1.5034
 3690SOL    HW222704   1.897   2.568   5.366  1.2717 -0.5210 -2.6560
 3691SOL     OW22705   0.251   0.730   2.417 -0.3617  0.1678  0.1630
 3691SOL    HW122706   0.188   0.747   2.347  1.0436  1.9689 -0.6333
 3691SOL    HW222707   0.318   0.697   2.358 -2.3890 -0.6662 -1.6922
 3692SOL     OW22708   2.640   4.352   2.651  0.7310  0.4622 -0.4285
 3692SOL    HW122709   2.627   4.422   2.588  2.5629  0.5054 -0.7753
 3692SOL    HW222710   2.582   4.289   2.609  3.1078 -1.9851 -0.0920
 3693SOL     OW22711   1.900   2.738  13.215 -0.4802  0.1356  0.5757
 3693SOL    HW122712   1.948   2.705  13.291 -0.5396  0.5557  0.7937
 3693SOL    HW222713   1.891   2.829  13.243  1.8076  0.3562  0.6223
 3694SOL     OW22714   1.790   1.253  15.025 -0.1525 -0.0771  0.0033
 3694SOL    HW122715   1.750   1.188  15.082 -0.8743  0.2220 -0.1549
 3694SOL    HW222716   1.759   1.229  14.937 -0.9300 -1.9032  0.7922
 3695SOL     OW22717   1.901   0.648   4.578  0.0856 -0.2626 -0.3310
 3695SOL    HW122718   1.847   0.574   4.550 -1.4141  0.0983  1.5542
 3695SOL    HW222719   1.889   0.710   4.506 -1.3301  0.2195  0.3066
 3696SOL     OW22720   2.107   3.436  10.214 -0.4413  0.3154 -0.0309
 3696SOL    HW122721   2.197   3.402  10.215 -0.1847  1.0287  0.7424
 3696SOL    HW222722   2.097   3.484  10.296  0.2318  3.0352 -1.5365
 3697SOL     OW22723   0.962   1.594   2.436  0.0358 -0.2707 -0.1879
 3697SOL    HW122724   0.967   1.643   2.518 -0.4664 -0.2027 -0.1958
 3697SOL    HW222725   0.883   1.547   2.462 -1.0865  1.5315 -0.2692
 3698SOL     OW22726   4.654   2.149   8.708  0.3396 -0.2884 -0.2020
 3698SOL    HW122727   4.628   2.057   8.704  0.0352 -0.2243  0.3530
 3698SOL    HW222728   4.687   2.150   8.617  1.2075  1.7697  0.1311
 3699SOL     OW22729   0.066   4.733   5.746 -0.6424 -0.2852  0.0583
 3699SOL    HW122730   0.105   0.034   5.668  1.7138  0.1367  1.4529
 3699SOL    HW222731   0.057   4.642   5.718  1.9542 -0.1207 -1.2675
 3700SOL     OW22732   0.158   2.652   5.100 -0.0861  0.0161 -0.0622
 3700SOL    HW122733   0.144   2.727   5.043  1.6602 -0.6684 -1.4127
 3700SOL    HW222734   0.098   2.678   5.170  1.0265 -1.1763  1.3334
 3701SOL     OW22735   1.322   3.837  10.543 -0.3434  0.3794 -0.7322
 3701SOL    HW122736   1.231   3.856  10.568 -0.3987 -1.8057  0.7091
 3701SOL    HW222737   1.329   3.892  10.464 -0.2263  1.6713  0.1718
 3702SOL     OW22738   2.333   1.941  15.798  0.1651 -0.0764 -0.6220
 3702SOL    HW122739   2.307   2.009  15.737  2.1258  0.9200 -0.3357
 3702SOL    HW222740   2.394   1.987  15.856  1.1475 -1.4397 -0.5708
 3703SOL     OW22741   0.052   0.003   6.832  0.6076 -0.1745 -0.2259
 3703SOL    HW122742   0.054   4.645   6.824  1.1303 -0.2025  0.2487
 3703SOL    HW222743   0.074   0.014   6.924 -1.9599 -0.9734  0.4744
 3704SOL     OW22744   1.419   1.841   6.633 -0.1547  0.3484 -0.3880
 3704SOL    HW122745   1.340   1.812   6.678  0.0057 -1.2088 -1.1328
 3704SOL    HW222746   1.379   1.901   6.569 -0.3666  1.4240  0.7469
 3705SOL     OW22747   3.018   0.828  14.010  0.3441  0.4673  0.7424
 3705SOL    HW122748   3.074   0.903  13.992  0.0317 -0.1722 -2.8411
 3705SOL    HW222749   2.975   0.824  13.924 -0.7439 -1.0332  1.3472
 3706SOL     OW22750   0.658   2.600   7.085 -0.2570 -0.2892 -0.4412
 3706SOL    HW122751   0.603   2.611   7.008  0.3174 -0.7260 -0.9139
 3706SOL    HW222752   0.600   2.604   7.161  2.3187  1.0514  1.4766
 3707SOL     OW22753   0.976   1.237   6.182 -0.0322 -0.0020 -0.0744
 3707SOL    HW122754   0.971   1.203   6.271  1.9547 -0.7371 -0.2371
 3707SOL    HW222755   0.887   1.233   6.147 -0.6020  1.3600  1.2068
 3708SOL     OW22756   3.884   1.469   5.349 -0.2107  0.3590 -0.2324
 3708SOL    HW122757   3.916   1.462   5.439  0.3468 -0.2011 -0.4684
 3708SOL    HW222758   3.933   1.392   5.320  0.6744  2.4197 -4.2435
 3709SOL     OW22759   1.846   0.658   5.037  0.1319 -0.0963  0.4935
 3709SOL    HW122760   1.863   0.695   4.950  1.3960  1.4952  1.4164
 3709SOL    HW222761   1.906   0.584   5.041  1.9340  1.4736  2.4021
 3710SOL     OW22762   1.976   1.168   8.086  0.3270 -0.4237 -0.6246
 3710SOL    HW122763   1.955   1.258   8.060 -0.0687  0.3253  2.2620
 3710SOL    HW222764   1.992   1.127   8.001  2.1246 -1.5243  0.2359
 3711SOL     OW22765   4.453   1.075   5.213  0.6796 -0.4174 -0.7922
 3711SOL    HW122766   4.377   1.027   5.246  0.4142  0.5401 -0.0204
 3711SOL    HW222767   4.426   1.115   5.130 -0.8286 -0.1198 -0.1584
 3712SOL     OW22768   2.101   1.182   2.501 -0.0105  0.4059  0.1924
 3712SOL    HW122769   2.016   1.149   2.472  0.2702  0.3935 -0.6160
 3712SOL    HW222770   2.108   1.130   2.580 -0.8086 -0.2462 -0.1664
 3713SOL     OW22771   4.196   2.340  15.478 -0.0549 -0.0126 -0.5192
 3713SOL    HW122772   4.154   2.302  15.555 -1.1825 -0.9775 -1.6127
 3713SOL    HW222773   4.116   2.353  15.426 -0.4637 -0.3277  0.0338
 3714SOL     OW22774   4.631   2.507   4.915 -0.5698  0.3038  0.3510
 3714SOL    HW122775   4.666   2.587   4.875 -1.6669 -0.2337 -1.6673
 3714SOL    HW222776   4.620   2.540   5.004  1.0680  0.5152  0.4780
 3715SOL     OW22777   1.571   1.560  12.648 -0.3274 -0.3233  0.5250
 3715SOL    HW122778   1.516   1.566  12.726  0.5811  1.1539  1.0325
 3715SOL    HW222779   1.519   1.599  12.578 -0.2181 -1.9627 -0.4760
 3716SOL     OW22780   3.059   1.935  10.826 -0.0352  0.0650  0.2906
 3716SOL    HW122781   3.125   1.956  10.892  0.4809 -0.0368 -0.1937
 3716SOL    HW222782   3.109   1.980  10.758 -0.1068 -1.2738 -0.6333
 3717SOL     OW22783   0.869   0.563   4.170  0.1969 -0.2352 -0.0283
 3717SOL    HW122784   0.848   0.526   4.255 -1.8168 -1.1644 -0.9147
 3717SOL    HW222785   0.904   0.487   4.125 -1.8617 -2.0850  1.5036
 3718SOL     OW22786   1.320   0.691  16.246  0.8716  0.3383 -0.0468
 3718SOL    HW122787   1.342   0.733  16.329  1.3894  0.6297 -0.3276
 3718SOL    HW222788   1.245   0.743  16.217  0.5120 -0.9185 -1.3486
 3719SOL     OW22789   3.057   4.457   5.972  0.2411  0.3019 -0.0112
 3719SOL    HW122790   3.030   4.476   5.882  0.7053 -0.6700 -0.3457
 3719SOL    HW222791   3.152   4.457   5.968  0.1528 -0.1709 -2.0749
 3720SOL     OW22792   0.898   4.718  11.384  0.1046  0.4361 -0.2022
 3720SOL    HW122793   0.820   4.694  11.434  0.4175  0.8981  0.5019
 3720SOL    HW222794   0.885   0.073  11.365  1.4561  0.7426  0.3661
 3721SOL     OW22795   3.039   4.416   8.027  0.0114  0.0156  0.4786
 3721SOL    HW122796   2.950   4.449   8.039 -0.3918 -0.7101 -0.4407
 3721SOL    HW222797   3.042   4.385   7.936 -0.8323 -1.0770  0.8232
 3722SOL     OW22798   3.170   3.859   3.012 -0.3499  0.0339  0.3952
 3722SOL    HW122799   3.137   3.896   3.094 -1.1750 -1.9561  0.9651
 3722SOL    HW222800   3.252   3.834   3.054 -0.1922  1.3639  0.8569
 3723SOL     OW22801   1.511   4.568  17.438 -0.6306  0.3139 -0.1890
 3723SOL    HW122802   1.513   4.477  17.468  1.0897  0.2033 -0.6526
 3723SOL    HW222803   1.505   4.563  17.343  0.8970 -1.0482 -0.2126
 3724SOL     OW22804   3.568   2.972   5.130  0.0156 -0.2236 -0.3537
 3724SOL    HW122805   3.567   2.951   5.036 -0.9850 -1.7332 -0.0054
 3724SOL    HW222806   3.634   2.910   5.162  1.4307  0.4488 -1.8880
 3725SOL     OW22807   3.914   1.513   8.062 -0.4395 -0.3707 -0.5102
 3725SOL    HW122808   3.893   1.420   8.051  0.0709 -0.6690  1.0062
 3725SOL    HW222809   3.909   1.519   8.158 -1.2976 -0.3231 -0.5619
 3726SOL     OW22810   3.832   1.691   2.115  0.6855  0.0391  0.1862
 3726SOL    HW122811   3.856   1.643   2.035  0.1921  1.4250 -0.7975
 3726SOL    HW222812   3.892   1.656   2.181 -0.8143 -0.2362  1.3969
 3727SOL     OW22813   2.469   1.182   6.205  0.1818 -0.5993  0.0339
 3727SOL    HW122814   2.478   1.102   6.154 -1.3051 -0.4145 -0.5059
 3727SOL    HW222815   2.528   1.247   6.167 -0.8105 -0.0329 -0.5285
 3728SOL     OW22816   0.071   1.538  12.824  0.0667  0.7101  0.2031
 3728SOL    HW122817   0.102   1.450  12.845 -2.1660 -0.2560 -0.5487
 3728SOL    HW222818   0.007   1.524  12.754 -0.5073  1.2797  0.6088
 3729SOL     OW22819   0.042   3.295   1.521  0.2267 -0.7754 -0.2921
 3729SOL    HW122820   4.725   3.294   1.442  0.6612 -0.1195 -0.5963
 3729SOL    HW222821   4.719   3.250   1.580  1.2661 -5.3738 -2.7267
 3730SOL     OW22822   3.910   2.479   9.162  0.2140  0.2645  0.4942
 3730SOL    HW122823   3.876   2.425   9.091 -0.2998 -0.3906  1.2408
 3730SOL    HW222824   3.902   2.415   9.232  2.0224 -1.8239 -1.1907
 3731SOL     OW22825   1.171   2.352   3.867 -0.2473 -0.2265 -0.2834
 3731SOL    HW122826   1.101   2.416   3.856 -1.1564 -0.7720  2.2712
 3731SOL    HW222827   1.129   2.267   3.849 -0.4540  0.2539 -2.1018
 3732SOL     OW22828   3.647   1.400   6.089  0.3631 -0.3391  0.6521
 3732SOL    HW122829   3.690   1.475   6.129  0.1618  0.3080 -0.3718
 3732SOL    HW222830   3.564   1.385   6.136 -0.6542 -3.4434 -2.1359
 3733SOL     OW22831   0.924   4.610   2.340  0.1050 -0.6434 -0.2082
 3733SOL    HW122832   0.887   4.556   2.410  2.7137 -3.0151 -0.6825
 3733SOL    HW222833   0.857   4.597   2.273  0.3945  0.4042 -0.6962
 3734SOL     OW22834   4.223   2.436  15.147  0.3139 -0.2426  0.9114
 3734SOL    HW122835   4.312   2.453  15.177 -0.0056  0.3893  1.4878
 3734SOL    HW222836   4.205   2.517  15.099 -1.3458 -1.3547 -0.3658
 3735SOL     OW22837   3.635   2.762  17.126  0.1352 -0.1164  0.1707
 3735SOL    HW122838   3.672   2.720  17.203 -0.2039  2.5489  1.7835
 3735SOL    HW222839   3.706   2.741  17.065  1.2666  0.8386  1.1535
 3736SOL     OW22840   2.825   0.196   2.607  0.0834 -0.0213 -0.6995
 3736SOL    HW122841   2.886   0.269   2.606 -0.8772  0.7953  0.9697
 3736SOL    HW222842   2.738   0.234   2.594  0.3431  0.6106 -0.5990
 3737SOL     OW22843   2.668   2.745   6.478  0.8347 -0.1463  0.4598
 3737SOL    HW122844   2.635   2.767   6.391 -2.5663 -0.1862  1.7653
 3737SOL    HW222845   2.592   2.764   6.532  1.4041  1.4987  0.6883
 3738SOL     OW22846   2.427   4.563   4.162 -0.4076  0.0181  0.0214
 3738SOL    HW122847   2.439   4.533   4.253  0.6413  2.4432  0.6861
 3738SOL    HW222848   2.334   4.577   4.180 -0.4129  0.2585 -0.1971
 3739SOL     OW22849   3.996   4.499   5.028  0.7096  0.2656  0.3044
 3739SOL    HW122850   3.998   4.570   5.092  2.6476  2.1157 -1.7771
 3739SOL    HW222851   3.954   4.545   4.955  0.8072  0.7309  0.5400
 3740SOL     OW22852   3.634   1.195  10.046 -0.0140  1.0273 -0.1210
 3740SOL    HW122853   3.625   1.263  10.113  2.4581  0.0257  1.2623
 3740SOL    HW222854   3.548   1.209  10.008 -0.3950  0.0458  0.3871
 3741SOL     OW22855   4.123   4.086  14.087 -0.1362 -0.1761 -0.2042
 3741SOL    HW122856   4.086   4.172  14.107 -0.3509  0.1880 -2.1437
 3741SOL    HW222857   4.200   4.089  14.144  1.1946 -0.8737 -1.9615
 3742SOL     OW22858   2.613   3.433   4.633 -0.1476 -0.0164  0.6551
 3742SOL    HW122859   2.681   3.367   4.622  0.2765  0.9637 -2.5722
 3742SOL    HW222860   2.619   3.448   4.728  1.1384 -0.0646  0.5785
 3743SOL     OW22861   1.550   1.043   7.481 -0.1446 -0.0784  0.9090
 3743SOL    HW122862   1.586   0.960   7.451  1.5524  0.8341  0.4141
 3743SOL    HW222863   1.602   1.102   7.427 -0.6476 -2.6755 -2.3960
 3744SOL     OW22864   2.017   0.056  10.051  0.1159 -0.6329 -0.1966
 3744SOL    HW122865   2.108   0.058  10.081  0.2816 -0.5573 -0.6958
 3744SOL    HW222866   1.962   0.061  10.129  1.1816  3.2595  0.2999
 3745SOL     OW22867   3.065   1.673  11.614 -0.5639 -0.4190 -0.2878
 3745SOL    HW122868   3.023   1.710  11.537  0.6075 -0.5544 -0.9913
 3745SOL    HW222869   3.143   1.641  11.569 -0.5173 -1.2217  0.3668
 3746SOL     OW22870   1.759   3.974   9.668  0.4251 -0.1897 -0.6200
 3746SOL    HW122871   1.813   4.039   9.624  1.8042 -0.8084  0.1658
 3746SOL    HW222872   1.716   3.947   9.587  0.4247 -1.0603 -0.3280
 3747SOL     OW22873   3.261   0.449   0.043 -0.3669 -0.4353  0.4024
 3747SOL    HW122874   3.299   0.503  17.723  1.4044 -1.4143  0.6169
 3747SOL    HW222875   3.241   0.520   0.104  0.8207 -1.2846  1.7967
 3748SOL     OW22876   2.445   4.318  16.108  0.3701 -0.3054  0.2503
 3748SOL    HW122877   2.412   4.270  16.032  0.5025  1.6256 -1.0486
 3748SOL    HW222878   2.365   4.346  16.153  0.5055  1.0422 -0.3325
 3749SOL     OW22879   3.367   1.755   3.401 -0.3336  0.2661 -0.2902
 3749SOL    HW122880   3.411   1.821   3.347 -1.3965  0.2150 -1.2163
 3749SOL    HW222881   3.276   1.769   3.377 -0.8695  1.1125  2.2027
 3750SOL     OW22882   0.605   1.589   7.210  0.7633 -0.0450  1.1232
 3750SOL    HW122883   0.623   1.511   7.157 -0.1864  0.6795 -0.2535
 3750SOL    HW222884   0.539   1.549   7.267 -0.0670  0.4273  0.4955
 3751SOL     OW22885   3.562   0.233   2.600  0.3171 -0.1553 -0.0413
 3751SOL    HW122886   3.607   0.171   2.657  0.4493 -1.5116 -1.6217
 3751SOL    HW222887   3.576   0.187   2.517  2.4935 -3.0380  1.9282
 3752SOL     OW22888   3.438   4.022   5.678 -0.0587 -0.1857 -0.4914
 3752SOL    HW122889   3.368   3.984   5.731  1.4003 -0.3914  1.2471
 3752SOL    HW222890   3.465   3.945   5.628 -0.6800  0.0375 -1.1849
 3753SOL     OW22891   4.615   1.379   7.323  0.5998 -0.0491  0.2593
 3753SOL    HW122892   4.662   1.318   7.381  0.3730 -0.8289 -0.3882
 3753SOL    HW222893   4.570   1.318   7.266  0.9019 -0.0134 -0.0186
 3754SOL     OW22894   4.484   2.155   8.101 -0.4974 -0.0247  0.0344
 3754SOL    HW122895   4.433   2.198   8.033 -0.9043 -0.8708 -0.1971
 3754SOL    HW222896   4.469   2.222   8.168  0.2413  0.6678 -0.4881
 3755SOL     OW22897   1.488   3.748   1.961 -0.7611  0.1671 -0.1429
 3755SOL    HW122898   1.560   3.727   1.901  1.1847 -1.5500  2.8528
 3755SOL    HW222899   1.487   3.844   1.964 -1.9797  0.1857 -0.9209
 3756SOL     OW22900   3.830   2.725   7.969  0.0754 -0.0757  0.2693
 3756SOL    HW122901   3.796   2.811   7.996  1.2563 -0.2746  2.4325
 3756SOL    HW222902   3.801   2.673   8.044  0.6570  1.9220  1.8770
 3757SOL     OW22903   3.030   3.558   6.593 -0.3451 -0.3617 -0.2328
 3757SOL    HW122904   3.069   3.646   6.597 -2.2395  0.4552  0.2210
 3757SOL    HW222905   3.056   3.516   6.511 -1.1628  0.3513 -0.8516
 3758SOL     OW22906   2.546   1.338   3.032  0.2705  0.2212 -0.1691
 3758SOL    HW122907   2.486   1.394   3.082  0.7437  0.9389 -0.4137
 3758SOL    HW222908   2.570   1.276   3.101 -1.8177 -0.3339  0.0427
 3759SOL     OW22909   0.325   3.711   4.774  0.3275  0.4694 -0.4556
 3759SOL    HW122910   0.336   3.803   4.798 -2.2475  0.6329  0.0430
 3759SOL    HW222911   0.268   3.711   4.698 -0.4023 -0.3492  0.1047
 3760SOL     OW22912   4.604   2.350  12.028  0.3127 -0.5945  0.2971
 3760SOL    HW122913   4.555   2.311  12.100  0.2824 -0.9870  0.0652
 3760SOL    HW222914   4.559   2.435  12.023  0.9421 -0.1975  1.5023
 3761SOL     OW22915   2.269   0.285   7.679 -0.1257 -0.5263  0.2238
 3761SOL    HW122916   2.205   0.290   7.608  0.7808  1.8888 -0.3879
 3761SOL    HW222917   2.318   0.205   7.659 -0.9968 -0.9338 -0.3207
 3762SOL     OW22918   0.094   1.065   8.601  0.5917  0.3665  0.3651
 3762SOL    HW122919   0.168   1.034   8.652  1.8004  1.5609 -0.6535
 3762SOL    HW222920   0.093   1.033   8.510  0.7314  0.0074  0.4920
 3763SOL     OW22921   1.826   2.702  17.156  0.0127  0.5033  0.3778
 3763SOL    HW122922   1.811   2.700  17.062  0.9611 -1.4324  0.2715
 3763SOL    HW222923   1.920   2.691  17.170  0.2651  2.3059 -0.0206
 3764SOL     OW22924   3.513   0.027   8.641 -0.4493  0.6681  0.1202
 3764SOL    HW122925   3.563   4.721   8.572 -0.1041 -0.8153  1.3064
 3764SOL    HW222926   3.528   4.715   8.721  0.5463 -0.0004 -0.4777
 3765SOL     OW22927   3.326   2.867   8.678  0.3068  0.2839 -0.5135
 3765SOL    HW122928   3.241   2.859   8.634 -0.5179 -1.2531  1.3539
 3765SOL    HW222929   3.365   2.780   8.664  2.4350  1.4806 -1.9238
 3766SOL     OW22930   2.339   4.517   6.457 -0.0486 -0.4969 -0.0639
 3766SOL    HW122931   2.310   4.565   6.379  0.3397 -1.3012 -0.6914
 3766SOL    HW222932   2.400   4.581   6.493 -0.3001 -1.4353  2.0112
 3767SOL     OW22933   0.479   0.782   7.040  0.3419  0.3045  0.1060
 3767SOL    HW122934   0.548   0.736   7.087 -3.0104 -1.6653  3.1794
 3767SOL    HW222935   0.481   0.868   7.082 -0.1418  1.4111 -2.1293
 3768SOL     OW22936   2.252   0.986   4.675 -0.0296 -0.1075  0.2008
 3768SOL    HW122937   2.268   0.962   4.584  4.0959  2.3987  0.2057
 3768SOL    HW222938   2.248   1.078   4.649  1.4665 -0.3322 -0.8587
 3769SOL     OW22939   0.108   2.304   4.989 -0.3343 -0.7612 -0.4676
 3769SOL    HW122940   0.022   2.346   4.990  0.4861  0.9588 -1.7303
 3769SOL    HW222941   0.157   2.354   5.055 -2.3719  1.3667 -0.5287
 3770SOL     OW22942   2.916   3.993   2.594 -0.5427  0.0108  0.5080
 3770SOL    HW122943   2.920   4.070   2.650 -0.9661 -0.0174  0.5776
 3770SOL    HW222944   2.867   3.927   2.643 -0.2535  1.1178  2.3067
 3771SOL     OW22945   4.058   1.974  17.254  0.3449  0.3849 -0.1075
 3771SOL    HW122946   4.127   1.927  17.301 -1.6343  0.5045  2.8792
 3771SOL    HW222947   4.023   2.021  17.330 -0.4395  0.4386 -0.5115
 3772SOL     OW22948   3.901   0.379  10.108  0.2121  0.0345  0.1431
 3772SOL    HW122949   3.919   0.471  10.128  0.7978  0.4057 -2.0265
 3772SOL    HW222950   3.852   0.388  10.026 -2.2453 -0.0095  1.6009
 3773SOL     OW22951   1.034   0.572   3.832 -0.1663 -0.4693 -0.1282
 3773SOL    HW122952   1.046   0.544   3.923 -1.1121 -1.5117 -0.3265
 3773SOL    HW222953   1.103   0.521   3.788 -1.2941 -1.5602 -0.6406
 3774SOL     OW22954   0.730   0.688   9.551  0.0494  0.7879 -0.0477
 3774SOL    HW122955   0.780   0.609   9.570  0.2419  0.4640 -1.8514
 3774SOL    HW222956   0.803   0.748   9.542  0.5060  0.2794  0.2682
 3775SOL     OW22957   2.347   3.922  15.375 -0.4129  0.2222  0.1729
 3775SOL    HW122958   2.425   3.958  15.417  0.3114 -0.7434 -0.3381
 3775SOL    HW222959   2.334   3.842  15.426  1.4465  0.1146  0.4813
 3776SOL     OW22960   0.949   1.810   2.626 -0.4060  0.3252  0.0898
 3776SOL    HW122961   1.017   1.872   2.597 -1.4442  1.1169 -0.6440
 3776SOL    HW222962   0.868   1.856   2.603 -1.2696 -2.1698 -1.8042
 3777SOL     OW22963   2.585   1.612  12.991 -0.0421 -0.9577 -0.2627
 3777SOL    HW122964   2.534   1.646  12.918 -1.6011  2.2013  2.2788
 3777SOL    HW222965   2.597   1.698  13.033 -0.6030 -2.2001  2.4677
 3778SOL     OW22966   3.210   3.554  12.923  0.6065 -0.3352  0.1526
 3778SOL    HW122967   3.259   3.533  12.844 -2.3897 -1.2500 -1.4680
 3778SOL    HW222968   3.138   3.490  12.918  0.5397 -0.4990  3.0570
 3779SOL     OW22969   0.903   2.478   0.474  0.1329  0.2602  0.2880
 3779SOL    HW122970   0.855   2.537   0.532 -1.6624  0.2558 -1.1834
 3779SOL    HW222971   0.843   2.477   0.399  1.1125 -1.8015 -0.4510
 3780SOL     OW22972   1.509   2.965  17.686 -0.0388 -0.4689 -0.5164
 3780SOL    HW122973   1.517   3.042  17.630 -2.6765  2.1235  2.6968
 3780SOL    HW222974   1.431   2.924  17.649 -0.9678  0.4527  0.4438
 3781SOL     OW22975   4.723   4.692   6.544  0.0595  0.8560  0.3261
 3781SOL    HW122976   0.031   4.707   6.626  0.3317  1.6822  0.0227
 3781SOL    HW222977   0.041   4.637   6.489  1.0715  1.7712  0.4464
 3782SOL     OW22978   1.484   3.722   9.096 -0.7964 -0.6611 -0.4078
 3782SOL    HW122979   1.434   3.759   9.022  0.9192  2.7211  0.1638
 3782SOL    HW222980   1.567   3.766   9.079 -0.3288 -2.1136 -1.9310
 3783SOL     OW22981   0.290   2.474  12.816 -0.2178 -0.4117  0.7889
 3783SOL    HW122982   0.235   2.552  12.808  0.9501 -0.0058 -3.4447
 3783SOL    HW222983   0.234   2.415  12.765 -0.3608 -0.6191  1.1880
 3784SOL     OW22984   0.467   0.616   0.282 -0.2781 -0.0988 -0.4082
 3784SOL    HW122985   0.386   0.668   0.286 -0.3302 -0.1070 -1.4030
 3784SOL    HW222986   0.429   0.534   0.251  2.2660 -0.3313 -2.8829
 3785SOL     OW22987   1.420   3.764   4.422  0.3114  0.6303  0.1916
 3785SOL    HW122988   1.501   3.715   4.409  0.9261  1.4171  1.0306
 3785SOL    HW222989   1.357   3.699   4.455 -0.3512  1.9228  1.4949
 3786SOL     OW22990   4.532   2.889  11.643  0.1991 -0.4564  0.8007
 3786SOL    HW122991   4.540   2.795  11.629 -0.4404 -0.7096  2.1769
 3786SOL    HW222992   4.560   2.897  11.734 -0.9035  1.0948  1.0101
 3787SOL     OW22993   3.241   0.990   2.061 -0.3840  0.4097 -0.1599
 3787SOL    HW122994   3.311   0.996   2.126 -0.6085 -2.2679  0.3102
 3787SOL    HW222995   3.160   0.977   2.110 -0.2133 -0.1465 -0.0314
 3788SOL     OW22996   3.570   4.639   6.921  0.3168 -0.2293 -0.4663
 3788SOL    HW122997   3.509   4.688   6.867  1.0026  1.9301  0.7343
 3788SOL    HW222998   3.573   4.679   7.008 -1.1959  0.8851 -0.9381
 3789SOL     OW22999   2.371   0.998  16.011  0.3168  0.3729 -0.3958
 3789SOL    HW123000   2.419   1.079  15.992  1.4426  0.0103  0.9553
 3789SOL    HW223001   2.296   1.038  16.055  0.6397 -0.0070  0.4900
 3790SOL     OW23002   3.125   4.215   9.472 -0.4870 -0.7280  0.2462
 3790SOL    HW123003   3.198   4.212   9.535 -0.4639  2.4067  0.3473
 3790SOL    HW223004   3.115   4.308   9.454 -1.9593 -0.5480  2.0199
 3791SOL     OW23005   1.928   2.830   7.713  0.5717  0.0547 -0.5371
 3791SOL    HW123006   1.904   2.867   7.798  2.7105 -1.0067  0.5212
 3791SOL    HW223007   2.000   2.770   7.734 -2.2726 -3.3735 -0.5471
 3792SOL     OW23008   1.827   2.403  16.411 -0.6442 -0.0444  0.2265
 3792SOL    HW123009   1.743   2.391  16.456 -0.9205  0.5502 -0.1275
 3792SOL    HW223010   1.786   2.442  16.333  1.2639 -2.2404 -1.8570
 3793SOL     OW23011   1.854   1.795   7.302  0.6564  0.1434 -0.5636
 3793SOL    HW123012   1.926   1.753   7.350 -0.7224  0.9735  2.2586
 3793SOL    HW223013   1.795   1.722   7.286 -2.3570  2.0898  1.7035
 3794SOL     OW23014   3.180   3.675   3.838 -0.7549 -0.3248  0.2147
 3794SOL    HW123015   3.087   3.674   3.861 -0.8784 -0.9709 -0.3017
 3794SOL    HW223016   3.179   3.701   3.746 -0.4992 -0.0530  0.2857
 3795SOL     OW23017   0.344   1.563   1.154  0.4279  0.4200 -0.2314
 3795SOL    HW123018   0.271   1.550   1.214  0.3527 -0.3118 -0.4791
 3795SOL    HW223019   0.372   1.645   1.196  3.3932 -0.4268 -0.5692
 3796SOL     OW23020   1.548   3.473   0.474  0.0136  0.1719 -0.4363
 3796SOL    HW123021   1.485   3.544   0.481 -0.8017 -0.5474 -0.4445
 3796SOL    HW223022   1.507   3.431   0.398  1.3270 -1.4369 -0.2594
 3797SOL     OW23023   3.038   0.707   8.562 -0.8564 -0.8549  0.0117
 3797SOL    HW123024   3.131   0.686   8.553 -0.6772  0.4428 -1.2457
 3797SOL    HW223025   3.011   0.673   8.476 -0.9587 -0.0721 -0.2721
 3798SOL     OW23026   0.639   4.632   8.968  0.6909  0.5960 -0.2512
 3798SOL    HW123027   0.545   4.647   8.959  0.9625  1.6385 -1.3504
 3798SOL    HW223028   0.665   4.678   8.888  0.6822 -2.5214 -2.0505
 3799SOL     OW23029   3.644   4.686   3.295 -0.1758  0.4999 -0.4807
 3799SOL    HW123030   3.659   4.725   3.382  2.0509 -2.1234  0.2986
 3799SOL    HW223031   3.650   0.025   3.239  0.6779  0.4838 -0.4045
 3800SOL     OW23032   3.003   0.768   2.374 -0.6625 -0.3138 -0.2080
 3800SOL    HW123033   2.994   0.844   2.316  0.9485  1.1089  1.4011
 3800SOL    HW223034   3.054   0.803   2.447 -1.0531 -0.7023  0.2591
 3801SOL     OW23035   1.596   4.535  14.954  0.2872 -0.3242 -0.0993
 3801SOL    HW123036   1.533   4.607  14.950  2.0822  1.1292 -1.9958
 3801SOL    HW223037   1.609   4.532  15.049 -0.7280  3.0464  0.1285
 3802SOL     OW23038   1.150   3.395   8.813  0.0517  0.0072 -0.0421
 3802SOL    HW123039   1.235   3.378   8.854 -0.2502  1.9151  1.4020
 3802SOL    HW223040   1.133   3.322   8.753  1.9051 -0.2085 -0.3017
 3803SOL     OW23041   1.288   3.613   1.817 -0.6241  0.1159  0.0702
 3803SOL    HW123042   1.354   3.679   1.793 -0.7653  0.2035 -0.0726
 3803SOL    HW223043   1.229   3.650   1.882  1.9003 -0.7335  2.8105
 3804SOL     OW23044   1.809   0.270   8.823  0.4015 -0.2937  0.4860
 3804SOL    HW123045   1.817   0.305   8.912 -0.9080  0.5511  0.2720
 3804SOL    HW223046   1.894   0.229   8.807  1.0733  1.7930 -1.1769
 3805SOL     OW23047   1.700   2.309   4.371  0.0641 -0.1177 -0.9658
 3805SOL    HW123048   1.707   2.377   4.303  0.5460 -1.6825 -2.4750
 3805SOL    HW223049   1.791   2.314   4.399 -0.7092 -0.2092  1.5380
 3806SOL     OW23050   0.997   1.799  13.248  0.0627 -0.1812 -0.6778
 3806SOL    HW123051   0.932   1.782  13.179  0.5990  0.6170 -1.3752
 3806SOL    HW223052   0.997   1.713  13.289  0.3892  0.3159  0.3583
 3807SOL     OW23053   4.458   3.336   8.994  0.1145  0.1356 -0.3600
 3807SOL    HW123054   4.415   3.351   8.910  2.0360  2.6843 -0.8904
 3807SOL    HW223055   4.552   3.338   8.976  0.3565  2.6297  1.1983
 3808SOL     OW23056   4.201   1.803  10.275 -0.3195  0.2326 -0.5866
 3808SOL    HW123057   4.143   1.778  10.346  0.7543  2.8046  1.1816
 3808SOL    HW223058   4.167   1.770  10.192 -1.6130  0.2279 -0.0434
 3809SOL     OW23059   4.103   0.615  11.435  0.2278 -0.2519  0.0437
 3809SOL    HW123060   4.035   0.681  11.450 -0.4352 -0.4046 -2.1632
 3809SOL    HW223061   4.063   0.536  11.470 -0.1432  0.2003  0.6398
 3810SOL     OW23062   1.415   3.952   4.186 -0.0926 -0.1432  0.4030
 3810SOL    HW123063   1.419   3.887   4.256 -4.4291 -0.6215  0.1873
 3810SOL    HW223064   1.336   3.923   4.140 -0.8235 -0.0756  1.6430
 3811SOL     OW23065   4.658   3.402   7.837 -0.1340  0.0778  0.3728
 3811SOL    HW123066   4.665   3.398   7.932  0.2250  1.6461  0.4145
 3811SOL    HW223067   4.667   3.497   7.823  1.8800 -0.1961 -0.1684
 3812SOL     OW23068   0.772   3.632   1.223  0.0112 -0.5552 -0.0189
 3812SOL    HW123069   0.801   3.549   1.186 -0.8184 -1.2767  0.9730
 3812SOL    HW223070   0.825   3.625   1.302  1.3721 -3.1667 -1.1748
 3813SOL     OW23071   1.393   2.123   8.837  0.3974  0.3571  0.0685
 3813SOL    HW123072   1.459   2.153   8.900  1.5943 -0.5289 -0.7573
 3813SOL    HW223073   1.304   2.151   8.856 -0.4339 -1.1571 -1.4961
 3814SOL     OW23074   1.076   3.016  15.929  0.4192  0.3166 -0.1740
 3814SOL    HW123075   1.111   3.089  15.980 -1.1617  0.7278  0.3196
 3814SOL    HW223076   1.152   2.990  15.876 -0.8540 -1.6334 -1.0532
 3815SOL     OW23077   4.267   0.089   5.346  0.1691 -0.3251  0.3653
 3815SOL    HW123078   4.327   0.062   5.416 -0.3348 -0.6808  0.6608
 3815SOL    HW223079   4.213   0.011   5.335  0.8312 -0.5047 -1.5578
 3816SOL     OW23080   1.467   1.945   1.172  0.2233 -0.0143  0.1875
 3816SOL    HW123081   1.467   1.863   1.123 -0.8223  0.2462 -0.2504
 3816SOL    HW223082   1.417   2.008   1.121  1.2939  1.6763  1.2181
 3817SOL     OW23083   4.103   4.527  11.238  0.5265  0.3221 -0.3269
 3817SOL    HW123084   4.178   4.511  11.180 -0.4800 -1.7139 -1.0589
 3817SOL    HW223085   4.037   4.557  11.176 -1.2101 -0.9456  0.9136
 3818SOL     OW23086   4.500   3.728   9.311  0.3493  0.0679  0.2690
 3818SOL    HW123087   4.460   3.706   9.395  0.8673  0.1012  0.5215
 3818SOL    HW223088   4.470   3.657   9.254 -3.1308  0.2921  1.8424
 3819SOL     OW23089   2.858   3.389   5.337 -0.1412 -0.8859  0.0092
 3819SOL    HW123090   2.767   3.420   5.333 -0.5316 -1.9053  1.0791
 3819SOL    HW223091   2.861   3.334   5.415 -1.4597 -0.2707  0.4924
 3820SOL     OW23092   3.497   2.417   9.939 -0.5036 -0.0958  0.2454
 3820SOL    HW123093   3.449   2.496   9.914 -0.0757 -1.0169 -3.3670
 3820SOL    HW223094   3.423   2.362   9.965 -1.3847  1.0106  0.0650
 3821SOL     OW23095   3.396   0.033   6.247  0.0531  0.7236 -0.4841
 3821SOL    HW123096   3.351   4.692   6.217  0.9093  1.0742 -2.6482
 3821SOL    HW223097   3.325   0.075   6.296 -0.1239 -1.3017  1.0332
 3822SOL     OW23098   3.269   2.126  17.351  0.1539 -0.1600 -0.1310
 3822SOL    HW123099   3.178   2.100  17.347  0.3513 -0.9361  0.4791
 3822SOL    HW223100   3.266   2.218  17.324  2.3036  0.4883  1.7581
 3823SOL     OW23101   3.349   0.488  12.986 -0.1623 -0.3166  0.3160
 3823SOL    HW123102   3.332   0.571  13.031 -0.3308 -1.1778  1.8180
 3823SOL    HW223103   3.297   0.425  13.035  2.0394 -2.4604 -0.1355
 3824SOL     OW23104   4.441   2.474   4.131 -0.8270 -0.0683  0.1301
 3824SOL    HW123105   4.370   2.452   4.191 -0.2873 -0.0327  0.7742
 3824SOL    HW223106   4.396   2.442   4.053 -0.5715 -0.6947  0.2400
 3825SOL     OW23107   4.563   3.046   5.167  0.3716 -0.3099  0.3527
 3825SOL    HW123108   4.484   2.997   5.144  0.5816 -2.0648  3.3678
 3825SOL    HW223109   4.535   3.108   5.234 -1.1709 -0.2748 -0.3390
 3826SOL     OW23110   1.339   0.076   1.290 -0.2084  0.4225  0.5331
 3826SOL    HW123111   1.329   0.151   1.349 -2.6596 -0.7941  1.6801
 3826SOL    HW223112   1.247   0.056   1.274  0.2271  0.0089 -1.3664
 3827SOL     OW23113   0.890   0.218  11.236  0.0753  0.0574  0.0896
 3827SOL    HW123114   0.968   0.227  11.182  0.9751 -1.0041  1.2390
 3827SOL    HW223115   0.850   0.301  11.208  2.7330  1.0247 -0.7684
 3828SOL     OW23116   3.516   0.503  16.006  0.0273 -0.4894 -0.0611
 3828SOL    HW123117   3.531   0.554  15.927  1.0515 -1.0947 -0.2672
 3828SOL    HW223118   3.596   0.450  16.004  0.0955 -0.2640 -2.7173
 3829SOL     OW23119   4.472   3.740   1.753  0.3179  0.4295 -0.2076
 3829SOL    HW123120   4.541   3.797   1.719  0.0123  0.3545 -0.9489
 3829SOL    HW223121   4.486   3.747   1.848  0.8668 -0.0609 -0.2538
 3830SOL     OW23122   4.155   1.952  13.186 -0.7847 -0.3079  0.0594
 3830SOL    HW123123   4.071   1.974  13.224 -1.2768 -1.8400 -0.1379
 3830SOL    HW223124   4.205   1.901  13.249  1.4482  3.6196  1.4587
 3831SOL     OW23125   1.998   3.921   8.732 -0.3413 -0.2213 -0.4567
 3831SOL    HW123126   2.019   3.829   8.749 -0.2650 -0.8544 -3.8114
 3831SOL    HW223127   2.084   3.962   8.741 -0.6159 -0.1045  1.5085
 3832SOL     OW23128   0.884   0.480   9.116  0.3606  0.0459 -0.7425
 3832SOL    HW123129   0.904   0.460   9.208  0.3372  2.5565 -0.1887
 3832SOL    HW223130   0.870   0.575   9.122  1.8254  0.1781  0.6410
 3833SOL     OW23131   3.182   1.535   1.483 -0.0974 -0.3930 -0.2276
 3833SOL    HW123132   3.212   1.445   1.468  0.6370 -0.6501  2.8045
 3833SOL    HW223133   3.114   1.520   1.550 -0.2611  2.2732  0.2254
 3834SOL     OW23134   2.709   2.629   2.697 -1.4295 -0.2723  0.2564
 3834SOL    HW123135   2.783   2.597   2.749  0.5276  1.0984 -1.6507
 3834SOL    HW223136   2.698   2.720   2.726  0.3543  0.3684 -1.0325
 3835SOL     OW23137   4.367   1.368   1.000 -0.6748  0.4523  0.1775
 3835SOL    HW123138   4.332   1.418   0.926  1.7019 -1.7923 -2.4766
 3835SOL    HW223139   4.377   1.435   1.067  0.7797  1.3808 -0.9653
 3836SOL     OW23140   0.646   0.457   3.854  0.1316 -0.6843 -0.8718
 3836SOL    HW123141   0.674   0.547   3.839  0.8172 -0.9099 -0.9475
 3836SOL    HW223142   0.613   0.434   3.766 -2.7737  0.3258 -0.0652
 3837SOL     OW23143   1.300   1.056   4.529  0.0452 -0.3042  0.1656
 3837SOL    HW123144   1.253   1.026   4.451 -0.9490 -1.8655  1.3537
 3837SOL    HW223145   1.282   0.987   4.594 -1.0575  1.1331  1.3812
 3838SOL     OW23146   3.141   1.173  10.381  0.7146 -0.2416 -0.3859
 3838SOL    HW123147   3.192   1.100  10.414 -0.1757  0.5424  2.6887
 3838SOL    HW223148   3.199   1.249  10.377 -1.2992  1.2702 -1.4349
 3839SOL     OW23149   2.699   3.238   2.199 -0.0441 -0.1950  0.0175
 3839SOL    HW123150   2.639   3.168   2.175 -1.5903  0.7403  1.1592
 3839SOL    HW223151   2.668   3.300   2.133  0.8130 -0.4622 -0.6381
 3840SOL     OW23152   4.424   2.257  12.822  0.6800  0.2222  0.6556
 3840SOL    HW123153   4.510   2.254  12.863  1.8362  0.6160 -1.7313
 3840SOL    HW223154   4.374   2.209  12.887 -0.2436 -0.4014 -0.5173
 3841SOL     OW23155   2.693   4.088  10.010 -0.0766  0.1223 -0.4156
 3841SOL    HW123156   2.618   4.085  10.069  0.4735 -0.6418  0.2392
 3841SOL    HW223157   2.762   4.042  10.058 -0.4151  0.8029  0.7299
 3842SOL     OW23158   0.817   2.720  11.705  0.3141 -0.2576 -0.1861
 3842SOL    HW123159   0.743   2.767  11.742 -0.8212 -1.4259 -0.9661
 3842SOL    HW223160   0.887   2.775  11.740 -0.9064  0.8735  0.4619
 3843SOL     OW23161   3.358   4.600   3.457 -0.2594  0.2961 -0.5881
 3843SOL    HW123162   3.293   4.654   3.502 -0.3608 -1.4734  1.3663
 3843SOL    HW223163   3.364   4.527   3.519 -1.6893 -0.1860 -1.0246
 3844SOL     OW23164   4.610   4.204   4.203 -0.1160  0.2559  0.3639
 3844SOL    HW123165   4.562   4.121   4.199  1.9612 -0.8716 -1.1850
 3844SOL    HW223166   4.566   4.245   4.128  0.7112  1.2309  0.4041
 3845SOL     OW23167   4.644   0.762   3.199  0.4857  0.0415  0.4125
 3845SOL    HW123168   4.620   0.678   3.239 -0.1642 -0.4279 -0.9707
 3845SOL    HW223169   4.633   0.741   3.106 -1.8938 -1.5071  1.0097
 3846SOL     OW23170   3.243   4.242   7.587 -0.3171 -0.2760  0.0840
 3846SOL    HW123171   3.256   4.168   7.647  0.7438  0.6974  1.0504
 3846SOL    HW223172   3.255   4.326   7.630 -0.7424  0.2879 -0.9070
 3847SOL     OW23173   1.710   0.851  14.888 -0.1497  0.3052 -0.5641
 3847SOL    HW123174   1.627   0.851  14.842 -0.9595 -0.4925  0.8909
 3847SOL    HW223175   1.759   0.890  14.815  1.2419 -0.5316 -0.0870
 3848SOL     OW23176   2.918   0.982  13.373  1.0940 -0.0214 -0.1313
 3848SOL    HW123177   2.828   1.004  13.400  1.9515  0.9398  2.0043
 3848SOL    HW223178   2.899   0.943  13.288 -0.4201 -0.7624  0.5445
 3849SOL     OW23179   2.350   2.840   8.356 -0.3708  0.0786 -0.1600
 3849SOL    HW123180   2.369   2.753   8.390 -0.9992 -0.3807 -0.9682
 3849SOL    HW223181   2.314   2.825   8.268  0.1609  0.2250 -0.4063
 3850SOL     OW23182   1.371   3.038   2.812  1.1128 -0.4153  0.1404
 3850SOL    HW123183   1.463   3.015   2.805  0.9684 -1.2704  0.9409
 3850SOL    HW223184   1.372   3.091   2.892 -0.1024 -0.4029  0.1583
 3851SOL     OW23185   2.650   1.871   2.167 -0.2365  0.0319  0.2162
 3851SOL    HW123186   2.744   1.850   2.165 -0.3755 -0.7295  1.5523
 3851SOL    HW223187   2.650   1.937   2.097 -0.1794  0.2924  0.4623
 3852SOL     OW23188   0.300   0.384   2.067  0.0235  0.3955 -0.3330
 3852SOL    HW123189   0.210   0.400   2.095 -0.9870 -0.5202 -3.0838
 3852SOL    HW223190   0.314   0.455   2.004 -1.3671  1.9962  1.1668
 3853SOL     OW23191   0.655   1.456   6.561 -1.3417  0.5589 -0.1092
 3853SOL    HW123192   0.576   1.503   6.588 -0.9072  1.3571 -0.2384
 3853SOL    HW223193   0.683   1.492   6.477 -0.3208  1.0093  0.4267
 3854SOL     OW23194   4.478   0.346   6.327 -0.0141 -0.3533  0.3399
 3854SOL    HW123195   4.405   0.369   6.385 -2.2073 -2.1998 -1.6933
 3854SOL    HW223196   4.497   0.253   6.339 -4.5131 -1.3160  0.0052
 3855SOL     OW23197   0.433   4.540   8.473 -0.0233 -0.1640  0.0406
 3855SOL    HW123198   0.424   4.552   8.568  1.6916 -1.9438  0.4438
 3855SOL    HW223199   0.375   4.611   8.448  0.5750  0.5498  0.6891
 3856SOL     OW23200   0.018   3.626   3.487 -0.2291  0.3792  0.1302
 3856SOL    HW123201   4.716   3.661   3.567  0.8890 -0.7449  1.1806
 3856SOL    HW223202   0.037   3.541   3.527 -0.0581  0.4346  0.1663
 3857SOL     OW23203   4.251   1.747   6.338 -0.2925  0.2247  0.1257
 3857SOL    HW123204   4.163   1.763   6.303 -0.4959 -1.0592  0.0481
 3857SOL    HW223205   4.228   1.672   6.393 -1.7797  0.0672 -0.6999
 3858SOL     OW23206   4.065   0.464   1.353 -0.1084 -0.2019  0.3249
 3858SOL    HW123207   4.124   0.500   1.287  0.6347  0.1257  1.1738
 3858SOL    HW223208   3.978   0.492   1.322  0.1353 -0.4695 -0.6204
 3859SOL     OW23209   4.537   0.825   5.696 -0.1085 -0.6765 -0.1119
 3859SOL    HW123210   4.447   0.824   5.664 -0.6394  0.1492  1.3767
 3859SOL    HW223211   4.521   0.866   5.781  1.2359  2.5391 -1.4002
 3860SOL     OW23212   1.528   1.344   0.098 -0.0292  0.0441  0.2398
 3860SOL    HW123213   1.604   1.394   0.066 -1.0435  1.1563 -0.4141
 3860SOL    HW223214   1.531   1.277   0.029 -1.3829 -0.9856  1.1909
 3861SOL     OW23215   0.935   2.473  17.272 -0.8182  0.2565 -0.1677
 3861SOL    HW123216   1.013   2.504  17.226 -1.1768  0.9022 -0.3481
 3861SOL    HW223217   0.866   2.523  17.227 -1.8316 -0.7268  0.2900
 3862SOL     OW23218   0.065   3.556   8.697 -0.4216  0.2072  0.6948
 3862SOL    HW123219   0.075   3.631   8.756  2.0602  0.9786 -0.7019
 3862SOL    HW223220   0.119   3.587   8.624 -2.3359  2.0680  0.0737
 3863SOL     OW23221   1.890   0.719   1.980  0.1194 -0.2936 -0.1993
 3863SOL    HW123222   1.850   0.725   2.067 -4.0992  1.1064 -2.2037
 3863SOL    HW223223   1.817   0.685   1.928 -0.9303 -1.7819  2.2556
 3864SOL     OW23224   4.031   0.349  15.927  0.1620  0.0825  0.3121
 3864SOL    HW123225   4.122   0.329  15.903  0.0121 -0.4336  0.1633
 3864SOL    HW223226   4.040   0.359  16.022 -1.6337 -0.5666  0.5471
 3865SOL     OW23227   4.035   3.737   1.854  0.8426  0.3968  0.6367
 3865SOL    HW123228   4.089   3.792   1.910  2.6560 -0.6866 -0.0590
 3865SOL    HW223229   3.953   3.788   1.857  0.3156 -0.3992 -0.2100
 3866SOL     OW23230   4.383   4.690   8.195  0.4479  0.0472  0.3724
 3866SOL    HW123231   4.436   4.631   8.140 -2.9851  0.1406 -3.0282
 3866SOL    HW223232   4.450   0.019   8.212  1.2420  0.3538 -3.8372
 3867SOL     OW23233   2.038   4.038   4.801  0.2743  0.1735  0.0707
 3867SOL    HW123234   2.101   3.980   4.844 -1.8013 -2.7066 -0.8365
 3867SOL    HW223235   1.960   4.038   4.856 -1.5736  0.0551 -2.5932
 3868SOL     OW23236   4.474   0.832  14.291 -0.0686  0.4399  0.0380
 3868SOL    HW123237   4.568   0.825  14.307 -0.3530 -1.7796  0.7567
 3868SOL    HW223238   4.441   0.900  14.351 -1.4532  0.0957 -0.3160
 3869SOL     OW23239   2.253   0.474  14.984  0.1808 -0.3270  0.1163
 3869SOL    HW123240   2.170   0.465  15.031  0.1336 -2.3351 -0.3814
 3869SOL    HW223241   2.217   0.530  14.915  0.5490 -2.8799 -2.1456
 3870SOL     OW23242   1.968   2.473   6.753  0.3713 -0.0250 -0.1654
 3870SOL    HW123243   1.990   2.398   6.809  2.2918  0.1692 -0.6603
 3870SOL    HW223244   1.875   2.486   6.771  0.2526  0.6954 -1.2674
 3871SOL     OW23245   1.819   3.992  13.702  0.8933  0.3273  0.1482
 3871SOL    HW123246   1.844   4.076  13.663  1.3340  0.5547  0.9212
 3871SOL    HW223247   1.724   3.995  13.706  0.6945 -3.7071 -0.9665
 3872SOL     OW23248   2.526   0.259  15.310 -0.6688 -0.6729  0.2264
 3872SOL    HW123249   2.575   0.178  15.325  0.5062  0.4091  2.2701
 3872SOL    HW223250   2.484   0.226  15.230 -2.5600  0.3314  0.8172
 3873SOL     OW23251   0.634   3.441  13.529  0.0331  0.0772  0.1825
 3873SOL    HW123252   0.637   3.371  13.463 -1.3683  1.9188 -1.8429
 3873SOL    HW223253   0.553   3.489  13.516  0.1773  0.4647  0.7138
 3874SOL     OW23254   2.425   2.129   2.580 -0.1705 -0.0137 -0.3403
 3874SOL    HW123255   2.497   2.130   2.644 -0.1938 -0.6189 -0.3016
 3874SOL    HW223256   2.458   2.190   2.514 -0.6465  0.9701  0.3375
 3875SOL     OW23257   1.844   1.735   9.722 -0.2548  0.2957  0.3407
 3875SOL    HW123258   1.883   1.794   9.786  3.8804 -1.0516 -0.9238
 3875SOL    HW223259   1.917   1.683   9.688  0.1028 -0.3351  2.0925
 3876SOL     OW23260   3.448   3.366   4.382 -0.2280  0.5401 -0.5626
 3876SOL    HW123261   3.493   3.410   4.310  0.0802 -1.6840 -1.7177
 3876SOL    HW223262   3.507   3.389   4.454 -1.8557  1.0360  0.6146
 3877SOL     OW23263   0.591   0.659  16.711 -0.5823  0.1993  0.7513
 3877SOL    HW123264   0.583   0.753  16.726  0.9065  0.9217 -2.8034
 3877SOL    HW223265   0.672   0.634  16.756 -0.4551 -1.0427 -0.1733
 3878SOL     OW23266   3.452   3.337   6.458 -0.2022 -0.2544 -0.1601
 3878SOL    HW123267   3.428   3.336   6.365  0.9964 -0.1773 -0.4691
 3878SOL    HW223268   3.517   3.406   6.448 -0.4632 -0.1275 -0.9713
 3879SOL     OW23269   2.930   2.073  11.790 -0.0157 -0.1600  0.4095
 3879SOL    HW123270   2.846   2.112  11.811 -0.5735 -0.9509 -0.3647
 3879SOL    HW223271   2.896   1.984  11.782  0.0749  0.1614 -3.6115
 3880SOL     OW23272   3.801   3.645  12.992  0.0639  0.0778 -0.1587
 3880SOL    HW123273   3.820   3.665  12.900  1.8164  1.7271  0.5580
 3880SOL    HW223274   3.767   3.729  13.022  1.0006 -0.1637  1.5896
 3881SOL     OW23275   1.557   0.295   3.408  0.5733  0.0169  0.5646
 3881SOL    HW123276   1.549   0.246   3.490 -2.1761 -0.7950 -0.1967
 3881SOL    HW223277   1.547   0.224   3.345  2.0177  2.5642 -2.5412
 3882SOL     OW23278   1.067   3.506   4.137 -0.0082  0.5674  0.5185
 3882SOL    HW123279   1.045   3.440   4.203  0.9908  0.1226  0.4002
 3882SOL    HW223280   1.009   3.582   4.145 -2.5319 -1.2221 -0.9432
 3883SOL     OW23281   1.964   0.641  15.508 -0.0019 -0.2932  0.5375
 3883SOL    HW123282   2.022   0.567  15.494 -1.7569 -1.3579 -0.9669
 3883SOL    HW223283   1.988   0.703  15.439  0.8017 -1.1338  0.0676
 3884SOL     OW23284   3.727   1.729  16.648  0.1273 -0.8319  0.2237
 3884SOL    HW123285   3.676   1.716  16.568 -1.1439  1.8517  0.6157
 3884SOL    HW223286   3.790   1.659  16.630  0.9202  0.2598 -1.1355
 3885SOL     OW23287   0.376   0.136   7.745 -0.4677 -0.4540 -0.1329
 3885SOL    HW123288   0.419   0.050   7.746 -2.2487 -1.3159  2.1133
 3885SOL    HW223289   0.376   0.153   7.651  1.0560 -2.5674 -0.5043
 3886SOL     OW23290   3.378   3.468  11.067 -0.3367 -0.3003  0.1071
 3886SOL    HW123291   3.443   3.497  11.003  0.3123 -1.7725  0.1070
 3886SOL    HW223292   3.318   3.421  11.010  0.7697 -0.3033 -1.0290
 3887SOL     OW23293   4.279   1.106  12.158 -0.2612  0.4753  0.5659
 3887SOL    HW123294   4.210   1.073  12.216 -0.9264 -2.0003 -1.6446
 3887SOL    HW223295   4.271   1.052  12.080  1.0968  0.5006  0.4087
 3888SOL     OW23296   2.063   2.951   4.183  0.3949  0.2790  0.3985
 3888SOL    HW123297   2.067   3.037   4.141  0.8696  0.7687  1.4518
 3888SOL    HW223298   2.021   2.967   4.267  2.9847 -0.8952  1.9209
 3889SOL     OW23299   1.283   3.607   5.254 -0.0266  0.2892 -0.2826
 3889SOL    HW123300   1.306   3.696   5.225  0.4975 -0.2841 -1.6236
 3889SOL    HW223301   1.193   3.620   5.283 -0.3363 -1.4645 -0.5130
 3890SOL     OW23302   0.615   4.196  14.212 -0.5975 -0.4339  0.5610
 3890SOL    HW123303   0.690   4.135  14.213 -0.5094 -0.3473 -2.1686
 3890SOL    HW223304   0.651   4.275  14.253  2.0236 -0.4997 -1.6538
 3891SOL     OW23305   2.113   2.050  16.471 -0.0293 -0.8220  0.2929
 3891SOL    HW123306   2.048   2.051  16.541 -0.4097 -0.7268 -0.0610
 3891SOL    HW223307   2.108   2.136  16.430 -1.0392 -0.9944  0.0447
 3892SOL     OW23308   3.311   0.643   1.778  0.4293  0.1833  0.3520
 3892SOL    HW123309   3.341   0.731   1.758  0.1406 -0.4607 -2.9327
 3892SOL    HW223310   3.305   0.636   1.873 -3.8884 -0.3313  0.0604
 3893SOL     OW23311   2.154   4.448   2.961 -0.1422  0.2657 -0.0013
 3893SOL    HW123312   2.080   4.435   2.901 -2.2547  0.9463  2.4302
 3893SOL    HW223313   2.222   4.448   2.894 -0.6862 -1.5069 -0.5531
 3894SOL     OW23314   0.235   2.625   4.672  0.4129 -0.0569  0.8224
 3894SOL    HW123315   0.230   2.530   4.684  1.0050 -0.5600 -3.2196
 3894SOL    HW223316   0.198   2.622   4.584  1.1080  0.6121  0.5025
 3895SOL     OW23317   0.178   2.985   7.815  0.1258  0.1048  0.3385
 3895SOL    HW123318   0.147   2.909   7.863  1.4054 -0.1399  0.7711
 3895SOL    HW223319   0.126   3.044   7.870  1.6846 -0.6961  2.6547
 3896SOL     OW23320   2.129   4.033   3.915 -0.4595 -0.1737 -0.2754
 3896SOL    HW123321   2.047   4.043   3.964 -0.9531  2.0526 -1.5830
 3896SOL    HW223322   2.089   4.058   3.832 -2.3589 -2.5838 -0.0760
 3897SOL     OW23323   3.109   2.669   9.814 -0.6450 -0.5119 -0.1430
 3897SOL    HW123324   3.082   2.756   9.845  1.1221  0.0207 -0.1087
 3897SOL    HW223325   3.116   2.667   9.719  0.9583 -3.2949  0.0629
 3898SOL     OW23326   2.088   3.840  16.293  0.1923  0.6376  0.4414
 3898SOL    HW123327   2.016   3.879  16.343  0.2251 -0.7726  1.5871
 3898SOL    HW223328   2.141   3.801  16.362 -0.3774 -2.1250 -0.7216
 3899SOL     OW23329   2.034   3.005   5.192  0.6477 -1.2935  0.2853
 3899SOL    HW123330   2.111   3.017   5.136  0.9531 -1.2953  0.7030
 3899SOL    HW223331   1.963   3.041   5.140  1.4991  1.2995  0.9074
 3900SOL     OW23332   1.329   1.664  17.083 -0.6332  0.1267 -0.2731
 3900SOL    HW123333   1.369   1.700  17.003 -0.2176  0.8748  0.2700
 3900SOL    HW223334   1.333   1.739  17.143 -1.1636 -0.4718  0.5050
 3901SOL     OW23335   0.394   2.281   6.158 -0.0395  0.8613 -0.7461
 3901SOL    HW123336   0.388   2.291   6.063  0.7483  1.7938 -0.7005
 3901SOL    HW223337   0.443   2.361   6.176 -1.0719  0.7262  2.6834
 3902SOL     OW23338   2.191   2.131  15.661 -0.1258 -0.3781  0.1321
 3902SOL    HW123339   2.105   2.090  15.664 -0.9610  1.5578  3.6497
 3902SOL    HW223340   2.169   2.224  15.663 -0.2870 -0.4012 -0.5790
 3903SOL     OW23341   0.730   3.020  16.126 -0.0221  0.3963  1.0847
 3903SOL    HW123342   0.753   3.041  16.036  1.9256  1.1677  1.7640
 3903SOL    HW223343   0.668   3.089  16.146  0.3457  0.2073  2.8916
 3904SOL     OW23344   3.413   0.732  11.872  0.7332  0.2157 -0.4640
 3904SOL    HW123345   3.473   0.777  11.932 -0.0914 -0.9957  1.2661
 3904SOL    HW223346   3.393   0.653  11.922  2.7537 -0.8231 -1.2982
 3905SOL     OW23347   1.822   1.848   3.211  0.5044 -0.5720 -0.5017
 3905SOL    HW123348   1.762   1.897   3.156 -0.6481  1.3178  2.4459
 3905SOL    HW223349   1.814   1.762   3.170  1.8633 -0.3813 -1.1773
 3906SOL     OW23350   3.837   4.389   6.810 -0.2783  0.2663  0.0627
 3906SOL    HW123351   3.883   4.349   6.736  0.9690  1.3853  0.2262
 3906SOL    HW223352   3.745   4.372   6.794  0.0547  0.1763 -1.7686
 3907SOL     OW23353   0.384   2.121   3.393  0.2608 -0.1044 -0.0800
 3907SOL    HW123354   0.445   2.152   3.326  1.4884  0.1878  1.1920
 3907SOL    HW223355   0.447   2.091   3.458  1.6144 -0.4775 -1.5720
 3908SOL     OW23356   1.766   3.093   7.129 -0.0838 -0.2583 -0.6127
 3908SOL    HW123357   1.753   3.016   7.184 -4.1900  0.5837 -0.4282
 3908SOL    HW223358   1.838   3.051   7.083 -0.3476 -2.5492  1.0594
 3909SOL     OW23359   4.265   1.325   1.618 -0.9566  0.1092 -0.4338
 3909SOL    HW123360   4.249   1.295   1.707  2.5824 -0.2780  0.0699
 3909SOL    HW223361   4.346   1.376   1.624  0.0628 -1.6898  1.3926
 3910SOL     OW23362   3.257   3.064   6.923  0.7707  0.1580  0.4499
 3910SOL    HW123363   3.321   2.993   6.924 -0.2844 -0.8024 -0.4665
 3910SOL    HW223364   3.304   3.118   6.858 -0.3530  0.7732  0.1532
 3911SOL     OW23365   3.739   0.871   2.622  0.1594  0.4359  0.0380
 3911SOL    HW123366   3.717   0.780   2.641  3.7017 -0.1334  1.3551
 3911SOL    HW223367   3.834   0.874   2.639  0.4491 -3.5271 -0.7411
 3912SOL     OW23368   0.038   2.289  17.742 -0.2593 -0.1564  0.3281
 3912SOL    HW123369   4.736   2.230   0.057  0.0464  1.0205  1.5836
 3912SOL    HW223370   0.023   2.235  17.665 -0.8696 -2.2108  1.8763
 3913SOL     OW23371   2.436   1.902  11.447  0.0879  0.2902  0.2755
 3913SOL    HW123372   2.511   1.850  11.475  0.0215  0.9725  1.7077
 3913SOL    HW223373   2.459   1.930  11.358 -1.3257  1.6034  0.3266
 3914SOL     OW23374   1.892   0.579  10.689 -0.8290  0.0234  0.2405
 3914SOL    HW123375   1.849   0.507  10.643  0.7607 -0.5270 -0.3507
 3914SOL    HW223376   1.984   0.576  10.664 -0.5189  1.3930  1.2474
 3915SOL     OW23377   0.458   4.554   6.401  0.6533 -0.9573  0.2028
 3915SOL    HW123378   0.488   4.634   6.358 -1.0391 -0.4154  0.0516
 3915SOL    HW223379   0.498   4.560   6.488 -1.0456  2.0172  0.7652
 3916SOL     OW23380   4.094   2.060  16.443  0.8330  0.4641 -0.6509
 3916SOL    HW123381   4.183   2.073  16.476  0.7686 -0.5301 -0.0822
 3916SOL    HW223382   4.042   2.067  16.523  0.7436 -0.0799 -0.6593
 3917SOL     OW23383   4.025   3.447  13.407  0.5288 -0.5444  0.7410
 3917SOL    HW123384   4.095   3.398  13.365 -0.9232  0.3752 -2.7521
 3917SOL    HW223385   3.954   3.419  13.349  3.1900 -1.8031 -1.8445
 3918SOL     OW23386   3.206   3.574   8.767 -0.3233  0.0658  0.5997
 3918SOL    HW123387   3.204   3.655   8.817 -2.7811  0.6651 -0.4393
 3918SOL    HW223388   3.276   3.528   8.813 -3.4102 -2.1779  3.1061
 3919SOL     OW23389   1.159   4.711   1.663 -0.3708  0.3556 -0.0768
 3919SOL    HW123390   1.138   0.059   1.626  0.4923  1.3671  1.7778
 3919SOL    HW223391   1.232   4.733   1.721 -0.4010 -2.3919  1.0112
 3920SOL     OW23392   3.609   1.580   8.043  0.1921 -0.6527  0.1526
 3920SOL    HW123393   3.668   1.505   8.034  0.0390 -0.5967 -1.2997
 3920SOL    HW223394   3.577   1.570   8.133  1.1433  2.3050  0.7992
 3921SOL     OW23395   2.161   4.131   9.082  0.7035 -0.1719 -0.1508
 3921SOL    HW123396   2.246   4.167   9.055  0.9409 -0.6468 -0.0304
 3921SOL    HW223397   2.134   4.196   9.146 -1.4307  0.1656 -1.4033
 3922SOL     OW23398   0.683   0.231   9.462 -0.5498 -0.3615 -0.1884
 3922SOL    HW123399   0.660   0.150   9.508  0.7307 -0.7507 -0.2226
 3922SOL    HW223400   0.727   0.195   9.385  1.1319  0.9745  0.1320
 3923SOL     OW23401   0.022   2.085   2.412  0.2484 -0.4118  0.2914
 3923SOL    HW123402   0.041   2.040   2.494  0.1760  2.3203  1.7694
 3923SOL    HW223403   4.693   2.023   2.381  0.0306  0.7085 -1.4756
 3924SOL     OW23404   1.184   2.317  12.919 -0.2135 -0.2208 -0.8624
 3924SOL    HW123405   1.100   2.358  12.898  0.0585 -0.1923 -1.8906
 3924SOL    HW223406   1.171   2.222  12.916 -0.1998 -0.2825  0.9185
 3925SOL     OW23407   2.910   1.626   7.705 -0.0859 -0.6808 -0.7663
 3925SOL    HW123408   2.883   1.689   7.639  0.7131  0.3879 -0.0665
 3925SOL    HW223409   2.896   1.668   7.790 -0.6025  0.9073 -1.6516
 3926SOL     OW23410   1.570   1.061   4.409  0.1346 -0.7848  0.5992
 3926SOL    HW123411   1.570   0.975   4.450  2.6456 -0.3024  1.6642
 3926SOL    HW223412   1.478   1.069   4.386 -0.4067 -2.2232  2.2611
 3927SOL     OW23413   1.456   0.067   0.051  0.3486  0.0415 -0.2419
 3927SOL    HW123414   1.472   0.101  17.713  3.0641  1.9575  0.9995
 3927SOL    HW223415   1.396   0.132   0.089  1.8870  2.2453 -1.5771
 3928SOL     OW23416   0.244   3.509   7.280  0.0478 -0.3160 -0.4610
 3928SOL    HW123417   0.329   3.504   7.324 -0.1434  2.1302  0.2194
 3928SOL    HW223418   0.217   3.599   7.298 -0.4551 -0.4549 -0.5280
 3929SOL     OW23419   0.777   3.994   3.063 -0.3103 -0.2740  0.1074
 3929SOL    HW123420   0.843   4.060   3.083  0.6880 -0.6908 -1.8381
 3929SOL    HW223421   0.836   3.928   3.027  1.6404  0.2001  2.4625
 3930SOL     OW23422   0.526   0.440   3.327  0.1828  0.2017 -0.0957
 3930SOL    HW123423   0.576   0.482   3.256  0.1700  0.0235 -0.2109
 3930SOL    HW223424   0.441   0.483   3.316 -0.6320 -1.3725  0.0727
 3931SOL     OW23425   1.471   0.637   4.692  0.2772  0.1332 -0.1027
 3931SOL    HW123426   1.521   0.662   4.770  2.2003  0.7250 -1.5158
 3931SOL    HW223427   1.480   0.544   4.712  0.7908  0.2581  0.2573
 3932SOL     OW23428   3.677   1.392  11.528  0.4065 -0.1625  0.3161
 3932SOL    HW123429   3.630   1.475  11.544 -2.2330 -1.2727 -1.6843
 3932SOL    HW223430   3.600   1.339  11.507 -0.8160  2.3440 -1.6093
 3933SOL     OW23431   1.652   4.311  17.162 -0.4984 -0.7471  0.4498
 3933SOL    HW123432   1.599   4.390  17.151  0.2135 -0.5635 -1.6002
 3933SOL    HW223433   1.739   4.351  17.167 -0.6613 -0.4143  0.6434
 3934SOL     OW23434   4.012   2.158  16.894 -0.2243  0.1517 -0.1205
 3934SOL    HW123435   4.006   2.230  16.831 -0.5350  1.8877  1.9023
 3934SOL    HW223436   4.008   2.214  16.972 -0.6931 -0.8509  0.5729
 3935SOL     OW23437   2.842   1.087   9.000  0.5390 -0.5706  0.5529
 3935SOL    HW123438   2.936   1.072   9.003  0.5950 -0.3923 -0.3959
 3935SOL    HW223439   2.837   1.038   8.918 -2.3756  0.6155  0.0134
 3936SOL     OW23440   4.180   2.281   7.487 -0.5811 -0.0881  0.0422
 3936SOL    HW123441   4.229   2.328   7.555  0.4795 -0.6920 -0.3059
 3936SOL    HW223442   4.134   2.357   7.452  2.0286  1.8524  0.7623
 3937SOL     OW23443   3.589   4.406   7.029  0.6557  0.3483 -0.6353
 3937SOL    HW123444   3.568   4.333   6.970 -0.3316  1.1713 -1.2860
 3937SOL    HW223445   3.585   4.478   6.967 -0.6113  0.2038 -0.7300
 3938SOL     OW23446   4.008   1.974   9.231 -0.3417 -0.6192 -0.2132
 3938SOL    HW123447   4.041   1.965   9.142  0.7161  0.0159  0.1073
 3938SOL    HW223448   4.081   2.027   9.264 -0.7924  0.6100 -1.1935
 3939SOL     OW23449   1.285   3.031  10.364 -1.1591 -0.2057  0.2304
 3939SOL    HW123450   1.319   2.967  10.427 -1.8649  0.4545  1.2896
 3939SOL    HW223451   1.357   3.093  10.376 -0.9213 -0.3693 -0.3800
 3940SOL     OW23452   1.019   4.099  16.699  0.6656  0.6982  0.2215
 3940SOL    HW123453   0.976   4.104  16.613 -1.8057  0.0192  1.4169
 3940SOL    HW223454   0.993   4.183  16.737  3.7406  1.5474  0.3981
 3941SOL     OW23455   3.401   2.027   5.384 -0.4022 -0.1493 -0.3972
 3941SOL    HW123456   3.413   1.934   5.367  0.1095 -0.0291 -0.6724
 3941SOL    HW223457   3.308   2.035   5.408 -0.3948 -1.2794  0.0077
 3942SOL     OW23458   4.472   0.050   7.391 -0.1818  0.1025  0.0677
 3942SOL    HW123459   4.419   4.726   7.340 -1.0617  0.9558 -0.0617
 3942SOL    HW223460   4.403   0.094   7.440  0.5314 -0.3592  1.4755
 3943SOL     OW23461   3.085   1.333   9.967 -0.2976  0.1687  0.2921
 3943SOL    HW123462   3.058   1.423   9.947 -1.0997 -1.2001 -4.7410
 3943SOL    HW223463   3.064   1.299   9.880 -1.1769 -4.4712  2.3324
 3944SOL     OW23464   2.038   1.411  15.864 -0.3768 -0.2433 -0.3322
 3944SOL    HW123465   2.028   1.438  15.955  2.8481  0.6625 -0.2323
 3944SOL    HW223466   2.133   1.402  15.850 -0.5279 -0.9232 -0.9161
 3945SOL     OW23467   0.521   2.202   1.500 -0.4580 -0.0501 -0.1239
 3945SOL    HW123468   0.603   2.196   1.451 -0.2633  0.6933  0.1116
 3945SOL    HW223469   0.470   2.275   1.465  1.7318  1.0700 -0.9912
 3946SOL     OW23470   0.028   4.355   2.222  0.3772  0.4682  0.1645
 3946SOL    HW123471   0.034   4.450   2.234 -1.0582  0.2206  2.8815
 3946SOL    HW223472   0.075   4.325   2.299  2.2967  0.6421 -0.9414
 3947SOL     OW23473   2.401   2.524   6.477 -0.0434  0.1467 -0.2353
 3947SOL    HW123474   2.321   2.474   6.492  0.5804 -0.0165  2.6625
 3947SOL    HW223475   2.379   2.593   6.541  3.1090  2.0521 -1.1991
 3948SOL     OW23476   3.396   4.381   3.650 -0.0297  0.3025 -0.2017
 3948SOL    HW123477   3.361   4.389   3.739 -1.7259 -2.8429 -0.5859
 3948SOL    HW223478   3.381   4.291   3.623 -2.1785  0.4496  0.5195
 3949SOL     OW23479   1.908   1.436   9.949  0.3221  0.4540  0.2320
 3949SOL    HW123480   2.003   1.447   9.959  0.3425 -1.3222  1.9251
 3949SOL    HW223481   1.908   1.465   9.858 -1.3460 -3.0369 -0.8504
 3950SOL     OW23482   1.786   0.008   9.161  0.7663 -0.5777  0.3957
 3950SOL    HW123483   1.852   4.734   9.092 -1.9306  0.7341 -2.3777
 3950SOL    HW223484   1.830   4.717   9.241  0.6126 -1.4566  0.1709
 3951SOL     OW23485   2.884   3.665  11.432  0.2675  0.2812 -0.1793
 3951SOL    HW123486   2.971   3.675  11.471  0.1989  0.3613 -0.0435
 3951SOL    HW223487   2.867   3.750  11.391  0.6506  0.5610  0.2387
 3952SOL     OW23488   2.845   3.550   4.295 -0.1777  0.0050 -0.2477
 3952SOL    HW123489   2.861   3.473   4.348  0.2941 -0.5176 -1.1458
 3952SOL    HW223490   2.750   3.550   4.301 -0.0893  0.0449  1.1556
 3953SOL     OW23491   0.147   2.310   3.285  0.4378  0.0478  0.2422
 3953SOL    HW123492   0.221   2.264   3.325 -1.3972 -0.8964  2.4934
 3953SOL    HW223493   0.088   2.236   3.276  1.1153 -0.4211 -0.3148
 3954SOL     OW23494   4.054   4.033   8.732  0.2992 -0.6239 -0.1389
 3954SOL    HW123495   4.057   4.102   8.799  2.0566 -1.3095  0.4906
 3954SOL    HW223496   4.010   3.976   8.795  1.3494 -0.7725  0.4583
 3955SOL     OW23497   1.794   1.164  17.476 -0.1593 -0.0265  0.2647
 3955SOL    HW123498   1.738   1.221  17.529  0.1775 -0.2616  0.8852
 3955SOL    HW223499   1.843   1.114  17.542  1.1500  1.6332  0.5610
 3956SOL     OW23500   1.715   0.309  10.150 -0.5566  0.3401 -0.2068
 3956SOL    HW123501   1.778   0.362  10.199 -0.9354  0.3604  0.2640
 3956SOL    HW223502   1.760   0.224  10.155  3.5923  2.5962  1.1701
 3957SOL     OW23503   1.682   2.720   7.622  0.1828 -0.6014 -0.0001
 3957SOL    HW123504   1.770   2.745   7.594  0.7600 -1.4070  1.1456
 3957SOL    HW223505   1.697   2.627   7.634  0.2250 -0.9466 -2.7745
 3958SOL     OW23506   0.746   4.416  14.935 -0.0202  0.4358 -0.0285
 3958SOL    HW123507   0.828   4.453  14.968 -0.1947  0.3121  0.5270
 3958SOL    HW223508   0.754   4.334  14.982 -0.6003 -1.3510 -2.9952
 3959SOL     OW23509   1.148   2.726   6.437  0.2979  0.0126 -0.0917
 3959SOL    HW123510   1.212   2.698   6.372 -3.0734 -0.6718 -3.1308
 3959SOL    HW223511   1.173   2.817   6.452 -0.4555  0.0676  0.8661
 3960SOL     OW23512   4.715   0.904   4.342  0.4971  0.1467  0.1683
 3960SOL    HW123513   4.726   0.996   4.362  0.7949  0.0389  0.4958
 3960SOL    HW223514   0.059   0.898   4.294 -1.0553  2.2801 -2.7073
 3961SOL     OW23515   0.864   2.258  15.244  0.3582  0.0494  0.5892
 3961SOL    HW123516   0.926   2.284  15.177 -1.0953  1.1838 -0.3181
 3961SOL    HW223517   0.882   2.169  15.274  1.8611  0.1573 -0.0118
 3962SOL     OW23518   0.762   1.753  14.668  0.0426 -0.1376 -0.1690
 3962SOL    HW123519   0.694   1.820  14.679  0.1045 -0.0328 -0.4200
 3962SOL    HW223520   0.724   1.677  14.712 -2.5017 -0.4797 -2.9246
 3963SOL     OW23521   2.041   1.540   3.044  0.1980  0.0518 -0.5856
 3963SOL    HW123522   2.107   1.471   3.047  0.4545  0.4359  2.7868
 3963SOL    HW223523   1.962   1.500   3.081 -0.1521  0.4864 -0.8621
 3964SOL     OW23524   2.186   1.212  11.717 -0.8143  0.2953  0.3710
 3964SOL    HW123525   2.202   1.221  11.623 -1.1018  1.2082  0.4094
 3964SOL    HW223526   2.132   1.133  11.717 -1.3177  0.6381  1.1951
 3965SOL     OW23527   2.209   0.476   2.575 -0.3014 -0.1434  0.1264
 3965SOL    HW123528   2.211   0.390   2.617 -2.4550 -1.2909 -2.0960
 3965SOL    HW223529   2.253   0.454   2.493  1.1095 -1.0878  1.1469
 3966SOL     OW23530   3.765   3.942   2.907 -0.4469  0.0142  0.6101
 3966SOL    HW123531   3.798   3.927   2.818  5.0755  1.4527  2.4113
 3966SOL    HW223532   3.773   4.037   2.911 -1.6206  0.0599  1.7160
 3967SOL     OW23533   0.542   2.865   4.613  0.0575 -0.0723 -0.1020
 3967SOL    HW123534   0.535   2.779   4.654 -0.8382  0.2144  0.3564
 3967SOL    HW223535   0.604   2.846   4.543 -0.5453 -2.4053  0.0125
 3968SOL     OW23536   1.606   4.216  11.965 -0.2620 -0.1408  0.4728
 3968SOL    HW123537   1.696   4.224  11.995 -0.0883 -3.1919  0.8043
 3968SOL    HW223538   1.623   4.136  11.915  0.2885 -0.4954  1.2371
 3969SOL     OW23539   0.779   3.309   1.988  0.1111  0.4313  0.5798
 3969SOL    HW123540   0.874   3.322   1.978  0.1639 -2.3891 -2.8445
 3969SOL    HW223541   0.762   3.357   2.069  0.4233  0.6092  0.5412
 3970SOL     OW23542   1.854   3.427  14.314 -0.3209  0.3516 -0.1426
 3970SOL    HW123543   1.804   3.358  14.271 -0.6491 -0.1567  1.0514
 3970SOL    HW223544   1.890   3.476  14.240 -0.1984  2.0176  1.0104
 3971SOL     OW23545   3.059   4.732   2.242  0.1183 -0.2914 -0.3335
 3971SOL    HW123546   2.976   0.018   2.284  0.5430  0.0371  0.3331
 3971SOL    HW223547   3.107   0.077   2.234  0.0251 -0.2285 -0.2477
 3972SOL     OW23548   3.800   0.794   4.984 -0.2854  0.0093 -0.0944
 3972SOL    HW123549   3.815   0.704   5.011  0.9052 -0.3999 -2.1587
 3972SOL    HW223550   3.871   0.813   4.923 -0.4013 -1.7105 -0.7585
 3973SOL     OW23551   1.942   4.146   5.490 -0.1643  0.5430  0.3296
 3973SOL    HW123552   1.941   4.094   5.570  0.7824 -0.8436 -0.5430
 3973SOL    HW223553   2.019   4.102   5.453 -0.4659  0.6387 -0.4217
 3974SOL     OW23554   1.983   3.894  12.149 -0.6873 -0.2726 -0.6859
 3974SOL    HW123555   2.069   3.861  12.176 -0.1390  2.8656  1.5045
 3974SOL    HW223556   1.994   3.986  12.175 -2.0581 -0.8606  2.0334
 3975SOL     OW23557   2.792   0.373   2.895 -0.4628  0.1439 -0.5967
 3975SOL    HW123558   2.828   0.305   2.953  2.6827 -0.6933 -3.5120
 3975SOL    HW223559   2.703   0.341   2.880 -0.4781 -0.7906  1.5388
 3976SOL     OW23560   4.201   3.748  13.891 -0.1299  0.2238  0.5565
 3976SOL    HW123561   4.121   3.699  13.873 -0.9541  0.5551  3.3416
 3976SOL    HW223562   4.243   3.679  13.943  1.8431  0.9823 -0.0266
 3977SOL     OW23563   0.671   2.847   9.871  0.0027  0.6261 -0.0802
 3977SOL    HW123564   0.761   2.848   9.905 -0.0729  1.2088  0.0882
 3977SOL    HW223565   0.626   2.876   9.950  0.6896  0.8557  0.2268
 3978SOL     OW23566   0.294   1.675   9.317 -0.3654 -0.0273  0.1684
 3978SOL    HW123567   0.302   1.768   9.296 -1.4936  0.8830  3.7307
 3978SOL    HW223568   0.228   1.675   9.387  0.5768  0.0999  1.0452
 3979SOL     OW23569   1.281   2.602  13.407  0.0858 -0.0930  0.7787
 3979SOL    HW123570   1.263   2.617  13.499 -1.6339  1.5437  0.1823
 3979SOL    HW223571   1.263   2.687  13.367  0.1894 -0.2634  0.3599
 3980SOL     OW23572   4.121   4.135   6.960  0.0771 -0.1864 -0.2686
 3980SOL    HW123573   4.213   4.162   6.952 -0.6366  2.6919  1.3464
 3980SOL    HW223574   4.076   4.218   6.973 -0.2408 -0.6450  1.5582
 3981SOL     OW23575   1.731   1.302   5.686 -0.0793  0.1517 -0.1682
 3981SOL    HW123576   1.782   1.335   5.761  0.3198 -0.9516  0.0467
 3981SOL    HW223577   1.642   1.309   5.720 -0.2185  0.6758 -0.6529
 3982SOL     OW23578   2.511   3.210   8.746 -0.1975  0.7183 -0.1451
 3982SOL    HW123579   2.561   3.276   8.698 -0.4038 -0.5812 -2.1504
 3982SOL    HW223580   2.434   3.194   8.692  0.1725  0.3944 -0.5775
 3983SOL     OW23581   1.564   2.403  13.770 -0.2666 -0.3719  0.4995
 3983SOL    HW123582   1.471   2.412  13.791  0.1826 -0.2342  2.4240
 3983SOL    HW223583   1.549   2.364  13.684 -2.4543  2.4380 -0.3993
 3984SOL     OW23584   2.036   3.573   4.878 -0.2149  0.3394  0.3739
 3984SOL    HW123585   2.020   3.564   4.972  1.8274 -1.1228  0.5927
 3984SOL    HW223586   1.949   3.576   4.840  0.0745 -2.2332 -0.4601
 3985SOL     OW23587   0.338   4.403   4.250 -0.1511 -0.0467  0.3809
 3985SOL    HW123588   0.377   4.381   4.165  3.4056  0.1222  1.9692
 3985SOL    HW223589   0.274   4.335   4.268 -2.5291  2.4456  1.4788
 3986SOL     OW23590   1.242   0.285  14.770 -0.1681 -0.4776 -0.2145
 3986SOL    HW123591   1.146   0.295  14.775 -0.1318 -0.2462  0.0575
 3986SOL    HW223592   1.259   0.278  14.676  0.1926 -1.1602 -0.0994
 3987SOL     OW23593   2.486   4.052   9.545 -0.1369  0.1448  0.1878
 3987SOL    HW123594   2.488   4.145   9.567  0.2061  0.1765  0.0158
 3987SOL    HW223595   2.558   4.055   9.482 -1.0165  0.1754 -0.8066
 3988SOL     OW23596   4.242   2.180   3.256  0.3441  0.2167  0.0965
 3988SOL    HW123597   4.230   2.181   3.351 -0.1345 -2.2913  0.0509
 3988SOL    HW223598   4.242   2.085   3.246  0.3357  0.4553 -2.2236
 3989SOL     OW23599   0.769   1.111   3.332  0.1674 -0.1983  0.1476
 3989SOL    HW123600   0.746   1.170   3.403 -0.0786  2.1559 -1.9023
 3989SOL    HW223601   0.753   1.167   3.256 -0.7582  0.5069  0.8667
 3990SOL     OW23602   3.571   1.187   4.586  0.2098 -0.1347 -0.0675
 3990SOL    HW123603   3.539   1.124   4.650  1.7787  1.0511  1.8961
 3990SOL    HW223604   3.506   1.158   4.522 -1.1246  1.3478  0.6285
 3991SOL     OW23605   3.864   2.671   6.827  0.0260  0.5844  0.0774
 3991SOL    HW123606   3.825   2.597   6.874  3.3106 -1.5742 -0.6281
 3991SOL    HW223607   3.915   2.721   6.891  1.5751  0.5691 -1.1527
 3992SOL     OW23608   4.329   4.383   1.141 -0.5061 -0.2603 -0.2773
 3992SOL    HW123609   4.282   4.334   1.209  1.9173 -2.9280 -0.4966
 3992SOL    HW223610   4.321   4.476   1.164 -0.7293 -0.7752  1.7768
 3993SOL     OW23611   2.174   2.037   2.973 -0.4376  0.2957  0.0459
 3993SOL    HW123612   2.135   1.951   2.956  0.2748  0.2647 -1.4081
 3993SOL    HW223613   2.182   2.064   2.881  0.2187  0.7376  0.2391
 3994SOL     OW23614   3.004   4.271   2.702  0.3630  0.2029 -0.0966
 3994SOL    HW123615   2.968   4.359   2.705 -0.5496 -0.2267  1.5671
 3994SOL    HW223616   3.070   4.277   2.633 -0.1925  0.5641 -0.5875
 3995SOL     OW23617   4.586   3.024   2.744 -0.2306  0.2382 -0.1296
 3995SOL    HW123618   4.551   2.936   2.760 -1.1755  0.5509 -0.4796
 3995SOL    HW223619   4.664   3.024   2.800  0.7357  1.7892 -1.4748
 3996SOL     OW23620   2.884   2.714   5.368  0.0978  1.0586  0.0563
 3996SOL    HW123621   2.879   2.776   5.295 -0.8602 -1.4881 -2.0546
 3996SOL    HW223622   2.812   2.745   5.423 -0.0343 -1.8709  1.5375
 3997SOL     OW23623   3.636   3.254  12.426 -0.3401  0.1129 -0.3176
 3997SOL    HW123624   3.689   3.180  12.456  1.8176  0.5207 -3.2350
 3997SOL    HW223625   3.593   3.205  12.356  1.1468  1.2475 -1.9896
 3998SOL     OW23626   4.344   3.511   7.058  0.3839 -0.1153 -0.4348
 3998SOL    HW123627   4.269   3.571   7.059  0.4725 -0.0583  2.2387
 3998SOL    HW223628   4.407   3.575   7.092  1.6162 -0.6616 -1.6654
 3999SOL     OW23629   3.892   1.306  11.250 -0.3309 -0.5288 -0.4657
 3999SOL    HW123630   3.964   1.270  11.302  0.6021  0.5286 -1.0167
 3999SOL    HW223631   3.836   1.228  11.243 -1.0746  0.0794 -1.2549
 4000SOL     OW23632   1.173   4.144  10.319  0.1851  0.1125  0.4415
 4000SOL    HW123633   1.216   4.220  10.359  0.3962  1.0158 -1.4994
 4000SOL    HW223634   1.243   4.079  10.314  1.1857  1.2449 -0.2039
 4001SOL     OW23635   2.456   3.800   5.114  0.4917  0.0029  0.2965
 4001SOL    HW123636   2.456   3.889   5.081  1.1934  0.7661  2.3890
 4001SOL    HW223637   2.534   3.795   5.169  1.2101 -0.9100 -0.7834
 4002SOL     OW23638   3.267   2.234   4.690  0.3748  0.1174  0.3923
 4002SOL    HW123639   3.207   2.304   4.715 -1.4140 -0.5709 -2.0547
 4002SOL    HW223640   3.216   2.155   4.709  1.0102  0.0838  2.0322
 4003SOL     OW23641   3.612   1.319  12.505  0.3723 -0.1673 -0.2491
 4003SOL    HW123642   3.687   1.379  12.510 -1.2095  1.4355  3.8435
 4003SOL    HW223643   3.563   1.358  12.432  0.5464  0.3442 -0.0927
 4004SOL     OW23644   4.208   0.292   4.795 -0.0747  0.2051 -0.1360
 4004SOL    HW123645   4.130   0.315   4.846 -0.9017  1.0950 -1.7899
 4004SOL    HW223646   4.214   0.199   4.814 -0.8389  0.4331  1.2727
 4005SOL     OW23647   2.280   0.071  17.238  0.2306 -0.5848  0.0741
 4005SOL    HW123648   2.215   0.070  17.308  1.5892  2.8126  1.3749
 4005SOL    HW223649   2.294   4.715  17.234 -0.3442 -0.6747  0.0816
 4006SOL     OW23650   2.078   1.231   1.584  0.5678  0.2126 -0.0508
 4006SOL    HW123651   2.129   1.182   1.648 -0.1778 -0.6308 -0.1022
 4006SOL    HW223652   1.995   1.247   1.629 -0.5895 -2.3557 -1.1983
 4007SOL     OW23653   0.787   0.458   4.407  0.1185  0.6302  0.7699
 4007SOL    HW123654   0.719   0.443   4.473  0.2488  0.3568  0.8411
 4007SOL    HW223655   0.866   0.468   4.461  0.3133  3.0478  0.0464
 4008SOL     OW23656   2.393   0.737   5.136  0.6304  0.1208  0.0134
 4008SOL    HW123657   2.472   0.691   5.164  1.4109  0.8604 -0.9870
 4008SOL    HW223658   2.385   0.791   5.216 -3.0120 -0.2323 -0.1384
 4009SOL     OW23659   3.210   0.538   9.190  0.6843  0.0462  0.2357
 4009SOL    HW123660   3.256   0.617   9.162  0.4661 -0.0192 -0.3225
 4009SOL    HW223661   3.289   0.483   9.182  1.3061  1.5302 -3.8055
 4010SOL     OW23662   3.794   1.855  15.669  0.3640  0.2148 -0.0696
 4010SOL    HW123663   3.871   1.806  15.695  0.4962  0.1039 -0.6606
 4010SOL    HW223664   3.723   1.836  15.730 -0.8952  0.9535 -1.2732
 4011SOL     OW23665   1.958   4.105   8.201  0.0811 -0.1367 -0.6211
 4011SOL    HW123666   1.966   4.093   8.295  2.5581  1.1269 -0.6683
 4011SOL    HW223667   2.025   4.174   8.199  0.5412 -0.5873 -0.9236
 4012SOL     OW23668   2.931   1.213   2.744  0.4997  0.3746 -0.8842
 4012SOL    HW123669   2.926   1.280   2.812 -1.2675 -2.0367  1.3472
 4012SOL    HW223670   2.898   1.266   2.672 -0.8247  0.5869 -0.1133
 4013SOL     OW23671   1.314   0.017   5.909 -0.7884  0.6413  0.4940
 4013SOL    HW123672   1.344   4.665   5.920  1.5974  1.3608 -0.0714
 4013SOL    HW223673   1.345   0.059   5.990  0.9759  0.6728 -0.1807
 4014SOL     OW23674   1.592   4.721   7.955  0.1975 -0.7326  0.5701
 4014SOL    HW123675   1.633   4.663   7.890 -0.6010  1.6802 -2.0742
 4014SOL    HW223676   1.539   0.032   7.893  0.5335 -1.9712 -0.7113
 4015SOL     OW23677   2.872   2.299   2.548 -0.5404  0.1030 -0.0293
 4015SOL    HW123678   2.872   2.224   2.608  0.3004  1.3368  1.5046
 4015SOL    HW223679   2.893   2.370   2.608 -2.1499  0.5850 -0.0321
 4016SOL     OW23680   0.857   0.321  10.488  0.3509 -0.0891 -0.2224
 4016SOL    HW123681   0.916   0.246  10.492 -0.7961 -1.0662 -1.5612
 4016SOL    HW223682   0.824   0.322  10.577  1.2985  1.9013  0.1128
 4017SOL     OW23683   4.636   3.384   8.569  0.5226 -0.6035 -0.1692
 4017SOL    HW123684   4.717   3.332   8.561  0.3347 -0.6822 -1.4756
 4017SOL    HW223685   4.671   3.451   8.627  0.7854  0.1643 -1.2148
 4018SOL     OW23686   4.217   3.162   1.100 -0.1851 -0.2941  0.3476
 4018SOL    HW123687   4.168   3.243   1.113 -0.6354 -0.3503 -0.9772
 4018SOL    HW223688   4.265   3.193   1.022 -0.3540  0.9312  0.7352
 4019SOL     OW23689   0.335   0.171   8.577  0.5672 -0.3421 -0.4975
 4019SOL    HW123690   0.329   0.130   8.491  1.2975  1.9966 -1.6742
 4019SOL    HW223691   0.243   0.193   8.588  1.0858  1.2385  0.7234
 4020SOL     OW23692   1.118   1.657   4.958 -0.5333 -0.3272  0.2275
 4020SOL    HW123693   1.130   1.714   4.882 -2.1317 -2.9222 -1.9745
 4020SOL    HW223694   1.080   1.579   4.918  0.2851 -0.0124 -1.1494
 4021SOL     OW23695   3.156   1.868  16.444  0.2156  0.4390 -0.1398
 4021SOL    HW123696   3.116   1.811  16.379 -2.6228  0.0537  1.9157
 4021SOL    HW223697   3.106   1.838  16.521 -0.4148 -0.7465 -1.0117
 4022SOL     OW23698   1.904   0.503  10.306  0.4192 -0.1153  0.1739
 4022SOL    HW123699   1.877   0.521  10.396  0.0054 -1.4252  0.3057
 4022SOL    HW223700   1.972   0.567  10.286 -0.4355  0.7603  0.0499
 4023SOL     OW23701   2.108   0.292  17.555 -0.1666 -0.4406 -0.0400
 4023SOL    HW123702   2.036   0.346  17.523  1.7825  2.5762  0.7440
 4023SOL    HW223703   2.132   0.345  17.630 -1.4611 -1.3364  1.0095
 4024SOL     OW23704   2.435   3.821   5.649 -0.2394  0.2891  0.1857
 4024SOL    HW123705   2.402   3.797   5.735 -0.4277  0.6190  0.2070
 4024SOL    HW223706   2.465   3.909   5.670 -2.5090  1.6851 -2.3083
 4025SOL     OW23707   2.167   3.807   6.105 -0.6008 -0.1127  0.4581
 4025SOL    HW123708   2.144   3.824   6.196 -1.8339  1.2387 -0.1056
 4025SOL    HW223709   2.105   3.876   6.082 -0.0751 -0.1974 -1.2067
 4026SOL     OW23710   2.656   1.021  13.439 -0.1690 -0.0040  0.1300
 4026SOL    HW123711   2.618   1.064  13.515 -3.3066 -2.2008 -0.1902
 4026SOL    HW223712   2.633   1.085  13.372 -1.3627 -0.8052 -0.2076
 4027SOL     OW23713   2.253   2.379   3.361  0.0396 -0.5453 -0.4012
 4027SOL    HW123714   2.315   2.450   3.345  0.1325 -0.7300 -0.8532
 4027SOL    HW223715   2.183   2.423   3.411  0.5426  0.2258 -0.3701
 4028SOL     OW23716   3.033   2.534   3.241  0.2832  0.3307 -0.3543
 4028SOL    HW123717   3.055   2.473   3.312 -0.2197  1.0046  0.3846
 4028SOL    HW223718   2.941   2.545   3.263  0.4670  1.0674  0.0243
 4029SOL     OW23719   0.566   4.499  12.078 -0.1873  0.4935 -0.2436
 4029SOL    HW123720   0.639   4.510  12.139  1.5811  0.9027 -2.4302
 4029SOL    HW223721   0.498   4.537  12.133 -1.8014 -2.6959 -0.0379
 4030SOL     OW23722   0.717   3.770   7.995  0.0295  0.3376  0.1797
 4030SOL    HW123723   0.795   3.752   8.048  1.4393  0.2817 -1.8815
 4030SOL    HW223724   0.663   3.693   8.013 -2.1202  2.0586  1.1289
 4031SOL     OW23725   3.915   0.181   1.399 -0.6551 -0.2073 -0.4063
 4031SOL    HW123726   3.944   0.173   1.490 -0.4584 -0.6433 -0.5060
 4031SOL    HW223727   3.960   0.261   1.371  0.3437 -0.2721  0.9932
 4032SOL     OW23728   4.450   2.266   7.265  0.7218 -0.6219 -0.5281
 4032SOL    HW123729   4.433   2.355   7.233  3.5657  0.0545 -0.1257
 4032SOL    HW223730   4.512   2.241   7.196  0.5428 -0.8126 -0.6213
 4033SOL     OW23731   3.782   2.123  16.224 -0.6035  0.3312 -0.1754
 4033SOL    HW123732   3.693   2.107  16.255 -0.5454 -0.1984 -0.2973
 4033SOL    HW223733   3.788   2.053  16.160 -2.0233  0.9964 -1.0214
 4034SOL     OW23734   2.959   4.243   1.109 -0.3184 -0.5278  0.2021
 4034SOL    HW123735   3.045   4.227   1.071  0.1674 -0.2634  1.1846
 4034SOL    HW223736   2.907   4.199   1.042 -2.5068 -1.9138  2.7913
 4035SOL     OW23737   0.340   4.228  17.631  0.5147  0.2336  0.8186
 4035SOL    HW123738   0.324   4.267  17.545 -3.2882 -1.2499  0.8645
 4035SOL    HW223739   0.421   4.180  17.617 -0.0076 -0.1648 -0.8293
 4036SOL     OW23740   0.783   4.127   0.688  0.5460  0.0233 -0.4031
 4036SOL    HW123741   0.714   4.077   0.646  2.3506 -2.5264 -0.3533
 4036SOL    HW223742   0.848   4.142   0.619 -2.3824  2.7770 -2.5417
 4037SOL     OW23743   1.846   3.024   4.957 -0.0901  0.3975  0.1390
 4037SOL    HW123744   1.816   3.110   4.986  0.3997 -0.3780  2.9397
 4037SOL    HW223745   1.764   2.977   4.947  0.5489 -1.3685  3.3339
 4038SOL     OW23746   4.318   0.886   1.815  0.9286 -0.0131  0.3431
 4038SOL    HW123747   4.339   0.797   1.786  1.6414  0.0462  0.6975
 4038SOL    HW223748   4.353   0.880   1.904 -0.4549 -0.1709  0.8859
 4039SOL     OW23749   0.070   2.245   1.145 -0.2271 -0.3134  0.0090
 4039SOL    HW123750   4.724   2.209   1.117  0.7751 -0.9933 -2.1225
 4039SOL    HW223751   0.115   2.248   1.061 -1.8451 -1.3582 -0.9027
 4040SOL     OW23752   2.865   2.513   3.996  0.1923  0.3847  0.2045
 4040SOL    HW123753   2.780   2.517   4.040 -0.5513 -1.4591 -1.0358
 4040SOL    HW223754   2.845   2.452   3.925  2.4434  1.9216 -1.7306
 4041SOL     OW23755   1.284   2.997   2.178 -0.5575 -0.1969  0.6478
 4041SOL    HW123756   1.274   2.926   2.114 -3.7947  1.7468 -1.0174
 4041SOL    HW223757   1.346   3.058   2.138 -0.7637 -0.9777 -0.8977
 4042SOL     OW23758   1.903   4.359   8.812  0.4251 -0.0465 -0.1612
 4042SOL    HW123759   1.896   4.454   8.819  1.9890  0.2388 -2.4860
 4042SOL    HW223760   1.828   4.340   8.868  1.7847  0.8790  2.0129
 4043SOL     OW23761   0.403   1.245   8.682 -0.3062 -0.1209  0.0887
 4043SOL    HW123762   0.485   1.293   8.692 -0.5535  0.5198 -0.9117
 4043SOL    HW223763   0.394   1.218   8.773 -0.0032 -0.7245 -0.0602
 4044SOL     OW23764   2.972   1.469  12.012  0.0968  0.1300 -0.3816
 4044SOL    HW123765   2.929   1.475  11.927 -1.9500 -0.3401  0.6158
 4044SOL    HW223766   3.024   1.549  12.006  0.1949  0.1396  0.6345
 4045SOL     OW23767   0.807   1.128   6.722  0.2074  0.0316 -0.9197
 4045SOL    HW123768   0.752   1.079   6.661  0.5862 -0.3923 -0.9238
 4045SOL    HW223769   0.851   1.062   6.776 -1.0438  1.6170  2.0245
 4046SOL     OW23770   3.708   3.108   4.274  0.1253 -0.8407 -0.7795
 4046SOL    HW123771   3.704   3.170   4.200 -0.5829  1.4113  1.1642
 4046SOL    HW223772   3.616   3.093   4.292  0.3058  2.2802  2.8118
 4047SOL     OW23773   2.819   0.186  10.836 -0.5064  0.3623  0.7622
 4047SOL    HW123774   2.784   0.226  10.916  2.7997  0.7931  1.9859
 4047SOL    HW223775   2.818   0.266  10.784 -0.5318  1.7535  2.9098
 4048SOL     OW23776   0.376   2.218   8.443 -0.2306 -0.2091 -0.1746
 4048SOL    HW123777   0.393   2.132   8.481  3.2207  1.3936  1.8245
 4048SOL    HW223778   0.458   2.246   8.403 -0.7948 -0.7208 -1.6895
 4049SOL     OW23779   1.977   3.557   5.139 -0.8563  0.0237  0.3357
 4049SOL    HW123780   2.065   3.582   5.169 -0.2804 -1.4741 -0.1344
 4049SOL    HW223781   1.920   3.605   5.199  2.4518  0.4930  3.1514
 4050SOL     OW23782   2.855   1.467   5.002  0.2636 -0.1567 -0.2626
 4050SOL    HW123783   2.876   1.558   5.023  1.1202 -0.2671 -0.6222
 4050SOL    HW223784   2.776   1.459   5.055 -0.0164 -1.4451 -0.8641
 4051SOL     OW23785   1.646   1.768  15.513  0.0062 -0.2033  0.1304
 4051SOL    HW123786   1.705   1.835  15.479 -0.5770 -0.2397 -0.9695
 4051SOL    HW223787   1.563   1.799  15.476  0.2392 -1.7937 -1.7296
 4052SOL     OW23788   3.789   3.607   8.986  0.2956  0.2693  0.8051
 4052SOL    HW123789   3.699   3.624   9.014  0.7000 -1.0875  2.8620
 4052SOL    HW223790   3.791   3.625   8.892  0.0074 -0.8567  0.5866
 4053SOL     OW23791   2.900   0.612   4.331 -0.4211  0.2096 -0.2051
 4053SOL    HW123792   2.993   0.629   4.343 -0.3160 -0.0230 -0.7215
 4053SOL    HW223793   2.868   0.661   4.408 -0.4756 -1.2448  0.6907
 4054SOL     OW23794   2.732   0.950  15.118  0.2324  0.0746 -0.0088
 4054SOL    HW123795   2.733   0.870  15.169 -1.7472 -2.3365 -3.7274
 4054SOL    HW223796   2.749   0.915  15.030  2.4709  1.8031 -0.2828
 4055SOL     OW23797   1.758   3.289  15.758 -0.5716 -0.6357  0.3804
 4055SOL    HW123798   1.769   3.293  15.663  0.1652 -1.0380  0.4542
 4055SOL    HW223799   1.712   3.372  15.769  0.8168  0.3925 -1.6111
 4056SOL     OW23800   3.620   0.908   5.962 -0.1294 -0.1061  0.5308
 4056SOL    HW123801   3.526   0.920   5.971  0.0641  1.9130 -0.0801
 4056SOL    HW223802   3.661   0.975   6.016  0.0166 -0.9707  1.5012
 4057SOL     OW23803   2.397   3.865   3.476 -0.1436 -0.1049  0.0381
 4057SOL    HW123804   2.395   3.851   3.571 -3.7714 -0.2408 -0.0518
 4057SOL    HW223805   2.312   3.909   3.467 -0.0008  0.2260  0.2893
 4058SOL     OW23806   1.226   0.213   4.280  0.2652 -0.2428 -0.2569
 4058SOL    HW123807   1.221   0.171   4.194  0.8139  0.7365 -0.7659
 4058SOL    HW223808   1.231   0.135   4.335  1.1195 -0.0375 -0.0327
 4059SOL     OW23809   0.049   1.285   4.969  0.4429 -0.4431  0.0878
 4059SOL    HW123810   4.732   1.214   4.935  1.0029 -1.1679  0.6942
 4059SOL    HW223811   0.090   1.248   5.047  0.2643  0.3862  0.5803
 4060SOL     OW23812   3.422   1.782   5.907  0.3063 -0.6734 -0.0240
 4060SOL    HW123813   3.500   1.752   5.954 -1.2583  0.4869  3.2982
 4060SOL    HW223814   3.362   1.709   5.922 -1.0604  0.6532  1.0051
 4061SOL     OW23815   2.741   4.649  12.473  0.6715 -0.0890 -0.3471
 4061SOL    HW123816   2.702   4.717  12.528 -0.0689  0.2390 -1.2722
 4061SOL    HW223817   2.674   4.583  12.486  0.9368  0.5689  4.2322
 4062SOL     OW23818   3.578   3.475  14.248  0.6430 -0.3136 -0.0808
 4062SOL    HW123819   3.655   3.424  14.223 -1.0629 -1.8569 -2.2200
 4062SOL    HW223820   3.597   3.523  14.328 -2.0812 -0.9303  0.9463
 4063SOL     OW23821   1.820   2.003  15.405  0.2983  0.4390  0.7541
 4063SOL    HW123822   1.867   2.062  15.464 -2.4830  1.2167  2.2205
 4063SOL    HW223823   1.882   1.989  15.334  0.1021 -1.1855  0.8970
 4064SOL     OW23824   3.413   1.313  13.250 -0.1485  0.3289 -0.2608
 4064SOL    HW123825   3.370   1.398  13.263  0.1901  0.2856  1.1750
 4064SOL    HW223826   3.395   1.267  13.332 -1.0829  1.8617  0.3952
 4065SOL     OW23827   3.174   2.343  13.065  0.2632  0.2411  0.0187
 4065SOL    HW123828   3.255   2.351  13.117  0.8323 -2.1815 -0.4660
 4065SOL    HW223829   3.152   2.436  13.059  0.3919  0.2192 -0.7554
 4066SOL     OW23830   4.138   2.178   3.996 -0.2190 -0.4932  0.4013
 4066SOL    HW123831   4.207   2.243   4.000  0.1750 -0.9300  0.8253
 4066SOL    HW223832   4.099   2.182   4.084 -2.5068 -1.6979 -0.5538
 4067SOL     OW23833   3.968   2.947   4.922  0.0279 -0.3081  0.0944
 4067SOL    HW123834   3.920   2.991   4.992  0.4600  1.9314 -1.0038
 4067SOL    HW223835   3.914   2.960   4.844  0.1824 -0.9171 -0.1124
 4068SOL     OW23836   1.184   0.675   9.545  0.2250 -0.4358 -0.0591
 4068SOL    HW123837   1.235   0.755   9.528 -1.1486 -0.0104 -2.1991
 4068SOL    HW223838   1.108   0.685   9.488  0.6177 -2.2906 -0.9092
 4069SOL     OW23839   2.794   3.073   8.888 -0.2565  0.1419  0.1808
 4069SOL    HW123840   2.794   3.049   8.981 -0.0444 -1.1673 -0.1619
 4069SOL    HW223841   2.764   3.164   8.888 -0.4443  0.0743  2.0477
 4070SOL     OW23842   1.620   1.257   4.579  0.3269 -0.3470 -0.4042
 4070SOL    HW123843   1.605   1.180   4.635 -1.1592  1.2227  1.3232
 4070SOL    HW223844   1.592   1.213   4.499 -1.0612  1.4110 -0.8755
 4071SOL     OW23845   3.904   2.302  10.927  0.6985  0.1073 -0.2316
 4071SOL    HW123846   3.877   2.378  10.876  1.9125  1.6254  1.3774
 4071SOL    HW223847   3.975   2.272  10.871 -1.1462 -0.2435 -2.3687
 4072SOL     OW23848   4.397   2.571   2.171 -0.1368 -0.2123 -0.2467
 4072SOL    HW123849   4.366   2.636   2.108  0.1641 -1.2722 -1.4856
 4072SOL    HW223850   4.319   2.523   2.198 -0.3989  0.8759  0.9108
 4073SOL     OW23851   2.365   0.805   7.676  0.4826  0.0391 -0.0252
 4073SOL    HW123852   2.290   0.857   7.650  2.0568  1.5245 -1.6447
 4073SOL    HW223853   2.315   0.732   7.714 -1.7110  1.4894 -0.1605
 4074SOL     OW23854   2.986   4.492   4.322 -0.5059 -0.5505 -0.0364
 4074SOL    HW123855   2.908   4.451   4.285 -1.5016  1.6551 -0.3812
 4074SOL    HW223856   3.060   4.431   4.314 -0.9614 -1.1339  0.1501
 4075SOL     OW23857   4.377   0.216   3.004 -0.2222 -1.2373 -0.0612
 4075SOL    HW123858   4.319   0.192   3.076 -1.9296  1.1473 -0.6667
 4075SOL    HW223859   4.376   0.136   2.952  0.6437 -0.3111 -1.4867
 4076SOL     OW23860   3.392   1.193  13.017  0.1410  0.4302 -0.3011
 4076SOL    HW123861   3.473   1.232  12.984 -0.6999  1.5362 -1.1067
 4076SOL    HW223862   3.387   1.230  13.105 -0.2794  0.7324 -0.4468
 4077SOL     OW23863   3.436   0.639  17.648  0.0994  0.8694  0.5425
 4077SOL    HW123864   3.463   0.589  17.571 -1.4345 -1.1157  1.2983
 4077SOL    HW223865   3.509   0.701  17.643  0.8487 -0.0871 -0.5300
 4078SOL     OW23866   2.820   4.444   6.422 -0.2482  0.0659 -0.0309
 4078SOL    HW123867   2.845   4.412   6.336  1.7184  0.2210  0.4984
 4078SOL    HW223868   2.772   4.525   6.403 -1.8701 -0.9073 -0.1475
 4079SOL     OW23869   0.935   2.120   7.677  0.0404  0.0556  0.2878
 4079SOL    HW123870   0.852   2.105   7.722 -0.5765 -0.5784 -1.0762
 4079SOL    HW223871   0.973   2.191   7.729 -2.1031  0.9073  0.6930
 4080SOL     OW23872   4.378   4.706   1.931  0.1074  0.2590 -0.3778
 4080SOL    HW123873   4.402   4.690   1.839 -0.9321  1.7229 -0.8931
 4080SOL    HW223874   4.389   0.063   1.928  0.8082  0.2187  1.0815
 4081SOL     OW23875   3.415   2.881   1.923  0.2741  0.0462 -0.3932
 4081SOL    HW123876   3.474   2.848   1.856 -1.2214 -1.0766 -1.1554
 4081SOL    HW223877   3.432   2.975   1.923  0.0724  0.0921  0.9635
 4082SOL     OW23878   1.126   0.555  17.070 -0.7800 -0.6118  0.2439
 4082SOL    HW123879   1.110   0.461  17.060  0.0354 -0.5269 -1.7755
 4082SOL    HW223880   1.155   0.563  17.161  2.3270 -1.7005 -0.6401
 4083SOL     OW23881   1.197   0.349   7.159  0.3628  0.2105  0.1316
 4083SOL    HW123882   1.144   0.379   7.233 -0.6030  1.2391 -0.9551
 4083SOL    HW223883   1.282   0.375   7.194  0.6120  0.4694 -0.6711
 4084SOL     OW23884   0.430   0.072   6.972  0.2224  0.0182  0.1479
 4084SOL    HW123885   0.372   4.737   6.995  0.1383  0.2682  0.7087
 4084SOL    HW223886   0.375   0.119   6.909  1.2346 -0.2780 -0.9674
 4085SOL     OW23887   1.539   1.214   0.915  0.1349 -0.3465 -0.0504
 4085SOL    HW123888   1.489   1.133   0.919 -0.0586 -0.3153 -1.8412
 4085SOL    HW223889   1.597   1.206   0.990  0.3324  1.1711 -0.0228
 4086SOL     OW23890   3.786   2.548   1.442 -0.1281 -0.1805 -0.2335
 4086SOL    HW123891   3.713   2.608   1.426  0.0110  0.2690  0.8163
 4086SOL    HW223892   3.778   2.539   1.537  2.0992 -0.4999 -0.0636
 4087SOL     OW23893   2.854   2.504   4.827  0.5184 -0.0038  0.0810
 4087SOL    HW123894   2.771   2.548   4.811  0.9681  0.3254 -1.3840
 4087SOL    HW223895   2.864   2.528   4.919 -0.0559  2.5649 -0.5113
 4088SOL     OW23896   1.591   1.103   2.139 -0.0214  0.4505 -0.8462
 4088SOL    HW123897   1.653   1.088   2.068  1.5940  0.2906  0.5982
 4088SOL    HW223898   1.625   1.175   2.192 -2.4063  1.3830 -0.5470
 4089SOL     OW23899   3.138   3.953   3.982  0.1438 -0.5610 -0.1757
 4089SOL    HW123900   3.106   3.874   3.939 -2.7436  0.4673  0.0817
 4089SOL    HW223901   3.091   3.952   4.065  0.0629  1.7064 -0.1881
 4090SOL     OW23902   0.545   2.206   8.914 -0.1848  0.2234  0.2422
 4090SOL    HW123903   0.522   2.271   8.980  1.0023  1.0964 -0.1894
 4090SOL    HW223904   0.576   2.261   8.842  0.6776 -1.4743 -0.6717
 4091SOL     OW23905   4.539   1.705  11.906  0.7404 -0.0018 -0.1672
 4091SOL    HW123906   4.534   1.630  11.965  0.5410 -1.9531 -2.7068
 4091SOL    HW223907   4.489   1.769  11.957 -1.4532 -3.4786  2.0173
 4092SOL     OW23908   3.982   2.048   2.916  0.9788 -0.8052 -0.2417
 4092SOL    HW123909   4.071   2.014   2.905  0.1524 -2.9603 -0.4025
 4092SOL    HW223910   3.997   2.130   2.963 -1.8428 -1.8443  2.5370
 4093SOL     OW23911   2.727   0.429  10.723 -0.0678 -0.2713  0.4458
 4093SOL    HW123912   2.761   0.513  10.755 -2.2752  0.2974  1.3668
 4093SOL    HW223913   2.691   0.455  10.638  1.9087 -1.0609 -0.6205
 4094SOL     OW23914   2.955   1.125  11.890  0.1039 -0.3128 -0.5141
 4094SOL    HW123915   2.902   1.099  11.965  1.9030  0.2918  0.9492
 4094SOL    HW223916   2.933   1.057  11.826 -1.8665 -0.1705  0.0186
 4095SOL     OW23917   3.233   1.069   4.700  0.2083 -0.1361  0.0306
 4095SOL    HW123918   3.176   1.144   4.721 -0.8839 -1.3690  1.4445
 4095SOL    HW223919   3.172   1.013   4.653  0.1393  0.2406 -0.3313
 4096SOL     OW23920   1.970   1.982   5.715 -0.4782  0.7581  0.0769
 4096SOL    HW123921   1.898   1.926   5.686 -0.3206 -1.2174  3.4767
 4096SOL    HW223922   1.933   2.067   5.690 -1.3756  0.4162  0.2427
 4097SOL     OW23923   1.254   1.119   7.112 -0.1095  0.0812  0.6315
 4097SOL    HW123924   1.162   1.147   7.116 -0.5525 -1.3007  0.3807
 4097SOL    HW223925   1.265   1.112   7.017 -0.7542  2.0499  0.4145
 4098SOL     OW23926   3.487   1.819  10.986  0.5681 -0.1845  0.1478
 4098SOL    HW123927   3.409   1.872  10.969  1.2524  0.8328  0.1408
 4098SOL    HW223928   3.548   1.835  10.913 -0.4961 -0.9624 -0.9120
 4099SOL     OW23929   3.483   2.525  17.040  0.6905  0.2023  0.0070
 4099SOL    HW123930   3.515   2.615  17.052  0.9615  0.0651  0.3157
 4099SOL    HW223931   3.438   2.530  16.956 -0.2013  0.4893  0.5037
 4100SOL     OW23932   1.954   1.923   8.898  0.3318  0.6179 -0.0840
 4100SOL    HW123933   1.907   1.840   8.893 -1.3270  1.5494  0.3197
 4100SOL    HW223934   2.044   1.897   8.876  0.6930  1.2270  0.6514
 4101SOL     OW23935   1.144   0.555   0.689  0.2144  0.2542 -0.2183
 4101SOL    HW123936   1.125   0.461   0.690 -0.1116  0.3195 -0.1677
 4101SOL    HW223937   1.172   0.562   0.780  0.7389 -0.1339 -0.3506
 4102SOL     OW23938   0.694   1.551   8.467 -0.5272 -0.3884  0.2134
 4102SOL    HW123939   0.673   1.498   8.543 -0.6842 -0.4240  0.1466
 4102SOL    HW223940   0.773   1.593   8.499  0.2439 -0.9196 -0.9965
 4103SOL     OW23941   2.289   2.850   2.185  0.1122 -0.4635 -0.5527
 4103SOL    HW123942   2.262   2.760   2.202  2.8580 -1.0054  1.1102
 4103SOL    HW223943   2.260   2.867   2.096 -2.6763 -0.8420  0.2905
 4104SOL     OW23944   1.905   4.231  12.019  0.7448 -0.0353  0.1491
 4104SOL    HW123945   1.985   4.244  12.070 -0.9155  1.2556  2.4454
 4104SOL    HW223946   1.939   4.181  11.945 -1.3913 -0.4734 -0.5451
 4105SOL     OW23947   1.096   4.600  11.156 -0.0838  0.0214 -0.4178
 4105SOL    HW123948   1.046   4.635  11.230 -0.9523  0.4375 -1.2001
 4105SOL    HW223949   1.124   4.681  11.113  1.6160 -0.1487  0.3506
 4106SOL     OW23950   4.354   1.403   5.630 -0.7069  0.2583  0.0658
 4106SOL    HW123951   4.368   1.362   5.545 -0.2016  1.2231 -0.3109
 4106SOL    HW223952   4.359   1.326   5.688 -2.1041  0.4253  0.4140
 4107SOL     OW23953   2.106   2.118  16.152 -0.2260  0.2195 -0.4562
 4107SOL    HW123954   2.055   2.170  16.215 -1.0324 -3.1009  1.6289
 4107SOL    HW223955   2.190   2.157  16.174 -0.6579  0.5485  0.6063
 4108SOL     OW23956   4.084   2.114   0.551 -0.3760  0.6346  0.1747
 4108SOL    HW123957   4.131   2.185   0.596 -1.6019  0.2288  2.0733
 4108SOL    HW223958   4.015   2.154   0.499 -1.3457  1.3428  2.0129
 4109SOL     OW23959   1.011   3.669   8.521 -0.4670  0.6930  0.3031
 4109SOL    HW123960   0.995   3.578   8.546  1.4984  0.2341 -0.0864
 4109SOL    HW223961   0.941   3.669   8.455 -0.5575  0.8793  0.3992
 4110SOL     OW23962   4.237   4.552   6.237 -0.1354  0.1006  0.1506
 4110SOL    HW123963   4.269   4.543   6.147 -0.6503  0.7647 -0.0944
 4110SOL    HW223964   4.238   4.647   6.246  2.1041  0.1388 -0.4762
 4111SOL     OW23965   3.351   0.418   1.640 -0.3662 -0.3712 -0.0786
 4111SOL    HW123966   3.352   0.500   1.689 -0.5958  0.3389 -1.2687
 4111SOL    HW223967   3.346   0.345   1.701  0.5455 -0.3679 -0.0054
 4112SOL     OW23968   4.331   4.177   1.840  0.2011 -0.0041  0.5465
 4112SOL    HW123969   4.316   4.258   1.793  0.2865 -2.0707 -3.0120
 4112SOL    HW223970   4.390   4.144   1.773 -1.2948  0.8146 -1.1552
 4113SOL     OW23971   2.590   2.409   2.897 -0.4361 -0.3539 -0.1534
 4113SOL    HW123972   2.495   2.399   2.891 -0.6895  1.5559  0.6715
 4113SOL    HW223973   2.614   2.460   2.820  2.6969 -0.8831  0.4997
 4114SOL     OW23974   1.168   2.960   5.888 -0.3111 -0.7696 -0.0093
 4114SOL    HW123975   1.197   2.871   5.904 -0.8509 -0.8607  0.4511
 4114SOL    HW223976   1.232   3.013   5.935 -1.2804 -0.4414  0.9569
 4115SOL     OW23977   0.574   2.229   3.216 -0.1939  0.0320 -0.2380
 4115SOL    HW123978   0.583   2.144   3.172 -0.3539  0.1423 -0.4829
 4115SOL    HW223979   0.555   2.290   3.145 -2.0626 -1.0977 -0.6947
 4116SOL     OW23980   3.353   3.051   6.304  0.5805  0.6084 -0.0633
 4116SOL    HW123981   3.372   3.134   6.261  0.7727  0.2734 -0.6295
 4116SOL    HW223982   3.428   2.995   6.285  0.3418  0.7870 -1.5396
 4117SOL     OW23983   0.532   4.061   2.593  0.2757 -0.5752  0.1724
 4117SOL    HW123984   0.445   4.101   2.586  0.7315  0.2618 -0.7275
 4117SOL    HW223985   0.558   4.108   2.672  0.9173  0.6926 -0.7963
 4118SOL     OW23986   3.884   0.825   3.592  0.1268  0.1500  0.4279
 4118SOL    HW123987   3.838   0.751   3.552  0.9475 -0.3183  0.3503
 4118SOL    HW223988   3.950   0.842   3.525  0.1432  0.7659  0.5947
 4119SOL     OW23989   4.682   3.000   8.673  0.0263  0.1137 -0.0139
 4119SOL    HW123990   0.030   2.960   8.660  0.9894  3.1591 -3.0029
 4119SOL    HW223991   4.698   3.048   8.755  0.2273 -4.2910  2.5016
 4120SOL     OW23992   3.119   1.640   3.574 -0.7229 -0.4873  0.2876
 4120SOL    HW123993   3.029   1.607   3.578 -0.8004 -0.2825  0.2140
 4120SOL    HW223994   3.112   1.679   3.487 -0.4808  1.9744  1.3626
 4121SOL     OW23995   3.105   4.156  16.456 -0.3725  0.4072  0.0492
 4121SOL    HW123996   3.071   4.136  16.369 -2.5010 -0.6486  1.1097
 4121SOL    HW223997   3.183   4.101  16.457 -0.0406  0.8946  0.9852
 4122SOL     OW23998   1.772   3.777  10.141  0.0176  0.9004  0.3235
 4122SOL    HW123999   1.832   3.702  10.141 -0.1887  0.7323 -0.7491
 4122SOL    HW224000   1.802   3.823  10.063 -0.2761  0.5057 -0.0258
 4123SOL     OW24001   4.589   1.885   3.390  0.1848 -0.1266  0.0703
 4123SOL    HW124002   4.551   1.801   3.418  0.5781 -0.7385 -1.2213
 4123SOL    HW224003   4.594   1.940   3.468  0.3222  0.3233 -0.2552
 4124SOL     OW24004   1.567   1.542   7.039 -0.5256  0.1404 -0.3876
 4124SOL    HW124005   1.517   1.474   6.995 -1.9151  2.1265 -1.8861
 4124SOL    HW224006   1.621   1.496   7.103  0.9788  1.8944 -0.4048
 4125SOL     OW24007   4.431   2.630   0.849 -0.2968 -0.0352 -0.3799
 4125SOL    HW124008   4.424   2.708   0.904 -1.4727 -1.3525  1.3605
 4125SOL    HW224009   4.377   2.652   0.773 -0.9821 -0.8254 -0.1327
 4126SOL     OW24010   2.737   2.076   6.511  0.1732  0.6088 -0.5693
 4126SOL    HW124011   2.815   2.114   6.549 -0.5174  1.2979  0.1605
 4126SOL    HW224012   2.683   2.081   6.590  0.6510 -0.1729 -0.1975
 4127SOL     OW24013   3.025   3.865   6.265 -0.0548 -0.3688 -0.0888
 4127SOL    HW124014   3.084   3.826   6.330 -0.5774  2.0183  1.8523
 4127SOL    HW224015   3.058   3.824   6.186 -0.4481 -1.4944  0.3336
 4128SOL     OW24016   1.746   2.078   9.865 -0.5318  0.7028 -0.1179
 4128SOL    HW124017   1.752   2.097   9.771 -2.1292 -1.9997 -0.7608
 4128SOL    HW224018   1.694   2.152   9.896 -0.4684  0.9416 -0.5913
 4129SOL     OW24019   3.526   1.830   3.825 -0.6236 -0.5250 -0.3628
 4129SOL    HW124020   3.569   1.791   3.749 -1.8741  2.2992 -2.5147
 4129SOL    HW224021   3.435   1.851   3.805  0.2931  2.4677 -1.4116
 4130SOL     OW24022   3.923   1.233   6.288 -0.5202 -0.4087 -0.3259
 4130SOL    HW124023   3.887   1.227   6.376  2.5325  2.9918  1.1534
 4130SOL    HW224024   3.932   1.142   6.258  0.9399 -0.5847  0.6428
 4131SOL     OW24025   4.231   2.824  15.996  0.2660 -0.0179 -0.1734
 4131SOL    HW124026   4.266   2.791  15.913  1.8950  1.2334  0.0014
 4131SOL    HW224027   4.142   2.793  15.977  0.0840  1.1337 -1.1782
 4132SOL     OW24028   0.640   2.422   5.274 -0.5498  0.9262 -0.3053
 4132SOL    HW124029   0.706   2.456   5.335 -2.4651  1.2792  1.5856
 4132SOL    HW224030   0.591   2.500   5.248 -0.5405  1.3199  0.8849
 4133SOL     OW24031   1.975   1.715   2.546  1.1348  0.0366  0.1820
 4133SOL    HW124032   2.016   1.630   2.554  0.5892  0.0552  3.1266
 4133SOL    HW224033   1.987   1.733   2.453 -1.3926 -3.1587 -0.7560
 4134SOL     OW24034   4.030   1.691  15.204 -0.7225  0.1645 -0.0837
 4134SOL    HW124035   4.016   1.758  15.271  0.8483 -0.2131  0.6065
 4134SOL    HW224036   4.013   1.617  15.262 -2.7325 -1.1490 -2.3100
 4135SOL     OW24037   4.021   2.767   9.562 -0.2537 -0.9411  0.1038
 4135SOL    HW124038   4.103   2.775   9.513 -0.3305 -2.6308 -0.3111
 4135SOL    HW224039   4.032   2.698   9.628  1.6238  0.9377  1.7301
 4136SOL     OW24040   4.211   4.677   6.827  0.3118  0.3816  0.5668
 4136SOL    HW124041   4.256   4.606   6.782  0.9868  0.8822  0.4537
 4136SOL    HW224042   4.120   4.678   6.795  0.4563  0.7836  0.1738
 4137SOL     OW24043   0.115   0.324   3.829  0.6030  0.2088  0.1333
 4137SOL    HW124044   0.020   0.332   3.826  0.5541 -1.0147 -1.5877
 4137SOL    HW224045   0.135   0.232   3.814 -4.4257 -0.8312 -0.1836
 4138SOL     OW24046   3.391   0.131  15.181  0.4423 -0.9292  0.5063
 4138SOL    HW124047   3.350   0.137  15.267  0.9938  1.5300  0.5880
 4138SOL    HW224048   3.336   0.060  15.146 -0.9099  1.1959 -1.6587
 4139SOL     OW24049   2.331   2.318   2.988 -0.0587  0.2837  0.5360
 4139SOL    HW124050   2.362   2.379   3.055  3.8771  2.3267 -3.2050
 4139SOL    HW224051   2.263   2.369   2.945 -1.3703 -1.3150  0.7065
 4140SOL     OW24052   3.649   0.738  11.659  0.0489  0.0779  0.6283
 4140SOL    HW124053   3.573   0.687  11.687  1.4505 -2.6365 -0.5780
 4140SOL    HW224054   3.614   0.827  11.667 -1.7940 -0.7450  1.6181
 4141SOL     OW24055   1.026   0.316   4.498 -0.2876 -0.1746 -0.1254
 4141SOL    HW124056   1.029   0.257   4.424  2.7012 -0.6962  0.4335
 4141SOL    HW224057   1.059   0.260   4.569 -0.4577 -1.3180 -0.9468
 4142SOL     OW24058   0.169   1.241   6.229  0.1021  0.4979  0.2725
 4142SOL    HW124059   0.230   1.202   6.292 -1.8921 -0.9053  1.3441
 4142SOL    HW224060   0.159   1.170   6.165 -0.4217  0.9732 -0.1725
 4143SOL     OW24061   1.280   2.626   8.347  0.2570  0.5325  0.3914
 4143SOL    HW124062   1.216   2.587   8.405  3.3595  0.5513  3.8324
 4143SOL    HW224063   1.232   2.655   8.269  0.1458  1.7259  0.9011
 4144SOL     OW24064   3.198   2.802   3.142  0.0743 -0.2488 -0.1275
 4144SOL    HW124065   3.159   2.716   3.153  0.4582 -0.5393 -1.0340
 4144SOL    HW224066   3.292   2.783   3.151  0.3758  0.3863 -1.8142
 4145SOL     OW24067   3.872   3.815   6.126 -0.4002 -0.0433 -0.1373
 4145SOL    HW124068   3.793   3.763   6.142  0.9731 -1.9702  0.4595
 4145SOL    HW224069   3.859   3.853   6.040  0.8510 -1.3338 -0.9043
 4146SOL     OW24070   3.349   2.696   3.890 -0.3569 -0.0609  0.2065
 4146SOL    HW124071   3.378   2.626   3.948  1.0978  0.0561 -0.3731
 4146SOL    HW224072   3.294   2.637   3.839 -0.4823 -0.0120  0.2874
 4147SOL     OW24073   3.904   4.069   0.520 -0.3643 -0.8402 -0.0788
 4147SOL    HW124074   3.839   4.083   0.452 -1.0578  0.5532  0.8645
 4147SOL    HW224075   3.957   4.147   0.509 -0.1646 -0.8989  0.4554
 4148SOL     OW24076   0.457   0.633   1.137  0.4524 -0.4094  0.0677
 4148SOL    HW124077   0.458   0.539   1.121  0.3583 -1.0978  4.2586
 4148SOL    HW224078   0.428   0.640   1.228 -1.8703 -2.2452 -0.5398
 4149SOL     OW24079   0.069   0.862   2.244 -0.2286 -0.4756 -0.6076
 4149SOL    HW124080   0.124   0.925   2.198 -0.4709  1.2558  1.4888
 4149SOL    HW224081   0.033   0.790   2.191 -0.8921 -0.7081  0.1553
 4150SOL     OW24082   4.387   0.329  13.043  0.6939  0.4132 -0.4674
 4150SOL    HW124083   4.348   0.397  12.988 -1.1136  0.1072  0.4329
 4150SOL    HW224084   4.348   0.360  13.125  2.5378  1.4846  0.0015
 4151SOL     OW24085   0.197   4.364   2.871 -0.3939 -0.5753  0.0858
 4151SOL    HW124086   0.230   4.359   2.782  1.6582  0.9891  0.7699
 4151SOL    HW224087   0.264   4.420   2.911 -0.6217 -0.7790  0.7628
 4152SOL     OW24088   2.053   3.855   6.352  0.0131  0.4906  0.2745
 4152SOL    HW124089   2.054   3.946   6.382  0.4189  0.1996  1.1147
 4152SOL    HW224090   1.959   3.833   6.351  0.1216  0.0560 -0.1398
 4153SOL     OW24091   3.781   2.263   9.002 -0.1518 -0.3636  0.2515
 4153SOL    HW124092   3.872   2.259   8.974 -0.5977 -3.4797 -0.7573
 4153SOL    HW224093   3.741   2.202   8.940  0.3064  1.1073 -1.4838
 4154SOL     OW24094   1.610   4.461   4.640  0.0371  0.3110  0.4094
 4154SOL    HW124095   1.611   4.555   4.618 -0.4324 -0.4450 -2.8884
 4154SOL    HW224096   1.518   4.437   4.632 -0.3342  1.3143  1.6843
 4155SOL     OW24097   3.603   2.579   3.476 -0.6257  0.2714 -0.3088
 4155SOL    HW124098   3.516   2.599   3.511 -0.0082  3.7180 -0.6809
 4155SOL    HW224099   3.663   2.595   3.549  0.2958 -0.3438 -0.9438
 4156SOL     OW24100   0.060   4.485   8.083 -0.1250 -0.8706  0.4112
 4156SOL    HW124101   0.038   4.397   8.113 -2.2864 -0.5741 -0.3185
 4156SOL    HW224102   0.151   4.484   8.054 -0.7910 -0.5226 -1.6827
 4157SOL     OW24103   1.281   0.427   2.757  0.0729  0.6178  0.1489
 4157SOL    HW124104   1.262   0.410   2.850 -0.3980  0.5278  0.0397
 4157SOL    HW224105   1.208   0.481   2.727 -0.0392  1.3521  1.7386
 4158SOL     OW24106   3.337   0.295  12.789  0.5293 -0.1035  0.3336
 4158SOL    HW124107   3.327   0.371  12.846  2.3206  0.9342 -0.7663
 4158SOL    HW224108   3.257   0.250  12.818 -0.2192  1.4618  0.7362
 4159SOL     OW24109   4.343   4.591  10.001 -0.4182  0.1181  0.2376
 4159SOL    HW124110   4.278   4.533   9.962  1.3072 -0.9908 -0.9839
 4159SOL    HW224111   4.397   4.611   9.925  0.9675 -2.6715  0.4968
 4160SOL     OW24112   2.604   4.463   7.428 -0.8190 -0.2608  0.1288
 4160SOL    HW124113   2.626   4.387   7.374 -0.4242 -0.4960  0.6219
 4160SOL    HW224114   2.509   4.466   7.437 -0.9176 -1.7135 -0.4235
 4161SOL     OW24115   1.375   2.593   5.495  0.5019  0.0915  0.3556
 4161SOL    HW124116   1.291   2.559   5.463  0.6864  0.3833 -0.4281
 4161SOL    HW224117   1.446   2.559   5.441  0.6068 -1.1922  1.2960
 4162SOL     OW24118   3.616   3.637   8.236 -0.1560  0.4430 -0.2554
 4162SOL    HW124119   3.704   3.666   8.212 -0.4100  0.2014 -1.4428
 4162SOL    HW224120   3.587   3.581   8.164  1.0072  2.0261 -1.9558
 4163SOL     OW24121   2.789   3.745   7.741 -0.2052 -0.2810 -0.3164
 4163SOL    HW124122   2.737   3.712   7.814  1.9284 -0.9015  0.9406
 4163SOL    HW224123   2.879   3.730   7.772  0.4960 -0.0421 -2.2289
 4164SOL     OW24124   4.298   3.233   2.314  0.3250 -0.3973  0.6702
 4164SOL    HW124125   4.384   3.268   2.293 -1.1451  1.5776 -2.1002
 4164SOL    HW224126   4.315   3.152   2.361 -1.5926 -0.0621  1.9706
 4165SOL     OW24127   0.935   4.605   6.897 -0.5427 -0.1190  0.4090
 4165SOL    HW124128   0.985   4.625   6.976  1.6560  1.0033 -1.2621
 4165SOL    HW224129   0.851   4.579   6.935 -1.4069 -0.6793 -1.8737
 4166SOL     OW24130   1.153   4.345   5.201 -0.0513  0.3375 -0.0738
 4166SOL    HW124131   1.146   4.291   5.280 -0.1416  0.2996 -0.1075
 4166SOL    HW224132   1.099   4.420   5.225 -2.4349 -1.1915 -0.6440
 4167SOL     OW24133   2.325   2.015   3.743  0.1741  0.1697 -0.2597
 4167SOL    HW124134   2.398   1.975   3.696  2.5273  2.1671  1.7032
 4167SOL    HW224135   2.248   1.976   3.700 -0.8025 -0.3979  2.0002
 4168SOL     OW24136   0.071   0.923   4.006 -0.0179 -0.0152 -0.1805
 4168SOL    HW124137   0.107   0.849   4.054 -0.3474 -0.5979 -0.8280
 4168SOL    HW224138   0.150   0.973   3.987  0.5992 -0.4483  1.2358
 4169SOL     OW24139   3.729   3.253   6.988 -0.2103  0.2804  0.0557
 4169SOL    HW124140   3.728   3.261   7.083  1.9972 -0.9261  0.1969
 4169SOL    HW224141   3.735   3.158   6.983 -0.1996  0.2131  1.2632
 4170SOL     OW24142   1.108   3.125   5.503  0.4218  0.3687 -0.2910
 4170SOL    HW124143   1.182   3.166   5.547  0.2083 -1.6987  2.0309
 4170SOL    HW224144   1.085   3.198   5.446 -1.5352  0.1000  0.1481
 4171SOL     OW24145   0.107   1.778   2.266  0.5822 -0.0487 -0.7262
 4171SOL    HW124146   0.105   1.781   2.361  1.5889  3.7125 -0.8395
 4171SOL    HW224147   0.108   1.683   2.250 -1.9025 -0.2550  0.3888
 4172SOL     OW24148   0.010   3.908   4.381  0.1364 -0.1641 -0.1998
 4172SOL    HW124149   4.692   3.942   4.451 -2.4028 -1.3155 -1.6346
 4172SOL    HW224150   4.728   3.815   4.395  2.0902 -0.5863 -0.3099
 4173SOL     OW24151   3.302   2.794  14.161 -0.0554 -0.1663 -0.1384
 4173SOL    HW124152   3.373   2.820  14.219 -2.2128  0.3827  2.2947
 4173SOL    HW224153   3.228   2.848  14.189 -0.5598 -0.2775 -1.2403
 4174SOL     OW24154   4.314   1.292  11.789 -0.1923 -0.3078 -0.8549
 4174SOL    HW124155   4.390   1.342  11.761 -1.5541  1.7723 -0.7841
 4174SOL    HW224156   4.349   1.265  11.874  2.5107 -0.4934 -2.0284
 4175SOL     OW24157   2.577   2.276   8.372 -0.3527 -0.0232 -0.0491
 4175SOL    HW124158   2.539   2.364   8.376  0.7017  0.4570 -0.3573
 4175SOL    HW224159   2.630   2.256   8.449 -2.8992 -3.2903  0.8221
 4176SOL     OW24160   1.769   4.521   6.987 -0.4341  0.0513 -0.2377
 4176SOL    HW124161   1.767   4.426   6.997  0.7284  0.1984  1.4376
 4176SOL    HW224162   1.863   4.542   6.994 -0.0353 -1.7362 -0.2418
 4177SOL     OW24163   4.405   3.276   6.929 -0.0293 -0.0314 -0.2303
 4177SOL    HW124164   4.356   3.288   6.848  0.6292 -0.9176 -0.7698
 4177SOL    HW224165   4.379   3.357   6.973 -0.2765 -0.9223  1.2912
 4178SOL     OW24166   2.709   4.584   2.263  0.5085  0.2818  0.2704
 4178SOL    HW124167   2.785   4.634   2.291  0.1147  1.1810 -0.2637
 4178SOL    HW224168   2.724   4.506   2.315 -1.8251  0.2657  0.9496
 4179SOL     OW24169   4.560   2.137   2.724 -0.1461  0.5478  0.1207
 4179SOL    HW124170   4.638   2.099   2.685 -0.9009  1.0730 -1.9460
 4179SOL    HW224171   4.595   2.198   2.789  0.6866 -0.1999  0.3634
 4180SOL     OW24172   0.751   2.638   6.659  0.0906 -0.4978  0.2452
 4180SOL    HW124173   0.756   2.592   6.576  0.0199  1.3798 -0.8076
 4180SOL    HW224174   0.723   2.572   6.723  1.2687 -0.3142  0.9481
 4181SOL     OW24175   0.598   2.775   8.189 -0.7086 -0.2325  0.7037
 4181SOL    HW124176   0.651   2.758   8.111 -1.7309  2.4346 -0.5569
 4181SOL    HW224177   0.615   2.691   8.233 -1.3133 -0.9514 -0.4251
 4182SOL     OW24178   3.033   3.129   4.400 -0.4830  0.0006 -0.3837
 4182SOL    HW124179   3.076   3.046   4.381 -0.0612  0.4730 -1.4960
 4182SOL    HW224180   3.097   3.187   4.357 -0.7165  0.4384 -0.1421
 4183SOL     OW24181   3.325   0.977  11.798 -0.0523 -0.5401  0.1215
 4183SOL    HW124182   3.326   0.887  11.830  0.3348 -1.4700 -2.5800
 4183SOL    HW224183   3.322   1.029  11.878 -2.1229  0.1236 -0.3718
 4184SOL     OW24184   1.336   1.926   1.681  0.2999  0.3412  0.2025
 4184SOL    HW124185   1.243   1.910   1.662 -0.6618  2.3373  3.1365
 4184SOL    HW224186   1.381   1.926   1.597 -2.7013  0.2600 -1.4064
 4185SOL     OW24187   2.896   2.985  14.324 -0.0327 -0.3176  0.0942
 4185SOL    HW124188   2.891   2.931  14.245 -0.1775  2.7795 -2.0374
 4185SOL    HW224189   2.832   3.052  14.302  1.4988  0.1309 -3.0051
 4186SOL     OW24190   1.223   2.219   5.879  0.5762  0.4221  0.4131
 4186SOL    HW124191   1.209   2.241   5.971 -1.4532  0.7645  0.0111
 4186SOL    HW224192   1.318   2.235   5.874  0.3624  0.5892 -3.1855
 4187SOL     OW24193   1.989   1.172   2.817 -0.3653 -0.0332  0.3599
 4187SOL    HW124194   1.994   1.099   2.755  2.2249 -0.0850  0.6307
 4187SOL    HW224195   2.048   1.130   2.880  1.1094 -0.5447 -1.3617
 4188SOL     OW24196   2.198   3.888  17.548  0.1272  0.4419 -0.0094
 4188SOL    HW124197   2.184   3.943  17.471  2.6345  1.5442  0.3279
 4188SOL    HW224198   2.291   3.871  17.538 -0.1138 -1.6837  1.4072
 4189SOL     OW24199   4.445   4.478  14.945  0.6132 -0.1719  0.0098
 4189SOL    HW124200   4.353   4.502  14.929  0.5303 -0.8191 -0.5145
 4189SOL    HW224201   4.488   4.463  14.860  0.6530 -1.5505  0.2763
 4190SOL     OW24202   2.686   0.598  14.139  0.1906 -0.2644  0.0613
 4190SOL    HW124203   2.591   0.601  14.127  0.1200  1.1913  0.9328
 4190SOL    HW224204   2.712   0.689  14.151 -0.8350  0.0017  0.2442
 4191SOL     OW24205   1.982   3.797  13.531  0.3216 -0.0433 -0.1283
 4191SOL    HW124206   1.947   3.862  13.592 -1.0515 -0.6552 -0.2822
 4191SOL    HW224207   1.907   3.792  13.472 -0.3833 -1.6608  0.9385
 4192SOL     OW24208   1.683   1.001  15.114 -0.0333  0.1059 -0.0274
 4192SOL    HW124209   1.655   0.936  15.178  1.1549 -0.9090 -0.5545
 4192SOL    HW224210   1.676   0.948  15.035 -1.3569 -1.1200  0.9198
 4193SOL     OW24211   2.052   3.162  12.025  0.2259  0.1392 -0.6423
 4193SOL    HW124212   2.011   3.241  11.989  0.2504  0.4963  0.1053
 4193SOL    HW224213   2.100   3.192  12.102  0.9297 -0.9533 -0.6511
 4194SOL     OW24214   1.084   1.131   8.814  0.2639  0.4703  0.2233
 4194SOL    HW124215   1.084   1.124   8.909  0.9727 -1.3767  0.0859
 4194SOL    HW224216   1.145   1.063   8.786 -1.1524 -0.4226 -0.7482
 4195SOL     OW24217   1.919   1.586   6.327 -0.9238  0.1709 -0.1633
 4195SOL    HW124218   1.872   1.636   6.260 -0.5221  1.9142  0.8453
 4195SOL    HW224219   1.973   1.648   6.376  1.4582 -1.7101 -0.3815
 4196SOL     OW24220   2.425   4.089  17.143 -0.0037  0.0974 -0.0137
 4196SOL    HW124221   2.393   4.000  17.161 -0.6942  0.5554  1.0179
 4196SOL    HW224222   2.347   4.142  17.157 -0.4474 -0.9049  1.3781
 4197SOL     OW24223   3.728   4.005  13.216  0.0020 -0.6928  0.4592
 4197SOL    HW124224   3.651   3.974  13.168 -1.8409  1.6506  1.9443
 4197SOL    HW224225   3.789   4.022  13.144  1.5456 -0.2465  1.8687
 4198SOL     OW24226   2.237   2.431  12.720  0.2332 -0.3837 -0.5178
 4198SOL    HW124227   2.264   2.384  12.799  1.9616 -0.8368 -1.3858
 4198SOL    HW224228   2.234   2.523  12.747  2.1069 -0.7108  0.7910
 4199SOL     OW24229   4.160   0.990  11.161  0.2297  0.2309  0.5053
 4199SOL    HW124230   4.206   0.912  11.192 -0.0208 -0.2290 -0.2842
 4199SOL    HW224231   4.091   0.997  11.228  0.6743  2.5527  0.7361
 4200SOL     OW24232   2.400   3.061   6.027 -0.3778 -0.5543  0.1933
 4200SOL    HW124233   2.420   3.068   6.120  0.1275  1.7492 -0.0906
 4200SOL    HW224234   2.472   3.096   5.975 -1.3026  0.5864 -0.3446
 4201SOL     OW24235   0.542   2.884   2.678 -0.1526  0.8279  0.2901
 4201SOL    HW124236   0.593   2.875   2.758  0.2279 -0.8961 -0.1687
 4201SOL    HW224237   0.598   2.937   2.622  1.5461 -1.2451  0.0448
 4202SOL     OW24238   2.453   4.672   2.842 -0.0499  0.1281  0.0804
 4202SOL    HW124239   2.451   4.706   2.753 -0.1027 -0.1492 -0.0268
 4202SOL    HW224240   2.439   4.578   2.854 -1.3667  0.0676 -1.9907
 4203SOL     OW24241   0.930   2.361  12.865  0.4720 -0.2246  0.2255
 4203SOL    HW124242   0.879   2.326  12.938  0.7219 -1.3598 -0.1442
 4203SOL    HW224243   0.893   2.301  12.800  1.2432  1.3390 -1.6597
 4204SOL     OW24244   3.417   3.882   3.838  0.7821  0.5027 -0.0467
 4204SOL    HW124245   3.364   3.821   3.787  1.7571 -0.4618  0.0943
 4204SOL    HW224246   3.364   3.877   3.918  1.1259 -0.4791  0.1223
 4205SOL     OW24247   2.703   0.665   0.580 -0.3728  1.0629  0.0424
 4205SOL    HW124248   2.642   0.687   0.510 -2.0386 -3.2096  0.1125
 4205SOL    HW224249   2.648   0.670   0.658 -0.4947 -1.9013  0.1798
 4206SOL     OW24250   1.520   0.717   6.853 -0.6176  0.3496  0.0216
 4206SOL    HW124251   1.457   0.747   6.919  0.4795  4.4974 -0.8617
 4206SOL    HW224252   1.586   0.774   6.892 -0.3567 -0.1818  0.3680
 4207SOL     OW24253   0.861   0.069   8.183 -0.2342  0.6486 -0.2787
 4207SOL    HW124254   0.775   0.026   8.179  0.7412 -1.2254 -0.9431
 4207SOL    HW224255   0.910   0.002   8.136 -1.5231 -1.1750  0.9423
 4208SOL     OW24256   2.150   4.344   3.582 -0.2126  0.0341 -0.1706
 4208SOL    HW124257   2.166   4.439   3.587  0.9086 -0.3250  2.7967
 4208SOL    HW224258   2.206   4.323   3.507 -0.6183  0.3955 -0.5765
 4209SOL     OW24259   0.841   3.960   7.469  0.3455  0.1733 -0.2347
 4209SOL    HW124260   0.821   3.970   7.562 -1.3237  1.3267 -0.7180
 4209SOL    HW224261   0.862   3.866   7.470 -1.7644 -0.2814 -0.0920
 4210SOL     OW24262   2.141   2.417   6.540 -0.3425 -0.5181 -0.1076
 4210SOL    HW124263   2.091   2.444   6.617 -1.4860 -2.9799  0.0117
 4210SOL    HW224264   2.130   2.322   6.543 -0.8488 -0.4522  0.0615
 4211SOL     OW24265   2.541   3.798   7.623 -0.7483  0.4117 -0.4884
 4211SOL    HW124266   2.629   3.794   7.660 -0.9510 -1.5484 -0.2211
 4211SOL    HW224267   2.482   3.739   7.670  1.8582 -2.6338 -1.0394
 4212SOL     OW24268   2.300   1.902   5.927  0.3751 -0.2798 -0.2488
 4212SOL    HW124269   2.381   1.948   5.907 -0.4136  0.7310 -1.0976
 4212SOL    HW224270   2.257   1.895   5.842 -0.2294  1.1906 -0.0649
 4213SOL     OW24271   3.789   4.688   7.739  0.7709 -0.2979 -0.6587
 4213SOL    HW124272   3.853   4.649   7.799  0.4167 -1.8651 -1.2908
 4213SOL    HW224273   3.783   4.617   7.675 -0.7502  0.3334 -1.2241
 4214SOL     OW24274   3.896   3.073   8.158 -0.0145 -0.1653 -0.3785
 4214SOL    HW124275   3.912   2.979   8.163 -0.7233 -0.3518 -1.8016
 4214SOL    HW224276   3.805   3.064   8.131 -0.2532 -3.4598  1.5649
 4215SOL     OW24277   1.986   3.124  16.035 -0.5405  0.0191 -0.1300
 4215SOL    HW124278   2.077   3.099  16.051 -0.1032  0.8386 -1.3424
 4215SOL    HW224279   1.939   3.044  16.060  2.0265 -0.6278  2.6016
 4216SOL     OW24280   3.804   2.136   5.232  0.3136 -0.1822 -0.0899
 4216SOL    HW124281   3.716   2.174   5.229  0.4076  0.0841  0.4298
 4216SOL    HW224282   3.853   2.161   5.154  0.9623 -1.3576 -0.0638
 4217SOL     OW24283   0.155   4.673   2.777  0.2686  0.4298 -0.4169
 4217SOL    HW124284   0.133   4.708   2.691  0.5099 -1.3060 -1.1895
 4217SOL    HW224285   0.099   4.596   2.786  0.9306  0.0274  0.3068
 4218SOL     OW24286   1.522   3.630  13.272 -0.4253  0.1198 -0.0841
 4218SOL    HW124287   1.525   3.707  13.216  1.2932  1.2200  1.5314
 4218SOL    HW224288   1.474   3.573  13.211  0.9460 -1.4204  0.2695
 4219SOL     OW24289   0.464   0.211   5.498 -0.5120 -0.1931 -0.3709
 4219SOL    HW124290   0.395   0.215   5.431 -0.6130 -1.1610 -0.3254
 4219SOL    HW224291   0.547   0.210   5.451 -0.9280  0.1134 -1.1076
 4220SOL     OW24292   4.641   4.417   6.174  0.9070 -0.5970 -0.1868
 4220SOL    HW124293   4.675   4.363   6.103  0.6576 -0.5078 -0.3741
 4220SOL    HW224294   4.704   4.399   6.244  0.0231 -1.4917  0.3677
 4221SOL     OW24295   2.338   4.101   2.015  0.0579  0.0930 -0.1448
 4221SOL    HW124296   2.291   4.020   1.996  1.2018 -0.7753  0.7248
 4221SOL    HW224297   2.397   4.108   1.940 -0.0107 -0.0988 -0.2163
 4222SOL     OW24298   2.629   2.018   6.272 -1.0683 -0.3415  0.0549
 4222SOL    HW124299   2.660   2.041   6.360 -0.1088  0.9091 -0.5995
 4222SOL    HW224300   2.636   2.102   6.226  0.3956 -0.9462 -0.8312
 4223SOL     OW24301   0.976   2.588   7.636  0.2610 -0.4628  0.3176
 4223SOL    HW124302   0.886   2.562   7.621  0.5405 -1.3510  0.1919
 4223SOL    HW224303   0.982   2.648   7.562 -0.5062  1.4050  1.7450
 4224SOL     OW24304   4.289   2.688   4.373 -0.3243  0.4113  0.1309
 4224SOL    HW124305   4.379   2.696   4.340 -0.2021 -0.4773  0.2630
 4224SOL    HW224306   4.273   2.768   4.424  2.2294  0.5147  0.7870
 4225SOL     OW24307   3.836   2.713   4.212 -0.0152  0.1594  0.5330
 4225SOL    HW124308   3.869   2.799   4.189  0.3532 -0.6880 -2.1082
 4225SOL    HW224309   3.897   2.675   4.276 -0.6794  1.0008  1.6647
 4226SOL     OW24310   2.436   2.994  11.667 -0.3855  0.2340  0.4447
 4226SOL    HW124311   2.345   3.023  11.659 -0.1802  0.8824  0.4350
 4226SOL    HW224312   2.440   3.002  11.762  1.8143 -0.6675  0.4312
 4227SOL     OW24313   2.818   4.237  14.982  0.2532  0.1117  0.5517
 4227SOL    HW124314   2.790   4.253  14.892 -2.6799 -1.9079  1.0951
 4227SOL    HW224315   2.912   4.218  14.974 -0.1922 -2.3698  1.0752
 4228SOL     OW24316   3.908   0.364   7.170 -0.0248 -0.2568  0.1853
 4228SOL    HW124317   3.871   0.297   7.226  1.3149 -1.0287  0.1414
 4228SOL    HW224318   3.826   0.388   7.126  0.2128  0.8907  0.3684
 4229SOL     OW24319   4.381   1.010   2.635  0.5467 -0.2524  0.1722
 4229SOL    HW124320   4.346   1.089   2.592 -1.5557 -0.7484  0.9503
 4229SOL    HW224321   4.304   0.968   2.673  0.7686  0.9693  1.9823
 4230SOL     OW24322   4.699   1.439   2.528  0.6027 -0.1423  0.2128
 4230SOL    HW124323   4.605   1.420   2.537  0.3611  1.1619  0.4093
 4230SOL    HW224324   4.705   1.525   2.486  0.2424  0.5138  1.4949
 4231SOL     OW24325   4.109   1.562   4.989 -0.3099 -0.6769 -0.1098
 4231SOL    HW124326   4.137   1.576   5.080  1.1491 -1.2646 -0.4707
 4231SOL    HW224327   4.192   1.535   4.951 -0.0574  1.3077 -0.9854
 4232SOL     OW24328   2.339   0.872   2.516  0.0689  0.2909 -0.1583
 4232SOL    HW124329   2.418   0.890   2.566  1.4155 -4.0815 -0.7175
 4232SOL    HW224330   2.356   0.792   2.466 -0.4101  1.8251 -2.7744
 4233SOL     OW24331   4.299   3.781   5.409  0.2502 -0.2211 -0.2718
 4233SOL    HW124332   4.233   3.788   5.340 -0.4141  1.8189  0.5800
 4233SOL    HW224333   4.249   3.781   5.490  0.2707  3.1925 -0.2794
 4234SOL     OW24334   0.827   3.030  12.277 -0.2398 -0.0296  0.1216
 4234SOL    HW124335   0.852   3.098  12.213 -1.5325 -0.9127 -1.3310
 4234SOL    HW224336   0.823   3.075  12.361  1.2444  3.1007 -1.4629
 4235SOL     OW24337   4.136   1.853   5.024 -0.2684  0.1019 -0.5004
 4235SOL    HW124338   4.185   1.782   5.066  0.5013  0.5723 -0.5996
 4235SOL    HW224339   4.198   1.926   5.033  2.5061 -2.2324 -0.5017
 4236SOL     OW24340   2.120   4.313   4.796 -0.4445  0.8723 -0.1036
 4236SOL    HW124341   2.202   4.263   4.797 -1.7702 -1.2757  1.4233
 4236SOL    HW224342   2.064   4.236   4.807  1.4943 -0.2270  2.1111
 4237SOL     OW24343   2.118   3.252   3.104  0.1056  0.0298 -0.0104
 4237SOL    HW124344   2.030   3.262   3.068  1.2662  0.3302 -2.7828
 4237SOL    HW224345   2.172   3.278   3.029  0.5548  1.3817  0.7914
 4238SOL     OW24346   0.865   1.249  11.662  0.2326 -0.6971 -0.6630
 4238SOL    HW124347   0.852   1.223  11.753  1.2417 -0.1806 -0.3640
 4238SOL    HW224348   0.958   1.272  11.672 -0.2108  0.6623  0.3318
 4239SOL     OW24349   3.673   4.259   5.930  0.0861 -0.0555  0.7989
 4239SOL    HW124350   3.733   4.324   5.965  1.4219 -1.8827  1.8387
 4239SOL    HW224351   3.716   4.234   5.848 -0.8439 -0.2009  0.3510
 4240SOL     OW24352   2.793   3.680   7.193 -0.3547 -0.0331 -0.1010
 4240SOL    HW124353   2.853   3.664   7.120 -1.8827 -3.1058 -0.6964
 4240SOL    HW224354   2.706   3.686   7.153  0.5355 -1.2591 -2.1964
 4241SOL     OW24355   3.923   2.861   5.565  0.1077  0.2724  0.4099
 4241SOL    HW124356   3.931   2.950   5.600 -1.7383  0.1992  0.9820
 4241SOL    HW224357   3.862   2.864   5.492  3.3192 -1.0357 -2.3391
 4242SOL     OW24358   4.451   3.773   3.934  0.2851 -0.0050  0.0766
 4242SOL    HW124359   4.430   3.810   3.848  1.2394 -1.2610 -0.6921
 4242SOL    HW224360   4.391   3.707   3.967 -0.3087 -0.4009 -1.8023
 4243SOL     OW24361   1.324   1.475   6.730  0.2547 -0.0220 -0.1285
 4243SOL    HW124362   1.411   1.471   6.770  0.9667 -0.3283 -1.7288
 4243SOL    HW224363   1.267   1.432   6.794  0.9314 -0.3655  0.2436
 4244SOL     OW24364   2.549   2.887   9.339 -0.1819 -0.0408 -0.1697
 4244SOL    HW124365   2.457   2.882   9.312 -0.2676 -1.7404  0.4199
 4244SOL    HW224366   2.548   2.982   9.347  2.2691  0.0835 -1.6396
 4245SOL     OW24367   0.862   3.466   6.440  0.0218  0.6837  0.1974
 4245SOL    HW124368   0.779   3.428   6.470 -0.8685  0.5975 -2.3165
 4245SOL    HW224369   0.850   3.485   6.347 -0.9894  1.7320  0.5422
 4246SOL     OW24370   3.554   3.867  14.589  0.1773 -0.3336 -0.3805
 4246SOL    HW124371   3.581   3.847  14.500 -0.6884 -3.4260  0.0490
 4246SOL    HW224372   3.524   3.782  14.620 -0.3845 -0.1953 -0.5457
 4247SOL     OW24373   3.470   2.661   2.801 -0.9261 -0.1527 -0.1641
 4247SOL    HW124374   3.545   2.718   2.814  1.2461 -2.7440 -1.2482
 4247SOL    HW224375   3.404   2.724   2.771 -0.2307 -0.3507 -2.0941
 4248SOL     OW24376   2.598   3.389   0.630  0.1209  0.6559  0.4005
 4248SOL    HW124377   2.541   3.431   0.565  1.1449  1.1415 -0.1885
 4248SOL    HW224378   2.551   3.313   0.664 -1.8486  0.5916 -2.4763
 4249SOL     OW24379   2.526   2.351   4.944 -0.1695 -0.6598  0.5069
 4249SOL    HW124380   2.514   2.265   4.903 -1.0999 -0.1016 -0.3874
 4249SOL    HW224381   2.578   2.316   5.016 -1.4721 -3.4441  0.1049
 4250SOL     OW24382   1.466   3.506   7.857  0.0463 -0.1220 -0.4303
 4250SOL    HW124383   1.454   3.444   7.928 -2.5381 -1.6624 -2.1872
 4250SOL    HW224384   1.559   3.495   7.836  0.2388 -1.8112  1.3598
 4251SOL     OW24385   2.352   2.924  12.865 -0.1450 -0.3709  0.2850
 4251SOL    HW124386   2.393   2.912  12.779 -1.9281  0.8091 -0.7241
 4251SOL    HW224387   2.287   2.990  12.840  0.0177  0.1327  1.1897
 4252SOL     OW24388   0.455   2.902   3.365  0.1102 -0.5496  0.3325
 4252SOL    HW124389   0.481   2.834   3.303  0.7337 -1.4167  1.5488
 4252SOL    HW224390   0.501   2.981   3.335  0.7610 -0.6860  0.9738
 4253SOL     OW24391   3.748   1.920   2.844 -0.7008  0.7484 -0.3538
 4253SOL    HW124392   3.838   1.954   2.842  0.6340 -2.7793 -0.5199
 4253SOL    HW224393   3.704   1.990   2.797  0.3209  1.2030 -0.6278
 4254SOL     OW24394   2.088   2.987   4.815  0.2448  0.4528 -0.3347
 4254SOL    HW124395   2.019   2.976   4.881  0.2424  0.1928 -0.3795
 4254SOL    HW224396   2.149   3.041   4.865 -1.1969  1.6006  0.2098
 4255SOL     OW24397   1.927   2.631   9.236 -0.2778 -0.1593 -0.5325
 4255SOL    HW124398   1.944   2.700   9.301 -1.8805 -0.7863  0.5710
 4255SOL    HW224399   1.935   2.555   9.295  2.6564 -1.2820 -2.4317
 4256SOL     OW24400   2.582   4.159   8.624  0.1718 -0.1532 -0.1966
 4256SOL    HW124401   2.560   4.243   8.663 -0.6039 -0.3436 -0.2222
 4256SOL    HW224402   2.536   4.104   8.688  1.7066 -2.9103 -1.4403
 4257SOL     OW24403   3.189   1.318   0.788  0.8224  0.2673  0.6903
 4257SOL    HW124404   3.164   1.333   0.879 -0.2149  1.1334  0.2542
 4257SOL    HW224405   3.143   1.238   0.764  4.0762 -1.3244 -0.2932
 4258SOL     OW24406   3.109   2.477   4.134  1.0562  0.3165 -0.3701
 4258SOL    HW124407   3.042   2.486   4.066  0.6412 -0.0087 -0.0068
 4258SOL    HW224408   3.174   2.435   4.078 -1.1404 -2.4888 -0.8291
 4259SOL     OW24409   1.451   0.364  10.472 -0.1146  0.2706 -0.5442
 4259SOL    HW124410   1.423   0.371  10.380  1.7445  0.9231 -1.0633
 4259SOL    HW224411   1.371   0.392  10.517 -0.6350 -0.2218 -1.1549
 4260SOL     OW24412   4.688   2.544   9.549 -0.3439  0.4827  0.0949
 4260SOL    HW124413   4.727   2.515   9.631  0.0289  0.8699  0.0531
 4260SOL    HW224414   4.596   2.552   9.572  0.0958 -0.0169  1.9839
 4261SOL     OW24415   0.253   2.871   2.311  0.2462  0.1350  0.0422
 4261SOL    HW124416   0.317   2.871   2.239 -0.4236 -2.1810 -0.5633
 4261SOL    HW224417   0.261   2.784   2.350 -0.9717 -1.2958 -2.8540
 4262SOL     OW24418   4.560   4.195   5.958  0.6580 -1.0150 -0.4591
 4262SOL    HW124419   4.482   4.223   6.007  1.0905 -1.6297  0.5808
 4262SOL    HW224420   4.526   4.117   5.913  0.1993 -1.2093  0.2232
 4263SOL     OW24421   1.435   4.717   4.753 -0.0839 -0.7947 -0.6947
 4263SOL    HW124422   1.509   4.715   4.813 -0.5168 -1.7745 -0.1934
 4263SOL    HW224423   1.380   4.650   4.794 -1.5790 -1.3175 -3.5466
 4264SOL     OW24424   1.353   1.736   5.579  1.0520  0.4383  0.4819
 4264SOL    HW124425   1.337   1.642   5.570 -0.4126  0.7855 -0.5077
 4264SOL    HW224426   1.273   1.746   5.631  0.9833  2.3666 -0.0060
 4265SOL     OW24427   1.895   4.577   3.486  0.2223  0.0388  0.3710
 4265SOL    HW124428   1.910   4.639   3.414 -2.2453  0.6986  0.4255
 4265SOL    HW224429   1.980   4.573   3.529  0.3019 -2.4154 -0.0102
 4266SOL     OW24430   1.787   3.547   4.749 -1.0225 -0.2038 -0.0628
 4266SOL    HW124431   1.818   3.459   4.726 -1.0682 -1.1909  3.6075
 4266SOL    HW224432   1.748   3.571   4.665  0.8988 -1.2266 -1.2396
 4267SOL     OW24433   3.351   1.194   5.475  0.3683 -0.6358 -0.1232
 4267SOL    HW124434   3.273   1.178   5.529 -0.7858 -0.0330 -1.6256
 4267SOL    HW224435   3.409   1.223   5.545  1.6464 -0.7348 -1.1536
 4268SOL     OW24436   2.348   3.373   4.635 -0.5010 -0.2293  0.4121
 4268SOL    HW124437   2.441   3.393   4.624 -1.2438  1.4639 -2.7626
 4268SOL    HW224438   2.339   3.309   4.565  1.3797 -0.8226  0.7185
 4269SOL     OW24439   0.567   1.159   4.224 -0.0015  0.2915 -0.7233
 4269SOL    HW124440   0.621   1.194   4.152 -0.8215 -0.8509 -1.8862
 4269SOL    HW224441   0.478   1.153   4.189 -0.3368 -1.4715  0.4507
 4270SOL     OW24442   2.637   3.708  11.090 -0.1403 -0.0574 -0.1566
 4270SOL    HW124443   2.697   3.779  11.110 -0.6250  0.0960  0.7523
 4270SOL    HW224444   2.679   3.665  11.016 -0.4118 -2.4370  1.0627
 4271SOL     OW24445   1.507   4.392   2.798  0.0730  0.1114 -0.1744
 4271SOL    HW124446   1.457   4.346   2.731  1.5088  0.7369 -1.6716
 4271SOL    HW224447   1.587   4.341   2.811  0.4121  0.8198  0.5229
 4272SOL     OW24448   3.236   2.355   7.291  0.3300 -0.2408 -0.3500
 4272SOL    HW124449   3.260   2.262   7.296  0.7644 -0.0844  0.5734
 4272SOL    HW224450   3.266   2.380   7.204  1.6004  1.1346  0.4883
 4273SOL     OW24451   2.664   1.965   7.335 -0.0555 -0.1355  0.0473
 4273SOL    HW124452   2.634   2.039   7.387  0.0485 -0.2051  0.2040
 4273SOL    HW224453   2.632   1.999   7.251 -0.6617  2.6627  1.4040
 4274SOL     OW24454   3.723   3.319   3.171  0.2564  0.3010  0.3651
 4274SOL    HW124455   3.748   3.354   3.085 -1.2701 -1.5558 -0.8275
 4274SOL    HW224456   3.663   3.249   3.146  1.1557 -0.2068 -0.3843
 4275SOL     OW24457   4.303   2.184   7.864  0.0721  0.0794  0.0581
 4275SOL    HW124458   4.233   2.249   7.860 -1.1366 -1.2436  0.0884
 4275SOL    HW224459   4.244   2.109   7.865 -0.8639  0.8187  0.7980
 4276SOL     OW24460   2.866   3.179   3.185 -0.0070 -0.0842  0.6532
 4276SOL    HW124461   2.842   3.263   3.224 -0.7917 -1.1416  2.4464
 4276SOL    HW224462   2.917   3.217   3.114  1.0101 -0.5515  1.1409
 4277SOL     OW24463   0.003   2.553  17.686 -0.4813 -0.3438 -0.1938
 4277SOL    HW124464   4.646   2.543  17.687 -0.8922  3.6293  1.4525
 4277SOL    HW224465   0.014   2.458  17.694 -0.6639 -0.4115 -0.7734
 4278SOL     OW24466   0.389   2.158  16.070 -0.1122  0.0617  0.2395
 4278SOL    HW124467   0.342   2.238  16.096  2.8036  1.2932  1.7259
 4278SOL    HW224468   0.395   2.177  15.976  3.9233 -1.2485  0.2111
 4279SOL     OW24469   0.095   2.860   3.867 -0.3852  0.3000 -0.0094
 4279SOL    HW124470   0.177   2.869   3.914 -0.3086  0.3365 -0.1489
 4279SOL    HW224471   0.073   2.952   3.851  1.0140  0.9109  1.6855
 4280SOL     OW24472   1.896   4.511   7.818  0.2953  0.0276  0.1544
 4280SOL    HW124473   1.830   4.497   7.750  0.9896  1.0508 -0.7275
 4280SOL    HW224474   1.950   4.575   7.772  1.0900  0.7809  2.1501
 4281SOL     OW24475   1.979   2.662   4.478  0.6766 -0.2246 -0.0064
 4281SOL    HW124476   2.004   2.676   4.570  1.8851 -1.0605 -0.2010
 4281SOL    HW224477   2.062   2.637   4.437  0.1267 -1.1197 -0.5664
 4282SOL     OW24478   2.431   0.848   4.827  0.0703 -0.0886 -0.2515
 4282SOL    HW124479   2.374   0.917   4.794 -0.5713  0.0305  1.1324
 4282SOL    HW224480   2.415   0.856   4.921 -2.0382 -1.7595 -0.4692
 4283SOL     OW24481   3.176   1.788  16.991 -0.4455  0.1573  0.2987
 4283SOL    HW124482   3.251   1.731  16.975  1.0633  1.8529  1.3011
 4283SOL    HW224483   3.126   1.736  17.053 -1.2442  0.3849 -0.1526
 4284SOL     OW24484   4.630   2.862  11.887  0.5163 -0.2849  0.7500
 4284SOL    HW124485   4.703   2.855  11.826 -0.9830  0.3481 -1.1405
 4284SOL    HW224486   4.641   2.779  11.933  0.1850 -0.5291  0.3928
 4285SOL     OW24487   4.019   1.048  11.392 -0.2333  0.0617  0.5666
 4285SOL    HW124488   4.105   1.062  11.431  0.0444 -0.5340  0.1626
 4285SOL    HW224489   4.001   0.959  11.423  1.7018 -1.1021 -1.6239
 4286SOL     OW24490   3.307   0.593   5.537  0.2538 -0.3503  0.1793
 4286SOL    HW124491   3.384   0.567   5.587 -0.5122 -1.3571  0.8361
 4286SOL    HW224492   3.246   0.584   5.610  3.0628 -2.2762  2.3046
 4287SOL     OW24493   3.869   2.337   8.361  0.1128  0.2619  0.2897
 4287SOL    HW124494   3.775   2.332   8.347  0.0774 -2.0564  1.4218
 4287SOL    HW224495   3.887   2.364   8.271  1.0829  1.3197  0.7858
 4288SOL     OW24496   1.813   2.906   8.379  0.1292  0.0954  0.5967
 4288SOL    HW124497   1.762   2.909   8.460 -1.6170 -0.4063 -0.4870
 4288SOL    HW224498   1.790   2.818   8.351 -0.6776  1.1087 -1.9179
 4289SOL     OW24499   2.404   4.643   3.449  0.5158  0.1666 -0.0227
 4289SOL    HW124500   2.382   4.562   3.404  1.2707 -0.5847  0.9425
 4289SOL    HW224501   2.450   4.692   3.382  0.7787 -1.0103 -0.7029
 4290SOL     OW24502   3.498   1.288   3.313 -0.1543 -0.4282 -0.1021
 4290SOL    HW124503   3.490   1.208   3.262 -0.9471  1.1896 -2.5361
 4290SOL    HW224504   3.524   1.253   3.398  0.1360  1.1048  0.4491
 4291SOL     OW24505   2.907   2.448   6.392 -1.0669 -0.0680 -0.7639
 4291SOL    HW124506   2.818   2.451   6.358 -0.3648  1.5596 -2.4940
 4291SOL    HW224507   2.941   2.375   6.340 -0.3040 -0.3350  0.1256
 4292SOL     OW24508   2.105   4.633   8.742 -0.8764  0.4463 -0.0078
 4292SOL    HW124509   2.112   4.640   8.647  1.9306 -2.4986 -0.0370
 4292SOL    HW224510   2.195   4.652   8.769 -0.6017 -0.0860 -0.5317
 4293SOL     OW24511   4.461   0.894   2.033  0.3795  0.0303 -0.0421
 4293SOL    HW124512   4.438   0.912   2.124 -1.3701 -1.7063 -0.1338
 4293SOL    HW224513   4.537   0.951   2.022 -0.0838  0.5334 -0.6537
 4294SOL     OW24514   4.182   2.805   9.000  1.0602 -0.0734 -0.1123
 4294SOL    HW124515   4.257   2.749   9.019  1.3144 -0.1020 -1.1652
 4294SOL    HW224516   4.186   2.872   9.067  0.4797 -0.8506  0.7078
 4295SOL     OW24517   4.189   1.397  11.416  0.0107 -0.3929 -0.3675
 4295SOL    HW124518   4.101   1.436  11.415 -0.7204 -2.0573 -0.4648
 4295SOL    HW224519   4.202   1.368  11.506 -0.8487 -0.1181 -0.1530
 4296SOL     OW24520   3.656   2.064   8.847 -0.0357  0.0821 -0.0057
 4296SOL    HW124521   3.627   2.134   8.788  1.3938 -0.4165 -1.2983
 4296SOL    HW224522   3.726   2.033   8.789 -1.3970 -0.5422 -1.2877
 4297SOL     OW24523   3.643   0.673   7.293  0.4226 -0.4352  0.0514
 4297SOL    HW124524   3.623   0.650   7.383 -0.4764  0.9846  0.2236
 4297SOL    HW224525   3.735   0.648   7.293  0.3687 -0.6094 -1.5613
 4298SOL     OW24526   3.329   4.259   4.499  0.2694  0.4336 -0.3828
 4298SOL    HW124527   3.299   4.281   4.411 -2.4743 -1.9670 -0.0460
 4298SOL    HW224528   3.254   4.213   4.537  0.0964 -0.8315 -2.2594
 4299SOL     OW24529   0.733   1.462   2.507  0.4810  0.1372 -0.1102
 4299SOL    HW124530   0.663   1.436   2.448 -2.4271  2.5033  2.3144
 4299SOL    HW224531   0.759   1.374   2.535  2.4147  0.4121 -1.0542
 4300SOL     OW24532   2.765   4.164  13.474  0.4467  0.5138 -0.3520
 4300SOL    HW124533   2.774   4.073  13.503 -1.0685 -0.2904 -2.3957
 4300SOL    HW224534   2.703   4.202  13.536  0.0947 -1.6350  0.6034
 4301SOL     OW24535   1.695   2.628   6.338 -0.6360  0.1638  0.7426
 4301SOL    HW124536   1.713   2.718   6.367  3.2157  0.5593 -2.7975
 4301SOL    HW224537   1.740   2.628   6.253 -0.1499 -1.6427  0.9999
 4302SOL     OW24538   4.341   1.020   7.669  0.2360  0.6205 -0.0541
 4302SOL    HW124539   4.421   1.040   7.718 -1.9338  1.7514  3.1155
 4302SOL    HW224540   4.364   0.932   7.641 -1.0667 -0.0068  0.8555
 4303SOL     OW24541   3.390   2.025   4.132 -0.4503  0.1363  0.6326
 4303SOL    HW124542   3.477   1.998   4.106 -0.8214  0.2775 -0.7561
 4303SOL    HW224543   3.331   2.023   4.057 -1.3843 -0.9906  1.4029
 4304SOL     OW24544   1.884   4.288  16.400  0.5024 -0.1060  0.7873
 4304SOL    HW124545   1.824   4.299  16.326 -0.0151  1.3774  1.4192
 4304SOL    HW224546   1.911   4.378  16.420  1.1645 -0.1571  0.1186
 4305SOL     OW24547   0.367   0.695   6.807  1.2286 -0.7790  0.1041
 4305SOL    HW124548   0.371   0.749   6.886 -0.9948  1.3377 -1.2372
 4305SOL    HW224549   0.274   0.699   6.785  1.3235 -1.5539 -0.4154
 4306SOL     OW24550   3.830   4.120   1.866 -0.1747 -0.0985  0.0655
 4306SOL    HW124551   3.819   4.047   1.927  1.4504 -1.7150 -1.5975
 4306SOL    HW224552   3.877   4.079   1.793  0.3030  0.0199  0.3037
 4307SOL     OW24553   4.287   4.690  16.148  0.1710 -0.0331 -0.1309
 4307SOL    HW124554   4.374   4.653  16.160  0.3345  0.3577 -0.1087
 4307SOL    HW224555   4.249   4.669  16.233  2.5722 -0.3692  0.8691
 4308SOL     OW24556   3.653   0.489   4.219 -0.4528  0.0441 -0.1345
 4308SOL    HW124557   3.569   0.443   4.219 -0.4106 -0.0388  1.1782
 4308SOL    HW224558   3.697   0.445   4.292  1.1843 -2.1203 -2.4632
 4309SOL     OW24559   0.484   0.034   5.704  0.2011  0.1329  0.7154
 4309SOL    HW124560   0.546   4.707   5.672 -2.2120 -0.8051 -2.0119
 4309SOL    HW224561   0.473   0.093   5.629 -1.4007 -0.0388  0.8090
 4310SOL     OW24562   3.811   3.810   0.575 -0.5109  0.1633 -0.2945
 4310SOL    HW124563   3.850   3.885   0.529  0.8464 -1.7277 -2.2758
 4310SOL    HW224564   3.853   3.732   0.539 -0.4044 -0.4462  1.1522
 4311SOL     OW24565   0.045   1.324  12.076  0.5060  0.0456  0.5048
 4311SOL    HW124566   0.025   1.244  12.028 -2.7786  1.1879 -0.0506
 4311SOL    HW224567   0.013   1.392  12.016  1.1707  1.6435  1.9650
 4312SOL     OW24568   2.208   4.602   3.632  0.4142  0.4493 -0.3713
 4312SOL    HW124569   2.278   4.651   3.588  0.0049 -0.0145 -1.5309
 4312SOL    HW224570   2.171   4.659   3.700  0.8585 -1.4983  1.4969
 4313SOL     OW24571   2.462   3.288   1.490 -0.1686 -0.2473 -0.0119
 4313SOL    HW124572   2.375   3.247   1.490 -0.7553  0.9998 -1.8727
 4313SOL    HW224573   2.445   3.367   1.438  0.4572 -0.4683 -0.5450
 4314SOL     OW24574   1.023   2.874   6.944 -0.4087  0.1293 -0.2911
 4314SOL    HW124575   1.021   2.815   6.868  2.7469 -2.1330  1.3672
 4314SOL    HW224576   1.082   2.838   7.011 -0.1018 -0.0233 -0.6424
 4315SOL     OW24577   4.261   0.228  16.154  0.2306  0.4791 -0.1868
 4315SOL    HW124578   4.280   0.217  16.061  1.8005 -2.9622  0.5557
 4315SOL    HW224579   4.243   0.138  16.179 -0.2000  0.6828  0.2299
 4316SOL     OW24580   2.264   0.519  15.288  0.1049 -0.1433  0.3014
 4316SOL    HW124581   2.304   0.474  15.214 -0.0579  3.5249 -2.0372
 4316SOL    HW224582   2.293   0.609  15.272  0.9385 -0.2909  0.9744
 4317SOL     OW24583   0.092   1.214   4.602 -0.3383 -0.5409 -0.3105
 4317SOL    HW124584   0.080   1.161   4.523 -0.5893 -0.9297 -0.0120
 4317SOL    HW224585   0.188   1.214   4.597 -0.3512 -0.9101 -0.5432
 4318SOL     OW24586   4.372   1.095   4.637 -0.2739 -0.4519 -0.4863
 4318SOL    HW124587   4.398   1.006   4.663 -1.0571 -0.5851 -0.1563
 4318SOL    HW224588   4.428   1.144   4.697 -1.7781 -0.7995  1.2239
 4319SOL     OW24589   1.775   2.661  12.953 -0.2335 -0.2304  0.2149
 4319SOL    HW124590   1.830   2.693  13.025 -2.1468  1.4959  0.8988
 4319SOL    HW224591   1.719   2.602  13.003 -1.2612 -0.3034 -1.0456
 4320SOL     OW24592   2.427   3.499   6.615  0.3259 -0.6311  0.2300
 4320SOL    HW124593   2.512   3.456   6.624  0.6960  0.3017  1.1676
 4320SOL    HW224594   2.437   3.594   6.623 -0.3284 -0.6833  1.6338
 4321SOL     OW24595   2.023   2.683  15.539 -0.0890  0.1723  0.1215
 4321SOL    HW124596   1.941   2.643  15.566 -1.3287  1.8431 -1.1664
 4321SOL    HW224597   2.044   2.657  15.450  1.0615  2.3373 -0.2594
 4322SOL     OW24598   4.232   2.501   3.335 -0.6562 -0.1290 -0.2065
 4322SOL    HW124599   4.318   2.526   3.300 -0.8100  1.6806  0.7190
 4322SOL    HW224600   4.218   2.410   3.310 -1.3377 -0.3491  0.9899
 4323SOL     OW24601   1.529   1.607   6.568  0.7521  0.1247 -0.4829
 4323SOL    HW124602   1.457   1.547   6.588  0.4591  0.9433  0.9167
 4323SOL    HW224603   1.490   1.688   6.600  0.5482 -0.8976  1.8914
 4324SOL     OW24604   4.081   3.956   6.222  0.1243  0.0607  0.0756
 4324SOL    HW124605   4.011   3.891   6.213 -1.5907  2.0781 -1.1627
 4324SOL    HW224606   4.041   4.002   6.296 -0.3885  0.2170 -0.3006
 4325SOL     OW24607   3.851   2.506  10.360  0.8179 -0.2834 -0.1112
 4325SOL    HW124608   3.936   2.547  10.344 -0.1323  1.3904 -0.8965
 4325SOL    HW224609   3.845   2.448  10.284  1.9454  0.1794 -0.5520
 4326SOL     OW24610   4.721   3.498   0.602 -0.4834  0.1185 -0.1033
 4326SOL    HW124611   4.705   3.461   0.689  0.6148  1.3069  0.6055
 4326SOL    HW224612   4.718   3.593   0.618 -0.6752  0.4604 -2.2296
 4327SOL     OW24613   0.302   1.630   1.566 -0.0615  0.2456  0.6117
 4327SOL    HW124614   0.336   1.614   1.654  1.5259 -3.7536 -0.7286
 4327SOL    HW224615   0.287   1.541   1.534 -0.7213  0.3826  0.5552
 4328SOL     OW24616   0.879   1.119   5.708 -0.0649 -0.0970  0.2137
 4328SOL    HW124617   0.859   1.203   5.748 -1.1351 -0.7925  1.1488
 4328SOL    HW224618   0.828   1.130   5.628  1.8908  0.8051 -0.9175
 4329SOL     OW24619   4.619   0.884   8.087  0.1963 -0.1033  0.3564
 4329SOL    HW124620   4.549   0.882   8.153 -0.3164 -0.9143 -0.2194
 4329SOL    HW224621   4.639   0.977   8.095 -0.7321 -0.0211  1.8349
 4330SOL     OW24622   2.179   1.605   5.061 -0.2677 -0.0372 -0.5795
 4330SOL    HW124623   2.262   1.635   5.098 -1.2086  1.8679 -0.0107
 4330SOL    HW224624   2.170   1.514   5.090  1.2326  0.3494  1.0818
 4331SOL     OW24625   1.884   3.587   3.282 -0.7602 -0.3158 -0.3981
 4331SOL    HW124626   1.964   3.630   3.310  0.0769 -1.9905 -0.2010
 4331SOL    HW224627   1.880   3.635   3.199  1.1285 -1.4426 -1.1452
 4332SOL     OW24628   0.474   2.173  12.803 -0.0796  0.3649  0.2097
 4332SOL    HW124629   0.481   2.266  12.782 -1.2552  0.3334 -0.3611
 4332SOL    HW224630   0.522   2.137  12.729 -1.9923  0.3558 -1.0259
 4333SOL     OW24631   2.151   3.487   2.233 -0.5667 -0.2057  0.0034
 4333SOL    HW124632   2.243   3.482   2.258 -0.6406 -1.4318  0.0604
 4333SOL    HW224633   2.108   3.477   2.317  0.0618  2.0429  0.5859
 4334SOL     OW24634   2.740   1.004   2.860  0.1732 -0.1848 -0.0834
 4334SOL    HW124635   2.797   1.048   2.797 -0.5174  0.8368 -0.0049
 4334SOL    HW224636   2.789   1.029   2.938 -0.9286  0.5476  0.3907
 4335SOL     OW24637   3.189   4.600   9.636  0.0608  0.1439  0.1527
 4335SOL    HW124638   3.222   4.568   9.720  0.5762  1.0645  0.3062
 4335SOL    HW224639   3.169   4.688   9.667  3.1842  1.0794 -0.4047
 4336SOL     OW24640   2.270   4.686   4.624 -0.3576 -0.2714  0.5999
 4336SOL    HW124641   2.207   4.619   4.597  1.0196 -1.3422  0.0236
 4336SOL    HW224642   2.230   4.698   4.710 -0.9326  1.0837  0.1461
 4337SOL     OW24643   3.431   3.183   2.411 -0.2656  0.3619  0.0605
 4337SOL    HW124644   3.408   3.240   2.484 -0.0055  0.4761  0.0515
 4337SOL    HW224645   3.365   3.192   2.342  0.6249  1.4109 -0.6401
 4338SOL     OW24646   1.236   0.414   8.865  0.9749 -0.5018 -0.1443
 4338SOL    HW124647   1.211   0.367   8.944 -0.7809 -0.3339 -0.6022
 4338SOL    HW224648   1.296   0.483   8.896  0.5590 -0.6628  1.0229
 4339SOL     OW24649   3.533   1.869   6.938 -0.6326  0.6277  0.6717
 4339SOL    HW124650   3.617   1.915   6.931  1.4991 -3.2189  0.7091
 4339SOL    HW224651   3.493   1.862   6.851 -1.3966  0.8855  1.0099
 4340SOL     OW24652   4.712   0.904   4.956 -0.1255 -0.1244  0.1238
 4340SOL    HW124653   4.656   0.826   4.954  0.5922 -0.6371  0.2291
 4340SOL    HW224654   0.059   0.865   4.934  1.1815  1.8997  1.6398
 4341SOL     OW24655   3.838   1.186   6.545 -0.1742  0.2327  0.0042
 4341SOL    HW124656   3.911   1.126   6.556 -0.0401  0.2606 -0.7230
 4341SOL    HW224657   3.842   1.239   6.625  2.6195  1.0782 -0.6918
 4342SOL     OW24658   1.334   0.904   3.047 -0.3200 -0.4492  0.0707
 4342SOL    HW124659   1.427   0.926   3.042  0.4062 -3.2504  1.3763
 4342SOL    HW224660   1.310   0.958   3.122  2.3444  0.0605  0.5665
 4343SOL     OW24661   0.112   3.449  15.449  0.3051 -0.1016 -0.2010
 4343SOL    HW124662   0.056   3.525  15.463 -0.0071 -0.5314  0.8621
 4343SOL    HW224663   0.065   3.370  15.478 -0.4872  0.0710 -1.0257
 4344SOL     OW24664   1.409   4.477   4.343 -0.6311 -0.4293 -0.4606
 4344SOL    HW124665   1.416   4.383   4.326 -2.5369 -0.6736  0.1285
 4344SOL    HW224666   1.480   4.513   4.290 -0.1952 -1.7504 -0.7663
 4345SOL     OW24667   0.278   2.990   4.745 -0.3527 -0.3410  0.1606
 4345SOL    HW124668   0.303   2.988   4.837  1.5716 -1.3742 -0.3832
 4345SOL    HW224669   0.345   2.935   4.704 -0.3867  0.1713 -0.5924
 4346SOL     OW24670   2.012   3.380  15.088 -0.5971  0.2981 -0.6658
 4346SOL    HW124671   2.089   3.372  15.143  0.6106 -1.3388 -2.5951
 4346SOL    HW224672   1.952   3.429  15.144 -0.5811 -0.0902 -0.3134
 4347SOL     OW24673   1.780   0.709   2.233  0.0846  0.3599 -0.1796
 4347SOL    HW124674   1.852   0.740   2.288  0.3366  0.2122 -0.4318
 4347SOL    HW224675   1.707   0.746   2.283  0.0122  0.0167 -0.0322
 4348SOL     OW24676   1.841   1.828  14.907  0.5825  0.5215  0.4326
 4348SOL    HW124677   1.903   1.900  14.910  0.4199  0.6148  1.5442
 4348SOL    HW224678   1.862   1.783  14.825 -1.1496 -0.5959  0.5975
 4349SOL     OW24679   1.742   4.221   0.409  0.1223 -0.2418  0.5863
 4349SOL    HW124680   1.736   4.151   0.475 -0.0115 -0.2231  0.5935
 4349SOL    HW224681   1.835   4.243   0.416  0.5207 -1.6274 -0.2389
 4350SOL     OW24682   1.631   1.924   7.235  0.1497 -0.2637 -0.1836
 4350SOL    HW124683   1.715   1.880   7.243  0.2491 -0.0138  0.1372
 4350SOL    HW224684   1.585   1.903   7.316  0.3538 -0.1457 -0.0401
 4351SOL     OW24685   3.235   0.146   4.207  0.6227  0.1167 -0.1800
 4351SOL    HW124686   3.164   0.164   4.268  0.0801 -1.0913 -0.4467
 4351SOL    HW224687   3.184   0.105   4.137 -1.7770 -0.9967  2.2147
 4352SOL     OW24688   4.005   3.956  16.402 -0.8370 -0.0146 -0.1059
 4352SOL    HW124689   3.980   3.863  16.402 -0.1389 -0.1913  1.5974
 4352SOL    HW224690   4.047   3.962  16.488 -0.9782 -1.8287  0.1038
 4353SOL     OW24691   2.192   2.681   5.626  0.4159  0.7308 -0.1019
 4353SOL    HW124692   2.097   2.677   5.633  0.4021 -0.7683 -1.2174
 4353SOL    HW224693   2.212   2.669   5.719 -1.1076 -0.3262  0.0852
 4354SOL     OW24694   1.307   2.697  17.493  0.1385  0.2098 -0.0840
 4354SOL    HW124695   1.386   2.690  17.547 -1.0992 -3.2615  1.2812
 4354SOL    HW224696   1.267   2.779  17.523  0.7423  0.0057  1.2792
 4355SOL     OW24697   0.589   3.195   9.302  0.3653  0.4066 -0.2274
 4355SOL    HW124698   0.581   3.161   9.391 -0.7103 -0.8130 -0.7751
 4355SOL    HW224699   0.570   3.288   9.315 -0.2703  0.1721  0.5367
 4356SOL     OW24700   3.256   4.715   8.990 -0.2841 -0.1746 -0.1393
 4356SOL    HW124701   3.179   0.033   8.981  0.8450  1.3988 -0.1791
 4356SOL    HW224702   3.253   4.661   8.911 -0.2520  0.2565 -0.4372
 4357SOL     OW24703   0.362   1.686   2.584  0.9363 -0.2013  0.1397
 4357SOL    HW124704   0.340   1.620   2.650 -1.3309  1.4446  1.0133
 4357SOL    HW224705   0.456   1.667   2.579  0.8602 -0.5608  0.0391
 4358SOL     OW24706   0.068   0.993   3.632 -0.4292  0.3401  0.2699
 4358SOL    HW124707   0.076   1.081   3.668  0.6036  0.1159  0.5592
 4358SOL    HW224708   0.140   0.947   3.674 -1.3842 -0.3089  1.1791
 4359SOL     OW24709   2.982   2.673   0.058  0.1074 -0.0192  0.0869
 4359SOL    HW124710   2.995   2.763   0.027  0.8848 -0.0642  0.2697
 4359SOL    HW224711   3.003   2.634  17.722 -2.7776 -1.8172  0.2131
 4360SOL     OW24712   4.484   0.743  10.026 -0.9784 -0.4102 -0.0425
 4360SOL    HW124713   4.539   0.798   9.970 -1.3494  0.1891  0.1835
 4360SOL    HW224714   4.482   0.665   9.972  0.0425 -0.3512 -0.1764
 4361SOL     OW24715   1.668   1.091   5.121 -0.4985  0.7549 -0.0475
 4361SOL    HW124716   1.702   1.020   5.066 -0.4161  0.0040  0.9924
 4361SOL    HW224717   1.743   1.150   5.126  1.1826 -1.3175 -1.0126
 4362SOL     OW24718   3.582   1.337   7.318 -0.2681  0.1269 -0.7140
 4362SOL    HW124719   3.647   1.267   7.316  0.4733  0.8162 -0.8942
 4362SOL    HW224720   3.641   1.411   7.334 -1.1407  0.7364 -0.2996
 4363SOL     OW24721   3.477   0.222   3.779  0.2045 -0.3230 -0.0401
 4363SOL    HW124722   3.533   0.197   3.705  2.6196 -0.8517  1.9646
 4363SOL    HW224723   3.458   0.314   3.760  2.1143 -0.1685 -1.3090
 4364SOL     OW24724   2.027   4.606   5.755 -0.0229 -0.1353 -0.5296
 4364SOL    HW124725   2.122   4.605   5.741 -0.1304 -2.9235 -1.0937
 4364SOL    HW224726   2.004   4.695   5.730  1.0585  0.5635  0.9249
 4365SOL     OW24727   0.847   0.761   9.131  0.0857 -0.2858  0.4669
 4365SOL    HW124728   0.781   0.823   9.100  0.6708 -0.1256 -0.4850
 4365SOL    HW224729   0.929   0.806   9.107 -0.1079  0.7171  1.6761
 4366SOL     OW24730   0.453   3.818   5.194  0.0028  0.2435 -0.2380
 4366SOL    HW124731   0.484   3.729   5.177 -0.8547  0.3018 -2.1610
 4366SOL    HW224732   0.446   3.855   5.106 -1.0012 -1.4053 -0.8466
 4367SOL     OW24733   1.624   3.268   4.714  0.2131 -0.7202  0.6544
 4367SOL    HW124734   1.531   3.251   4.704  0.0134 -0.2270  1.7058
 4367SOL    HW224735   1.639   3.321   4.636  1.6249 -0.6982  0.9337
 4368SOL     OW24736   0.249   4.542   4.758  0.0891 -0.1172  0.1792
 4368SOL    HW124737   0.165   4.571   4.722  0.9846  2.2003 -0.0422
 4368SOL    HW224738   0.307   4.600   4.708  0.2749 -0.0195  0.5093
 4369SOL     OW24739   3.897   2.739   7.359  0.3514  0.3304 -0.3378
 4369SOL    HW124740   3.858   2.678   7.422 -1.7068  0.6402 -1.3264
 4369SOL    HW224741   3.983   2.758   7.397  0.5351 -2.1404  0.4878
 4370SOL     OW24742   3.135   0.877  11.527 -0.0019 -0.0305 -0.0869
 4370SOL    HW124743   3.110   0.819  11.455 -0.4730  1.0789 -0.8259
 4370SOL    HW224744   3.151   0.812  11.596 -0.3322  1.0349  0.9953
 4371SOL     OW24745   2.773   3.796   6.852  0.7417 -0.3859 -0.1223
 4371SOL    HW124746   2.695   3.776   6.904  0.6526 -2.3349 -1.0288
 4371SOL    HW224747   2.765   3.891   6.844  0.5201 -0.3585  0.3918
 4372SOL     OW24748   2.146   3.282   7.006  0.6751 -0.1345  0.0106
 4372SOL    HW124749   2.207   3.274   6.932 -1.5779 -1.0217 -1.7503
 4372SOL    HW224750   2.081   3.214   6.990 -0.9405  1.0444  1.6073
 4373SOL     OW24751   0.921   1.111   6.410  0.1651  0.3794 -0.0529
 4373SOL    HW124752   0.843   1.057   6.426 -0.5369  1.2699 -0.4970
 4373SOL    HW224753   0.908   1.178   6.477  0.8841 -0.4409  0.9232
 4374SOL     OW24754   1.007   0.269   2.677  0.0050  0.0067  0.1566
 4374SOL    HW124755   0.968   0.335   2.735  1.7550 -0.2875  1.6581
 4374SOL    HW224756   0.928   0.219   2.657  0.2343  0.4350 -1.8527
 4375SOL     OW24757   4.580   1.886   1.015 -0.5081 -0.5813  0.4732
 4375SOL    HW124758   4.533   1.913   0.937 -0.7947 -1.8182  0.2267
 4375SOL    HW224759   4.603   1.971   1.054  1.8967 -0.8285 -0.3894
 4376SOL     OW24760   4.374   3.196   4.170 -0.2490  0.1495 -0.2651
 4376SOL    HW124761   4.445   3.153   4.123 -0.3196 -1.6680  1.3083
 4376SOL    HW224762   4.408   3.197   4.260 -0.4343 -0.2733 -0.1882
 4377SOL     OW24763   4.161   0.613  17.636  0.1008 -0.3335 -0.2511
 4377SOL    HW124764   4.252   0.620  17.608  0.2629  0.8928  0.5877
 4377SOL    HW224765   4.152   0.533  17.687  0.8997 -0.1075  0.2458
 4378SOL     OW24766   2.674   3.362   2.881 -0.4720  0.7267 -0.4253
 4378SOL    HW124767   2.619   3.299   2.927 -0.8492  0.7226 -0.8764
 4378SOL    HW224768   2.645   3.349   2.790 -1.1636  1.3758 -0.3045
 4379SOL     OW24769   2.453   0.928   9.373 -0.4149 -0.3899  0.1270
 4379SOL    HW124770   2.514   0.988   9.415 -0.8681 -0.2521  0.5879
 4379SOL    HW224771   2.490   0.913   9.286  0.9975 -1.1992  0.8519
 4380SOL     OW24772   3.964   0.728   8.841 -0.0256 -0.7447  0.2335
 4380SOL    HW124773   3.906   0.700   8.770 -1.1493  0.9753  0.4783
 4380SOL    HW224774   3.909   0.696   8.913 -1.7626  3.2648  0.6618
 4381SOL     OW24775   1.304   0.707   5.538  0.3010 -0.3609 -0.3322
 4381SOL    HW124776   1.235   0.660   5.584  0.8099 -0.0637  0.7429
 4381SOL    HW224777   1.265   0.748   5.460 -0.9044  0.8246  0.9054
 4382SOL     OW24778   3.071   1.863   3.938 -0.4222 -0.0101 -0.2908
 4382SOL    HW124779   2.986   1.873   3.896 -0.8325 -0.7747  0.3636
 4382SOL    HW224780   3.045   1.819   4.019 -1.4032  1.5129  0.2205
 4383SOL     OW24781   2.370   1.324  11.888  0.1333 -0.2410  0.1781
 4383SOL    HW124782   2.313   1.314  11.812 -0.1636  0.4674  0.3045
 4383SOL    HW224783   2.376   1.235  11.923  2.3511 -0.2741 -0.3460
 4384SOL     OW24784   1.228   4.191   5.767  0.5808 -0.3480 -0.0740
 4384SOL    HW124785   1.231   4.177   5.862  1.0380  0.3108  0.0100
 4384SOL    HW224786   1.279   4.127   5.718  0.9370 -0.0298 -0.1178
 4385SOL     OW24787   4.676   2.849   1.321  0.3227 -0.1991  0.3613
 4385SOL    HW124788   4.584   2.863   1.344  0.4424 -0.0131  0.7288
 4385SOL    HW224789   4.684   2.765   1.276 -1.8893 -0.1363 -0.1845
 4386SOL     OW24790   3.135   4.037   3.693 -0.6916  0.3756 -0.1387
 4386SOL    HW124791   3.092   4.121   3.675  0.7287  0.7536 -1.8060
 4386SOL    HW224792   3.158   4.042   3.786  0.2473 -0.9702 -0.3035
 4387SOL     OW24793   2.978   3.868   9.066 -0.4722  0.0063 -0.7155
 4387SOL    HW124794   2.962   3.795   9.126 -1.0922  1.7244  1.2134
 4387SOL    HW224795   3.040   3.919   9.117  1.3739 -0.7521 -2.1898
 4388SOL     OW24796   1.292   0.290   0.093  0.1897 -0.0204  0.5908
 4388SOL    HW124797   1.251   0.371   0.124 -1.5172 -1.0339  0.9791
 4388SOL    HW224798   1.365   0.330   0.045  0.1565  0.1433  0.6778
 4389SOL     OW24799   4.219   3.005   2.134  0.3933  0.3955  0.0347
 4389SOL    HW124800   4.200   3.095   2.161  0.7800  0.3104  0.6101
 4389SOL    HW224801   4.190   2.955   2.211 -0.2362 -0.1593 -0.5701
 4390SOL     OW24802   1.873   2.894   5.834  0.1192  0.2976 -0.0533
 4390SOL    HW124803   1.915   2.902   5.920 -0.1339  1.5802 -0.0496
 4390SOL    HW224804   1.935   2.937   5.774  0.6725  1.3358  1.2685
 4391SOL     OW24805   0.402   3.681   6.853 -0.5110  0.0680  0.3540
 4391SOL    HW124806   0.450   3.679   6.936 -1.1452 -0.8449  0.7033
 4391SOL    HW224807   0.315   3.691   6.893  0.5737  1.0623  2.4628
 4392SOL     OW24808   2.310   3.934  16.028  0.3830  0.4599 -0.3769
 4392SOL    HW124809   2.311   3.840  16.009 -0.1917  0.3833 -0.0327
 4392SOL    HW224810   2.363   3.968  15.957  0.4741 -0.1778 -0.6095
 4393SOL     OW24811   2.438   4.600   8.516 -0.3703  0.1245 -0.2689
 4393SOL    HW124812   2.469   4.687   8.492 -2.7705  1.5801  1.8853
 4393SOL    HW224813   2.448   4.563   8.428 -0.2987  1.7628 -0.9612
 4394SOL     OW24814   3.416   1.293   6.246 -0.8868  0.2127 -0.0833
 4394SOL    HW124815   3.469   1.295   6.325 -0.4277  1.2659 -0.4120
 4394SOL    HW224816   3.329   1.270   6.280 -0.4764 -0.4928  0.4755
 4395SOL     OW24817   0.343   4.285   5.316  0.4248 -0.0614  0.1587
 4395SOL    HW124818   0.369   4.293   5.408  1.0847 -1.2866  0.0834
 4395SOL    HW224819   0.422   4.261   5.268 -0.1125  0.0909 -0.7852
 4396SOL     OW24820   3.928   1.872   5.913  0.2144  0.5868  0.5375
 4396SOL    HW124821   4.001   1.872   5.851 -0.3962  1.1243 -0.1894
 4396SOL    HW224822   3.858   1.831   5.861 -1.6122  1.2118  2.5030
 4397SOL     OW24823   0.205   1.882   4.827 -0.4007  0.0647 -0.1903
 4397SOL    HW124824   0.193   1.803   4.775  2.6308  0.2181 -1.1394
 4397SOL    HW224825   0.115   1.915   4.821  0.6065  2.5960 -1.5929
 4398SOL     OW24826   0.988   1.519   8.123 -0.5251  0.1924 -0.1632
 4398SOL    HW124827   1.057   1.568   8.079 -1.5030  0.5037 -1.3314
 4398SOL    HW224828   0.920   1.587   8.118 -0.9819 -0.4386 -2.4460
 4399SOL     OW24829   2.351   1.406   6.775 -0.8069  0.1779 -0.0106
 4399SOL    HW124830   2.415   1.350   6.732 -0.2330  0.2202  0.7955
 4399SOL    HW224831   2.275   1.404   6.717  1.5163 -1.4206 -2.9688
 4400SOL     OW24832   1.082   1.408  13.670 -0.2711 -0.4308  0.5188
 4400SOL    HW124833   0.992   1.388  13.697  0.0239 -1.8510  0.4508
 4400SOL    HW224834   1.067   1.493  13.628  0.2291 -0.5936 -0.0018
 4401SOL     OW24835   4.555   0.678   5.005  0.7172  0.5754  0.3623
 4401SOL    HW124836   4.538   0.608   4.943  2.2790 -1.0467  1.7542
 4401SOL    HW224837   4.487   0.667   5.071  0.5489  1.6138  0.3554
 4402SOL     OW24838   4.000   2.687   0.774  0.2918  0.0770 -0.7030
 4402SOL    HW124839   3.995   2.675   0.869  0.1415  1.3902 -0.5422
 4402SOL    HW224840   4.016   2.781   0.769  1.0563 -0.0330 -0.3197
 4403SOL     OW24841   0.887   1.992   3.571 -0.3244 -0.3070 -0.0065
 4403SOL    HW124842   0.814   2.037   3.528 -1.0056  1.4600  2.9939
 4403SOL    HW224843   0.960   2.049   3.545  0.5541 -0.0954  2.9010
 4404SOL     OW24844   2.646   1.885   5.525  0.7065  0.2548 -0.5268
 4404SOL    HW124845   2.720   1.937   5.557 -1.0057  0.9866  2.2517
 4404SOL    HW224846   2.682   1.799   5.547  0.2957 -0.6414 -3.4269
 4405SOL     OW24847   1.536   4.244   3.195 -0.4012 -0.0699 -0.3153
 4405SOL    HW124848   1.490   4.165   3.223  0.3676  0.1136  1.4786
 4405SOL    HW224849   1.625   4.223   3.226 -0.8642 -0.4888  0.7340
 4406SOL     OW24850   4.450   3.779   8.170 -0.0798 -0.0549 -0.2872
 4406SOL    HW124851   4.491   3.701   8.206  3.3325  1.2149 -1.4075
 4406SOL    HW224852   4.429   3.823   8.253  0.0856  2.0558 -1.3583
 4407SOL     OW24853   4.487   2.930   5.592 -0.1373 -0.6314 -0.2195
 4407SOL    HW124854   4.527   2.993   5.652 -0.3895  0.1386 -0.8545
 4407SOL    HW224855   4.559   2.905   5.535  0.2194  0.3588 -0.1929
 4408SOL     OW24856   1.407   0.403   1.792 -0.3405 -0.3983  0.2777
 4408SOL    HW124857   1.395   0.429   1.883 -0.1206  0.7738 -0.0255
 4408SOL    HW224858   1.336   0.339   1.783 -0.9509  0.1651  1.0832
 4409SOL     OW24859   0.690   0.666   6.142 -0.4688 -0.1364 -0.5788
 4409SOL    HW124860   0.608   0.620   6.164  0.8546 -1.4625  1.6185
 4409SOL    HW224861   0.752   0.598   6.167 -2.5433 -1.8828 -0.1032
 4410SOL     OW24862   4.375   3.039   3.072  0.9333  0.6543  0.0416
 4410SOL    HW124863   4.307   3.105   3.085 -0.3009 -0.9081  1.5060
 4410SOL    HW224864   4.458   3.081   3.095 -0.2427  1.1654  3.4176
 4411SOL     OW24865   0.822   3.818   8.308 -0.2987  0.2804  0.8728
 4411SOL    HW124866   0.818   3.913   8.307 -2.1292  0.1503 -2.2337
 4411SOL    HW224867   0.915   3.814   8.289  0.1668 -0.3071  3.1539
 4412SOL     OW24868   2.333   2.047  12.827  0.3077  0.1878  0.0783
 4412SOL    HW124869   2.269   2.116  12.847  1.7206  1.6714 -0.5159
 4412SOL    HW224870   2.407   2.103  12.804 -1.1411  1.2983 -1.9745
 4413SOL     OW24871   3.329   4.478   5.955 -0.0479  0.2748 -0.7170
 4413SOL    HW124872   3.369   4.395   5.929 -1.0411 -0.6792  0.8505
 4413SOL    HW224873   3.413   4.522   5.966 -1.2264  2.4733 -0.5264
 4414SOL     OW24874   1.485   2.210   1.696  0.0125 -0.5662  0.0900
 4414SOL    HW124875   1.425   2.138   1.677 -2.2636  1.2391  0.4424
 4414SOL    HW224876   1.417   2.273   1.720  2.0807  1.5317  0.4387
 4415SOL     OW24877   3.273   0.507   8.330 -0.2497  0.4649 -0.3913
 4415SOL    HW124878   3.192   0.557   8.324 -2.3831 -2.7749  2.0589
 4415SOL    HW224879   3.313   0.559   8.400  1.1742  1.0930 -1.6636
 4416SOL     OW24880   3.445   3.054  13.392  0.1770  0.8524 -0.6533
 4416SOL    HW124881   3.480   3.142  13.409 -0.0561  1.2168 -2.0995
 4416SOL    HW224882   3.449   3.016  13.480  1.1605  0.0238 -1.0537
 4417SOL     OW24883   2.112   1.879   3.663  0.2316 -0.1429 -0.1972
 4417SOL    HW124884   2.024   1.897   3.697  0.0394  1.8485 -1.6989
 4417SOL    HW224885   2.088   1.888   3.571  1.1008 -0.0994 -0.4123
 4418SOL     OW24886   0.634   4.033   2.340  0.3058 -0.3636  0.3846
 4418SOL    HW124887   0.575   4.053   2.412  1.0766  2.8076  0.1516
 4418SOL    HW224888   0.579   4.030   2.262  0.4667  0.1886  0.2471
 4419SOL     OW24889   4.559   2.561  11.391  0.2399  0.0618  0.4331
 4419SOL    HW124890   4.596   2.473  11.398  1.4835  0.4558 -1.2590
 4419SOL    HW224891   4.566   2.586  11.483 -0.6471  0.8102  0.2957
 4420SOL     OW24892   2.363   2.523  16.446  0.3386 -0.1090 -0.3226
 4420SOL    HW124893   2.339   2.445  16.497  0.7715  0.7414  1.1915
 4420SOL    HW224894   2.290   2.527  16.385 -0.4282 -1.1713  0.5158
 4421SOL     OW24895   3.020   2.327   9.365 -0.2904  0.1228  0.2217
 4421SOL    HW124896   2.968   2.406   9.379 -0.9001 -0.5463  1.7253
 4421SOL    HW224897   2.959   2.288   9.302 -0.3986 -0.8628  0.9473
 4422SOL     OW24898   2.186   0.732   8.428  0.1027  0.1401 -0.0215
 4422SOL    HW124899   2.124   0.753   8.357 -0.5683 -0.8355  0.2771
 4422SOL    HW224900   2.201   0.820   8.463 -1.9586  0.6434 -0.3720
 4423SOL     OW24901   3.498   3.811   5.537  0.2267 -0.3090 -0.3066
 4423SOL    HW124902   3.581   3.780   5.502  0.1408  0.3190 -1.0584
 4423SOL    HW224903   3.455   3.726   5.547  0.8941 -0.7430 -1.1320
 4424SOL     OW24904   3.101   2.571  16.320  0.1789  0.1473  0.3362
 4424SOL    HW124905   3.185   2.545  16.280 -0.0250  0.2960 -0.1944
 4424SOL    HW224906   3.122   2.561  16.413 -1.5859 -1.0658  0.5878
 4425SOL     OW24907   3.807   1.723   0.437  0.0208  0.1216 -0.0142
 4425SOL    HW124908   3.725   1.710   0.391  1.3210 -1.8566 -1.7478
 4425SOL    HW224909   3.826   1.638   0.477  4.9761  1.1238 -0.2554
 4426SOL     OW24910   4.116   3.344   8.189 -0.1171  0.6769 -0.5529
 4426SOL    HW124911   4.119   3.258   8.231  2.0174  0.2655 -1.5089
 4426SOL    HW224912   4.132   3.408   8.259  0.3209 -1.3889  1.2291
 4427SOL     OW24913   1.653   4.016   5.465 -0.0710 -0.2877 -0.1749
 4427SOL    HW124914   1.699   4.065   5.533 -2.5133 -0.6953  1.7897
 4427SOL    HW224915   1.730   4.016   5.409  0.6786 -2.6301  0.8475
 4428SOL     OW24916   1.847   0.554   2.867 -0.3845 -0.1829 -0.1544
 4428SOL    HW124917   1.846   0.531   2.775 -2.4596 -0.2639 -0.1015
 4428SOL    HW224918   1.753   0.556   2.881 -0.6379  0.5348 -2.0479
 4429SOL     OW24919   1.982   2.953   2.434  0.2388 -0.2730 -0.2384
 4429SOL    HW124920   2.061   2.988   2.392  0.4922  0.3066  0.7102
 4429SOL    HW224921   1.917   3.022   2.429  0.2257 -0.2767 -0.1291
 4430SOL     OW24922   0.758   2.780   7.968 -0.3296  0.2461  0.2827
 4430SOL    HW124923   0.708   2.736   7.899  2.0154 -0.7527 -0.7727
 4430SOL    HW224924   0.833   2.794   7.911 -1.1395  0.3206 -0.7734
 4431SOL     OW24925   1.611   1.443   6.341  0.3779  0.1851  0.1733
 4431SOL    HW124926   1.540   1.385   6.366  0.8100  0.1731  1.4179
 4431SOL    HW224927   1.646   1.462   6.429  0.0086 -1.2344  0.6301
 4432SOL     OW24928   4.269   3.107   7.408 -0.1166 -0.0249  0.0242
 4432SOL    HW124929   4.327   3.082   7.480  2.5498  2.5819 -1.2008
 4432SOL    HW224930   4.316   3.183   7.373 -0.5777  0.3503  0.2191
 4433SOL     OW24931   3.518   2.801   6.509  0.1936 -0.3617 -0.6494
 4433SOL    HW124932   3.494   2.714   6.477 -0.6938 -0.1514 -0.5695
 4433SOL    HW224933   3.561   2.827   6.428  1.5029  2.0968  0.8482
 4434SOL     OW24934   0.711   3.299   5.302 -0.1488 -0.1310 -0.0920
 4434SOL    HW124935   0.635   3.247   5.328  1.7652 -2.6801  0.3521
 4434SOL    HW224936   0.669   3.385   5.307 -1.0677 -0.6198  0.6307
 4435SOL     OW24937   4.289   2.134   5.289 -0.0979 -0.1488  0.4936
 4435SOL    HW124938   4.377   2.173   5.291 -0.2464  0.2411 -0.4549
 4435SOL    HW224939   4.256   2.173   5.208 -0.2604 -0.4005  0.4393
 4436SOL     OW24940   0.675   3.558   5.758 -0.4665  0.2388  0.4193
 4436SOL    HW124941   0.701   3.622   5.824 -2.2940  0.0721  1.2701
 4436SOL    HW224942   0.757   3.509   5.751 -1.6439 -1.1110 -3.6558
 4437SOL     OW24943   4.482   4.500   5.212 -0.1995  0.4309 -0.1643
 4437SOL    HW124944   4.531   4.446   5.151  0.9744  0.2345  0.9534
 4437SOL    HW224945   4.393   4.479   5.183 -0.2020  0.0384  0.1348
 4438SOL     OW24946   0.125   1.860   8.808 -0.3207 -0.1483  0.0911
 4438SOL    HW124947   0.191   1.852   8.739  0.5348  2.6907  0.6127
 4438SOL    HW224948   0.166   1.930   8.857 -1.3937  0.6614 -0.1637
 4439SOL     OW24949   0.481   4.501  15.132 -0.3793 -0.5209  0.1675
 4439SOL    HW124950   0.442   4.536  15.212  0.7111 -1.6669  1.2132
 4439SOL    HW224951   0.555   4.557  15.108  1.2789 -2.4764  0.7314
 4440SOL     OW24952   3.309   1.301   1.446  0.3497 -0.2357 -0.1759
 4440SOL    HW124953   3.313   1.231   1.512 -1.0813  0.4139  0.5882
 4440SOL    HW224954   3.400   1.328   1.457  0.1276  0.2915  0.3044
 4441SOL     OW24955   0.833   1.013   7.886 -0.1966 -0.6663  0.3750
 4441SOL    HW124956   0.876   0.947   7.832 -1.8201 -0.3666 -1.2724
 4441SOL    HW224957   0.743   0.980   7.877 -0.9545  1.0166  1.7799
 4442SOL     OW24958   1.073   3.988   6.332  0.7393  0.2842  0.0684
 4442SOL    HW124959   1.039   4.066   6.288  0.4578 -1.2754 -2.5158
 4442SOL    HW224960   0.998   3.929   6.328  0.7240  0.3164 -0.1183
 4443SOL     OW24961   2.765   2.978   5.771 -0.0762  0.2083 -0.0648
 4443SOL    HW124962   2.822   2.963   5.695 -0.9861  0.6511 -0.8347
 4443SOL    HW224963   2.681   2.949   5.736 -0.0605  1.1875 -0.9098
 4444SOL     OW24964   3.373   2.857  17.035  0.4691 -0.1237 -0.5087
 4444SOL    HW124965   3.431   2.834  17.107  0.5433  0.0141 -0.5251
 4444SOL    HW224966   3.433   2.841  16.963  0.9381 -0.5434 -0.0221
 4445SOL     OW24967   1.908   4.200   5.164  0.1645  0.1298  0.0735
 4445SOL    HW124968   1.884   4.167   5.077  0.4358  0.2431 -0.0460
 4445SOL    HW224969   1.904   4.294   5.145  0.3730  0.4254  1.5165
 4446SOL     OW24970   3.548   1.333   9.041  0.8595  0.4940  0.1606
 4446SOL    HW124971   3.528   1.304   8.952 -1.4353 -1.5704  1.3442
 4446SOL    HW224972   3.630   1.382   9.033  1.0374  0.1342 -0.2654
 4447SOL     OW24973   2.698   0.777   6.485  0.5912 -0.2487 -0.0742
 4447SOL    HW124974   2.772   0.772   6.545  1.6970  0.4695 -1.3672
 4447SOL    HW224975   2.739   0.742   6.406 -0.3733  2.4266 -1.7600
 4448SOL     OW24976   0.899   2.040   2.862  0.2168  0.1847  0.1713
 4448SOL    HW124977   0.900   1.949   2.835  1.0983 -0.0958  1.0991
 4448SOL    HW224978   0.827   2.079   2.812 -0.2988  2.1450  2.4077
 4449SOL     OW24979   2.203   3.786  12.286 -0.2633 -0.5114  0.6294
 4449SOL    HW124980   2.238   3.801  12.374  0.2240  1.0066  0.1682
 4449SOL    HW224981   2.257   3.723  12.238 -0.8094 -0.9830  0.6312
 4450SOL     OW24982   1.394   2.865   0.647 -0.1539 -0.1067 -0.3770
 4450SOL    HW124983   1.357   2.860   0.559 -2.2425  0.1084  0.4838
 4450SOL    HW224984   1.464   2.930   0.639  1.2952 -1.3840  1.8112
 4451SOL     OW24985   1.345   3.432  13.948 -0.1219  0.0599  0.4313
 4451SOL    HW124986   1.350   3.470  13.861  0.0069  0.4288  0.6001
 4451SOL    HW224987   1.288   3.497  13.989 -0.6751 -0.8947  1.1796
 4452SOL     OW24988   4.661   4.325   5.078 -0.4409 -0.1017  0.3002
 4452SOL    HW124989   4.662   4.242   5.126  1.1581  1.2477  2.5694
 4452SOL    HW224990   0.012   4.355   5.099 -0.3805  0.0866 -0.2307
 4453SOL     OW24991   2.160   1.751  16.408  0.1122 -0.4533  0.1594
 4453SOL    HW124992   2.248   1.736  16.442 -0.3118  2.6651  2.7003
 4453SOL    HW224993   2.131   1.831  16.453  1.2542  1.1125 -1.9222
 4454SOL     OW24994   3.566   4.302   8.433 -0.3951 -0.0006 -0.0491
 4454SOL    HW124995   3.489   4.299   8.377  1.4261 -0.8269 -2.5294
 4454SOL    HW224996   3.605   4.215   8.419 -2.3449 -0.9957  0.7012
 4455SOL     OW24997   1.607   1.208  10.191  0.1511  0.0735  0.4144
 4455SOL    HW124998   1.589   1.132  10.246  0.2532 -0.1696  0.1129
 4455SOL    HW224999   1.703   1.215  10.196 -0.0215  1.6617  1.4291
 4456SOL     OW25000   3.521   1.504   9.887 -0.1022  0.4695 -0.6285
 4456SOL    HW125001   3.513   1.409   9.884 -1.4875  0.4998  2.2485
 4456SOL    HW225002   3.532   1.514   9.982  0.2087 -0.5424 -0.5587
 4457SOL     OW25003   0.607   1.672  13.854 -0.5935 -0.3264 -0.0588
 4457SOL    HW125004   0.568   1.720  13.781 -2.4610 -0.4743  0.8536
 4457SOL    HW225005   0.600   1.744  13.917 -1.5791  0.6926 -1.3357
 4458SOL     OW25006   1.827   2.239   6.664 -0.3125  0.3453  0.1064
 4458SOL    HW125007   1.747   2.191   6.642  0.1025 -0.6996  0.8895
 4458SOL    HW225008   1.800   2.310   6.606  0.5171 -1.1499 -2.1415
 4459SOL     OW25009   3.078   4.127  14.933  0.3505 -0.2443 -0.2379
 4459SOL    HW125010   3.076   4.044  14.885  0.2312 -1.6224  2.1279
 4459SOL    HW225011   3.168   4.158  14.923  0.8004 -0.1865  3.9288
 4460SOL     OW25012   3.226   4.355   4.270  0.2839 -0.3531 -0.1289
 4460SOL    HW125013   3.253   4.306   4.192  1.3601 -0.7295  0.4928
 4460SOL    HW225014   3.287   4.429   4.263  0.7953 -1.0634 -3.1621
 4461SOL     OW25015   2.641   0.807   7.896 -0.0599 -0.5452  0.6216
 4461SOL    HW125016   2.652   0.813   7.801 -0.7557  1.4636  0.6576
 4461SOL    HW225017   2.650   0.894   7.936 -0.1673 -0.9659  1.5736
 4462SOL     OW25018   3.383   1.115   7.305 -0.2165  0.1769  0.1195
 4462SOL    HW125019   3.294   1.113   7.269  0.0515  1.2505 -0.5799
 4462SOL    HW225020   3.434   1.119   7.225 -1.9928  0.6429 -0.9946
 4463SOL     OW25021   4.354   4.696   4.446 -0.1528  0.0336  0.2865
 4463SOL    HW125022   4.444   4.668   4.464  0.6477  1.1039 -2.1278
 4463SOL    HW225023   4.364   0.054   4.449 -0.5422  0.1097 -1.3569
 4464SOL     OW25024   2.468   0.264   6.788  0.0898 -0.1018  0.1717
 4464SOL    HW125025   2.483   0.178   6.828 -1.0965 -0.3903 -0.0132
 4464SOL    HW225026   2.378   0.278   6.817 -0.4591 -3.2761  0.0097
 4465SOL     OW25027   4.660   2.607   4.598  0.2238 -0.0645 -0.4965
 4465SOL    HW125028   4.729   2.567   4.545 -0.6229 -2.8722  0.5137
 4465SOL    HW225029   4.579   2.564   4.571  0.0232  0.5386 -0.8624
 4466SOL     OW25030   0.803   1.304  13.725  0.3819 -0.2123 -0.3323
 4466SOL    HW125031   0.831   1.242  13.793  3.3764  1.3167 -0.1498
 4466SOL    HW225032   0.746   1.253  13.668  2.1242 -1.9171 -0.5437
 4467SOL     OW25033   2.841   2.196   3.418 -0.0151  0.6332  0.5216
 4467SOL    HW125034   2.807   2.284   3.434 -2.2785 -0.2709  0.6447
 4467SOL    HW225035   2.798   2.182   3.334  2.5678 -0.6051 -0.5957
 4468SOL     OW25036   3.986   3.074   2.957 -0.2264  0.5374  0.2635
 4468SOL    HW125037   4.043   3.127   3.014 -0.1787 -0.5245  1.1918
 4468SOL    HW225038   4.032   3.058   2.875 -0.0941 -2.8353  1.0199
 4469SOL     OW25039   1.777   0.257   2.854 -0.1927 -0.8480  0.0233
 4469SOL    HW125040   1.800   0.257   2.947 -0.6606  0.8785  0.1236
 4469SOL    HW225041   1.726   0.338   2.850  2.0730  0.5900  0.3390
 4470SOL     OW25042   1.486   3.838   0.866  0.1095  1.0048  0.1516
 4470SOL    HW125043   1.452   3.771   0.807  0.5470 -0.6286  1.7436
 4470SOL    HW225044   1.566   3.791   0.892 -0.6110  0.1928  0.9451
 4471SOL     OW25045   2.416   1.304   1.806  0.1946 -0.5669 -0.1592
 4471SOL    HW125046   2.349   1.256   1.855  0.1449 -0.4514 -0.1116
 4471SOL    HW225047   2.433   1.387   1.851 -0.3000 -1.0704  0.9524
 4472SOL     OW25048   0.554   0.710  17.328 -0.3174 -0.1165  0.3834
 4472SOL    HW125049   0.593   0.718  17.415 -1.2553  3.0544  0.4956
 4472SOL    HW225050   0.636   0.689  17.283 -1.5839  0.4387 -2.2071
 4473SOL     OW25051   4.366   3.919  15.761  0.2950  0.4634 -0.0097
 4473SOL    HW125052   4.405   4.005  15.777  0.8605  0.2941 -0.4747
 4473SOL    HW225053   4.293   3.955  15.711 -1.7580 -0.9865  1.9570
 4474SOL     OW25054   2.100   1.776   6.431  0.4723 -0.1670  0.3153
 4474SOL    HW125055   2.162   1.796   6.361  1.3487 -0.4613  1.0088
 4474SOL    HW225056   2.036   1.847   6.432  0.2544 -0.3182 -2.0762
 4475SOL     OW25057   1.585   0.787   2.720  0.2326 -0.1763 -0.5290
 4475SOL    HW125058   1.490   0.804   2.724  0.1967  0.0603 -2.3479
 4475SOL    HW225059   1.592   0.741   2.804 -0.1237  1.4166  0.3941
 4476SOL     OW25060   0.724   2.888   5.912  0.4100  0.2980 -0.2620
 4476SOL    HW125061   0.698   2.796   5.916  2.1144 -0.2751 -2.2063
 4476SOL    HW225062   0.722   2.911   5.819  0.0231  2.2956  0.2446
 4477SOL     OW25063   2.017   2.514   1.279  0.5081 -0.1158 -0.6983
 4477SOL    HW125064   2.009   2.572   1.355  2.0310 -0.3563 -0.3588
 4477SOL    HW225065   2.109   2.537   1.264  0.5036  0.4659  0.1370
 4478SOL     OW25066   0.943   3.184   7.058 -0.1513  0.8481 -0.0895
 4478SOL    HW125067   0.895   3.209   6.979  0.9100  1.4820 -0.5216
 4478SOL    HW225068   0.869   3.143   7.103 -0.1332  0.5716 -0.3088
 4479SOL     OW25069   0.059   4.311  12.011 -0.1724 -0.0042 -0.1457
 4479SOL    HW125070   0.066   4.287  11.919 -1.4181  3.2689 -1.1077
 4479SOL    HW225071   0.150   4.331  12.033  0.0220 -1.8247  0.6543
 4480SOL     OW25072   2.504   2.790   6.273 -0.0880  0.4410 -0.0022
 4480SOL    HW125073   2.430   2.841   6.240 -0.0471  0.8897  0.6116
 4480SOL    HW225074   2.466   2.707   6.243 -1.5137  0.9955  0.2503
 4481SOL     OW25075   0.128   1.002   0.426  0.6062 -0.0863 -0.6669
 4481SOL    HW125076   0.076   1.061   0.482  1.6239 -2.0192  2.3142
 4481SOL    HW225077   0.064   0.996   0.355  0.5897 -0.5210 -0.6138
 4482SOL     OW25078   2.685   1.415   6.652  0.1080  0.1380 -0.1687
 4482SOL    HW125079   2.733   1.489   6.689 -1.7912  0.9597  0.6656
 4482SOL    HW225080   2.671   1.372   6.737 -0.7077 -0.1496 -0.4473
 4483SOL     OW25081   3.787   1.157  14.739  0.8817 -0.1587 -0.3878
 4483SOL    HW125082   3.868   1.107  14.725  0.8563 -0.7591  1.6810
 4483SOL    HW225083   3.793   1.195  14.826 -1.4945 -0.1541 -0.2096
 4484SOL     OW25084   3.541   0.670   3.227  0.1146  0.2136 -0.1887
 4484SOL    HW125085   3.564   0.577   3.225 -1.8449 -0.2914  1.5768
 4484SOL    HW225086   3.449   0.663   3.252  0.2417  1.5386  0.6605
 4485SOL     OW25087   4.733   3.215   7.487 -0.9821 -0.4771  0.4283
 4485SOL    HW125088   0.061   3.166   7.437 -2.0381 -3.5190  1.9924
 4485SOL    HW225089   4.712   3.295   7.440  3.1989 -0.5342 -1.5668
 4486SOL     OW25090   3.254   3.044   4.048  0.5196  0.4581 -0.2877
 4486SOL    HW125091   3.195   2.973   4.074  1.1555  0.4405  1.0954
 4486SOL    HW225092   3.261   3.031   3.954 -1.8239 -0.0321 -0.4034
 4487SOL     OW25093   3.046   4.676   9.215 -0.6790 -0.2330  0.5905
 4487SOL    HW125094   3.015   0.010   9.160 -0.0519 -0.6260 -0.2883
 4487SOL    HW225095   3.038   4.606   9.149  0.6525  0.4908 -0.3375
 4488SOL     OW25096   1.248   4.129   9.095  0.1216  0.1549 -0.4259
 4488SOL    HW125097   1.217   4.061   9.034  2.9541 -2.0255  0.5418
 4488SOL    HW225098   1.169   4.176   9.121 -1.2343 -1.4169 -1.6782
 4489SOL     OW25099   2.530   1.039   7.521  0.2601 -0.5348  0.1332
 4489SOL    HW125100   2.512   1.029   7.428 -0.5549  0.2995  0.2044
 4489SOL    HW225101   2.448   1.014   7.563 -0.1273  0.5975  0.0439
 4490SOL     OW25102   4.160   0.466  11.172  0.3321 -0.5929 -0.1452
 4490SOL    HW125103   4.197   0.406  11.107  1.6132 -1.3182  1.2418
 4490SOL    HW225104   4.110   0.406  11.227 -0.1054 -1.5254 -1.5673
 4491SOL     OW25105   4.035   3.464  13.764 -0.1077  0.0157 -0.3220
 4491SOL    HW125106   3.949   3.473  13.724  0.6171  1.8871 -1.5018
 4491SOL    HW225107   4.107   3.478  13.701  0.1747 -1.2324 -0.2788
 4492SOL     OW25108   1.189   3.093   1.807  0.0059  0.1488 -0.1824
 4492SOL    HW125109   1.246   3.069   1.734 -0.3304 -1.0443 -0.0547
 4492SOL    HW225110   1.205   3.186   1.824 -0.8133  0.2653 -0.0195
 4493SOL     OW25111   1.273   0.720   2.190  0.2273  0.0137 -0.0603
 4493SOL    HW125112   1.283   0.664   2.267 -1.7691  0.3206  0.4104
 4493SOL    HW225113   1.313   0.795   2.234 -0.9315 -0.7708  2.3260
 4494SOL     OW25114   0.562   3.065   2.186 -0.1851  0.3933  0.2255
 4494SOL    HW125115   0.637   3.033   2.236 -0.8813 -1.9627 -0.2174
 4494SOL    HW225116   0.523   3.114   2.258 -1.4423  2.4131 -1.8283
 4495SOL     OW25117   0.413   0.498   2.949 -0.1657  0.3436 -0.1884
 4495SOL    HW125118   0.369   0.545   3.020 -1.2351 -0.5514 -0.2534
 4495SOL    HW225119   0.337   0.486   2.893 -0.8763 -2.0074  1.2767
 4496SOL     OW25120   0.483   0.835  12.329  0.0440  0.1067  0.2174
 4496SOL    HW125121   0.526   0.801  12.250  0.5203  0.1471  0.4633
 4496SOL    HW225122   0.555   0.865  12.384  0.7459 -4.4688  1.8272
 4497SOL     OW25123   3.277   3.763   9.487 -0.0737  0.1875 -0.0983
 4497SOL    HW125124   3.201   3.712   9.515 -2.3649  1.8851 -3.1863
 4497SOL    HW225125   3.344   3.695   9.494  0.1361  0.6481  2.4314
 4498SOL     OW25126   2.292   1.145   5.438 -0.2983  0.6312  0.1251
 4498SOL    HW125127   2.258   1.185   5.518 -0.4118  0.1523  0.3143
 4498SOL    HW225128   2.217   1.090   5.414 -0.1533  0.2639  0.5146
 4499SOL     OW25129   1.126   2.622  15.775  0.4257 -0.8988  0.2361
 4499SOL    HW125130   1.134   2.635  15.870  0.7407  0.0202  0.0852
 4499SOL    HW225131   1.084   2.536  15.771 -1.9011  0.4642 -3.6859
 4500SOL     OW25132   0.213   2.577   2.094  0.0175 -0.2757 -0.3922
 4500SOL    HW125133   0.170   2.614   2.171 -1.0224  0.3173 -1.2576
 4500SOL    HW225134   0.197   2.483   2.097  0.8650 -0.4268 -0.5517
 4501SOL     OW25135   4.646   2.118   9.000  0.4645  0.1948  0.3203
 4501SOL    HW125136   4.698   2.125   8.920  0.7330  1.8503  0.6555
 4501SOL    HW225137   4.659   2.203   9.042 -1.9149 -0.1717  1.7853
 4502SOL     OW25138   0.278   1.702   7.450  0.3334 -0.0276 -0.0837
 4502SOL    HW125139   0.225   1.635   7.495  0.0552 -0.1745 -0.6327
 4502SOL    HW225140   0.213   1.743   7.394 -0.3685  2.0448  2.2467
 4503SOL     OW25141   1.826   1.239   8.765  0.1353 -0.1265 -0.2199
 4503SOL    HW125142   1.836   1.334   8.754 -0.3925  0.3196  3.0495
 4503SOL    HW225143   1.752   1.230   8.826  2.8937  1.4294  3.3677
 4504SOL     OW25144   2.158   3.386   6.037  0.6600  0.2366 -0.5063
 4504SOL    HW125145   2.210   3.374   6.117  1.5009 -0.7348 -1.1959
 4504SOL    HW225146   2.160   3.295   6.007  3.2899  0.1221  0.0112
 4505SOL     OW25147   4.447   3.360   8.388 -0.7202  0.3473  0.7271
 4505SOL    HW125148   4.455   3.304   8.311  2.6566  2.3627 -0.3944
 4505SOL    HW225149   4.526   3.343   8.439  0.0397  0.5439 -0.3721
 4506SOL     OW25150   2.489   0.466   6.250 -0.2607 -0.1082  0.8358
 4506SOL    HW125151   2.501   0.434   6.340  3.3567 -0.4748  0.1978
 4506SOL    HW225152   2.403   0.430   6.228  0.1346 -0.0215 -0.8387
 4507SOL     OW25153   4.585   0.983   9.287  0.2993  0.1592 -0.3245
 4507SOL    HW125154   4.634   0.965   9.367  1.5262  0.9298 -0.9116
 4507SOL    HW225155   4.548   0.900   9.257 -0.7136 -0.0009  1.3555
 4508SOL     OW25156   2.914   2.968  15.895  0.0745 -0.3145 -0.6897
 4508SOL    HW125157   2.919   3.016  15.813 -0.1530  0.0099 -0.5168
 4508SOL    HW225158   3.009   2.967  15.910 -0.0318 -0.3663 -0.0200
 4509SOL     OW25159   0.616   4.232   7.805 -0.8274 -0.4894  0.1224
 4509SOL    HW125160   0.650   4.172   7.739  1.8672  2.0237 -0.8191
 4509SOL    HW225161   0.647   4.319   7.779 -0.5648 -1.0352 -1.3997
 4510SOL     OW25162   0.170   3.602   7.594 -0.1074  0.3032 -0.0736
 4510SOL    HW125163   0.084   3.614   7.635  1.7914  2.0860  3.4396
 4510SOL    HW225164   0.185   3.688   7.554 -0.7931  1.4729  2.1926
 4511SOL     OW25165   3.609   2.473   9.095  0.5085 -0.0725 -0.0364
 4511SOL    HW125166   3.670   2.524   9.041 -1.2692  0.7214 -1.3263
 4511SOL    HW225167   3.634   2.388   9.059  3.6152  1.0567 -0.5487
 4512SOL     OW25168   2.693   0.956   9.881  0.2577  0.4795 -0.2609
 4512SOL    HW125169   2.655   0.996   9.803 -0.5797  1.2268  0.5269
 4512SOL    HW225170   2.735   1.033   9.919  1.4304 -1.0349  1.5223
 4513SOL     OW25171   2.337   3.601  12.133 -0.4413  0.1119 -0.0256
 4513SOL    HW125172   2.431   3.588  12.120 -0.4015  1.0256 -0.6211
 4513SOL    HW225173   2.302   3.517  12.105  2.7267 -1.2000 -0.0439
 4514SOL     OW25174   0.024   1.278   9.955 -0.6916 -0.0024  0.6589
 4514SOL    HW125175   4.699   1.269   9.884  0.8580  2.6519 -1.0242
 4514SOL    HW225176   0.018   1.187   9.984 -0.8427 -0.1281  0.2230
 4515SOL     OW25177   0.887   2.676   7.380  0.5444  0.0919 -0.3294
 4515SOL    HW125178   0.921   2.599   7.336 -0.5671 -1.6053  1.7739
 4515SOL    HW225179   0.849   2.724   7.307 -3.0872  0.3677  1.7427
 4516SOL     OW25180   3.844   3.984  16.055  0.4548 -0.2564  0.3443
 4516SOL    HW125181   3.825   4.054  16.118  1.0248  0.7843 -0.6313
 4516SOL    HW225182   3.838   3.908  16.113  1.1615  1.0356  2.1417
 4517SOL     OW25183   1.874   4.256  13.569  0.1997 -0.7031 -0.1839
 4517SOL    HW125184   1.843   4.343  13.541  0.9870 -0.1411  0.6994
 4517SOL    HW225185   1.966   4.283  13.578 -0.3669  1.2684 -0.3433
 4518SOL     OW25186   1.335   0.634   3.077 -0.0487  0.9048  0.2084
 4518SOL    HW125187   1.328   0.725   3.049  0.4231  1.0685  0.6280
 4518SOL    HW225188   1.323   0.643   3.172 -0.8553 -0.9996  0.2951
 4519SOL     OW25189   2.869   3.310   6.091  0.0139 -0.5383 -0.5956
 4519SOL    HW125190   2.955   3.327   6.054  0.0410  0.5022 -0.0436
 4519SOL    HW225191   2.884   3.219   6.117  0.3519 -0.4593 -0.5250
 4520SOL     OW25192   1.407   4.219  16.199  0.0590 -0.2030 -0.3392
 4520SOL    HW125193   1.329   4.196  16.248 -0.4911  5.1583  1.3744
 4520SOL    HW225194   1.368   4.238  16.114 -1.4931 -1.6828  0.0549
 4521SOL     OW25195   1.639   3.673  17.441  0.0632  0.3542 -0.1184
 4521SOL    HW125196   1.615   3.737  17.374 -0.7477  0.2525  0.0636
 4521SOL    HW225197   1.563   3.662  17.498  0.1111  2.4240  0.3272
 4522SOL     OW25198   3.429   0.716   0.182  0.2234 -0.5160 -0.3465
 4522SOL    HW125199   3.492   0.670   0.238 -0.1701 -0.1253  0.4200
 4522SOL    HW225200   3.416   0.657   0.107  3.6813  0.3483 -1.6153
 4523SOL     OW25201   0.961   0.074   6.729 -0.0159  0.5302  0.2597
 4523SOL    HW125202   0.874   0.115   6.724  0.6688  1.9745  0.0662
 4523SOL    HW225203   0.941   0.012   6.799  2.2054 -1.6532 -1.0528
 4524SOL     OW25204   0.020   3.535   9.988  0.0108  0.3769  0.1363
 4524SOL    HW125205   0.084   3.469   9.963 -1.9986 -0.7881 -1.9238
 4524SOL    HW225206   4.675   3.489   9.972 -0.5602  1.7863 -0.9443
 4525SOL     OW25207   3.640   3.208  11.901 -0.3955 -0.3624 -0.0229
 4525SOL    HW125208   3.612   3.299  11.888 -1.6264 -0.7701 -0.2694
 4525SOL    HW225209   3.556   3.163  11.910  0.9422 -2.8478  0.1257
 4526SOL     OW25210   3.238   1.595   5.959 -0.0234  0.1744 -0.1905
 4526SOL    HW125211   3.212   1.510   5.925 -2.6646  1.6620 -1.9730
 4526SOL    HW225212   3.166   1.656   5.939 -1.4168 -0.7727  1.9069
 4527SOL     OW25213   4.259   1.954   2.922 -0.0266 -0.2030 -0.0792
 4527SOL    HW125214   4.271   1.882   2.861 -0.7136  1.4271 -2.1283
 4527SOL    HW225215   4.289   1.909   3.001  0.1783  0.2668  0.1128
 4528SOL     OW25216   0.175   0.708   6.088  0.1214  0.2902 -0.7649
 4528SOL    HW125217   0.095   0.699   6.035 -0.3431 -1.7353  0.2929
 4528SOL    HW225218   0.136   0.741   6.169 -0.2410 -3.5731  0.6138
 4529SOL     OW25219   1.165   3.347   7.254  0.0764  0.0037  0.0997
 4529SOL    HW125220   1.070   3.356   7.265 -0.0449  0.8329 -1.6817
 4529SOL    HW225221   1.190   3.257   7.232  0.8751 -0.6166  3.5077
 4530SOL     OW25222   3.337   0.353   2.737 -0.5691 -0.2752 -0.5872
 4530SOL    HW125223   3.424   0.339   2.700 -1.2316 -0.8177 -1.9175
 4530SOL    HW225224   3.351   0.361   2.832 -0.8915 -2.8792 -0.2985
 4531SOL     OW25225   4.705   3.353   3.081  0.5588  0.0783 -0.1188
 4531SOL    HW125226   0.042   3.318   3.032  0.2680  1.6291 -1.6753
 4531SOL    HW225227   4.679   3.287   3.146  2.6711 -1.1832 -0.5647
 4532SOL     OW25228   1.811   4.438   2.146 -0.2358 -1.1556  0.7426
 4532SOL    HW125229   1.806   4.530   2.119 -0.2517 -1.5943 -0.7045
 4532SOL    HW225230   1.727   4.436   2.192 -1.1128  0.2885 -0.7694
 4533SOL     OW25231   0.450   1.519   7.814 -0.5752  0.4536 -0.2207
 4533SOL    HW125232   0.520   1.485   7.870 -0.2142 -1.1297 -1.6259
 4533SOL    HW225233   0.384   1.559   7.871 -1.0098  2.1994 -1.9308
 4534SOL     OW25234   3.307   3.739   7.615  0.1951 -0.4300  0.0657
 4534SOL    HW125235   3.343   3.733   7.527 -1.5897 -1.4671 -0.5840
 4534SOL    HW225236   3.314   3.646   7.637  0.6739 -0.6420 -0.9833
 4535SOL     OW25237   2.600   1.301  17.257 -0.0637  0.8478  0.2046
 4535SOL    HW125238   2.513   1.294  17.297 -0.9695  2.4648 -1.4810
 4535SOL    HW225239   2.618   1.392  17.282 -3.1942  1.9600 -1.4273
 4536SOL     OW25240   1.782   3.985   7.159 -0.1449 -0.3649 -0.2328
 4536SOL    HW125241   1.724   3.909   7.166 -2.0644  1.2169  1.0475
 4536SOL    HW225242   1.850   3.945   7.105 -0.5968 -0.6662 -0.5786
 4537SOL     OW25243   0.730   0.619   7.715  0.9848  0.3662  0.0981
 4537SOL    HW125244   0.704   0.699   7.670  1.0473 -0.3233 -1.1563
 4537SOL    HW225245   0.718   0.657   7.802  0.4334 -0.3125  0.3150
 4538SOL     OW25246   0.234   0.446   5.911 -0.4258 -0.1350 -0.3657
 4538SOL    HW125247   0.243   0.505   5.986  1.3873 -0.6676 -0.1529
 4538SOL    HW225248   0.245   0.502   5.834  0.4471 -1.2892 -1.0792
 4539SOL     OW25249   0.753   3.746   5.349 -0.0605  0.3264 -0.4349
 4539SOL    HW125250   0.699   3.809   5.302 -3.2045  0.1364  2.9733
 4539SOL    HW225251   0.756   3.778   5.439 -2.0362 -0.0546 -0.2486
 4540SOL     OW25252   4.723   4.122   6.303 -0.0712  0.4257 -0.2043
 4540SOL    HW125253   4.645   4.067   6.310  0.5758 -0.6253 -1.2292
 4540SOL    HW225254   0.036   4.063   6.246  1.1769 -1.9605  3.3846
 4541SOL     OW25255   0.296   4.436   2.353 -0.0295 -0.1460  0.4326
 4541SOL    HW125256   0.315   4.511   2.296 -0.4109  0.1199  0.6521
 4541SOL    HW225257   0.304   4.361   2.294 -0.2164 -0.2025  0.4809
 4542SOL     OW25258   4.307   1.382   3.600 -0.0602 -0.0878 -0.0257
 4542SOL    HW125259   4.286   1.324   3.527 -2.3345  0.8546 -0.1245
 4542SOL    HW225260   4.229   1.379   3.656  0.2098  0.6633  0.3940
 4543SOL     OW25261   0.872   3.852  13.244  0.6598  0.4578 -0.6805
 4543SOL    HW125262   0.862   3.768  13.200  0.4487  0.3591 -0.4445
 4543SOL    HW225263   0.926   3.830  13.320  0.5296  1.6497 -0.2364
 4544SOL     OW25264   3.347   0.934   7.878 -0.3961 -0.2850 -0.6321
 4544SOL    HW125265   3.363   0.978   7.795 -0.1097 -0.1846 -0.5229
 4544SOL    HW225266   3.267   0.885   7.858  0.7690 -2.0288 -1.0072
 4545SOL     OW25267   0.780   3.687   5.969 -0.2500 -0.6044 -0.3132
 4545SOL    HW125268   0.752   3.777   5.986  0.7046 -0.3905  0.1227
 4545SOL    HW225269   0.868   3.684   6.007 -0.7083 -1.0235  0.7223
 4546SOL     OW25270   1.310   0.694   8.447  0.1931 -0.2023 -0.1464
 4546SOL    HW125271   1.289   0.607   8.412  1.9058 -0.4285 -0.6263
 4546SOL    HW225272   1.383   0.715   8.388 -0.8309  0.2196 -1.2575
 4547SOL     OW25273   0.967   4.343   2.957 -0.4519  0.2502 -0.0267
 4547SOL    HW125274   0.979   4.377   2.868  1.3738  2.2529  0.9866
 4547SOL    HW225275   0.988   4.250   2.953 -0.1467  0.2601  1.3500
 4548SOL     OW25276   0.635   0.581   2.807 -0.4853 -0.3943 -0.1894
 4548SOL    HW125277   0.620   0.539   2.722 -0.2019 -2.9770  1.0276
 4548SOL    HW225278   0.568   0.541   2.863 -0.0033 -0.3304  0.4388
 4549SOL     OW25279   4.547   2.160   1.083  0.5660 -0.1666 -0.2995
 4549SOL    HW125280   4.534   2.246   1.044 -1.4851 -1.1312 -1.6829
 4549SOL    HW225281   4.497   2.175   1.163 -1.8432 -1.5171 -1.5482
 4550SOL     OW25282   2.874   1.513   3.515 -0.1166 -0.2718  0.7376
 4550SOL    HW125283   2.799   1.535   3.460 -0.1279  2.9021  2.0239
 4550SOL    HW225284   2.889   1.424   3.483  1.2516 -0.1820  1.1440
 4551SOL     OW25285   2.805   1.385   2.582 -0.0504  0.2678  0.0879
 4551SOL    HW125286   2.812   1.461   2.524  0.6999  0.8481  0.9493
 4551SOL    HW225287   2.744   1.424   2.645  1.3203 -1.2155  2.3174
 4552SOL     OW25288   2.232   3.738  15.830 -0.2465 -0.7865  0.8333
 4552SOL    HW125289   2.170   3.731  15.903 -1.3186 -0.4219 -0.0526
 4552SOL    HW225290   2.231   3.833  15.824 -2.1086 -0.7638  1.4699
 4553SOL     OW25291   1.115   0.468   7.757 -0.0222  0.1910  0.3831
 4553SOL    HW125292   1.099   0.377   7.779  1.7893 -0.3735 -0.6720
 4553SOL    HW225293   1.170   0.485   7.834 -0.1704  0.2958  0.4674
 4554SOL     OW25294   0.201   0.317   9.501  0.4428 -0.8946 -0.1491
 4554SOL    HW125295   0.203   0.404   9.461 -2.1047 -0.8991 -0.2981
 4554SOL    HW225296   0.287   0.302   9.541  1.1064  1.2661 -0.7721
 4555SOL     OW25297   0.230   0.758   0.317  0.2609 -0.3486 -0.6554
 4555SOL    HW125298   0.232   0.714   0.402 -3.1415 -0.3283 -0.5966
 4555SOL    HW225299   0.194   0.844   0.341 -1.2510 -1.5584  1.4420
 4556SOL     OW25300   2.277   1.553   6.302  0.1451 -0.2947 -0.3467
 4556SOL    HW125301   2.341   1.592   6.362 -0.0299 -1.8765  0.8650
 4556SOL    HW225302   2.240   1.634   6.265 -1.1498 -0.2721  1.0373
 4557SOL     OW25303   3.266   1.568  10.720 -0.4536 -0.8939  0.7530
 4557SOL    HW125304   3.347   1.617  10.732 -0.4583 -0.5816 -0.5320
 4557SOL    HW225305   3.289   1.518  10.642 -0.2630 -0.0297  0.2687
 4558SOL     OW25306   0.786   3.950   4.351 -0.1595  0.5024  0.2391
 4558SOL    HW125307   0.693   3.968   4.356 -0.1783  0.0618  1.4986
 4558SOL    HW225308   0.803   3.962   4.258 -1.7228 -2.2011 -0.3957
 4559SOL     OW25309   1.700   0.495   4.467 -0.0241  0.4313 -0.2274
 4559SOL    HW125310   1.616   0.459   4.496 -0.0922  2.0421  1.5680
 4559SOL    HW225311   1.688   0.478   4.373  0.2856  2.6672 -0.6694
 4560SOL     OW25312   2.247   4.074  15.049  0.0358 -0.1807 -0.0843
 4560SOL    HW125313   2.162   4.112  15.028 -0.9102 -2.7173 -0.7786
 4560SOL    HW225314   2.234   3.988  15.010  1.2486 -0.4147  0.0245
 4561SOL     OW25315   3.358   3.666   5.073  0.5841  0.0133 -0.0789
 4561SOL    HW125316   3.319   3.746   5.037 -0.7937 -1.0976 -1.0512
 4561SOL    HW225317   3.325   3.610   5.002 -2.0059 -1.2638  2.1420
 4562SOL     OW25318   1.468   2.286  15.272  0.5119 -0.4592 -0.0079
 4562SOL    HW125319   1.425   2.279  15.187 -1.5126  1.1140  0.8973
 4562SOL    HW225320   1.521   2.206  15.271 -0.3981 -1.0425 -1.8823
 4563SOL     OW25321   0.662   0.505   8.361  0.4418  0.4624 -0.6277
 4563SOL    HW125322   0.733   0.444   8.339  2.1031  2.6984 -1.5549
 4563SOL    HW225323   0.680   0.528   8.452 -0.4783 -2.4087  0.2632
 4564SOL     OW25324   3.328   3.101   0.581  0.0092  0.0927 -0.1118
 4564SOL    HW125325   3.262   3.127   0.645  2.9175  1.6289  2.2815
 4564SOL    HW225326   3.304   3.014   0.551 -2.9978  0.9333 -0.0728
 4565SOL     OW25327   3.547   2.404   6.626 -0.5196 -0.1070  0.0076
 4565SOL    HW125328   3.486   2.448   6.567 -0.6748 -1.0981 -0.5751
 4565SOL    HW225329   3.631   2.449   6.621  1.2967 -3.1651  2.1181
 4566SOL     OW25330   0.631   4.454   3.537 -0.5273 -0.1784  0.7177
 4566SOL    HW125331   0.546   4.495   3.521  0.8196  1.0982 -3.1795
 4566SOL    HW225332   0.682   4.519   3.585 -0.9681  0.2773  0.5723
 4567SOL     OW25333   4.431   1.401   2.540  0.0940  0.9198  0.7409
 4567SOL    HW125334   4.404   1.449   2.618 -1.4849 -1.3501  1.5975
 4567SOL    HW225335   4.365   1.333   2.526  0.4911  0.2268  2.2524
 4568SOL     OW25336   2.723   0.782  12.465  0.0089  0.3062  0.0736
 4568SOL    HW125337   2.668   0.703  12.469  0.3919  0.0645  0.5486
 4568SOL    HW225338   2.801   0.751  12.510 -0.5283  0.3748  1.0444
 4569SOL     OW25339   0.617   3.299  12.305  0.2425  0.3045 -0.2221
 4569SOL    HW125340   0.535   3.345  12.322 -0.5322 -1.8826  2.0546
 4569SOL    HW225341   0.586   3.224  12.255  1.7227 -1.7349  1.8861
 4570SOL     OW25342   2.041   2.661   6.359 -0.0203  0.2326 -0.3009
 4570SOL    HW125343   2.118   2.718   6.361  0.4573 -0.5005  2.4915
 4570SOL    HW225344   2.073   2.586   6.409 -1.0040  0.1271  0.1736
 4571SOL     OW25345   4.628   4.536  12.942  1.0243 -0.7016  0.2390
 4571SOL    HW125346   4.594   4.582  12.866  1.4211 -2.0087 -0.7356
 4571SOL    HW225347   4.697   4.587  12.985 -1.1365  1.8680  0.6358
 4572SOL     OW25348   4.416   3.372   3.155  0.3530 -0.5490  0.1874
 4572SOL    HW125349   4.476   3.410   3.092 -1.5452  1.0091 -0.6445
 4572SOL    HW225350   4.471   3.304   3.196  0.7718 -0.5769 -0.4273
 4573SOL     OW25351   3.426   4.475   4.629  0.1000  0.6489 -0.1653
 4573SOL    HW125352   3.398   4.403   4.572 -1.2956  0.2031  1.1085
 4573SOL    HW225353   3.406   4.556   4.582 -1.2170  1.4136  1.7538
 4574SOL     OW25354   3.012   3.609   7.012  0.1188 -0.3859 -0.5344
 4574SOL    HW125355   3.048   3.526   6.981 -3.1115 -2.3821  1.1027
 4574SOL    HW225356   3.029   3.657   6.931  1.4537 -1.3190 -0.8092
 4575SOL     OW25357   1.184   2.715   8.078 -0.3807  0.4667 -0.4969
 4575SOL    HW125358   1.092   2.703   8.099 -0.2600 -1.0938 -0.8410
 4575SOL    HW225359   1.180   2.805   8.047 -2.6935 -0.2063 -2.1388
 4576SOL     OW25360   2.710   0.067   8.521 -0.0445 -0.2439 -0.3277
 4576SOL    HW125361   2.743   0.115   8.597 -0.5532 -2.1809  1.1338
 4576SOL    HW225362   2.662   0.136   8.476 -1.1364 -0.0472  1.1257
 4577SOL     OW25363   1.810   3.606   7.056  0.0146  0.3609 -0.1047
 4577SOL    HW125364   1.751   3.655   7.114  0.5021 -1.1139  1.6306
 4577SOL    HW225365   1.815   3.520   7.098  0.8605  1.8471  2.8215
 4578SOL     OW25366   0.175   3.641   5.707  0.2318  0.0256  0.7306
 4578SOL    HW125367   0.180   3.640   5.803  2.6648  2.0800  0.6210
 4578SOL    HW225368   0.117   3.570   5.681  0.0342  0.6643 -0.5612
 4579SOL     OW25369   0.442   1.825   2.209 -0.7788  0.3286 -0.4537
 4579SOL    HW125370   0.458   1.764   2.137 -0.5501 -0.6459  0.4294
 4579SOL    HW225371   0.346   1.817   2.212 -0.6802 -1.7144 -1.8697
 4580SOL     OW25372   2.675   4.155   1.052 -0.2807 -0.6848 -0.1724
 4580SOL    HW125373   2.691   4.172   0.959  1.0363  0.0549  0.1918
 4580SOL    HW225374   2.585   4.124   1.044 -0.4007  0.0304 -1.5210
 4581SOL     OW25375   3.186   4.656   2.734 -0.1083 -0.0672 -0.2287
 4581SOL    HW125376   3.109   4.602   2.753 -0.9328  0.7268 -1.3708
 4581SOL    HW225377   3.171   0.005   2.771 -3.6273 -1.3514  1.3129
 4582SOL     OW25378   2.464   3.940   2.253  0.9471  0.7644  0.0879
 4582SOL    HW125379   2.436   4.009   2.193 -2.6067  0.2914  1.2249
 4582SOL    HW225380   2.385   3.909   2.297  0.6113  0.2775 -0.8482
 4583SOL     OW25381   1.009   1.912   6.752  0.2370  0.1543  0.2635
 4583SOL    HW125382   0.948   1.851   6.711  0.8210  0.5673 -1.2350
 4583SOL    HW225383   1.081   1.852   6.774  0.5939  1.1412  1.8066
 4584SOL     OW25384   1.565   3.835   9.454  0.2427 -0.5857 -0.0547
 4584SOL    HW125385   1.610   3.773   9.397 -0.6600 -1.1241 -0.1869
 4584SOL    HW225386   1.488   3.858   9.402  1.7387  2.6109 -0.8109
 4585SOL     OW25387   4.022   4.496  17.534 -0.2933  0.4614  0.1144
 4585SOL    HW125388   3.995   4.425  17.477 -0.2267 -0.1314  0.8320
 4585SOL    HW225389   3.960   4.564  17.505 -1.8073 -2.0393 -2.5349
 4586SOL     OW25390   4.638   1.990   9.549 -0.3477 -0.2166  0.0345
 4586SOL    HW125391   4.546   1.979   9.571 -0.3747 -0.5432 -0.2331
 4586SOL    HW225392   4.643   2.084   9.532  0.3448 -0.3751 -0.6611
 4587SOL     OW25393   0.964   0.477   9.365  0.1153  0.3836 -0.2966
 4587SOL    HW125394   0.898   0.451   9.430  1.4201 -1.5421  0.2595
 4587SOL    HW225395   0.977   0.569   9.390 -0.8131  0.3456  0.3360
 4588SOL     OW25396   4.510   1.833   5.537 -0.2280  0.4910  0.1285
 4588SOL    HW125397   4.597   1.793   5.537  0.0706  1.1636 -1.8285
 4588SOL    HW225398   4.457   1.762   5.501  1.0095 -0.0480 -0.6135
 4589SOL     OW25399   2.669   1.081   7.940  0.4021 -0.4058 -0.1919
 4589SOL    HW125400   2.593   1.088   7.881 -0.5706 -1.5005  0.9494
 4589SOL    HW225401   2.746   1.078   7.882 -0.5068  0.4091 -1.4670
 4590SOL     OW25402   4.541   2.568   7.302 -0.2342 -0.0946  0.1844
 4590SOL    HW125403   4.486   2.642   7.327 -0.0074  0.2531 -0.3591
 4590SOL    HW225404   4.614   2.615   7.262 -0.8815  0.8277  0.0702
 4591SOL     OW25405   2.802   0.322  15.284  0.3993  0.0554  0.0077
 4591SOL    HW125406   2.722   0.322  15.336  0.7131 -0.4063  0.4955
 4591SOL    HW225407   2.814   0.415  15.266  0.3758  0.3197  1.3923
 4592SOL     OW25408   1.085   3.069   2.355  0.4100  0.6100  0.0476
 4592SOL    HW125409   1.146   3.025   2.296 -0.7155  0.7321 -1.2027
 4592SOL    HW225410   1.134   3.056   2.437  1.4109  0.3829 -0.5935
 4593SOL     OW25411   0.192   2.882   1.396  0.3450 -0.7779 -0.4076
 4593SOL    HW125412   0.198   2.854   1.487  1.1576 -0.4458 -0.3583
 4593SOL    HW225413   0.097   2.884   1.388  0.3569  0.1912 -0.2443
 4594SOL     OW25414   1.089   3.719  16.546 -0.2897  0.1671  0.2886
 4594SOL    HW125415   1.074   3.703  16.452 -0.9324 -0.4259  0.4923
 4594SOL    HW225416   1.128   3.805  16.535 -1.8066  0.8252  0.1092
 4595SOL     OW25417   3.780   2.263   7.433 -0.4280  0.1556  0.1540
 4595SOL    HW125418   3.750   2.179   7.400 -0.2671  0.2206 -0.1566
 4595SOL    HW225419   3.790   2.322   7.358 -0.3383  0.3247  0.2997
 4596SOL     OW25420   4.660   3.753  12.524  0.4389  0.1300  0.0721
 4596SOL    HW125421   0.010   3.790  12.512  0.8019 -1.3224 -1.6706
 4596SOL    HW225422   4.665   3.742  12.619 -1.2901  0.0370  0.1433
 4597SOL     OW25423   1.857   4.635   4.574  0.4214 -0.1107 -0.2827
 4597SOL    HW125424   1.925   4.567   4.571 -0.0833 -0.6036 -0.4305
 4597SOL    HW225425   1.868   4.677   4.489 -1.2231  0.1242 -0.3661
 4598SOL     OW25426   3.477   0.263  17.654 -0.1403  0.1162 -0.2980
 4598SOL    HW125427   3.494   0.338  17.596  1.7160  0.6390  0.9115
 4598SOL    HW225428   3.382   0.251  17.647 -0.2431  1.1790 -0.8192
 4599SOL     OW25429   2.788   2.671  13.620 -0.1931  1.0520  0.0995
 4599SOL    HW125430   2.767   2.738  13.555 -1.3808 -0.7528 -1.3820
 4599SOL    HW225431   2.797   2.596  13.562 -0.2218  1.8315 -0.9177
 4600SOL     OW25432   2.439   0.680  13.913  0.0574 -0.7866  0.4498
 4600SOL    HW125433   2.350   0.713  13.905 -0.1781 -1.9193 -1.8388
 4600SOL    HW225434   2.425   0.585  13.908  0.5858 -0.7932 -0.9773
 4601SOL     OW25435   2.070   0.474   4.999  0.0305 -0.0756 -0.2151
 4601SOL    HW125436   2.080   0.476   4.904 -0.0084  1.4441 -0.2016
 4601SOL    HW225437   2.157   0.443   5.022 -0.3105 -0.8940 -0.0472
 4602SOL     OW25438   3.874   0.852   2.226 -0.4730 -0.1604  0.1856
 4602SOL    HW125439   3.931   0.923   2.198  0.5475 -0.6393  1.0616
 4602SOL    HW225440   3.805   0.886   2.283  2.6465  2.6091  2.2774
 4603SOL     OW25441   0.381   0.976   4.843 -0.3923  0.4636 -0.2209
 4603SOL    HW125442   0.473   0.996   4.825 -0.6475  0.8035 -1.1771
 4603SOL    HW225443   0.374   0.974   4.939 -1.6483 -0.0182 -0.3182
 4604SOL     OW25444   1.015   0.338   7.443  0.0910 -0.2918 -0.4279
 4604SOL    HW125445   0.968   0.255   7.431 -1.1462  0.6858 -2.2726
 4604SOL    HW225446   0.977   0.360   7.528  0.0401 -0.3421 -0.4376
 4605SOL     OW25447   4.693   2.404   7.471 -0.4085 -0.2752  0.3675
 4605SOL    HW125448   4.637   2.421   7.396  0.0725 -0.5234 -0.0480
 4605SOL    HW225449   0.020   2.348   7.428 -3.1711 -1.8063 -1.7942
 4606SOL     OW25450   4.310   0.262   2.123 -0.1809 -0.4948  0.4674
 4606SOL    HW125451   4.316   0.271   2.028 -0.3990  0.6800  0.5712
 4606SOL    HW225452   4.247   0.328   2.151  0.0564  0.9087 -2.2965
 4607SOL     OW25453   0.631   2.930  13.031 -0.1034 -0.0364 -0.0962
 4607SOL    HW125454   0.600   2.840  13.029  0.1937 -0.1332 -0.2443
 4607SOL    HW225455   0.558   2.991  13.015 -0.7775 -0.6734  0.5208
 4608SOL     OW25456   2.674   0.428   8.258 -0.1127 -0.1201 -0.0715
 4608SOL    HW125457   2.589   0.473   8.253 -0.7021 -1.3549 -1.0739
 4608SOL    HW225458   2.662   0.365   8.329 -1.2011  1.7469  1.4209
 4609SOL     OW25459   2.148   2.881  11.891  0.2120  0.3605  0.2337
 4609SOL    HW125460   2.123   2.969  11.917 -1.1431  0.0616 -0.0672
 4609SOL    HW225461   2.239   2.879  11.863  0.7629 -1.9055  2.1247
 4610SOL     OW25462   3.162   0.989  13.476 -0.0362  0.1951 -0.1844
 4610SOL    HW125463   3.186   0.911  13.426 -0.4495  0.5828 -0.9904
 4610SOL    HW225464   3.069   0.999  13.457  0.2623  2.9851 -0.2027
 4611SOL     OW25465   2.441   0.022   9.215 -0.5150 -0.1604  0.1631
 4611SOL    HW125466   2.520   0.051   9.262 -1.3454  0.4345  1.2026
 4611SOL    HW225467   2.471   0.028   9.125 -1.7344 -1.1736 -0.3073
 4612SOL     OW25468   0.648   0.553   8.667 -0.5582 -0.0050 -0.3417
 4612SOL    HW125469   0.653   0.457   8.670  2.1899  0.1638  0.8558
 4612SOL    HW225470   0.661   0.572   8.760  0.7745 -0.0710 -0.5046
 4613SOL     OW25471   1.652   0.854  13.646  0.2057  0.2300 -0.3528
 4613SOL    HW125472   1.600   0.774  13.636  1.3783 -0.7765  1.5170
 4613SOL    HW225473   1.659   0.853  13.742 -2.5963  0.7217 -0.1617
 4614SOL     OW25474   4.590   3.746   3.080  0.4221 -0.0636 -1.3158
 4614SOL    HW125475   4.524   3.806   3.114  0.1995 -1.4490  0.6947
 4614SOL    HW225476   4.534   3.703   3.016 -2.8742  2.6326 -0.2510
 4615SOL     OW25477   2.999   1.199  10.608 -0.5903  0.2704 -0.3029
 4615SOL    HW125478   3.035   1.176  10.522  1.1309  0.9723  0.2306
 4615SOL    HW225479   2.967   1.287  10.591 -0.7255  0.2035 -0.3996
 4616SOL     OW25480   1.429   3.738   2.553  0.5038 -0.1318 -0.2173
 4616SOL    HW125481   1.359   3.774   2.607 -0.0018 -2.6133  0.7720
 4616SOL    HW225482   1.373   3.717   2.479 -1.0198 -1.5593  1.3397
 4617SOL     OW25483   0.801   4.231  15.116  0.0090 -0.3266 -0.8266
 4617SOL    HW125484   0.812   4.141  15.146 -0.3480  0.3622  1.3156
 4617SOL    HW225485   0.813   4.272  15.201  2.1840 -0.8576 -0.8688
 4618SOL     OW25486   1.496   4.252   8.027 -0.1418 -0.1618  0.5281
 4618SOL    HW125487   1.580   4.208   8.039 -0.6198 -1.2306 -0.0311
 4618SOL    HW225488   1.472   4.257   8.119 -0.1073  0.8963  0.4856
 4619SOL     OW25489   1.939   0.523   7.268  0.2411 -0.0871  0.6470
 4619SOL    HW125490   1.956   0.452   7.207 -0.3220  0.8646 -0.6206
 4619SOL    HW225491   1.846   0.534   7.247  0.1978 -1.2704  0.2293
 4620SOL     OW25492   1.585   0.153   2.665  0.1578  0.2012  0.3094
 4620SOL    HW125493   1.650   0.165   2.735 -0.8054  1.7842  0.9224
 4620SOL    HW225494   1.539   0.075   2.697 -3.6906  2.3845  0.0840
 4621SOL     OW25495   0.371   2.573   6.954 -0.0416 -0.3793 -0.1947
 4621SOL    HW125496   0.302   2.538   6.897  0.3835 -1.0942 -0.2650
 4621SOL    HW225497   0.367   2.666   6.929  0.5343 -0.2019  0.3769
 4622SOL     OW25498   3.601   4.106   7.780  0.3327  0.7088  0.6246
 4622SOL    HW125499   3.537   4.101   7.710 -0.1916  1.8309  1.0331
 4622SOL    HW225500   3.617   4.017   7.812 -1.2426 -0.0968 -0.8689
 4623SOL     OW25501   0.143   2.237   7.320 -0.2119 -0.5559  0.3329
 4623SOL    HW125502   0.185   2.321   7.303  1.8847 -1.8372 -0.8102
 4623SOL    HW225503   0.216   2.175   7.314  1.2215  1.1939 -0.5258
 4624SOL     OW25504   2.260   0.193   5.304  0.1642 -0.3238  0.8960
 4624SOL    HW125505   2.268   0.169   5.211 -2.0501 -0.7661  0.8290
 4624SOL    HW225506   2.189   0.139   5.338 -0.6243 -1.2138 -2.0929
 4625SOL     OW25507   0.833   4.671   7.799  0.1167 -0.0896  0.4011
 4625SOL    HW125508   0.922   4.706   7.787 -0.0711  0.7859  1.5511
 4625SOL    HW225509   0.850   4.638   7.888  1.8459 -2.8088 -0.9506
 4626SOL     OW25510   3.033   3.323  11.033  0.2168 -0.2026 -0.0503
 4626SOL    HW125511   3.032   3.233  11.067 -0.5223 -0.5525 -0.9933
 4626SOL    HW225512   3.032   3.364  11.119 -0.8528  1.1629 -0.7166
 4627SOL     OW25513   3.530   3.773  17.429  0.1886 -0.0121 -0.6965
 4627SOL    HW125514   3.476   3.852  17.436 -2.0341 -1.6460  0.4712
 4627SOL    HW225515   3.465   3.712  17.463  1.3715  0.0996  1.8007
 4628SOL     OW25516   4.573   0.760   1.516 -0.4303 -0.0942 -0.0810
 4628SOL    HW125517   4.572   0.845   1.560  1.4108  0.4188 -1.0360
 4628SOL    HW225518   4.629   0.776   1.440 -0.3447  0.0991  0.0225
 4629SOL     OW25519   1.491   2.449  17.328  0.3877  0.3918 -0.7266
 4629SOL    HW125520   1.460   2.521  17.274 -1.4468  0.8828  0.9680
 4629SOL    HW225521   1.435   2.375  17.304  0.1383  0.4548 -0.3474
 4630SOL     OW25522   4.647   4.614   5.419 -0.5555 -0.3160  0.3097
 4630SOL    HW125523   4.662   4.668   5.341  0.7028  0.1097  0.8503
 4630SOL    HW225524   4.623   4.530   5.380 -2.8406  1.3038 -1.7649
 4631SOL     OW25525   2.879   2.457  16.661  0.1634  0.1690 -0.3710
 4631SOL    HW125526   2.836   2.514  16.597  1.3662 -0.9320 -2.1365
 4631SOL    HW225527   2.958   2.433  16.613  0.8958  2.1954 -0.2081
 4632SOL     OW25528   2.536   3.112  17.170 -0.5323  0.2695  0.1420
 4632SOL    HW125529   2.452   3.091  17.211 -1.1896 -0.1761 -1.4259
 4632SOL    HW225530   2.570   3.185  17.222  0.0211 -0.4093  0.7232
 4633SOL     OW25531   3.977   0.117  12.067 -0.2420 -0.1720 -0.0492
 4633SOL    HW125532   4.073   0.118  12.067 -0.1673 -3.9024 -3.3720
 4633SOL    HW225533   3.963   0.023  12.066 -1.6519  0.0351 -2.0797
 4634SOL     OW25534   2.311   4.418   7.956  0.4814 -0.0312 -0.3373
 4634SOL    HW125535   2.249   4.456   8.017 -2.8651  0.4773 -4.0253
 4634SOL    HW225536   2.326   4.331   7.994 -1.2569 -0.6978 -1.1730
 4635SOL     OW25537   2.075   3.492   5.611  0.3516  0.1366  0.5192
 4635SOL    HW125538   2.157   3.455   5.645  0.6275  0.4022  0.1412
 4635SOL    HW225539   2.034   3.500   5.697 -1.8070 -1.1829 -0.3769
 4636SOL     OW25540   4.205   4.535   7.071  0.1435  0.2265 -0.4511
 4636SOL    HW125541   4.199   4.583   6.988 -2.1457  0.6811 -0.0073
 4636SOL    HW225542   4.139   4.468   7.052  1.4571 -1.7111  1.9254
 4637SOL     OW25543   2.580   0.199   2.327  0.9205  0.0867  0.3427
 4637SOL    HW125544   2.556   0.233   2.413 -0.7118  1.6553 -0.7396
 4637SOL    HW225545   2.599   0.275   2.272 -1.6282  0.8758  0.5328
 4638SOL     OW25546   4.390   1.519   0.502  0.4707 -0.4158 -0.1352
 4638SOL    HW125547   4.429   1.585   0.445 -2.7818  1.7794  0.2234
 4638SOL    HW225548   4.298   1.523   0.475  0.2646 -0.8509  0.4978
 4639SOL     OW25549   0.017   1.616   4.417  0.1440 -0.6186 -0.1184
 4639SOL    HW125550   0.034   1.564   4.339  0.5923  1.9008 -1.6899
 4639SOL    HW225551   4.677   1.573   4.451 -1.1784 -0.2958 -2.8231
 4640SOL     OW25552   0.907   2.921   7.519  0.8491 -0.2723 -0.0136
 4640SOL    HW125553   0.926   2.861   7.448 -0.9151 -0.4433 -0.3455
 4640SOL    HW225554   0.831   2.883   7.564 -1.4370  1.4897 -2.3831
 4641SOL     OW25555   4.437   3.557   2.887  0.6192  0.3786 -0.4751
 4641SOL    HW125556   4.410   3.466   2.872  0.1646  0.6776 -1.4739
 4641SOL    HW225557   4.376   3.584   2.956  0.9587 -2.4940  0.9229
 4642SOL     OW25558   0.835   3.377   8.612  0.4799 -0.2576 -0.0612
 4642SOL    HW125559   0.813   3.409   8.524 -0.6524 -0.9597 -0.0329
 4642SOL    HW225560   0.866   3.288   8.591 -1.7555 -1.2837  0.9459
 4643SOL     OW25561   1.583   3.257   6.823  0.0789  0.0324 -0.4824
 4643SOL    HW125562   1.525   3.193   6.863  0.5234  0.7292  1.2700
 4643SOL    HW225563   1.524   3.311   6.770  0.2206 -0.5732 -1.2567
 4644SOL     OW25564   0.956   4.010  10.414 -0.4671  0.4595  0.2697
 4644SOL    HW125565   0.905   4.011  10.333 -1.0691  1.1772  0.6517
 4644SOL    HW225566   1.033   4.061  10.391 -0.6827  0.7265  0.1417
 4645SOL     OW25567   0.458   4.261   7.041 -0.2864  0.8937  0.2182
 4645SOL    HW125568   0.469   4.173   7.005  0.5594  0.8231  0.6591
 4645SOL    HW225569   0.515   4.245   7.116  1.1603 -1.3370 -1.3621
 4646SOL     OW25570   0.072   2.785   4.834  0.8332 -0.3070  0.1859
 4646SOL    HW125571   0.104   2.873   4.818  2.6537 -1.5050 -2.6509
 4646SOL    HW225572   0.123   2.732   4.774  0.6464 -1.6604  1.2187
 4647SOL     OW25573   2.718   4.268  10.333 -0.3467 -0.2715 -0.0185
 4647SOL    HW125574   2.660   4.307  10.267 -2.2929 -0.8553  1.3458
 4647SOL    HW225575   2.687   4.178  10.347 -1.0209 -0.5827 -3.4083
 4648SOL     OW25576   2.923   3.099   2.559  0.1024  0.1528 -0.6733
 4648SOL    HW125577   3.016   3.104   2.580  0.2334 -0.5590 -1.0881
 4648SOL    HW225578   2.874   3.099   2.641 -1.5845  0.0311 -1.6835
 4649SOL     OW25579   1.490   2.096   6.904 -0.5018  0.3129 -0.2902
 4649SOL    HW125580   1.402   2.096   6.942 -0.7571 -2.7139 -0.8314
 4649SOL    HW225581   1.491   2.000   6.909 -0.3956  0.1074 -4.4371
 4650SOL     OW25582   1.215   1.471   5.588  0.0003 -0.1491  0.0396
 4650SOL    HW125583   1.125   1.500   5.603  1.2797  2.8513  1.7950
 4650SOL    HW225584   1.220   1.404   5.519  2.3359  1.7169 -1.5989
 4651SOL     OW25585   2.668   3.737   4.753  0.1759 -0.3793  0.2782
 4651SOL    HW125586   2.608   3.666   4.774 -0.2070 -0.1771 -0.1297
 4651SOL    HW225587   2.736   3.728   4.819  0.4612  0.1716  0.0652
 4652SOL     OW25588   3.086   3.676   2.417  0.1211  0.1954  0.5230
 4652SOL    HW125589   3.112   3.716   2.334  2.2660  1.3493  1.7820
 4652SOL    HW225590   3.129   3.735   2.479  0.0291 -1.4006  2.1106
 4653SOL     OW25591   0.876   3.356   9.480  0.4945  0.5111  0.5626
 4653SOL    HW125592   0.902   3.292   9.545 -0.1263  0.5173  0.8199
 4653SOL    HW225593   0.890   3.315   9.395  1.4754 -0.6685  1.3048
 4654SOL     OW25594   2.421   3.595   2.822 -0.2649 -0.0290 -0.0368
 4654SOL    HW125595   2.474   3.563   2.749  1.1138 -1.3112  1.5310
 4654SOL    HW225596   2.366   3.651   2.767  0.5609  0.5538 -0.2659
 4655SOL     OW25597   2.123   3.620  13.364 -0.5498 -0.1490 -0.2527
 4655SOL    HW125598   2.089   3.685  13.426  0.9958  0.3002  0.1275
 4655SOL    HW225599   2.215   3.628  13.390 -0.8713 -1.0449  1.1684
 4656SOL     OW25600   2.790   1.754   7.930  0.1019 -0.4811 -1.0808
 4656SOL    HW125601   2.726   1.826   7.926  0.2262 -0.3791 -1.2194
 4656SOL    HW225602   2.729   1.682   7.945  0.4226 -0.9989 -2.3413
 4657SOL     OW25603   0.408   0.185   2.563 -0.3129  0.6460 -0.8174
 4657SOL    HW125604   0.478   0.119   2.560 -1.7188 -0.8283 -1.3233
 4657SOL    HW225605   0.406   0.206   2.656 -0.5079  0.9645 -0.8948
 4658SOL     OW25606   2.840   0.416   5.557 -0.1580  0.0642 -0.0050
 4658SOL    HW125607   2.806   0.505   5.545  0.0756  0.0274 -0.8970
 4658SOL    HW225608   2.759   0.371   5.576  0.7683 -1.0431  1.3090
 4659SOL     OW25609   2.610   0.923   3.228 -0.1053  0.0518  0.3023
 4659SOL    HW125610   2.593   0.906   3.321 -1.7439 -0.8288 -0.1664
 4659SOL    HW225611   2.636   0.833   3.212 -0.4760  0.2363 -1.3275
 4660SOL     OW25612   1.986   3.744  10.374 -0.3860  0.0738  0.1979
 4660SOL    HW125613   1.895   3.773  10.361 -0.4827 -0.2363  0.1754
 4660SOL    HW225614   1.985   3.664  10.426  2.4215 -0.2987 -0.3454
 4661SOL     OW25615   2.099   3.223   4.070 -0.1321 -0.3927 -0.5650
 4661SOL    HW125616   2.130   3.166   3.999  1.5281  0.5547 -0.6003
 4661SOL    HW225617   2.180   3.232   4.121 -0.4758 -1.9361  0.2645
 4662SOL     OW25618   0.210   0.057   7.527  0.2639 -0.3889  0.6091
 4662SOL    HW125619   0.158   0.029   7.453 -0.3380  1.6233  0.2659
 4662SOL    HW225620   0.239   4.713   7.567  0.4566  0.3733  2.0552
 4663SOL     OW25621   3.950   0.201  15.063  0.1984  0.1142  0.8586
 4663SOL    HW125622   3.856   0.215  15.055  0.0738  0.0195  2.1511
 4663SOL    HW225623   3.973   0.248  15.143  2.1100  0.5940  0.0300
 4664SOL     OW25624   1.621   4.737   4.975 -0.2052  0.0443 -0.0287
 4664SOL    HW125625   1.536   4.710   5.009 -0.0108  0.3283  0.6961
 4664SOL    HW225626   1.651   0.056   5.046 -1.2915  0.0586  0.4201
 4665SOL     OW25627   0.672   0.621   7.131 -0.2730  0.4592 -0.3533
 4665SOL    HW125628   0.605   0.554   7.124  0.5725 -0.4980  0.6460
 4665SOL    HW225629   0.738   0.575   7.184 -0.5046 -0.1963 -0.6368
 4666SOL     OW25630   3.920   1.593  11.571  0.9633  0.3567  0.3632
 4666SOL    HW125631   3.852   1.529  11.551 -0.0383  1.3943  0.4071
 4666SOL    HW225632   3.885   1.682  11.577  0.0294  0.0541 -0.6634
 4667SOL     OW25633   2.934   2.436  16.910  0.5040  0.0046 -0.4350
 4667SOL    HW125634   2.859   2.380  16.929  0.1019  0.8907  0.5952
 4667SOL    HW225635   2.918   2.446  16.816 -0.7236 -1.5299 -0.3734
 4668SOL     OW25636   2.139   4.481   3.233  0.2701 -0.2515  0.6871
 4668SOL    HW125637   2.113   4.472   3.141 -0.6136 -2.8309  1.1966
 4668SOL    HW225638   2.170   4.572   3.229 -1.8240  0.5270  1.9611
 4669SOL     OW25639   0.458   3.604  16.804  0.7254  0.1089 -0.2773
 4669SOL    HW125640   0.511   3.543  16.856  1.6247  0.3932 -0.8497
 4669SOL    HW225641   0.372   3.584  16.840  1.4946 -1.6358  0.6199
 4670SOL     OW25642   0.430   3.564   5.589  0.2138  0.2887  0.2582
 4670SOL    HW125643   0.357   3.580   5.649 -0.5596 -0.1292 -0.5866
 4670SOL    HW225644   0.504   3.589   5.645  0.6803  0.6528 -0.5221
 4671SOL     OW25645   3.068   3.212   8.203  0.1741 -0.3260  0.5228
 4671SOL    HW125646   3.008   3.154   8.250 -0.6640 -0.6224 -0.9210
 4671SOL    HW225647   3.068   3.156   8.125  0.6534  1.8102 -1.0178
 4672SOL     OW25648   1.789   2.938  17.707 -0.7894  0.1311  0.3278
 4672SOL    HW125649   1.695   2.950  17.691 -1.1312 -1.1380  1.3596
 4672SOL    HW225650   1.813   2.924  17.616  0.2967  0.3946  0.5766
 4673SOL     OW25651   1.583   0.938   3.653 -0.2156 -0.2595  0.0632
 4673SOL    HW125652   1.500   0.963   3.693  0.3845 -1.1507  1.9052
 4673SOL    HW225653   1.639   1.015   3.662 -0.2596 -0.2110 -0.0984
 4674SOL     OW25654   4.030   3.820   9.215  0.0905 -0.2290  0.1677
 4674SOL    HW125655   3.964   3.751   9.226 -0.1676 -0.2648 -1.5636
 4674SOL    HW225656   4.064   3.823   9.304 -0.6696 -3.2709  0.5668
 4675SOL     OW25657   2.206   0.214  14.920 -0.3200  0.6583  0.5551
 4675SOL    HW125658   2.181   0.248  14.834 -0.1880 -1.9004 -0.4827
 4675SOL    HW225659   2.205   0.302  14.958 -0.1020 -0.0463  2.1884
 4676SOL     OW25660   3.721   0.278   3.926 -0.6040 -0.2861  0.0731
 4676SOL    HW125661   3.719   0.293   4.020 -0.4436 -1.7683  0.3246
 4676SOL    HW225662   3.635   0.238   3.907 -0.1942 -1.1601  0.0351
 4677SOL     OW25663   1.631   4.006   4.006 -0.0981  0.1309  0.4272
 4677SOL    HW125664   1.594   4.052   4.081  0.6175  0.1974  0.7427
 4677SOL    HW225665   1.554   3.982   3.954  0.8024 -1.9599  0.0786
 4678SOL     OW25666   4.122   2.213   8.424 -0.4302 -0.6312 -0.4290
 4678SOL    HW125667   4.039   2.256   8.445 -0.6313 -0.8495 -0.7823
 4678SOL    HW225668   4.164   2.290   8.384  1.8830 -0.4568  2.3191
 4679SOL     OW25669   3.450   0.876  11.383 -0.4736 -0.0561 -0.0402
 4679SOL    HW125670   3.378   0.850  11.440  0.8180 -1.6363  0.9087
 4679SOL    HW225671   3.517   0.897  11.448  0.1912 -2.3598  0.0372
 4680SOL     OW25672   2.962   3.496   4.975  0.4019 -0.1753  0.4132
 4680SOL    HW125673   2.991   3.516   5.064 -0.4577  0.0714  0.6345
 4680SOL    HW225674   2.902   3.567   4.951 -0.6643 -1.6801 -1.3499
 4681SOL     OW25675   3.115   3.139   0.769 -0.2766  0.0533  0.1566
 4681SOL    HW125676   3.022   3.151   0.752 -0.2250 -0.3052 -0.3509
 4681SOL    HW225677   3.117   3.197   0.846  0.2298  1.8374 -1.2177
 4682SOL     OW25678   3.889   3.526   2.184  0.4381 -0.3363 -0.1273
 4682SOL    HW125679   3.956   3.458   2.182 -0.6335 -1.4355  1.5340
 4682SOL    HW225680   3.837   3.507   2.105  2.2884 -0.4611 -1.3127
 4683SOL     OW25681   4.220   1.715  10.724  0.2611  0.0444 -0.2382
 4683SOL    HW125682   4.264   1.695  10.807 -3.4250  0.7160  1.8847
 4683SOL    HW225683   4.232   1.633  10.675 -2.4913 -0.1045 -0.7102
 4684SOL     OW25684   3.633   0.959  14.342  0.0568 -0.2058  0.3394
 4684SOL    HW125685   3.557   0.914  14.306  0.0429  1.3915 -1.6524
 4684SOL    HW225686   3.602   0.974  14.431  2.4671 -0.2570  1.1803
 4685SOL     OW25687   2.387   0.298   3.531 -0.5457  0.1963  0.1325
 4685SOL    HW125688   2.360   0.343   3.610 -0.5544  0.6135 -0.1064
 4685SOL    HW225689   2.439   0.367   3.488  0.4448 -2.1746 -2.4855
 4686SOL     OW25690   3.546   0.044   7.149 -0.2028  0.0342 -0.9006
 4686SOL    HW125691   3.516   0.133   7.128  1.0056  0.3961 -1.1281
 4686SOL    HW225692   3.529   0.044   7.243  0.4503 -1.5134 -0.7968
 4687SOL     OW25693   1.648   1.569   2.127 -0.6472  1.0185 -0.4131
 4687SOL    HW125694   1.627   1.488   2.080 -1.6089  1.4843 -0.7969
 4687SOL    HW225695   1.565   1.570   2.176 -1.5104 -1.0954 -1.8428
 4688SOL     OW25696   4.735   4.487  17.541  0.3960 -0.3586 -0.2295
 4688SOL    HW125697   0.023   4.412  17.595 -1.6545 -1.2279 -0.4363
 4688SOL    HW225698   0.067   4.550  17.557  0.9411 -0.7004 -1.2755
 4689SOL     OW25699   4.043   4.159   2.694 -0.4819  0.4340 -0.1642
 4689SOL    HW125700   4.045   4.144   2.600  1.2420 -0.6289  0.0356
 4689SOL    HW225701   4.057   4.067   2.714  0.5617  0.3201 -1.4473
 4690SOL     OW25702   4.250   3.067   5.548 -0.3316 -0.0721  0.2167
 4690SOL    HW125703   4.201   2.987   5.529  1.4395 -0.5906 -2.1402
 4690SOL    HW225704   4.336   3.028   5.562 -0.1530  0.3232  0.2347
 4691SOL     OW25705   1.143   0.255  10.771  0.3777  0.3274 -0.1629
 4691SOL    HW125706   1.195   0.188  10.726 -1.4525 -1.0598 -0.2022
 4691SOL    HW225707   1.124   0.321  10.705 -1.4973 -0.8714 -0.8277
 4692SOL     OW25708   3.468   4.630   7.732 -0.2603  0.0558 -0.0187
 4692SOL    HW125709   3.477   4.538   7.756 -0.2015 -0.3915 -1.7303
 4692SOL    HW225710   3.550   4.645   7.684 -0.2358 -1.2286 -0.3831
 4693SOL     OW25711   3.595   1.233  14.530  0.3692  0.3556 -0.3671
 4693SOL    HW125712   3.660   1.198  14.591 -0.1578 -0.9031 -0.5360
 4693SOL    HW225713   3.526   1.283  14.573 -0.0689  0.8605 -1.6444
 4694SOL     OW25714   3.004   2.822  14.540 -0.2833  0.6613  0.4048
 4694SOL    HW125715   3.005   2.885  14.467  1.3938  0.2673  0.0973
 4694SOL    HW225716   2.930   2.762  14.533 -0.7279  1.2204  0.2675
 4695SOL     OW25717   2.714   1.376  12.061 -0.5007 -0.4914 -0.2408
 4695SOL    HW125718   2.723   1.309  12.129 -0.3710  0.7580  0.9850
 4695SOL    HW225719   2.807   1.388  12.041 -0.9092 -0.1114 -1.9555
 4696SOL     OW25720   0.595   0.401   3.588 -0.5110 -0.4298  0.6851
 4696SOL    HW125721   0.641   0.475   3.548 -2.2946  0.8146  0.9086
 4696SOL    HW225722   0.551   0.362   3.512 -1.3028 -1.8386  1.8757
 4697SOL     OW25723   1.090   3.755   1.992  0.2091  0.3026  0.2757
 4697SOL    HW125724   1.056   3.844   1.998  2.0626  0.9224  1.6887
 4697SOL    HW225725   1.161   3.763   2.056  1.5705  1.7922 -1.4117
 4698SOL     OW25726   2.580   3.510  14.218 -0.4288 -0.1526  0.1907
 4698SOL    HW125727   2.507   3.463  14.259 -0.4790  0.2737  0.5883
 4698SOL    HW225728   2.579   3.584  14.279 -1.7107 -0.3592  0.4071
 4699SOL     OW25729   2.494   0.939  17.319  0.1436  0.4037 -0.0180
 4699SOL    HW125730   2.537   0.965  17.400  0.3005  1.4246 -0.4271
 4699SOL    HW225731   2.553   0.865  17.307 -0.0027 -0.0192  1.9495
 4700SOL     OW25732   3.446   3.538   9.615  0.4471  0.2265  0.3538
 4700SOL    HW125733   3.421   3.480   9.687  0.9720 -0.6388 -0.1593
 4700SOL    HW225734   3.522   3.495   9.575  0.9868  0.0977  1.4904
 4701SOL     OW25735   4.312   2.179  16.533  0.2451 -0.3010 -0.4116
 4701SOL    HW125736   4.374   2.154  16.602  1.2351  0.5618 -0.9788
 4701SOL    HW225737   4.350   2.263  16.506 -3.6435  1.4391 -0.4500
 4702SOL     OW25738   1.391   2.529   7.479  0.6392  0.4135  0.3295
 4702SOL    HW125739   1.462   2.523   7.542  0.6838  0.9701  0.3366
 4702SOL    HW225740   1.404   2.447   7.431 -4.6476  0.0263 -0.4320
 4703SOL     OW25741   2.304   2.803   3.582  0.0961 -0.5692  0.3091
 4703SOL    HW125742   2.252   2.870   3.626 -1.8789 -1.3396 -0.8158
 4703SOL    HW225743   2.305   2.722   3.633  0.8684 -0.4968  0.4080
 4704SOL     OW25744   4.080   3.706  13.480 -0.3489 -0.0240 -0.1485
 4704SOL    HW125745   4.065   3.613  13.467  0.5363 -0.2985  0.7933
 4704SOL    HW225746   4.024   3.742  13.412  1.0525  0.1055 -1.2467
 4705SOL     OW25747   2.723   3.422   6.293  0.0730 -0.0022  0.3967
 4705SOL    HW125748   2.760   3.391   6.211  0.1121  2.5171 -0.5269
 4705SOL    HW225749   2.703   3.336   6.331  0.4432 -0.6892 -0.9827
 4706SOL     OW25750   0.243   4.332   1.280  0.9364  0.0977 -0.2614
 4706SOL    HW125751   0.304   4.312   1.208  0.0404 -0.6881 -0.8023
 4706SOL    HW225752   0.239   4.251   1.329  0.8529  0.1664 -0.1561
 4707SOL     OW25753   0.170   1.706  16.102  0.0171 -0.5901  0.0834
 4707SOL    HW125754   0.175   1.788  16.054  1.6813  0.0425  1.3352
 4707SOL    HW225755   0.140   1.653  16.028 -0.4404 -1.8611  1.1616
 4708SOL     OW25756   2.653   2.822  14.381 -0.0246 -0.3672  0.5201
 4708SOL    HW125757   2.592   2.847  14.311 -0.4183 -0.1188  0.9478
 4708SOL    HW225758   2.720   2.889  14.394  0.5259 -1.1202  1.5368
 4709SOL     OW25759   0.025   3.069   4.413  0.0971 -0.1982 -0.3358
 4709SOL    HW125760   0.037   3.053   4.506  2.7820  0.2986 -0.5886
 4709SOL    HW225761   4.703   2.995   4.399  1.4139 -1.5460  1.1463
 4710SOL     OW25762   4.142   2.567   9.739 -0.0598 -0.4473 -0.2694
 4710SOL    HW125763   4.200   2.616   9.796 -2.8165  0.2989  1.9271
 4710SOL    HW225764   4.193   2.492   9.709  0.5600 -0.9611  2.1191
 4711SOL     OW25765   1.230   4.262   6.806 -0.3585  0.0632 -0.3472
 4711SOL    HW125766   1.309   4.317   6.809 -0.8570  0.6599  1.6358
 4711SOL    HW225767   1.182   4.315   6.742 -0.0596 -0.0492 -0.6686
 4712SOL     OW25768   1.477   3.106   5.412 -0.4268  0.4575 -0.2598
 4712SOL    HW125769   1.424   3.135   5.486 -0.5172  0.8812 -0.4927
 4712SOL    HW225770   1.424   3.035   5.375 -1.1738  0.6875  0.3755
 4713SOL     OW25771   4.004   4.367   7.007 -0.2051 -0.4164 -0.5248
 4713SOL    HW125772   3.938   4.376   6.939  0.3037  1.2508 -0.7970
 4713SOL    HW225773   3.950   4.381   7.085 -0.3076 -0.0667 -0.6626
 4714SOL     OW25774   2.826   1.728   0.020  0.1963 -0.5877  0.7241
 4714SOL    HW125775   2.853   1.658   0.080  1.2008 -0.4400  0.4468
 4714SOL    HW225776   2.867   1.714  17.684 -1.2114 -1.3865  0.1921
 4715SOL     OW25777   2.258   3.213   5.669 -0.1650 -0.1712 -0.0143
 4715SOL    HW125778   2.296   3.275   5.731  0.1134 -2.9799  2.6142
 4715SOL    HW225779   2.303   3.245   5.590 -0.4627  3.2956  1.1863
 4716SOL     OW25780   1.492   0.786   3.442 -0.2265 -0.1320 -0.3161
 4716SOL    HW125781   1.553   0.756   3.375 -1.5636 -0.3797 -1.4125
 4716SOL    HW225782   1.535   0.858   3.488 -2.3901  0.1284  1.3134
 4717SOL     OW25783   1.401   1.087   8.505 -0.1852 -0.0729 -0.0525
 4717SOL    HW125784   1.330   1.130   8.458  0.4140 -0.2828 -1.1261
 4717SOL    HW225785   1.368   1.070   8.594  0.7620 -0.9300  0.1403
 4718SOL     OW25786   1.959   2.728  11.728 -0.4709 -0.2144  0.1893
 4718SOL    HW125787   2.010   2.761  11.802  1.2254 -2.8194  0.1581
 4718SOL    HW225788   2.011   2.764  11.656  0.6926 -1.6190  0.3286
 4719SOL     OW25789   0.696   3.464   7.680  0.0870  0.1675  0.0093
 4719SOL    HW125790   0.691   3.374   7.647 -0.8623 -0.1396  1.0055
 4719SOL    HW225791   0.606   3.488   7.657 -0.0123  1.3917  1.7223
 4720SOL     OW25792   1.972   1.897  17.331 -0.7969  0.3384 -0.2576
 4720SOL    HW125793   1.923   1.977  17.316 -0.1894  0.3360 -2.2334
 4720SOL    HW225794   2.049   1.916  17.386  0.0664 -1.5441 -0.8016
 4721SOL     OW25795   1.174   3.192   8.186 -0.0667 -0.2146  0.2268
 4721SOL    HW125796   1.104   3.128   8.170 -1.6715  1.6834 -0.3476
 4721SOL    HW225797   1.244   3.140   8.225 -1.7932 -3.7430 -1.3269
 4722SOL     OW25798   2.029   1.673   7.486 -0.3832 -0.3210  0.5050
 4722SOL    HW125799   2.102   1.725   7.519  0.3187 -0.1406 -1.3363
 4722SOL    HW225800   2.078   1.593   7.466 -1.3573 -0.9998  0.8166
 4723SOL     OW25801   3.838   1.332   6.775 -0.1431  0.1335  0.8882
 4723SOL    HW125802   3.796   1.378   6.847 -0.4490 -1.0607  1.4711
 4723SOL    HW225803   3.872   1.405   6.723  0.7440 -1.4630 -0.8245
 4724SOL     OW25804   1.371   4.195  11.424 -0.2547  0.0298 -0.1169
 4724SOL    HW125805   1.353   4.106  11.454  0.8012 -0.6005 -1.3308
 4724SOL    HW225806   1.427   4.164  11.353 -0.2863  1.2768 -0.6828
 4725SOL     OW25807   4.706   1.152  11.666  0.0975 -0.7036  0.1079
 4725SOL    HW125808   0.049   1.104  11.686  1.2699 -0.1428 -3.1610
 4725SOL    HW225809   4.715   1.172  11.572  0.7437 -1.4914  0.0055
 4726SOL     OW25810   0.448   1.563   1.788 -0.0211  0.1288 -0.7548
 4726SOL    HW125811   0.520   1.541   1.729 -0.7714  0.6086 -1.8519
 4726SOL    HW225812   0.491   1.558   1.873 -2.8913 -1.0625  0.6253
 4727SOL     OW25813   1.627   2.436   3.032 -0.2323 -0.0262 -0.6532
 4727SOL    HW125814   1.535   2.465   3.029  0.4878  2.4288  0.8413
 4727SOL    HW225815   1.655   2.469   2.946  0.6973 -1.1304 -0.7718
 4728SOL     OW25816   0.568   1.448  11.365 -0.5726  0.3472  0.6575
 4728SOL    HW125817   0.515   1.413  11.436 -0.3442  4.1598  2.6825
 4728SOL    HW225818   0.542   1.393  11.291 -1.7204 -2.4007  3.1081
 4729SOL     OW25819   0.633   1.860  13.306 -0.7513 -0.5554 -0.5117
 4729SOL    HW125820   0.632   1.775  13.261  0.3083 -0.3527 -0.9151
 4729SOL    HW225821   0.719   1.892  13.279 -0.9866 -0.5595 -1.2714
 4730SOL     OW25822   4.563   3.622   4.801 -0.6071  0.2740  0.5808
 4730SOL    HW125823   4.609   3.706   4.798 -0.4351  0.1743  0.4029
 4730SOL    HW225824   4.624   3.556   4.835 -1.8898 -0.8418  0.7101
 4731SOL     OW25825   0.797   4.735  17.280 -0.4059  0.0826  0.3761
 4731SOL    HW125826   0.824   0.010  17.371  0.8376 -0.6876  0.1183
 4731SOL    HW225827   0.782   4.640  17.286  2.1654 -0.3895 -0.6219
 4732SOL     OW25828   2.407   2.026   4.336  0.0576 -0.1431 -0.4640
 4732SOL    HW125829   2.480   1.985   4.383 -0.1869 -2.5885 -2.2124
 4732SOL    HW225830   2.361   1.946   4.309  0.1246 -0.3275 -0.0331
 4733SOL     OW25831   1.784   0.330   8.558  0.0474 -0.5045 -0.1336
 4733SOL    HW125832   1.771   0.325   8.652  1.6271  0.9106  0.1664
 4733SOL    HW225833   1.707   0.379   8.530 -0.7425 -1.8186 -0.2574
 4734SOL     OW25834   2.230   2.973  15.352 -1.1540  0.8552 -0.2977
 4734SOL    HW125835   2.213   2.919  15.275  0.9735  0.4435 -0.4709
 4734SOL    HW225836   2.290   2.914  15.398 -2.1149  1.6601  1.9847
 4735SOL     OW25837   0.718   0.049   1.445  0.0811 -0.1897  0.1684
 4735SOL    HW125838   0.645   0.090   1.491 -0.2900 -0.6364 -0.0258
 4735SOL    HW225839   0.684   0.033   1.357  0.6316 -1.8287  0.2681
 4736SOL     OW25840   2.385   1.331   7.628  0.7610  0.1312 -0.4907
 4736SOL    HW125841   2.339   1.263   7.579 -1.3235  0.7265  0.6638
 4736SOL    HW225842   2.446   1.274   7.676 -0.5066  0.2354  1.2463
 4737SOL     OW25843   3.363   0.345   4.719 -0.0901 -0.6135 -0.1939
 4737SOL    HW125844   3.386   0.346   4.812  0.3985  1.1994 -0.3400
 4737SOL    HW225845   3.439   0.300   4.682 -0.2120  0.6158 -1.9091
 4738SOL     OW25846   3.218   3.293  17.596 -0.6480 -0.0458  0.1899
 4738SOL    HW125847   3.242   3.364  17.536 -3.2756 -0.0551 -0.8585
 4738SOL    HW225848   3.271   3.220  17.565  0.5550  2.8136 -4.4973
 4739SOL     OW25849   1.375   2.529   2.952  0.4669 -0.1285  0.4369
 4739SOL    HW125850   1.325   2.598   2.909  1.9347  0.6282 -0.0478
 4739SOL    HW225851   1.342   2.458   2.898  2.5057 -2.2481  1.9542
 4740SOL     OW25852   0.158   4.542   0.293 -0.1505  0.3635  0.2516
 4740SOL    HW125853   0.134   4.575   0.380  3.4744 -2.0753  2.1871
 4740SOL    HW225854   0.084   4.561   0.236 -0.5054 -0.4731  0.4218
 4741SOL     OW25855   1.453   4.046   5.644  0.7104 -0.0748  0.1112
 4741SOL    HW125856   1.522   4.013   5.587 -1.1535 -3.2369 -0.2716
 4741SOL    HW225857   1.489   4.133   5.663 -0.6540  0.7348 -1.0751
 4742SOL     OW25858   3.593   2.216   8.414 -0.4980 -0.1652 -0.1124
 4742SOL    HW125859   3.539   2.295   8.406 -0.4338  0.0126  1.1132
 4742SOL    HW225860   3.593   2.180   8.326 -1.4489  2.4790 -1.1962
 4743SOL     OW25861   0.760   3.077   8.087  0.1895  0.1783  0.0986
 4743SOL    HW125862   0.847   3.038   8.078  0.1302  0.2124 -0.6316
 4743SOL    HW225863   0.712   3.034   8.016  0.6447  2.1260 -1.4092
 4744SOL     OW25864   2.129   2.266   5.585 -0.4390  0.1589 -0.0254
 4744SOL    HW125865   2.188   2.197   5.557 -0.8908  0.4885 -1.7629
 4744SOL    HW225866   2.148   2.270   5.679 -0.6959  0.4289  0.0140
 4745SOL     OW25867   1.823   2.361   3.978  0.2184 -0.3104 -0.1487
 4745SOL    HW125868   1.812   2.443   4.026 -0.8921 -0.6538  0.1795
 4745SOL    HW225869   1.792   2.304   4.048 -1.8009  1.4541  0.3917
 4746SOL     OW25870   1.518   4.304   6.743 -0.0518  0.2871  0.0341
 4746SOL    HW125871   1.551   4.231   6.796 -0.7617  0.0942  0.2154
 4746SOL    HW225872   1.526   4.381   6.799 -2.0085  0.4627  0.0937
 4747SOL     OW25873   1.927   4.421   2.821 -0.1180  0.3403 -0.3244
 4747SOL    HW125874   1.887   4.474   2.752 -3.5728 -0.9541  0.6761
 4747SOL    HW225875   1.873   4.344   2.802  0.5307 -0.1292 -0.2688
 4748SOL     OW25876   0.406   2.649   4.984 -0.7158  0.2168 -0.3794
 4748SOL    HW125877   0.441   2.650   5.073 -2.3912  0.0467  0.2910
 4748SOL    HW225878   0.314   2.624   4.995 -0.2853 -0.8346  0.8581
 4749SOL     OW25879   3.701   1.312  13.638  0.2084 -0.0650  0.2142
 4749SOL    HW125880   3.745   1.304  13.723  2.7198 -0.6866 -1.1672
 4749SOL    HW225881   3.612   1.342  13.661  0.5448 -0.9508  2.7116
 4750SOL     OW25882   2.452   1.762   4.526 -0.5988  0.0486  0.2149
 4750SOL    HW125883   2.533   1.762   4.578  0.5684  0.3642 -1.5957
 4750SOL    HW225884   2.399   1.708   4.584 -1.2304  0.0589 -0.3607
 4751SOL     OW25885   1.296   2.322   2.812 -0.3612 -0.1995  0.2204
 4751SOL    HW125886   1.311   2.273   2.731 -2.5285 -1.1300  0.3853
 4751SOL    HW225887   1.297   2.256   2.882 -2.3353  1.0831  1.4681
 4752SOL     OW25888   2.383   0.879   8.195  0.6042 -0.0818  0.1017
 4752SOL    HW125889   2.472   0.912   8.206 -0.5508  2.6960  1.2060
 4752SOL    HW225890   2.336   0.957   8.226 -0.4924 -0.6657 -0.1025
 4753SOL     OW25891   1.764   3.061   3.356 -0.2980 -0.2585 -0.1470
 4753SOL    HW125892   1.817   3.035   3.431 -1.5770  0.3057  0.9443
 4753SOL    HW225893   1.777   3.156   3.354  0.8954 -0.4417 -1.4665
 4754SOL     OW25894   0.536   3.220  16.221  0.1605  0.3770 -0.2398
 4754SOL    HW125895   0.503   3.147  16.273 -1.4318  1.9955  1.0439
 4754SOL    HW225896   0.466   3.286  16.224  1.8248  2.2379 -2.1579
 4755SOL     OW25897   2.599   3.721   3.012 -0.2259 -0.3872  0.1869
 4755SOL    HW125898   2.545   3.722   3.091 -0.0930  1.9483  0.2489
 4755SOL    HW225899   2.539   3.676   2.952  0.7786  0.8228 -1.7135
 4756SOL     OW25900   3.849   0.090   3.472 -0.3800  0.1565  0.2256
 4756SOL    HW125901   3.906   0.015   3.456  1.0770  1.4179 -0.5126
 4756SOL    HW225902   3.874   0.114   3.561  1.2125 -0.2910 -0.1049
 4757SOL     OW25903   0.123   0.649   8.191 -0.2794  0.2981  0.0797
 4757SOL    HW125904   0.107   0.709   8.119 -0.8598 -1.7313 -1.4770
 4757SOL    HW225905   0.187   0.704   8.236  1.1280 -1.7211  0.5582
 4758SOL     OW25906   0.746   0.332   5.627  0.0279 -0.5635  0.7009
 4758SOL    HW125907   0.777   0.241   5.630  0.6437 -0.3134  2.0447
 4758SOL    HW225908   0.798   0.355   5.550 -1.8980 -0.6361 -0.6022
 4759SOL     OW25909   3.833   2.866   1.992  0.2190 -0.4371  0.2325
 4759SOL    HW125910   3.794   2.789   2.035  0.4119 -0.4401  0.3997
 4759SOL    HW225911   3.840   2.922   2.069 -1.0990 -0.3828  0.3082
 4760SOL     OW25912   1.773   0.727   0.068 -0.4160  0.8540  0.0456
 4760SOL    HW125913   1.711   0.664   0.106  1.8962 -1.5260 -0.0867
 4760SOL    HW225914   1.858   0.685   0.082  1.0822  3.2880 -1.6425
 4761SOL     OW25915   1.383   1.660   5.061  0.9551 -0.4651  0.2609
 4761SOL    HW125916   1.290   1.657   5.037  0.7277  0.2354  1.0505
 4761SOL    HW225917   1.393   1.616   5.145 -0.7393  1.5817  1.5471
 4762SOL     OW25918   2.938   3.505   7.560  0.4702  0.1605 -0.1123
 4762SOL    HW125919   2.949   3.492   7.466 -2.4177  0.2611 -0.4703
 4762SOL    HW225920   2.858   3.558   7.563 -0.1344 -0.7351 -0.2551
 4763SOL     OW25921   0.857   0.608   1.346  0.1405 -0.5599 -0.4386
 4763SOL    HW125922   0.816   0.692   1.324 -0.2757 -0.7930 -0.5464
 4763SOL    HW225923   0.939   0.623   1.298 -0.2080  2.6847 -0.0265
 4764SOL     OW25924   0.364   0.670   7.427  0.5073  0.2425 -0.2982
 4764SOL    HW125925   0.455   0.689   7.401  0.7918 -1.3797 -0.4612
 4764SOL    HW225926   0.342   0.761   7.406 -0.6010  0.7541  2.9824
 4765SOL     OW25927   0.841   1.867   3.320  0.7474  0.1352  0.0270
 4765SOL    HW125928   0.914   1.838   3.265  1.2205  2.2129 -0.4526
 4765SOL    HW225929   0.880   1.890   3.405 -0.5562 -0.0805  0.6837
 4766SOL     OW25930   1.889   0.547   6.599  0.7556 -0.2115 -0.3029
 4766SOL    HW125931   1.842   0.484   6.545 -0.1524  0.1179  0.0970
 4766SOL    HW225932   1.819   0.611   6.611  0.6151 -0.5540  0.6768
 4767SOL     OW25933   0.401   1.332   0.523  0.4534  0.0969  0.1444
 4767SOL    HW125934   0.465   1.365   0.460 -0.1725  0.1966 -0.4359
 4767SOL    HW225935   0.375   1.414   0.567  3.3765  0.7443  0.6792
 4768SOL     OW25936   4.430   2.650  12.513 -0.2769 -0.6753  0.1106
 4768SOL    HW125937   4.375   2.713  12.465 -2.4430 -0.9979  2.1888
 4768SOL    HW225938   4.451   2.696  12.594 -0.5756  1.2085 -0.8682
 4769SOL     OW25939   0.772   3.767  16.382  0.0611 -0.0045 -0.1368
 4769SOL    HW125940   0.687   3.728  16.361 -0.7321  1.2829  0.6962
 4769SOL    HW225941   0.833   3.701  16.349  0.2297  0.7157 -1.2489
 4770SOL     OW25942   1.734   4.026   9.166 -0.4240  0.5560 -0.0303
 4770SOL    HW125943   1.713   4.022   9.073  1.1207  1.2838 -0.4128
 4770SOL    HW225944   1.651   4.056   9.200 -1.2409 -0.4660 -1.1189
 4771SOL     OW25945   3.027   0.990  10.172  0.5784 -0.1992 -0.5352
 4771SOL    HW125946   3.061   1.020  10.256  1.3705  0.8751 -1.2361
 4771SOL    HW225947   3.093   1.027  10.113  0.8095  1.4689  0.7454
 4772SOL     OW25948   3.816   3.729   6.483  0.3489 -0.3121  0.3110
 4772SOL    HW125949   3.903   3.704   6.453  0.5688 -0.5175  1.1052
 4772SOL    HW225950   3.815   3.701   6.575 -1.5826  1.0795  0.7244
 4773SOL     OW25951   3.739   3.462   3.401 -0.2529  0.6245  0.0605
 4773SOL    HW125952   3.723   3.416   3.318  2.1360 -0.5763  0.2460
 4773SOL    HW225953   3.709   3.398   3.465 -0.1653 -0.8523 -1.3854
 4774SOL     OW25954   1.904   2.949  14.132 -0.6466 -0.0255  0.1284
 4774SOL    HW125955   1.871   2.967  14.220 -0.7355 -1.4874  0.3953
 4774SOL    HW225956   1.957   2.873  14.159 -0.5144 -0.0070 -0.0750
 4775SOL     OW25957   0.241   2.925   6.362  0.6181  0.4698 -0.0998
 4775SOL    HW125958   0.277   2.924   6.274 -0.2805  0.2466 -0.4646
 4775SOL    HW225959   0.300   2.990   6.402  1.3769  0.4729 -1.2253
 4776SOL     OW25960   2.391   2.877   7.878 -0.3409  0.2072 -0.3621
 4776SOL    HW125961   2.457   2.850   7.814  0.4147 -0.1493  0.5682
 4776SOL    HW225962   2.422   2.825   7.953  1.9205  0.8351 -0.8806
 4777SOL     OW25963   2.210   4.581  10.794  0.0474  0.6755 -0.6907
 4777SOL    HW125964   2.201   4.656  10.853  2.3037  1.3749 -1.2016
 4777SOL    HW225965   2.195   4.506  10.852 -0.6564 -0.0525 -1.8125
 4778SOL     OW25966   1.707   3.742   1.777  0.1808 -0.5352 -0.4543
 4778SOL    HW125967   1.714   3.836   1.763 -3.0030 -0.1985  0.2841
 4778SOL    HW225968   1.800   3.725   1.793  0.3911 -0.0162 -1.1191
 4779SOL     OW25969   1.675   0.484  10.546 -0.0299  0.4019  0.5592
 4779SOL    HW125970   1.613   0.513  10.613  1.2099  1.0994  1.3891
 4779SOL    HW225971   1.608   0.438  10.494  2.4299 -1.4614 -0.9459
 4780SOL     OW25972   0.674   1.306   6.200 -0.8557  0.0918  0.0994
 4780SOL    HW125973   0.698   1.363   6.274  0.4037  0.7459 -0.7907
 4780SOL    HW225974   0.586   1.336   6.179 -0.8266  0.1296  0.0309
 4781SOL     OW25975   1.612   4.622   2.463  0.7808  0.4798  0.1409
 4781SOL    HW125976   1.525   4.645   2.496  0.4826 -1.3032  0.6308
 4781SOL    HW225977   1.665   4.611   2.542  1.0238 -0.2899 -0.1299
 4782SOL     OW25978   4.290   1.457   1.960 -0.0082  0.1698 -0.2393
 4782SOL    HW125979   4.196   1.476   1.963  0.2216  1.4420 -1.0303
 4782SOL    HW225980   4.317   1.505   2.038  0.5975  1.4972 -1.2630
 4783SOL     OW25981   1.079   3.128   2.799 -0.5717 -0.1409  0.0591
 4783SOL    HW125982   1.137   3.202   2.779 -0.3601 -0.5897 -0.9464
 4783SOL    HW225983   1.115   3.083   2.875  1.1939  1.3637  0.1121
 4784SOL     OW25984   1.230   3.617   8.240  0.3168  0.3451 -0.3381
 4784SOL    HW125985   1.283   3.571   8.306 -1.9433 -1.7737  0.0264
 4784SOL    HW225986   1.272   3.573   8.165 -0.9376 -0.9152 -0.2887
 4785SOL     OW25987   1.222   2.623   4.293  0.4683 -0.1876  0.4857
 4785SOL    HW125988   1.312   2.654   4.305  0.3348  0.2071  0.4789
 4785SOL    HW225989   1.234   2.551   4.231  1.1146 -0.3818  0.8451
 4786SOL     OW25990   3.631   0.361   1.841 -0.3155  0.0522  0.1534
 4786SOL    HW125991   3.580   0.339   1.919 -1.3556  0.7304 -0.3373
 4786SOL    HW225992   3.694   0.427   1.869  0.1815 -0.1054 -0.5971
 4787SOL     OW25993   0.386   1.571  17.310  0.1312  0.3192 -0.0776
 4787SOL    HW125994   0.433   1.562  17.393  0.3451  0.7550 -0.1502
 4787SOL    HW225995   0.457   1.594  17.251  0.0883  1.1325  0.1762
 4788SOL     OW25996   1.127   0.776   6.755  0.1890  0.1292 -0.0674
 4788SOL    HW125997   1.180   0.732   6.821 -2.0576  0.4306  1.9280
 4788SOL    HW225998   1.132   0.715   6.681  0.0208  0.9967 -0.7901
 4789SOL     OW25999   3.097   2.469   6.721  0.0114  0.2023 -0.0490
 4789SOL    HW126000   3.139   2.542   6.676 -1.6830 -0.2436 -2.3718
 4789SOL    HW226001   3.148   2.458   6.801 -0.8727  0.0440  0.4934
 4790SOL     OW26002   0.644   0.067   4.114 -0.0547 -0.1969 -0.1826
 4790SOL    HW126003   0.700   0.040   4.187 -1.1775  0.2604  0.8523
 4790SOL    HW226004   0.671   4.737   4.052 -1.6274 -1.3263  0.3658
 4791SOL     OW26005   3.373   0.740   2.345 -0.2647  0.0486 -0.3635
 4791SOL    HW126006   3.331   0.716   2.428  0.7063  0.4081  0.2294
 4791SOL    HW226007   3.453   0.688   2.339  0.7077  1.8911 -3.3459
 4792SOL     OW26008   4.290   0.308   4.188 -0.1926 -0.3014  0.2411
 4792SOL    HW126009   4.347   0.231   4.190 -0.3550 -0.3584  2.8672
 4792SOL    HW226010   4.327   0.360   4.259 -1.3987 -0.0887  0.7214
 4793SOL     OW26011   0.806   0.076  12.006 -0.1718  0.0714  0.3013
 4793SOL    HW126012   0.763   0.066  12.091 -2.3990 -2.2541 -1.1232
 4793SOL    HW226013   0.836   4.724  11.996  0.1513  0.1690  0.3696
 4794SOL     OW26014   2.766   0.631   2.333 -0.4205  0.0578 -0.1404
 4794SOL    HW126015   2.731   0.621   2.421  0.4038  1.4550  0.3528
 4794SOL    HW226016   2.861   0.644   2.338 -0.6258  1.1695  0.8653
 4795SOL     OW26017   4.113   0.472   5.803  0.0255  0.0703 -0.2488
 4795SOL    HW126018   4.200   0.434   5.804 -1.4837 -3.3474 -0.7321
 4795SOL    HW226019   4.099   0.454   5.710  1.8861 -3.6212  0.1910
 4796SOL     OW26020   1.727   0.309  17.338  0.6580 -0.3201  0.6645
 4796SOL    HW126021   1.659   0.244  17.317 -0.0134 -0.0777  2.1127
 4796SOL    HW226022   1.684   0.388  17.305  0.7079  0.1100  1.6124
 4797SOL     OW26023   2.462   4.607   9.904  0.3979 -0.5013 -0.6959
 4797SOL    HW126024   2.495   4.543   9.967 -1.1381  0.3264  0.9408
 4797SOL    HW226025   2.369   4.588   9.895 -0.2261  1.7415  0.8343
 4798SOL     OW26026   3.529   2.273   3.948  0.1560 -0.1084  0.8333
 4798SOL    HW126027   3.537   2.287   3.854  1.6261 -0.4723  0.9062
 4798SOL    HW226028   3.568   2.186   3.958 -2.2768 -1.3290 -0.3346
 4799SOL     OW26029   1.472   0.633  15.416  0.1267 -0.2942  0.5565
 4799SOL    HW126030   1.436   0.547  15.438  3.0010 -1.8767 -0.9980
 4799SOL    HW226031   1.551   0.642  15.468  1.0228  0.4160 -0.9270
 4800SOL     OW26032   1.015   3.638   6.090 -0.2738 -0.7912 -0.0242
 4800SOL    HW126033   1.089   3.635   6.030  0.6078 -1.3941  1.0934
 4800SOL    HW226034   1.000   3.549   6.122 -0.4543 -0.6177  0.3812
 4801SOL     OW26035   3.111   2.817   4.825  0.6697  0.1372  0.1034
 4801SOL    HW126036   3.195   2.819   4.779  0.7925 -0.2108  0.3123
 4801SOL    HW226037   3.058   2.874   4.769  2.1976 -0.0915 -1.5684
 4802SOL     OW26038   1.369   3.918   6.900  0.5805  0.0416  0.1629
 4802SOL    HW126039   1.314   3.918   6.978  1.1629 -0.3190  0.5775
 4802SOL    HW226040   1.307   3.952   6.836 -0.8883 -1.2809  0.8910
 4803SOL     OW26041   3.418   0.140  13.509 -0.6203  0.3173 -0.4989
 4803SOL    HW126042   3.438   0.203  13.440 -1.8990  0.6673 -0.5593
 4803SOL    HW226043   3.448   0.181  13.590  0.2430  0.2068 -0.7688
 4804SOL     OW26044   3.004   3.129   9.296  0.8784  0.0225 -0.1572
 4804SOL    HW126045   2.984   3.149   9.387  2.1858  1.7093 -0.2375
 4804SOL    HW226046   3.043   3.041   9.304 -1.1762 -1.0173 -1.7033
 4805SOL     OW26047   2.755   3.891   8.903 -0.1990 -0.0576  0.2540
 4805SOL    HW126048   2.701   3.966   8.928  0.8465  1.9045 -3.3753
 4805SOL    HW226049   2.818   3.896   8.975 -1.1442  2.0404  0.9173
 4806SOL     OW26050   0.576   3.511   5.336 -0.6240  0.2678  0.6934
 4806SOL    HW126051   0.640   3.580   5.319 -0.3932 -0.2632 -0.6603
 4806SOL    HW226052   0.523   3.545   5.408  2.3943  1.2507  2.4435
 4807SOL     OW26053   0.816   0.435   9.577  0.2415 -0.2068  0.1378
 4807SOL    HW126054   0.780   0.355   9.538 -0.3376  0.6226 -1.0357
 4807SOL    HW226055   0.819   0.393   9.663 -0.1769 -0.7550 -0.1106
 4808SOL     OW26056   3.777   0.306   6.174 -0.1682  0.2981  0.2449
 4808SOL    HW126057   3.810   0.396   6.176 -0.5460  0.4455 -0.1340
 4808SOL    HW226058   3.847   0.265   6.122  0.3795  0.0025  1.2110
 4809SOL     OW26059   2.114   3.809   0.116  0.7516 -0.1422 -0.0908
 4809SOL    HW126060   2.064   3.852   0.047 -1.0459 -0.6626  0.8803
 4809SOL    HW226061   2.179   3.757   0.069  0.2048  0.3415 -1.3699
 4810SOL     OW26062   2.745   1.341   3.738 -0.1878 -0.2391  0.2082
 4810SOL    HW126063   2.786   1.406   3.680  1.5677 -0.5224  1.1223
 4810SOL    HW226064   2.740   1.262   3.684 -2.2176 -0.7680  1.1863
 4811SOL     OW26065   3.504   0.706   7.054  0.4736  0.1626  0.3458
 4811SOL    HW126066   3.555   0.745   6.983  0.1474 -0.8926 -0.4750
 4811SOL    HW226067   3.563   0.682   7.125  1.1659  0.6028 -0.0869
 4812SOL     OW26068   3.582   4.450   5.216  0.3013  0.2077 -0.1273
 4812SOL    HW126069   3.504   4.394   5.221  1.3979 -1.3597 -0.6152
 4812SOL    HW226070   3.546   4.525   5.169 -0.3931  0.8741  1.4357
 4813SOL     OW26071   2.095   0.799   0.377  0.1989 -0.2036 -0.0633
 4813SOL    HW126072   2.095   0.814   0.472 -0.1327 -2.0189  0.2095
 4813SOL    HW226073   2.179   0.754   0.367 -0.7699 -1.6812 -1.5058
 4814SOL     OW26074   4.144   2.026   8.712  0.1875 -0.0754  0.1436
 4814SOL    HW126075   4.200   2.056   8.640 -3.6258  1.5807 -2.1568
 4814SOL    HW226076   4.181   1.942   8.738  3.5703  1.1912 -0.4721
 4815SOL     OW26077   0.021   3.133   6.125  0.3158  0.1012  0.6161
 4815SOL    HW126078   0.069   3.076   6.065 -0.3380 -0.5658  0.7280
 4815SOL    HW226079   4.708   3.066   6.171 -1.1659  1.7336  1.3332
 4816SOL     OW26080   3.154   3.993   7.430 -0.1102 -0.1561 -0.1639
 4816SOL    HW126081   3.225   3.954   7.481 -0.2221 -0.1070  0.0288
 4816SOL    HW226082   3.176   3.974   7.339 -0.1658 -1.9114  0.1826
 4817SOL     OW26083   1.358   0.177   5.517  0.6160  0.3353 -0.0705
 4817SOL    HW126084   1.361   0.204   5.608 -1.3262 -0.5006  0.2251
 4817SOL    HW226085   1.299   0.245   5.485  1.3152  0.5458 -0.9254
 4818SOL     OW26086   3.826   2.384   3.625  0.0383 -0.0883 -0.3997
 4818SOL    HW126087   3.881   2.312   3.656 -1.3228 -0.7300  0.5217
 4818SOL    HW226088   3.883   2.452   3.590  2.2673 -1.0111  1.3985
 4819SOL     OW26089   2.006   3.557  14.110  0.4098 -0.6309  0.0485
 4819SOL    HW126090   2.093   3.596  14.115  0.3147 -0.4488  0.2560
 4819SOL    HW226091   1.992   3.546  14.016 -0.1864  2.7292 -0.2517
 4820SOL     OW26092   0.017   2.005   7.831  0.4406 -0.2623  0.6227
 4820SOL    HW126093   4.673   2.030   7.788  0.1609 -1.3064  0.5610
 4820SOL    HW226094   0.057   2.091   7.820  0.7135 -0.4950 -0.1595
 4821SOL     OW26095   4.269   1.984  14.558 -0.6785  0.1981 -0.3349
 4821SOL    HW126096   4.343   2.008  14.614 -0.9985  0.4708 -0.0277
 4821SOL    HW226097   4.207   1.947  14.621 -1.2761 -0.9447 -1.5776
 4822SOL     OW26098   4.127   3.193   6.069 -0.2336 -0.0962 -0.2737
 4822SOL    HW126099   4.160   3.166   6.155 -1.4178 -2.4591 -0.5591
 4822SOL    HW226100   4.208   3.233   6.037 -0.1343 -1.0888 -1.2621
 4823SOL     OW26101   1.013   0.778   1.185 -0.5897  0.3900 -0.0956
 4823SOL    HW126102   1.109   0.777   1.181 -0.6287  0.6798 -1.0605
 4823SOL    HW226103   0.997   0.852   1.243 -0.0098 -0.0870  0.6727
 4824SOL     OW26104   0.379   4.000   4.990 -0.4060 -0.1455  0.8516
 4824SOL    HW126105   0.432   4.046   4.925 -1.2373  0.6309  0.7180
 4824SOL    HW226106   0.385   4.062   5.063  0.8405 -1.6228  2.0028
 4825SOL     OW26107   2.986   3.893  16.543 -0.3212 -0.3712 -0.1651
 4825SOL    HW126108   2.967   3.805  16.511  1.0420 -0.4327 -0.8157
 4825SOL    HW226109   3.080   3.886  16.525 -0.4625 -0.6537 -0.7848
 4826SOL     OW26110   2.328   4.236   8.186  0.7594 -0.0158  0.3581
 4826SOL    HW126111   2.334   4.226   8.281 -0.3563 -0.7057  0.3559
 4826SOL    HW226112   2.412   4.195   8.163 -0.2947 -0.7670 -2.1539
 4827SOL     OW26113   0.539   0.869   0.218 -0.2980 -0.2480 -0.4767
 4827SOL    HW126114   0.521   0.782   0.254  1.0419 -0.6524 -0.7931
 4827SOL    HW226115   0.466   0.915   0.258 -0.7057 -1.0757 -0.2595
 4828SOL     OW26116   1.323   2.554   9.232 -0.4575 -0.0768 -0.3118
 4828SOL    HW126117   1.317   2.632   9.287 -0.0365 -1.6097  1.9030
 4828SOL    HW226118   1.418   2.546   9.233 -0.6845 -2.6771 -0.2469
 4829SOL     OW26119   3.381   0.306   5.253 -0.1691  0.4036  0.2727
 4829SOL    HW126120   3.437   0.316   5.175 -0.9071  1.6662 -0.1026
 4829SOL    HW226121   3.433   0.253   5.312 -0.9500 -0.0551  0.5513
 4830SOL     OW26122   2.454   1.003  14.951  0.1384  0.1545  0.1061
 4830SOL    HW126123   2.497   1.045  15.026  1.0839  1.8259 -1.3723
 4830SOL    HW226124   2.414   1.084  14.919  0.3013  0.9059  1.7690
 4831SOL     OW26125   3.824   4.539   2.582 -0.2211 -0.4563  0.4575
 4831SOL    HW126126   3.761   4.501   2.644  0.6814  0.5789  2.0202
 4831SOL    HW226127   3.900   4.541   2.641 -0.6605  0.5939  0.9860
 4832SOL     OW26128   4.500   2.524   6.398 -0.2188  0.3673  0.3154
 4832SOL    HW126129   4.503   2.453   6.463  1.0097 -0.9172 -1.1218
 4832SOL    HW226130   4.564   2.581   6.439  3.6402 -2.3828 -1.8428
 4833SOL     OW26131   3.025   3.157   3.853 -0.0834  0.5529  0.0177
 4833SOL    HW126132   3.098   3.099   3.828 -0.7265  1.3805 -3.7848
 4833SOL    HW226133   3.071   3.241   3.854 -2.1254  1.6685  0.0774
 4834SOL     OW26134   0.056   4.368  10.143 -0.3687  0.1882  0.2100
 4834SOL    HW126135   0.016   4.407  10.065  0.9939 -0.5921 -0.8792
 4834SOL    HW226136   4.717   4.328  10.185 -1.4690  1.3940 -0.6584
 4835SOL     OW26137   0.267   1.255   0.768  0.4949  0.0512  1.0795
 4835SOL    HW126138   0.217   1.183   0.731 -1.2836  2.2907 -0.8467
 4835SOL    HW226139   0.308   1.287   0.688 -0.4124  1.8203  1.3235
 4836SOL     OW26140   0.011   1.179  15.999  0.1223  0.2959  0.8733
 4836SOL    HW126141   4.721   1.178  16.091 -0.6642 -2.8259  0.5967
 4836SOL    HW226142   4.665   1.181  15.953 -1.1099  1.2735  3.1568
 4837SOL     OW26143   4.037   1.901   8.336 -0.0012 -0.3070 -0.1738
 4837SOL    HW126144   4.023   1.978   8.392  1.1227  1.3112 -2.1377
 4837SOL    HW226145   3.950   1.911   8.296 -0.9030  1.3793  2.1824
 4838SOL     OW26146   2.501   4.538   4.543  0.6515 -0.3896  0.6216
 4838SOL    HW126147   2.438   4.609   4.556 -0.3043 -0.8171 -1.8222
 4838SOL    HW226148   2.503   4.491   4.627  1.1328 -1.4578  0.0045
 4839SOL     OW26149   0.101   3.295   8.257 -0.6157 -0.4967  0.0238
 4839SOL    HW126150   0.050   3.232   8.309  1.0309  0.0412  2.2959
 4839SOL    HW226151   0.188   3.256   8.268 -0.0096  0.0531 -2.8507
 4840SOL     OW26152   3.169   0.245   2.251  0.3701 -0.6341  0.2888
 4840SOL    HW126153   3.161   0.340   2.248  1.7506 -0.5265  0.0178
 4840SOL    HW226154   3.220   0.242   2.332  0.5889 -4.0958  0.0420
 4841SOL     OW26155   4.542   4.504   0.244 -0.2080  0.4712 -0.3225
 4841SOL    HW126156   4.603   4.431   0.252 -1.3093 -0.4224 -0.1074
 4841SOL    HW226157   4.538   4.520   0.150  0.3661 -1.1261 -0.6154
 4842SOL     OW26158   1.573   1.085   2.529 -0.0034  0.0289  0.4263
 4842SOL    HW126159   1.487   1.049   2.553 -0.2064 -0.8772 -1.6809
 4842SOL    HW226160   1.604   1.073   2.619 -0.2739  4.0014  1.0264
 4843SOL     OW26161   4.061   1.825  15.728  0.3036 -0.1526  0.8139
 4843SOL    HW126162   4.126   1.896  15.732  0.3490 -0.1346 -0.2830
 4843SOL    HW226163   4.068   1.791  15.817  1.1667 -0.5261  0.6042
 4844SOL     OW26164   4.359   1.091   8.688  0.3349  0.0838 -0.1230
 4844SOL    HW126165   4.424   1.155   8.717 -0.8133 -0.6755  4.1645
 4844SOL    HW226166   4.292   1.105   8.755 -1.0064  0.9182 -1.6393
 4845SOL     OW26167   4.036   1.909   3.624  0.8078  0.2607 -0.2865
 4845SOL    HW126168   4.038   1.813   3.623  2.0314  0.2717  1.1655
 4845SOL    HW226169   4.070   1.935   3.709  0.9730 -1.1235  0.0825
 4846SOL     OW26170   1.251   4.403   2.380 -0.2164  0.7469 -0.1411
 4846SOL    HW126171   1.175   4.446   2.341 -1.4125  0.6977  2.1374
 4846SOL    HW226172   1.271   4.331   2.321 -1.3934  0.1850  0.1347
 4847SOL     OW26173   3.615   2.175   0.343  0.5860 -0.5342  0.0794
 4847SOL    HW126174   3.658   2.093   0.317 -1.3242 -1.5284  0.0676
 4847SOL    HW226175   3.621   2.222   0.259 -0.9802 -0.8863 -0.2318
 4848SOL     OW26176   1.269   1.937   1.948  0.6124  0.6997 -0.2036
 4848SOL    HW126177   1.287   1.912   1.858  0.6262  1.7336 -0.4844
 4848SOL    HW226178   1.207   2.009   1.935  0.5896  1.0605  1.8599
 4849SOL     OW26179   2.985   2.299   5.132  0.0062  0.5086 -0.2343
 4849SOL    HW126180   2.975   2.288   5.226 -0.8483  2.1647 -0.1327
 4849SOL    HW226181   3.071   2.342   5.130 -0.2849  1.0672 -1.0325
 4850SOL     OW26182   4.672   2.149   7.125  0.3283 -0.6406  0.3479
 4850SOL    HW126183   4.717   2.194   7.196 -2.1383 -2.0549  2.7990
 4850SOL    HW226184   4.728   2.072   7.112  0.5911 -0.4822  0.5368
 4851SOL     OW26185   1.223   4.609  17.528 -0.8668  0.3091 -0.1451
 4851SOL    HW126186   1.250   4.631  17.617 -0.6100  0.5873 -0.2911
 4851SOL    HW226187   1.263   4.681  17.479 -0.6745 -0.6089 -1.3497
 4852SOL     OW26188   1.032   3.939   8.629 -0.1396 -0.1477 -0.1575
 4852SOL    HW126189   1.034   3.846   8.610 -1.3582 -0.4233  1.0330
 4852SOL    HW226190   0.939   3.958   8.621 -0.6575 -2.3801  0.5887
 4853SOL     OW26191   3.103   2.661  15.848 -0.2708 -0.4693 -0.0210
 4853SOL    HW126192   3.183   2.622  15.885  0.2878  1.8781  1.2757
 4853SOL    HW226193   3.126   2.754  15.858  1.5749 -0.6805 -2.2243
 4854SOL     OW26194   0.809   0.060   4.933 -0.3859  0.7440  0.3047
 4854SOL    HW126195   0.834   0.150   4.951 -2.0619  1.1614  0.5964
 4854SOL    HW226196   0.897   0.028   4.948  0.3108  1.5531 -1.9709
 4855SOL     OW26197   2.912   4.634   5.477 -0.0719 -0.0160 -0.6936
 4855SOL    HW126198   2.820   4.628   5.450  0.0963 -0.2267 -1.2203
 4855SOL    HW226199   2.908   4.691   5.554  0.6684  0.2564 -0.8600
 4856SOL     OW26200   0.288   1.850   1.952  0.4112 -0.3561 -0.5221
 4856SOL    HW126201   0.300   1.759   1.925 -2.4738 -0.7455 -0.4881
 4856SOL    HW226202   0.240   1.883   1.876 -0.2224  2.0840  0.9226
 4857SOL     OW26203   1.627   0.864  13.934  0.0164  0.8851  0.3608
 4857SOL    HW126204   1.579   0.844  14.015  0.2385  1.5884  0.6632
 4857SOL    HW226205   1.709   0.816  13.951 -1.2087 -1.4120 -0.2213
 4858SOL     OW26206   2.296   3.340   3.529 -0.6367 -0.0295 -0.1885
 4858SOL    HW126207   2.331   3.263   3.484 -0.5849 -1.2902  2.0107
 4858SOL    HW226208   2.242   3.373   3.457 -2.2990 -0.5954  0.8229
 4859SOL     OW26209   4.183   0.602   6.364 -0.6499 -0.1753 -0.3261
 4859SOL    HW126210   4.229   0.572   6.442 -1.4040  0.5851  0.4177
 4859SOL    HW226211   4.257   0.601   6.304 -1.3197  0.3536 -1.1696
 4860SOL     OW26212   2.540   4.482  12.484 -0.0083  0.0185  0.7033
 4860SOL    HW126213   2.446   4.463  12.484  0.9169 -4.5773  1.2988
 4860SOL    HW226214   2.573   4.409  12.536 -0.5329 -1.0423 -0.4555
 4861SOL     OW26215   3.244   3.870   4.923  0.9249 -0.3631 -0.0138
 4861SOL    HW126216   3.300   3.856   4.847  1.1276  1.1908 -0.1449
 4861SOL    HW226217   3.156   3.877   4.885  1.2617  0.5088 -0.6173
 4862SOL     OW26218   3.437   3.008   9.922 -0.0203 -0.1152  0.2448
 4862SOL    HW126219   3.453   3.099   9.950  0.7159  0.3067 -1.5700
 4862SOL    HW226220   3.342   3.007   9.909  0.0070  0.4246 -0.0086
 4863SOL     OW26221   0.522   0.011   1.655  0.5174  0.6348 -0.5166
 4863SOL    HW126222   0.511   0.067   1.732  1.9332 -2.1243  1.6947
 4863SOL    HW226223   0.540   4.667   1.703 -3.3201  0.1270  0.0506
 4864SOL     OW26224   0.594   2.357   8.686  0.9718  0.5082  0.3456
 4864SOL    HW126225   0.570   2.450   8.686 -1.9985 -0.2425 -3.0149
 4864SOL    HW226226   0.620   2.338   8.596  0.8236 -0.0129  0.4142
 4865SOL     OW26227   1.112   3.855   8.235  0.0683 -0.1378 -0.1216
 4865SOL    HW126228   1.195   3.890   8.268 -0.2193  1.9256 -1.6386
 4865SOL    HW226229   1.128   3.761   8.234 -0.9814 -0.3034 -0.4732
 4866SOL     OW26230   2.499   4.362  11.707  0.8255 -0.5227  0.6203
 4866SOL    HW126231   2.453   4.389  11.787  0.8126 -1.3391  0.8886
 4866SOL    HW226232   2.443   4.286  11.690 -0.6463  0.0299  2.9441
 4867SOL     OW26233   0.640   1.312   9.285  0.2022  0.1971  0.2942
 4867SOL    HW126234   0.614   1.403   9.270 -2.0792 -0.4137  0.5590
 4867SOL    HW226235   0.614   1.300   9.376 -0.8012 -0.6210 -0.1101
 4868SOL     OW26236   4.110   2.538   8.886 -0.1756  0.5649 -0.1074
 4868SOL    HW126237   4.073   2.621   8.918 -1.0675  0.4428 -0.8316
 4868SOL    HW226238   4.193   2.563   8.845  0.3394  0.9583  1.1508
 4869SOL     OW26239   3.345   4.158  12.609  0.0270 -0.3965  0.5060
 4869SOL    HW126240   3.348   4.072  12.649 -1.5459 -0.3408  0.7488
 4869SOL    HW226241   3.421   4.162  12.552 -1.7620  1.7746 -1.7467
 4870SOL     OW26242   1.798   1.132   5.481 -0.1660 -0.2070 -0.2139
 4870SOL    HW126243   1.768   1.042   5.492  1.9056 -1.0046 -1.0785
 4870SOL    HW226244   1.725   1.188   5.509  1.0475  0.2630  1.9827
 4871SOL     OW26245   0.793   2.997   0.689 -0.3301 -0.3053 -0.0661
 4871SOL    HW126246   0.756   2.989   0.777 -1.1446 -0.6903 -0.4418
 4871SOL    HW226247   0.829   2.908   0.679  1.3865  0.4265 -0.4431
 4872SOL     OW26248   1.698   1.576   7.306  0.3242  0.3095 -0.1282
 4872SOL    HW126249   1.615   1.581   7.353 -0.1159 -0.4965 -0.8431
 4872SOL    HW226250   1.722   1.484   7.310  0.0576  0.2008 -1.0161
 4873SOL     OW26251   3.816   3.567   4.174 -0.1233  0.0085 -0.9658
 4873SOL    HW126252   3.835   3.657   4.148 -0.2511  0.8024  1.6829
 4873SOL    HW226253   3.893   3.548   4.227 -0.3355 -0.4292 -0.8140
 4874SOL     OW26254   2.864   0.099   5.679 -0.1356  0.6140  0.5493
 4874SOL    HW126255   2.866   0.090   5.775 -0.1895  1.2187  0.6097
 4874SOL    HW226256   2.793   0.160   5.658 -0.2977  0.0083 -0.6314
 4875SOL     OW26257   3.653   1.256   3.547  0.0900 -0.2468 -0.7301
 4875SOL    HW126258   3.594   1.324   3.580  0.1643 -1.8011  2.6282
 4875SOL    HW226259   3.736   1.304   3.552  0.9994 -1.6508 -2.2155
 4876SOL     OW26260   4.323   2.603   8.728 -0.5904  0.1746 -0.5476
 4876SOL    HW126261   4.409   2.645   8.724  0.5144 -2.1205 -1.0171
 4876SOL    HW226262   4.344   2.523   8.679 -2.0048 -0.1227 -0.6566
 4877SOL     OW26263   2.221   4.460  17.707 -0.1833 -0.1757  0.3868
 4877SOL    HW126264   2.203   4.366  17.702  1.7696 -0.3677 -2.9968
 4877SOL    HW226265   2.261   4.476  17.621 -0.4973  0.1084  0.2950
 4878SOL     OW26266   2.828   0.437   4.609  0.7121 -0.0274 -0.1501
 4878SOL    HW126267   2.915   0.456   4.644  0.4845  1.8810 -0.5730
 4878SOL    HW226268   2.792   0.526   4.612 -2.1915 -1.2673  1.8421
 4879SOL     OW26269   2.870   1.573   1.947  0.0885  0.2908 -0.3590
 4879SOL    HW126270   2.781   1.590   1.975  0.0435 -0.2338 -0.1866
 4879SOL    HW226271   2.879   1.500   2.008 -1.0836  1.7419  1.5175
 4880SOL     OW26272   2.190   4.714   2.049 -0.4714 -0.7561  0.2504
 4880SOL    HW126273   2.239   4.632   2.055  1.6579  0.4374 -0.6776
 4880SOL    HW226274   2.250   0.020   1.989 -1.4522 -0.5385 -0.5609
 4881SOL     OW26275   2.546   2.908   1.695 -0.2800 -0.1518  0.4745
 4881SOL    HW126276   2.459   2.885   1.662 -0.0541  0.4889 -0.5643
 4881SOL    HW226277   2.523   2.932   1.785 -0.1585  2.1934 -0.1148
 4882SOL     OW26278   0.027   1.542  15.910  0.0266 -0.1734 -0.0576
 4882SOL    HW126279   4.670   1.539  15.924 -0.3634  0.7948 -2.4318
 4882SOL    HW226280   0.037   1.527  15.816  0.2294  0.6820 -0.1791
 4883SOL     OW26281   2.298   1.931   5.276  0.7441  0.2917  0.3345
 4883SOL    HW126282   2.375   1.875   5.270 -0.9031 -1.7050 -2.4547
 4883SOL    HW226283   2.329   2.009   5.231 -0.9041  0.2499 -0.8980
 4884SOL     OW26284   2.572   0.315   5.118 -0.2338  0.1189 -0.0053
 4884SOL    HW126285   2.548   0.381   5.184 -1.2157  0.6543 -0.9143
 4884SOL    HW226286   2.634   0.369   5.069  1.5794 -1.2784  0.7144
 4885SOL     OW26287   4.633   1.799  17.552 -0.0959  0.8766 -0.5468
 4885SOL    HW126288   4.640   1.873  17.491  0.4321  2.2678  1.1888
 4885SOL    HW226289   4.561   1.834  17.604 -1.0741 -0.7652 -0.8169
 4886SOL     OW26290   0.627   1.513   5.900  0.3598  0.1095 -0.3354
 4886SOL    HW126291   0.646   1.591   5.952  0.8584 -0.1904 -0.0646
 4886SOL    HW226292   0.548   1.542   5.854  0.5668  0.2954 -0.5743
 4887SOL     OW26293   3.193   0.296  13.101  0.3122 -0.1332 -0.2211
 4887SOL    HW126294   3.188   0.224  13.038  0.0386 -0.0423 -0.3029
 4887SOL    HW226295   3.180   0.246  13.182  3.2586  0.1758  0.4413
 4888SOL     OW26296   0.809   2.249  10.691 -0.2128  0.5283  0.1127
 4888SOL    HW126297   0.780   2.174  10.639 -0.9581  0.3009  0.8515
 4888SOL    HW226298   0.732   2.278  10.742 -1.1966  0.4263 -1.3236
 4889SOL     OW26299   0.181   0.018   1.644 -0.2496  0.3441 -0.2566
 4889SOL    HW126300   0.177   4.691   1.574 -0.0424 -1.4130  1.3609
 4889SOL    HW226301   0.145   4.708   1.719 -1.3683 -0.3439 -1.2231
 4890SOL     OW26302   1.018   3.292   5.040  0.1505  0.2805  0.1616
 4890SOL    HW126303   1.093   3.346   5.065  1.4405 -1.6740  0.4945
 4890SOL    HW226304   1.032   3.229   5.110 -1.4428  0.6586  0.8168
 4891SOL     OW26305   1.679   2.434  16.146  0.5339  0.0092  0.1518
 4891SOL    HW126306   1.668   2.517  16.098 -3.7345 -0.7942 -0.2178
 4891SOL    HW226307   1.712   2.370  16.082  2.5904  2.0044 -0.8016
 4892SOL     OW26308   1.077   3.773   6.725 -0.1555 -0.1604  0.4479
 4892SOL    HW126309   1.138   3.844   6.706 -0.9423  0.1420 -0.9295
 4892SOL    HW226310   1.070   3.723   6.644  0.8235  1.3529 -0.5758
 4893SOL     OW26311   0.749   2.335  17.447 -0.2641 -0.2009 -0.1011
 4893SOL    HW126312   0.758   2.404  17.513 -0.5904  0.4189 -0.7011
 4893SOL    HW226313   0.812   2.371  17.384  0.9829  0.2511  1.4185
 4894SOL     OW26314   0.884   3.266   9.193  0.1239  0.3255  0.1909
 4894SOL    HW126315   0.942   3.341   9.178 -0.1989  0.8382  1.5099
 4894SOL    HW226316   0.908   3.214   9.117  1.4121 -1.2515  1.6719
 4895SOL     OW26317   3.471   2.910   9.665  0.0901  0.1181 -0.2098
 4895SOL    HW126318   3.472   2.922   9.760  0.4003  1.6888 -0.4153
 4895SOL    HW226319   3.424   2.992   9.648 -0.0773  0.1125  0.2417
 4896SOL     OW26320   2.295   4.212  11.866 -0.2950  0.5046 -0.1629
 4896SOL    HW126321   2.252   4.126  11.868 -0.2961  0.4975 -0.5675
 4896SOL    HW226322   2.256   4.262  11.795  2.7127  1.0515 -1.4055
 4897SOL     OW26323   3.302   3.211   3.289  0.3533 -0.0449 -0.1151
 4897SOL    HW126324   3.290   3.286   3.231  0.6097  1.0055  1.1958
 4897SOL    HW226325   3.220   3.161   3.282 -0.2635  0.9643 -0.0688
 4898SOL     OW26326   3.402   3.112   8.731 -0.1509 -0.0103 -0.1008
 4898SOL    HW126327   3.415   3.097   8.825 -0.8041  0.3839  0.0508
 4898SOL    HW226328   3.385   3.024   8.698  0.9923 -0.2010 -0.1933
 4899SOL     OW26329   1.753   2.211   0.020 -0.5985  0.3261  0.1596
 4899SOL    HW126330   1.759   2.302  17.740 -0.3345  0.4071  0.4542
 4899SOL    HW226331   1.753   2.224   0.115  0.0061  1.6566 -0.0261
 4900SOL     OW26332   3.402   4.012  17.513 -0.1090  0.5854  0.2838
 4900SOL    HW126333   3.473   4.076  17.521 -0.4455  1.1496 -1.3166
 4900SOL    HW226334   3.368   4.026  17.602  0.4209 -1.3726  0.8031
 4901SOL     OW26335   1.778   2.693   8.080  0.4371 -0.2544 -0.0088
 4901SOL    HW126336   1.708   2.739   8.034 -0.6007  0.6812  2.4955
 4901SOL    HW226337   1.745   2.603   8.080 -0.1960 -0.0244 -0.0956
 4902SOL     OW26338   4.201   1.556   8.214  0.3889 -0.2416 -0.3661
 4902SOL    HW126339   4.286   1.516   8.197 -0.3528 -2.8059  1.9440
 4902SOL    HW226340   4.145   1.480   8.231 -0.5699  1.1151  2.4945
 4903SOL     OW26341   0.545   2.439  12.768 -0.4690  0.1489  0.2383
 4903SOL    HW126342   0.572   2.482  12.687  3.0632 -0.0949  1.3049
 4903SOL    HW226343   0.453   2.466  12.773 -0.0570  1.8121 -1.4105
 4904SOL     OW26344   4.527   2.213   3.207  0.3889 -0.3242  0.5210
 4904SOL    HW126345   4.464   2.163   3.260  0.7227  0.4451  1.6492
 4904SOL    HW226346   4.588   2.141   3.189  0.9144 -0.4228  2.7245
 4905SOL     OW26347   1.622   1.791   2.714  0.0878  0.4075  0.5429
 4905SOL    HW126348   1.666   1.835   2.641 -0.2626  0.1416  0.1741
 4905SOL    HW226349   1.696   1.743   2.752  0.6970  0.5107 -0.5185
 4906SOL     OW26350   2.959   0.671   2.083 -0.0917 -0.2072  0.6721
 4906SOL    HW126351   2.938   0.764   2.099 -1.5920 -0.2093 -1.3082
 4906SOL    HW226352   3.017   0.667   2.008  0.0086 -0.1378  0.7464
 4907SOL     OW26353   0.893   0.900   3.967 -0.5362  0.0001  0.2413
 4907SOL    HW126354   0.944   0.890   3.887  0.7431 -1.3679  1.2283
 4907SOL    HW226355   0.960   0.872   4.029  1.9239  0.4596 -2.2000
 4908SOL     OW26356   1.860   2.148  17.402  0.0996  0.6430 -0.2704
 4908SOL    HW126357   1.874   2.243  17.406 -1.7338  0.7582  2.9309
 4908SOL    HW226358   1.826   2.143  17.313  3.8821 -2.2718 -1.5712
 4909SOL     OW26359   0.052   1.295  11.446 -0.4662 -0.0079 -0.4633
 4909SOL    HW126360   0.143   1.321  11.463 -0.8230  0.6268  0.4663
 4909SOL    HW226361   0.048   1.338  11.361 -1.5032 -0.1927 -0.5078
 4910SOL     OW26362   4.218   2.042   5.975 -0.2392 -0.6190  0.6563
 4910SOL    HW126363   4.221   1.960   6.025  0.2309 -1.2721 -0.4520
 4910SOL    HW226364   4.291   2.027   5.915  0.1920 -1.3048  1.3466
 4911SOL     OW26365   0.510   1.557   7.570  0.0574  0.4743  0.1383
 4911SOL    HW126366   0.433   1.589   7.522  0.7350  0.7509 -0.7715
 4911SOL    HW226367   0.476   1.560   7.660  0.9480  0.5863  0.4643
 4912SOL     OW26368   3.365   4.168   7.332  0.1932 -0.0421 -0.5680
 4912SOL    HW126369   3.303   4.194   7.400  0.2586 -4.1641  1.0616
 4912SOL    HW226370   3.442   4.156   7.387  0.3698  0.2952 -0.7378
 4913SOL     OW26371   4.012   0.467   8.269 -0.4015  0.0992 -0.0025
 4913SOL    HW126372   4.100   0.495   8.292 -0.4922  1.7825 -1.6606
 4913SOL    HW226373   4.046   0.388   8.229 -0.5052  0.8223 -1.5070
 4914SOL     OW26374   1.439   0.703   8.165 -0.1996 -0.0572  0.3418
 4914SOL    HW126375   1.478   0.764   8.103 -0.2542 -0.6903 -0.3083
 4914SOL    HW226376   1.348   0.707   8.136 -0.0038  1.1948 -0.1246
 4915SOL     OW26377   2.751   2.361  12.885  0.2145  0.0353 -0.3561
 4915SOL    HW126378   2.808   2.382  12.959  0.3396 -0.3455 -0.3417
 4915SOL    HW226379   2.712   2.440  12.847 -2.9381 -1.6137 -0.5321
 4916SOL     OW26380   2.262   4.103   6.117 -0.1152  0.7337  0.9712
 4916SOL    HW126381   2.167   4.105   6.129 -0.1134 -2.4209  1.5889
 4916SOL    HW226382   2.293   4.070   6.201 -2.4857 -1.0319  1.1709
 4917SOL     OW26383   1.295   3.383   5.073  0.5057 -0.8410  0.2169
 4917SOL    HW126384   1.312   3.443   5.146 -1.0637 -0.3289  0.1668
 4917SOL    HW226385   1.383   3.359   5.043  0.4758 -0.5375 -0.1072
 4918SOL     OW26386   0.903   3.080   4.530  0.0918 -0.3141 -1.0247
 4918SOL    HW126387   0.848   3.138   4.477  1.6306 -0.9004 -3.2984
 4918SOL    HW226388   0.927   3.015   4.464  4.4402  0.4980 -0.2812
 4919SOL     OW26389   3.314   2.470  16.201  0.3958  0.0106  0.0426
 4919SOL    HW126390   3.330   2.492  16.110  2.7542  2.0823  0.9593
 4919SOL    HW226391   3.351   2.382  16.196 -0.2934 -0.2924  0.3068
 4920SOL     OW26392   3.306   3.562  12.651  0.0330 -0.3245  0.3590
 4920SOL    HW126393   3.350   3.648  12.649 -0.2189 -0.2050 -0.0104
 4920SOL    HW226394   3.381   3.504  12.642 -0.5030 -1.0216  0.4192
 4921SOL     OW26395   3.481   3.720   6.562 -0.6075  0.1764 -0.3354
 4921SOL    HW126396   3.483   3.632   6.600  2.0230  0.3853 -0.0440
 4921SOL    HW226397   3.514   3.775   6.633  1.6699 -2.3694  0.5630
 4922SOL     OW26398   4.168   0.938   4.517 -0.4231 -0.2331  0.0723
 4922SOL    HW126399   4.209   1.005   4.571 -1.7591  0.5604  0.1030
 4922SOL    HW226400   4.195   0.966   4.430  1.7049 -2.9684 -0.1500
 4923SOL     OW26401   2.717   2.296   7.208  0.5821 -0.4574 -0.0145
 4923SOL    HW126402   2.701   2.232   7.139 -0.2382 -0.2599 -0.0030
 4923SOL    HW226403   2.649   2.361   7.195  2.1799  1.1706 -0.3016
 4924SOL     OW26404   1.960   0.787   2.403 -0.1647 -0.1781 -0.2380
 4924SOL    HW126405   1.970   0.735   2.483 -0.3582 -0.9886 -0.7418
 4924SOL    HW226406   2.048   0.795   2.369 -0.6715  1.7595 -1.0851
 4925SOL     OW26407   3.816   0.552   1.231 -0.5475 -0.1296 -0.5457
 4925SOL    HW126408   3.758   0.486   1.194  1.8277 -1.8586 -1.1879
 4925SOL    HW226409   3.782   0.628   1.184  0.1756 -0.5316 -1.7230
 4926SOL     OW26410   0.989   3.518  16.714 -0.8906 -0.4225  0.2073
 4926SOL    HW126411   1.020   3.605  16.689 -0.2843 -0.2611  1.5459
 4926SOL    HW226412   1.011   3.472  16.633  1.5218  2.3290 -0.6848
 4927SOL     OW26413   0.282   2.701   5.923  0.9607  0.2715 -0.2058
 4927SOL    HW126414   0.367   2.706   5.966  0.2829 -1.6096  1.3316
 4927SOL    HW226415   0.244   2.647   5.992 -0.1136  0.2158 -0.8426
 4928SOL     OW26416   1.509   4.122   5.268 -0.1970 -0.4912 -0.8743
 4928SOL    HW126417   1.561   4.184   5.216 -1.2314  1.3031  0.2216
 4928SOL    HW226418   1.571   4.115   5.341  2.3905  0.5723 -2.9524
 4929SOL     OW26419   4.186   2.101   5.657  0.5264 -0.7016  0.3939
 4929SOL    HW126420   4.139   2.021   5.680  2.3263 -1.4730  1.3367
 4929SOL    HW226421   4.129   2.166   5.697 -1.4222 -1.2387 -1.4889
 4930SOL     OW26422   1.448   0.174   7.783  0.0259 -0.4566 -0.0119
 4930SOL    HW126423   1.449   0.258   7.829 -0.7192 -0.8104  0.6557
 4930SOL    HW226424   1.509   0.196   7.713 -0.8040  1.4065 -0.1520
 4931SOL     OW26425   1.993   2.144   8.382 -0.1393  0.2976  0.1305
 4931SOL    HW126426   1.985   2.090   8.303  1.3257  0.9743 -0.4838
 4931SOL    HW226427   2.073   2.195   8.365 -0.5563  1.8332  2.7430
 4932SOL     OW26428   3.046   4.493   4.625  0.0478 -0.0421  0.2805
 4932SOL    HW126429   3.031   4.492   4.530 -0.3148  0.2882  0.3334
 4932SOL    HW226430   3.013   4.410   4.660 -0.2951  0.2564  0.6667
 4933SOL     OW26431   4.554   0.976   1.675  0.2948  0.4918 -0.6664
 4933SOL    HW126432   4.620   0.966   1.743 -0.5453  1.1895  0.2688
 4933SOL    HW226433   4.475   0.967   1.729  1.3043  0.9555  0.8896
 4934SOL     OW26434   4.179   2.391   2.634  0.2182  0.0834  0.1908
 4934SOL    HW126435   4.196   2.307   2.677 -0.8991  0.3556  1.1600
 4934SOL    HW226436   4.094   2.417   2.669  0.3505  0.4443  0.2473
 4935SOL     OW26437   1.342   2.346  13.291  0.5286  0.6126 -0.0594
 4935SOL    HW126438   1.282   2.420  13.298 -1.6504 -1.3696  1.6966
 4935SOL    HW226439   1.383   2.357  13.377  2.3171 -0.5488 -0.7454
 4936SOL     OW26440   4.549   3.032   6.804 -0.0435 -0.3630 -0.6464
 4936SOL    HW126441   4.611   3.069   6.742  2.8820  0.0768  2.5326
 4936SOL    HW226442   4.503   3.115   6.814 -0.0437 -0.4557  0.1199
 4937SOL     OW26443   0.628   2.752   2.268  0.7509 -1.0342 -0.2853
 4937SOL    HW126444   0.575   2.675   2.285 -0.1058 -0.5377 -0.6810
 4937SOL    HW226445   0.571   2.817   2.226  0.2214 -0.7534  0.8522
 4938SOL     OW26446   1.340   1.777   8.076 -0.8403  0.8048 -0.3487
 4938SOL    HW126447   1.329   1.688   8.111  1.0313  0.8890  0.4212
 4938SOL    HW226448   1.273   1.780   8.008  0.6933 -3.3644 -2.0132
 4939SOL     OW26449   0.263   3.012  14.374 -0.2281  0.5696 -0.0329
 4939SOL    HW126450   0.308   3.043  14.295 -1.2954 -3.8125 -2.3796
 4939SOL    HW226451   0.336   2.981  14.427 -0.4186 -0.2839 -0.2581
 4940SOL     OW26452   3.566   2.847   5.525 -0.3134 -0.2070 -0.6018
 4940SOL    HW126453   3.577   2.782   5.456 -2.0281  0.7660 -1.7970
 4940SOL    HW226454   3.470   2.843   5.534 -0.0618 -1.4595  1.4306
 4941SOL     OW26455   4.570   3.775   6.935  0.5037 -0.2078  0.5111
 4941SOL    HW126456   4.629   3.763   6.860 -1.4395 -0.7682 -0.9425
 4941SOL    HW226457   4.568   3.870   6.938 -2.8402 -0.3118  1.8275
 4942SOL     OW26458   1.524   1.433  14.682 -0.0663 -0.5004 -0.0576
 4942SOL    HW126459   1.498   1.413  14.592  1.9407  2.9142 -1.4133
 4942SOL    HW226460   1.561   1.348  14.705 -0.0057 -0.7904 -1.2459
 4943SOL     OW26461   2.507   2.910   3.463 -0.1930  0.8661 -0.1491
 4943SOL    HW126462   2.434   2.863   3.503  0.2813 -0.4421 -0.8010
 4943SOL    HW226463   2.570   2.931   3.532  0.6845 -0.8033 -0.4376
 4944SOL     OW26464   0.715   4.730   1.154  0.4083  0.1520 -0.1056
 4944SOL    HW126465   0.665   4.713   1.074 -1.0430  2.5105  0.3262
 4944SOL    HW226466   0.798   4.723   1.106  0.2149  2.4593 -0.7866
 4945SOL     OW26467   0.698   1.990   4.585  0.0873  0.3271 -0.3148
 4945SOL    HW126468   0.703   1.913   4.642  0.2668  0.6928  0.1665
 4945SOL    HW226469   0.605   2.009   4.580  0.6206  2.1878 -3.3630
 4946SOL     OW26470   0.936   1.534  14.595  0.0415 -0.1389 -0.1187
 4946SOL    HW126471   0.954   1.561  14.685  0.8069  0.3083 -0.4124
 4946SOL    HW226472   0.881   1.606  14.566 -0.3099 -0.1495  0.5242
 4947SOL     OW26473   2.314   2.503   4.940  0.8504 -0.0494  0.4295
 4947SOL    HW126474   2.397   2.455   4.950  0.4336 -0.8771 -0.1114
 4947SOL    HW226475   2.309   2.549   5.024  0.4031 -0.6500  0.7320
 4948SOL     OW26476   2.909   2.694   6.548  0.4434  0.0181  0.1255
 4948SOL    HW126477   2.822   2.701   6.509  0.3432  1.4800  0.6099
 4948SOL    HW226478   2.949   2.613   6.517  2.6124  0.7394  1.0515
 4949SOL     OW26479   1.446   4.536  13.841 -0.3373  0.1069 -0.4355
 4949SOL    HW126480   1.373   4.570  13.788 -0.6706  1.6023  0.9708
 4949SOL    HW226481   1.525   4.569  13.799  0.4572 -0.4526  0.6222
 4950SOL     OW26482   2.904   2.637   7.617  0.0332  0.1256  0.0392
 4950SOL    HW126483   2.929   2.601   7.531 -1.3069 -0.7749  0.0367
 4950SOL    HW226484   2.811   2.618   7.629 -0.5062  1.2350 -2.2483
 4951SOL     OW26485   0.476   2.217   6.893 -0.2201 -0.2626 -0.0533
 4951SOL    HW126486   0.494   2.211   6.987 -2.2287  2.5205  0.5207
 4951SOL    HW226487   0.423   2.139   6.881 -0.4541 -0.3100  1.2141
 4952SOL     OW26488   2.549   4.267  15.630  0.8149 -0.2192 -0.0962
 4952SOL    HW126489   2.621   4.232  15.578 -0.7567 -0.1133 -2.3355
 4952SOL    HW226490   2.474   4.221  15.591 -0.7618  0.1505  2.4335
 4953SOL     OW26491   1.510   1.436   3.088  0.3151  0.0729  0.3519
 4953SOL    HW126492   1.526   1.530   3.079  1.6034 -0.3679 -1.8894
 4953SOL    HW226493   1.508   1.411   2.996  2.7665  0.4717  0.1829
 4954SOL     OW26494   0.405   3.878   5.974 -0.1056 -0.4208 -0.0699
 4954SOL    HW126495   0.401   3.935   5.898  0.6565  0.8665  0.8436
 4954SOL    HW226496   0.343   3.809   5.952 -0.3770 -0.0114 -0.5974
 4955SOL     OW26497   0.664   0.018   9.642 -0.1486  0.7768 -0.2764
 4955SOL    HW126498   0.703   0.057   9.720  1.9184 -0.9408 -0.4479
 4955SOL    HW226499   0.684   4.662   9.642  0.2749  0.8670  0.0045
 4956SOL     OW26500   1.777   3.934   6.269  0.1942  0.2485  0.3766
 4956SOL    HW126501   1.686   3.957   6.291  0.7886  0.8057  2.2163
 4956SOL    HW226502   1.769   3.845   6.303 -1.7659  1.2786  2.6441
 4957SOL     OW26503   1.834   1.582  15.491 -0.1735 -0.0903 -0.0647
 4957SOL    HW126504   1.872   1.615  15.573  0.3942 -0.1043 -0.3184
 4957SOL    HW226505   1.746   1.619  15.498 -0.1311 -0.0909  0.4878
 4958SOL     OW26506   3.053   1.220   7.975  0.6450 -0.2281 -0.1326
 4958SOL    HW126507   3.003   1.292   8.015  2.4227  0.6719  0.4868
 4958SOL    HW226508   3.069   1.162   8.050  1.0810  0.2155  0.1198
 4959SOL     OW26509   1.036   0.002   6.055 -0.1094  0.3411  0.1613
 4959SOL    HW126510   1.047   0.087   6.097 -0.8655  0.5696 -0.0934
 4959SOL    HW226511   1.045   0.024   5.962 -0.1641  1.1882  0.3577
 4960SOL     OW26512   3.055   1.997   6.715  0.3952  0.6544 -0.0051
 4960SOL    HW126513   3.013   2.083   6.727  0.5912  0.5728  1.2493
 4960SOL    HW226514   3.066   1.967   6.805  0.9053  0.1454 -0.2406
 4961SOL     OW26515   0.683   4.614   6.621  0.2712 -0.9596  0.1293
 4961SOL    HW126516   0.652   4.686   6.676 -2.1077 -2.6355  0.9533
 4961SOL    HW226517   0.773   4.618   6.653  0.6740 -3.5521 -0.7171
 4962SOL     OW26518   4.370   2.686   5.549 -0.4882 -0.7541  0.5665
 4962SOL    HW126519   4.436   2.644   5.604 -2.3804 -1.8217  2.0575
 4962SOL    HW226520   4.391   2.776   5.570 -0.5737 -0.4830 -0.5181
 4963SOL     OW26521   0.728   2.681   9.013 -0.3007 -0.0606 -0.5759
 4963SOL    HW126522   0.746   2.765   8.970 -2.1780  2.0764  2.8001
 4963SOL    HW226523   0.814   2.639   9.018 -0.0382  0.5466 -0.0124
 4964SOL     OW26524   0.891   0.843   6.088 -0.3752  0.0861 -0.2311
 4964SOL    HW126525   0.828   0.771   6.085 -0.2815 -0.0308  0.7325
 4964SOL    HW226526   0.837   0.922   6.081  4.0927  3.2390  0.9240
 4965SOL     OW26527   2.979   0.122  15.334 -0.1235  0.2145  0.3661
 4965SOL    HW126528   2.909   0.182  15.307 -0.2125 -0.4386 -0.8511
 4965SOL    HW226529   2.938   0.081  15.410  1.1903 -1.4385  0.1679
 4966SOL     OW26530   1.219   3.357   6.179  0.1177 -0.4486  0.8204
 4966SOL    HW126531   1.243   3.447   6.198 -1.7393 -0.3159  2.4969
 4966SOL    HW226532   1.262   3.315   6.253  2.9242 -0.9267 -1.0544
 4967SOL     OW26533   3.723   1.218   7.698 -0.3305 -0.3043 -0.3202
 4967SOL    HW126534   3.634   1.243   7.673 -0.4671 -0.6077 -0.1378
 4967SOL    HW226535   3.716   1.124   7.715 -1.3795  0.0725  1.3274
 4968SOL     OW26536   2.504   3.882   6.646 -0.4056  0.3701 -0.4339
 4968SOL    HW126537   2.446   3.932   6.704 -1.2741 -1.2797  0.1302
 4968SOL    HW226538   2.589   3.912   6.678 -1.1700  0.2036  1.7394
 4969SOL     OW26539   0.166   4.288   7.600  0.1314 -0.1081  0.1187
 4969SOL    HW126540   0.106   4.214   7.602  1.9806 -1.6532 -0.7139
 4969SOL    HW226541   0.230   4.263   7.533 -3.0085 -3.5191 -1.5515
 4970SOL     OW26542   3.879   1.792   8.973 -0.0571 -0.5720 -0.0254
 4970SOL    HW126543   3.907   1.720   8.916  2.9722 -1.4568  2.5678
 4970SOL    HW226544   3.858   1.859   8.908  2.4976  1.4381  1.2611
 4971SOL     OW26545   1.164   0.435   3.006 -0.0383 -0.3027 -0.2661
 4971SOL    HW126546   1.217   0.513   3.022 -0.5493 -0.2108  0.9876
 4971SOL    HW226547   1.206   0.369   3.061 -0.5246 -0.1830  0.2478
 4972SOL     OW26548   4.446   2.020   5.752 -0.3497 -0.5018  0.2800
 4972SOL    HW126549   4.359   2.037   5.715 -0.9759 -0.8082  1.6252
 4972SOL    HW226550   4.464   1.946   5.694 -0.6707 -0.0425 -0.4053
 4973SOL     OW26551   3.295   2.328   2.107  0.1976 -0.7128 -0.3766
 4973SOL    HW126552   3.275   2.237   2.087  2.9680 -1.9419  2.3252
 4973SOL    HW226553   3.244   2.353   2.184  1.1872 -1.3860  0.4951
 4974SOL     OW26554   4.495   3.453   1.745 -0.1366  0.1513  0.4523
 4974SOL    HW126555   4.466   3.545   1.745 -0.0046  0.1925  0.8144
 4974SOL    HW226556   4.516   3.443   1.652 -1.5167  0.8620  0.0608
 4975SOL     OW26557   3.110   2.031   5.378 -0.7869  0.0177  0.0582
 4975SOL    HW126558   3.105   1.974   5.454 -0.9306 -2.5952 -1.9313
 4975SOL    HW226559   3.052   2.104   5.399 -2.0318 -0.7300 -0.8090
 4976SOL     OW26560   3.745   4.164  12.973 -0.3476 -0.0591  0.6434
 4976SOL    HW126561   3.795   4.113  12.908  0.7119  3.2022 -1.0826
 4976SOL    HW226562   3.760   4.254  12.946  1.1433 -0.2993  0.6464
 4977SOL     OW26563   0.823   0.458   7.287  0.6125  0.2408  0.2568
 4977SOL    HW126564   0.898   0.422   7.334  1.6836  0.3782 -1.3396
 4977SOL    HW226565   0.753   0.417   7.338 -0.8995  0.4576 -1.6211
 4978SOL     OW26566   2.592   0.748  10.056 -0.4965  0.4805 -0.1886
 4978SOL    HW126567   2.628   0.809   9.992  0.4818  0.1946  0.0994
 4978SOL    HW226568   2.544   0.811  10.109 -1.4612  1.0876 -1.7874
 4979SOL     OW26569   3.282   2.485  11.770 -0.5056  0.1422  0.2602
 4979SOL    HW126570   3.336   2.414  11.804 -0.7964  0.8948  2.3406
 4979SOL    HW226571   3.199   2.439  11.760 -0.2799  0.2478 -2.1236
 4980SOL     OW26572   2.165   3.937   5.557 -0.5223 -0.0195 -0.6989
 4980SOL    HW126573   2.173   3.978   5.644  1.1374 -0.7325 -0.5036
 4980SOL    HW226574   2.257   3.945   5.531 -1.0674  1.1547 -2.2627
 4981SOL     OW26575   2.337   0.992  14.134 -0.0357 -0.1854  0.1213
 4981SOL    HW126576   2.277   1.057  14.097  0.8543  1.5519  1.7490
 4981SOL    HW226577   2.302   0.909  14.101  0.2082  0.3823 -1.5586
 4982SOL     OW26578   1.971   2.108   2.607  0.5619  0.8105 -0.2058
 4982SOL    HW126579   1.950   2.130   2.698 -0.1708 -0.0470 -0.1700
 4982SOL    HW226580   2.057   2.069   2.623  0.6081  1.1285  0.3465
 4983SOL     OW26581   1.786   0.871   6.271  0.2352 -0.2039  0.3480
 4983SOL    HW126582   1.745   0.907   6.349 -0.3213  0.6662 -0.3536
 4983SOL    HW226583   1.751   0.934   6.208  0.4096  0.2828  0.7422
 4984SOL     OW26584   2.294   2.582   2.151 -0.6236 -0.1022 -0.0017
 4984SOL    HW126585   2.216   2.536   2.184 -0.3636  0.9018  2.0499
 4984SOL    HW226586   2.320   2.537   2.071  1.0217  2.4940 -0.8944
 4985SOL     OW26587   4.321   2.862   5.871 -0.5091 -0.6927  0.1313
 4985SOL    HW126588   4.395   2.923   5.870 -1.4349  0.4385  0.3288
 4985SOL    HW226589   4.359   2.782   5.907  1.4918  0.6637  1.0417
 4986SOL     OW26590   0.491   4.337   3.757 -0.2488 -0.1253 -0.2111
 4986SOL    HW126591   0.442   4.363   3.679  1.5873 -0.3968 -1.4570
 4986SOL    HW226592   0.579   4.355   3.723 -1.8593  4.8448 -1.5889
 4987SOL     OW26593   2.396   2.515  12.519 -0.4595 -0.2683 -0.4387
 4987SOL    HW126594   2.329   2.550  12.460  1.5114  1.3963 -1.6705
 4987SOL    HW226595   2.338   2.463  12.575  0.3671  0.6269  1.2354
 4988SOL     OW26596   4.433   3.748   8.815 -0.9403  0.3160  0.4086
 4988SOL    HW126597   4.398   3.753   8.904 -2.5281 -0.2089 -0.1726
 4988SOL    HW226598   4.352   3.752   8.763 -0.7536  1.0465  0.1840
 4989SOL     OW26599   0.223   3.153   3.011  0.3954 -0.1561  0.2263
 4989SOL    HW126600   0.278   3.230   2.993 -0.8510  0.7197  0.1321
 4989SOL    HW226601   0.225   3.110   2.926 -2.2540  4.0869 -1.9711
 4990SOL     OW26602   0.483   3.834   3.674  0.4276 -0.3088  0.0983
 4990SOL    HW126603   0.569   3.872   3.691  0.8842 -0.7897 -1.1196
 4990SOL    HW226604   0.458   3.904   3.614 -0.0177 -0.9681 -0.4872
 4991SOL     OW26605   2.339   0.966  15.344 -0.1686 -0.0589  0.7697
 4991SOL    HW126606   2.370   1.017  15.269 -0.1438 -0.6780  0.3572
 4991SOL    HW226607   2.368   0.879  15.318 -1.7202 -0.8036  1.4944
 4992SOL     OW26608   3.030   4.684  15.143  0.5503  0.0458 -0.2524
 4992SOL    HW126609   3.006   4.593  15.159 -2.2356  1.5266  4.0482
 4992SOL    HW226610   2.984   4.734  15.211 -1.3448  1.8417 -2.8700
 4993SOL     OW26611   3.488   2.441   1.440  0.2163  0.1935  0.2773
 4993SOL    HW126612   3.494   2.519   1.385 -2.1922 -0.3637 -0.7834
 4993SOL    HW226613   3.536   2.466   1.519 -2.1077  1.4922  1.2787
 4994SOL     OW26614   1.581   4.724   3.983 -0.0403  0.1670 -0.3871
 4994SOL    HW126615   1.548   0.075   3.972  1.3758  0.9016  1.1959
 4994SOL    HW226616   1.668   0.003   3.945 -0.0967 -1.4777 -1.2260
 4995SOL     OW26617   4.569   3.916   1.566 -0.2666  0.3103 -0.0992
 4995SOL    HW126618   4.598   3.999   1.604  0.1510 -0.1355  0.5711
 4995SOL    HW226619   4.506   3.945   1.501 -1.6459 -1.8461  0.2808
 4996SOL     OW26620   0.352   1.331   1.021  0.1976 -0.0205 -0.0176
 4996SOL    HW126621   0.353   1.426   1.038  0.0612 -0.0858  0.3671
 4996SOL    HW226622   0.313   1.331   0.934  1.3001 -0.9659 -0.4954
 4997SOL     OW26623   3.819   4.204   8.956  0.2357 -0.0496  0.0486
 4997SOL    HW126624   3.795   4.211   9.048 -1.7335 -1.1018 -0.3727
 4997SOL    HW226625   3.909   4.174   8.968  0.6847  1.6920  1.0174
 4998SOL     OW26626   1.262   3.108   0.941  0.4696 -0.2098  0.0845
 4998SOL    HW126627   1.223   3.180   0.990 -0.3459 -1.7096  1.6196
 4998SOL    HW226628   1.276   3.144   0.853  0.3657  0.1901  0.2330
 4999SOL     OW26629   4.079   0.249   2.793 -0.6046  0.2233  0.1754
 4999SOL    HW126630   4.166   0.282   2.815  0.3432 -2.0261 -0.2128
 4999SOL    HW226631   4.100   0.225   2.703  0.3022 -2.4436  1.0779
 5000SOL     OW26632   1.040   0.181   0.019  0.4743  0.3571 -0.5349
 5000SOL    HW126633   0.998   0.184   0.105 -0.7741  3.1476 -1.2350
 5000SOL    HW226634   1.134   0.188   0.030  0.1832  2.9986  0.3392
 5001SOL     OW26635   4.672   1.469   5.484 -0.5214  0.0565 -0.2383
 5001SOL    HW126636   4.698   1.561   5.486  0.3246 -0.2193  2.5531
 5001SOL    HW226637   4.687   1.437   5.573  1.1413  0.4350 -0.3856
 5002SOL     OW26638   3.203   1.429   0.200  0.1030  0.2762  0.1683
 5002SOL    HW126639   3.278   1.486   0.183 -0.3865  0.4824 -1.3611
 5002SOL    HW226640   3.239   1.345   0.228  0.0117 -0.4689 -1.8688
 5003SOL     OW26641   1.555   3.950   0.581 -0.5727 -0.1259  0.1668
 5003SOL    HW126642   1.638   3.992   0.603 -0.2761 -0.3630 -0.4949
 5003SOL    HW226643   1.553   3.903   0.664 -0.9363 -0.1253  0.1595
 5004SOL     OW26644   4.186   1.338   0.305 -0.6157  0.6034 -0.1497
 5004SOL    HW126645   4.189   1.417   0.359 -1.5595 -0.0273  0.8363
 5004SOL    HW226646   4.170   1.382   0.222  0.4873 -0.8548 -1.1274
 5005SOL     OW26647   2.844   4.072   6.337 -0.3769 -0.1461 -0.1793
 5005SOL    HW126648   2.908   4.135   6.302 -1.6883  1.7352  0.8321
 5005SOL    HW226649   2.856   3.995   6.282 -1.1324 -0.4492  0.0928
 5006SOL     OW26650   1.681   3.816  10.409  0.0069 -0.4129 -0.1134
 5006SOL    HW126651   1.705   3.817  10.317  0.8861  1.8292  0.1317
 5006SOL    HW226652   1.587   3.803  10.399  0.1092  1.1506 -2.8941
 5007SOL     OW26653   0.587   2.045  12.564  0.0138 -0.6943  0.0109
 5007SOL    HW126654   0.507   1.996  12.584  0.7289 -1.0911  1.9809
 5007SOL    HW226655   0.556   2.106  12.497 -1.4494 -1.3027  0.1304
 5008SOL     OW26656   3.019   2.844   9.247 -0.2793 -0.1757  0.1240
 5008SOL    HW126657   3.044   2.753   9.263  1.5264  0.5435  1.3323
 5008SOL    HW226658   3.022   2.845   9.152  1.4267 -2.3145  0.1682
 5009SOL     OW26659   0.458   1.085   3.296  0.0182 -0.1017  0.1296
 5009SOL    HW126660   0.451   1.019   3.228  1.4234  0.5565 -0.6536
 5009SOL    HW226661   0.551   1.084   3.319 -0.0013  2.2670  0.3148
 5010SOL     OW26662   0.567   1.686   0.737  0.0246  0.4714  0.3748
 5010SOL    HW126663   0.658   1.688   0.708  0.3021 -0.8743  1.1983
 5010SOL    HW226664   0.555   1.597   0.769 -0.4631  0.4513  0.1358
 5011SOL     OW26665   1.663   0.626   1.852 -0.6574 -0.1350 -0.2865
 5011SOL    HW126666   1.695   0.543   1.816 -1.7816 -0.4638 -0.5096
 5011SOL    HW226667   1.589   0.596   1.905 -1.3101  1.9985  0.0013
 5012SOL     OW26668   3.125   4.113   6.492  0.1168 -0.1041  0.6272
 5012SOL    HW126669   3.050   4.084   6.440 -0.0463  1.0840  0.2047
 5012SOL    HW226670   3.196   4.064   6.450 -1.1922 -0.9325 -0.6261
 5013SOL     OW26671   2.414   1.360   9.208 -0.2907  0.2948  0.0222
 5013SOL    HW126672   2.354   1.289   9.184  0.4881  0.4205 -2.3290
 5013SOL    HW226673   2.500   1.318   9.204 -1.2684 -1.9217  2.1396
 5014SOL     OW26674   3.257   0.493  13.516 -0.1495 -0.4562  0.5139
 5014SOL    HW126675   3.210   0.556  13.462 -1.3984 -2.8217 -1.1367
 5014SOL    HW226676   3.276   0.434  13.443 -2.6717 -0.5959 -0.0375
 5015SOL     OW26677   4.178   0.627   5.511 -0.0046  0.0626 -0.3990
 5015SOL    HW126678   4.172   0.547   5.459 -0.9197 -0.1019 -0.0341
 5015SOL    HW226679   4.098   0.678   5.498  0.3267  1.5185  3.2926
 5016SOL     OW26680   2.444   4.698   2.278  0.1922  0.6897 -0.3361
 5016SOL    HW126681   2.532   4.684   2.243  0.0982 -0.1928 -0.2125
 5016SOL    HW226682   2.436   0.056   2.269 -0.1113  0.7869  1.0310
 5017SOL     OW26683   4.582   1.828  11.421  0.0158  0.5303  0.3257
 5017SOL    HW126684   4.514   1.780  11.373 -1.5812  0.8254  2.2787
 5017SOL    HW226685   4.569   1.784  11.505 -1.9644  1.6502  0.6109
 5018SOL     OW26686   3.538   3.838   3.018 -0.2976  0.0987 -0.1242
 5018SOL    HW126687   3.505   3.888   3.092 -1.5384 -0.6770 -0.1465
 5018SOL    HW226688   3.613   3.888   2.987  1.0445 -0.7885  1.7290
 5019SOL     OW26689   3.107   4.316  12.017 -0.0584  0.2065  0.3536
 5019SOL    HW126690   3.039   4.334  12.082  0.4943 -0.3947  1.0967
 5019SOL    HW226691   3.178   4.375  12.042 -0.2968  0.4239  0.5212
 5020SOL     OW26692   4.664   0.134   9.474  0.6121  0.5483 -0.1131
 5020SOL    HW126693   0.021   0.126   9.469  0.5708  1.6703 -2.8349
 5020SOL    HW226694   4.641   0.093   9.391  0.3089 -1.6820  1.0863
 5021SOL     OW26695   0.985   3.361  12.893  0.0380 -0.4892 -0.0106
 5021SOL    HW126696   0.968   3.267  12.889 -0.5842 -0.3402 -0.8104
 5021SOL    HW226697   1.063   3.356  12.839 -0.6803 -0.7532 -1.0217
 5022SOL     OW26698   3.113   1.563   2.626  0.0769 -0.1635  0.3264
 5022SOL    HW126699   3.018   1.549   2.629  0.1905 -1.0919 -0.2673
 5022SOL    HW226700   3.134   1.571   2.719 -3.3212 -2.8150  1.3382
 5023SOL     OW26701   1.439   3.278   7.374  0.0946 -0.2400 -0.6331
 5023SOL    HW126702   1.401   3.366   7.378  0.9831  0.0787  0.7346
 5023SOL    HW226703   1.423   3.257   7.282 -0.6295 -1.5148 -0.2099
 5024SOL     OW26704   2.331   2.287  16.616  0.0650 -0.0928 -0.3835
 5024SOL    HW126705   2.376   2.207  16.588 -1.5765 -0.7615 -1.1527
 5024SOL    HW226706   2.262   2.243  16.666 -0.0030 -0.6125 -0.9232
 5025SOL     OW26707   4.483   3.494   1.018  0.7059  0.3891  0.4008
 5025SOL    HW126708   4.417   3.435   0.984 -0.0715  2.3897 -1.5692
 5025SOL    HW226709   4.563   3.457   0.981 -0.9597 -0.9650 -1.8003
 5026SOL     OW26710   0.841   0.703  16.841  0.0483  0.0621 -0.0027
 5026SOL    HW126711   0.793   0.782  16.815  0.4151  1.1622  2.7264
 5026SOL    HW226712   0.864   0.717  16.932  2.2648 -1.6828 -0.3236
 5027SOL     OW26713   0.366   4.643   9.594  0.1923  0.4960 -0.0222
 5027SOL    HW126714   0.367   4.576   9.663  0.5871  0.7965  0.2633
 5027SOL    HW226715   0.451   4.685   9.607  1.0800 -1.3348  0.1635
 5028SOL     OW26716   4.576   1.004   6.985  0.1612  0.1775  0.2661
 5028SOL    HW126717   4.631   0.947   7.040  1.4163  0.4872 -0.6645
 5028SOL    HW226718   4.558   0.952   6.907  1.9767  1.0523 -0.7496
 5029SOL     OW26719   3.156   0.607  12.206 -0.3432 -0.4609  0.3412
 5029SOL    HW126720   3.065   0.577  12.208 -0.8689  1.2161  1.6661
 5029SOL    HW226721   3.180   0.626  12.297  1.5376 -1.2084 -0.0019
 5030SOL     OW26722   3.621   0.635   2.311  0.7461  0.3468 -0.5041
 5030SOL    HW126723   3.671   0.607   2.388 -1.0327  0.6061  0.7741
 5030SOL    HW226724   3.699   0.665   2.265  1.3714 -1.0643 -0.3323
 5031SOL     OW26725   3.084   2.391   2.356 -0.3384  0.2343  0.0902
 5031SOL    HW126726   3.159   2.440   2.390  0.0766  1.3247 -2.4238
 5031SOL    HW226727   3.064   2.335   2.432 -0.7263 -0.6133 -0.6363
 5032SOL     OW26728   3.412   3.546   5.550  0.6927  0.6088  0.1678
 5032SOL    HW126729   3.369   3.507   5.474  0.3202 -1.3567  1.3826
 5032SOL    HW226730   3.504   3.554   5.523  0.2781  1.9933 -0.8538
 5033SOL     OW26731   3.867   3.441   8.568  0.0449 -0.0454  0.3900
 5033SOL    HW126732   3.850   3.532   8.543  0.6149 -0.0184  0.1003
 5033SOL    HW226733   3.959   3.452   8.589 -0.3319  0.8565  1.5548
 5034SOL     OW26734   1.386   4.609   3.836 -0.1574 -0.2184  0.3520
 5034SOL    HW126735   1.306   4.591   3.886 -2.8343 -0.1183 -3.8461
 5034SOL    HW226736   1.451   4.630   3.903  1.1862 -0.3169 -0.9396
 5035SOL     OW26737   3.623   0.690  12.145  0.3277  0.0647 -0.2746
 5035SOL    HW126738   3.614   0.758  12.211 -2.3463  0.7188 -1.2960
 5035SOL    HW226739   3.531   0.663  12.146 -0.0901  1.4102 -1.9481
 5036SOL     OW26740   4.426   0.642   1.704 -1.2107  0.3803  0.3485
 5036SOL    HW126741   4.368   0.576   1.666 -1.1100  0.0446  0.7659
 5036SOL    HW226742   4.486   0.665   1.633 -1.6868 -0.1067 -0.2101
 5037SOL     OW26743   3.182   2.819   7.891 -0.9979 -0.2973 -0.6423
 5037SOL    HW126744   3.183   2.807   7.796  0.1867  0.5420 -0.7380
 5037SOL    HW226745   3.238   2.747   7.920 -0.1060  0.9499  0.7529
 5038SOL     OW26746   1.392   2.141  15.537  0.5113 -0.2857 -0.2367
 5038SOL    HW126747   1.384   2.199  15.461 -1.0725  0.6756  0.6533
 5038SOL    HW226748   1.317   2.165  15.593  2.6151 -0.8394  2.7779
 5039SOL     OW26749   4.256   3.098   6.296  0.4984  0.2595 -0.1023
 5039SOL    HW126750   4.259   3.019   6.350 -3.2919 -0.3397 -0.8201
 5039SOL    HW226751   4.349   3.122   6.308  1.0327 -0.6562 -2.4169
 5040SOL     OW26752   4.375   4.055   2.470 -0.1054 -0.2855 -0.4324
 5040SOL    HW126753   4.292   4.032   2.427 -1.2106  2.5477  0.1610
 5040SOL    HW226754   4.367   4.146   2.499  1.7855 -0.5189  0.7735
 5041SOL     OW26755   3.915   2.793  13.442 -0.0422 -0.1997  0.7756
 5041SOL    HW126756   3.887   2.873  13.487 -1.0048  0.3071 -0.7188
 5041SOL    HW226757   4.009   2.790  13.461  0.0730  0.2528  0.2731
 5042SOL     OW26758   3.684   3.282   7.302  0.1022  0.3699 -0.3252
 5042SOL    HW126759   3.634   3.358   7.274 -0.1188  0.4176  0.2044
 5042SOL    HW226760   3.740   3.311   7.374  2.0980 -1.3348 -1.1892
 5043SOL     OW26761   0.914   3.202   3.145  0.1676 -0.0856  0.4308
 5043SOL    HW126762   0.917   3.271   3.080 -0.2517  0.0546  0.5620
 5043SOL    HW226763   1.002   3.205   3.183  0.5430  0.8149 -0.5012
 5044SOL     OW26764   4.244   3.923   1.945  0.1468  0.0797  0.4820
 5044SOL    HW126765   4.276   4.006   1.911  0.1565  0.8392  2.3545
 5044SOL    HW226766   4.329   3.879   1.953  0.9594  1.5492 -0.1094
 5045SOL     OW26767   4.707   3.454  13.151 -0.1771  0.1040 -0.0692
 5045SOL    HW126768   4.692   3.426  13.241 -0.7488 -1.4214 -0.6558
 5045SOL    HW226769   4.628   3.500  13.123  0.0656  0.8970  0.5392
 5046SOL     OW26770   0.731   0.076   4.656 -0.4240 -0.3770 -0.1365
 5046SOL    HW126771   0.741   0.052   4.748 -0.8628  1.0132  0.2733
 5046SOL    HW226772   0.670   0.150   4.656  0.0016 -0.0342 -0.0307
 5047SOL     OW26773   1.231   2.106   6.999  0.1590 -0.2697 -0.7059
 5047SOL    HW126774   1.158   2.084   7.057  1.8164  0.9486  1.8999
 5047SOL    HW226775   1.194   2.190   6.972  0.0224 -0.0841  0.0360
 5048SOL     OW26776   4.694   0.609   5.602 -0.0119  0.0957  0.0565
 5048SOL    HW126777   4.646   0.687   5.575 -0.3642  0.5531  1.9719
 5048SOL    HW226778   0.048   0.634   5.608 -0.3540  1.7036 -1.5484
 5049SOL     OW26779   2.882   0.472  16.801 -0.0469  0.0276 -0.4984
 5049SOL    HW126780   2.905   0.539  16.736 -0.5035  1.0534  0.4025
 5049SOL    HW226781   2.796   0.447  16.766  0.9922  0.2920 -3.2727
 5050SOL     OW26782   4.281   0.857   4.050  0.3418  0.2399 -0.1406
 5050SOL    HW126783   4.365   0.828   4.085 -1.2467 -1.8479  1.9663
 5050SOL    HW226784   4.316   0.890   3.967 -3.3100  0.9177 -1.4220
 5051SOL     OW26785   1.096   0.584  10.845  0.1762 -0.1086  0.1125
 5051SOL    HW126786   1.115   0.653  10.781 -1.0108 -1.3058 -1.5182
 5051SOL    HW226787   1.171   0.525  10.837  0.9348  0.7145  1.2333
 5052SOL     OW26788   1.603   1.700   3.611  0.1178 -0.5617  0.4497
 5052SOL    HW126789   1.617   1.739   3.698  0.0555 -0.7866  0.5600
 5052SOL    HW226790   1.605   1.775   3.551  0.5984 -0.7098  0.2787
 5053SOL     OW26791   3.268   1.361   8.752  0.1235  0.0693  0.3108
 5053SOL    HW126792   3.277   1.436   8.810 -0.6371  1.4977 -1.3936
 5053SOL    HW226793   3.359   1.334   8.748 -0.5507 -2.1926  0.3581
 5054SOL     OW26794   3.272   3.061  13.848  0.4449 -0.1413  0.3065
 5054SOL    HW126795   3.298   3.105  13.929  0.4735  0.7674 -0.2076
 5054SOL    HW226796   3.227   3.132  13.802  0.6725  0.2815  0.7360
 5055SOL     OW26797   2.002   2.975  17.030 -0.0372 -0.0338  0.2654
 5055SOL    HW126798   2.044   3.055  16.998 -0.3915  0.0488  0.0154
 5055SOL    HW226799   1.993   2.922  16.951  0.6611  0.0663  0.1223
 5056SOL     OW26800   1.169   0.654  14.515 -0.0681  0.2320  0.5830
 5056SOL    HW126801   1.091   0.709  14.518 -2.2587 -2.7918 -1.1470
 5056SOL    HW226802   1.142   0.578  14.567 -0.8604  0.0292 -0.1341
 5057SOL     OW26803   0.186   3.971   9.966  0.0779  0.7707 -0.1847
 5057SOL    HW126804   0.209   4.034  10.035  0.0947  0.9625 -0.3663
 5057SOL    HW226805   0.156   3.892  10.011 -0.3160  1.5830  0.9852
 5058SOL     OW26806   2.368   2.443   1.930  0.5802  0.4173 -0.0137
 5058SOL    HW126807   2.441   2.400   1.974 -1.5206 -1.9551  1.1189
 5058SOL    HW226808   2.402   2.463   1.842 -2.7188  1.7477 -1.0044
 5059SOL     OW26809   2.138   1.977  14.090  0.0363  0.3839 -0.1538
 5059SOL    HW126810   2.073   2.029  14.137 -1.7123  0.9305 -3.1988
 5059SOL    HW226811   2.085   1.912  14.045  3.1796 -2.5923  0.4674
 5060SOL     OW26812   3.861   2.129  15.642  0.3083  0.1954 -0.0875
 5060SOL    HW126813   3.776   2.164  15.668  0.3941  1.9642 -2.2447
 5060SOL    HW226814   3.842   2.036  15.625  0.2829  0.2004 -0.0860
 5061SOL     OW26815   0.575   1.341   1.235  0.0392  0.3837 -0.5194
 5061SOL    HW126816   0.586   1.414   1.296 -2.0156  0.1217  0.1694
 5061SOL    HW226817   0.514   1.372   1.168  0.5873  1.3254 -0.5753
 5062SOL     OW26818   2.539   0.057   8.951  0.5792  0.2655 -0.5467
 5062SOL    HW126819   2.611   0.114   8.924  1.5593  0.3894  2.2787
 5062SOL    HW226820   2.533   4.736   8.876 -2.8746 -0.2415  0.1459
 5063SOL     OW26821   0.535   2.149   7.979  0.0208  0.1858 -0.2270
 5063SOL    HW126822   0.526   2.091   7.903 -0.4573  2.4257 -1.8750
 5063SOL    HW226823   0.579   2.086   8.036  1.4054  0.7992 -0.6004
 5064SOL     OW26824   4.317   3.258   7.884  0.0457 -0.2472  0.6086
 5064SOL    HW126825   4.272   3.329   7.931  2.7629  1.1238  1.1701
 5064SOL    HW226826   4.383   3.304   7.832  1.4658 -2.0326  0.8288
 5065SOL     OW26827   4.259   2.483   7.664 -0.1787  0.0069 -0.4373
 5065SOL    HW126828   4.348   2.451   7.670 -0.6936 -1.1391  1.2348
 5065SOL    HW226829   4.256   2.553   7.730 -0.0776 -0.2854 -0.1205
 5066SOL     OW26830   4.533   2.405   7.674  0.1627  0.0324 -0.7243
 5066SOL    HW126831   4.559   2.318   7.705  2.1413  0.8654 -0.0268
 5066SOL    HW226832   4.591   2.409   7.598  1.1724  1.8531  0.1666
 5067SOL     OW26833   2.945   3.386   9.648 -0.1035  0.6314 -0.0859
 5067SOL    HW126834   2.994   3.338   9.715 -2.3308 -2.0429 -0.3459
 5067SOL    HW226835   2.877   3.424   9.704  0.8275  0.4253  1.1802
 5068SOL     OW26836   1.299   1.591   5.307  0.1357 -0.7969 -0.8081
 5068SOL    HW126837   1.249   1.509   5.312  2.0724 -1.9416 -0.0817
 5068SOL    HW226838   1.381   1.568   5.349  0.4066  0.3487 -0.7080
 5069SOL     OW26839   0.007   3.369   2.522  0.4259  0.4406  0.2915
 5069SOL    HW126840   4.725   3.275   2.526 -0.6460  0.5866 -1.6782
 5069SOL    HW226841   4.658   3.395   2.552  0.3343 -1.7753  2.0031
 5070SOL     OW26842   0.666   1.710   1.013 -0.5161  0.3875  0.3140
 5070SOL    HW126843   0.660   1.790   0.960  0.2337 -0.8377 -1.6509
 5070SOL    HW226844   0.618   1.640   0.968 -1.2288  1.5785 -0.7716
 5071SOL     OW26845   2.618   2.868   8.821  0.5521 -0.1235 -0.8842
 5071SOL    HW126846   2.682   2.939   8.823 -0.8125  1.1051 -0.7622
 5071SOL    HW226847   2.542   2.919   8.847 -0.1925 -0.0573 -3.1529
 5072SOL     OW26848   1.735   3.128   2.675  0.3195  0.4645  0.6766
 5072SOL    HW126849   1.757   3.083   2.594  1.1941 -0.4422  1.4086
 5072SOL    HW226850   1.704   3.057   2.731 -0.6930 -1.0837 -1.8822
 5073SOL     OW26851   2.387   1.243   8.120 -0.2238  0.1279 -0.1387
 5073SOL    HW126852   2.296   1.260   8.144 -0.3154 -0.8338  0.1883
 5073SOL    HW226853   2.434   1.248   8.204  0.4103  0.4929 -0.5152
 5074SOL     OW26854   1.002   3.001   8.259 -0.0149  0.2308  0.3368
 5074SOL    HW126855   1.062   2.981   8.331  0.6524 -3.2839 -1.1881
 5074SOL    HW226856   1.023   2.941   8.187 -0.4031 -1.0015  1.2493
 5075SOL     OW26857   1.138   3.029  12.093 -0.0958  0.1104  0.5184
 5075SOL    HW126858   1.212   3.057  12.040  0.8165 -0.2722  1.5912
 5075SOL    HW226859   1.090   3.112  12.099 -0.9283 -0.2681 -0.8713
 5076SOL     OW26860   0.548   3.302   5.775 -0.5351  0.1340  0.1672
 5076SOL    HW126861   0.580   3.389   5.750  0.8000 -0.0301  1.3156
 5076SOL    HW226862   0.616   3.261   5.828 -0.3910  1.3243  0.9120
 5077SOL     OW26863   4.433   0.365   6.748 -0.5650 -0.1666  0.5848
 5077SOL    HW126864   4.449   0.424   6.821 -1.7855  1.3772 -0.4104
 5077SOL    HW226865   4.467   0.283   6.785  0.0247  0.6516  1.8311
 5078SOL     OW26866   1.734   1.202   1.914  0.2988 -0.9982  0.0920
 5078SOL    HW126867   1.661   1.264   1.916 -0.6933 -2.1685  0.0808
 5078SOL    HW226868   1.732   1.156   1.830 -1.8623 -1.2636  0.2867
 5079SOL     OW26869   0.705   2.883   5.274  0.3385  0.3846  0.2267
 5079SOL    HW126870   0.703   2.977   5.293  0.9694  0.1668  1.4078
 5079SOL    HW226871   0.793   2.869   5.311 -0.0955 -0.6487  0.8730
 5080SOL     OW26872   1.305   2.748  13.742  0.0194 -0.2031 -0.3191
 5080SOL    HW126873   1.345   2.741  13.828  1.1268  0.5195 -0.7613
 5080SOL    HW226874   1.332   2.832  13.703  1.7382  0.4054  2.2087
 5081SOL     OW26875   2.295   0.486   1.385 -0.0825  0.2061 -0.3044
 5081SOL    HW126876   2.381   0.517   1.412  0.0477 -0.2309 -0.2036
 5081SOL    HW226877   2.241   0.544   1.438 -3.1237 -2.0225 -0.9192
 5082SOL     OW26878   2.189   1.776   4.706 -0.2694  0.1877 -0.0668
 5082SOL    HW126879   2.120   1.839   4.726 -0.5508 -0.7230  1.7826
 5082SOL    HW226880   2.165   1.757   4.615 -2.0857 -1.0884  0.6796
 5083SOL     OW26881   1.318   3.991   9.334 -0.2838  0.0563 -0.0328
 5083SOL    HW126882   1.254   3.956   9.272 -0.1986  1.2539 -0.7984
 5083SOL    HW226883   1.359   4.060   9.282 -1.3464  0.3816 -0.4416
 5084SOL     OW26884   1.603   0.638   3.000  0.8937 -0.1053 -0.1164
 5084SOL    HW126885   1.511   0.631   3.024  0.9886  0.2949  0.3497
 5084SOL    HW226886   1.648   0.628   3.084  0.8851  0.2365 -0.0699
 5085SOL     OW26887   4.575   0.250  11.969  0.2106  0.1202  0.6515
 5085SOL    HW126888   4.655   0.302  11.966  0.2133  0.0844 -0.0863
 5085SOL    HW226889   4.520   0.314  11.923 -0.8263 -0.9473  0.3911
 5086SOL     OW26890   2.826   2.911   3.238 -0.2898 -0.1245  0.4496
 5086SOL    HW126891   2.814   3.006   3.231  1.8703  0.1423  0.1327
 5086SOL    HW226892   2.818   2.873   3.150 -0.3230 -0.7575  0.7265
 5087SOL     OW26893   1.776   1.624  12.874 -0.3539  0.1965 -0.0786
 5087SOL    HW126894   1.772   1.547  12.930  2.6258 -1.4462 -2.1150
 5087SOL    HW226895   1.736   1.603  12.790 -0.2620  0.5742 -0.2200
 5088SOL     OW26896   2.263   4.574  14.296  0.6353  0.4781 -0.1213
 5088SOL    HW126897   2.335   4.526  14.337 -0.8452 -1.0485  0.6896
 5088SOL    HW226898   2.238   4.644  14.357 -0.2307  0.1069 -0.0490
 5089SOL     OW26899   4.325   4.179   3.231 -0.8317  0.3040 -0.2869
 5089SOL    HW126900   4.241   4.224   3.234 -0.7626  0.3098  1.3657
 5089SOL    HW226901   4.369   4.230   3.163  0.2961  1.5265  1.3789
 5090SOL     OW26902   0.312   4.306   0.382  0.0560 -0.2873  0.0796
 5090SOL    HW126903   0.305   4.383   0.326 -0.5030 -0.8122 -0.5662
 5090SOL    HW226904   0.298   4.354   0.464  0.5519  1.0292 -0.5948
 5091SOL     OW26905   2.501   0.518   7.562  0.0059 -0.1492  0.0681
 5091SOL    HW126906   2.427   0.518   7.623 -0.2462  1.0417 -0.2338
 5091SOL    HW226907   2.535   0.431   7.582 -1.3564 -0.6414  0.2486
 5092SOL     OW26908   1.802   0.258   4.079  0.3469  0.0661  0.2696
 5092SOL    HW126909   1.759   0.338   4.108 -0.1162 -0.6587  1.5981
 5092SOL    HW226910   1.726   0.205   4.052  0.5298 -0.3359  0.5468
 5093SOL     OW26911   4.643   3.684   5.505 -0.5569  0.7438  0.0842
 5093SOL    HW126912   4.667   3.653   5.593  0.9194 -2.5269 -1.4739
 5093SOL    HW226913   4.676   3.610   5.453  1.2623 -0.0287  2.2991
 5094SOL     OW26914   1.615   0.684   6.212  0.2060  0.0746 -0.3382
 5094SOL    HW126915   1.692   0.736   6.234  3.2075 -3.8805 -1.5307
 5094SOL    HW226916   1.551   0.749   6.241  0.6520  0.1770  0.4170
 5095SOL     OW26917   3.518   3.323   4.666  0.3858 -0.3169  0.1142
 5095SOL    HW126918   3.494   3.296   4.755  1.1099 -0.6023  0.2182
 5095SOL    HW226919   3.603   3.361   4.685  1.0341 -1.3705 -0.7180
 5096SOL     OW26920   2.319   2.887   5.411  0.5050  0.1562 -0.4964
 5096SOL    HW126921   2.318   2.824   5.340  2.2662 -1.1427  0.6369
 5096SOL    HW226922   2.262   2.839   5.472  0.5107  0.5144 -0.2047
 5097SOL     OW26923   4.597   4.149   7.333  0.1259  0.6870 -1.0357
 5097SOL    HW126924   4.545   4.126   7.257 -1.7816  0.8049  0.2387
 5097SOL    HW226925   4.573   4.074   7.388 -0.5870  0.7017 -1.3340
 5098SOL     OW26926   3.268   0.938   6.648  0.2839 -0.3420  0.0525
 5098SOL    HW126927   3.272   1.034   6.651 -1.7496 -0.1989 -1.8904
 5098SOL    HW226928   3.193   0.930   6.707  0.4118 -0.5934  0.1787
 5099SOL     OW26929   3.849   4.554  17.245 -0.6383  0.0962 -0.0460
 5099SOL    HW126930   3.913   4.625  17.253  0.0115 -0.6406  1.2440
 5099SOL    HW226931   3.798   4.581  17.321  1.3543  0.4327  1.1828
 5100SOL     OW26932   2.422   2.489  15.262 -0.1899 -0.1475 -0.1884
 5100SOL    HW126933   2.390   2.448  15.182 -0.2432 -0.9444  0.2416
 5100SOL    HW226934   2.472   2.561  15.225  1.2466  0.0607  2.1156
 5101SOL     OW26935   4.285   2.435   5.811 -0.1510 -0.3954 -0.1005
 5101SOL    HW126936   4.260   2.380   5.736 -0.9603 -0.8309  0.4872
 5101SOL    HW226937   4.340   2.497   5.763 -0.6250 -0.4856 -0.7659
 5102SOL     OW26938   1.526   1.879   5.925  0.0261  0.4527  0.4105
 5102SOL    HW126939   1.510   1.788   5.947  0.6984  0.0317 -0.8357
 5102SOL    HW226940   1.579   1.876   5.845  2.7451  1.8198  2.1438
 5103SOL     OW26941   4.285   0.565  14.030 -0.6154  0.0760  0.2951
 5103SOL    HW126942   4.201   0.532  13.997  0.5350 -1.3928 -1.1578
 5103SOL    HW226943   4.266   0.564  14.124 -0.9449  0.6470  0.2304
 5104SOL     OW26944   3.867   1.002   8.008  0.0087  0.6802  0.3154
 5104SOL    HW126945   3.774   0.994   7.985 -0.1648  0.6259  1.0380
 5104SOL    HW226946   3.889   0.909   8.014 -0.6508  0.5390  0.4777
 5105SOL     OW26947   0.655   1.009   5.228 -0.0246 -0.1940 -0.2723
 5105SOL    HW126948   0.705   1.013   5.147  0.7255 -0.3281  0.1807
 5105SOL    HW226949   0.572   0.971   5.199 -0.1535 -0.7400  0.7908
 5106SOL     OW26950   2.353   2.803  14.057 -0.0807  0.4699 -0.0223
 5106SOL    HW126951   2.374   2.710  14.046 -3.2985 -0.1962 -0.5034
 5106SOL    HW226952   2.301   2.830  13.982  0.7372 -0.1710 -0.8224
 5107SOL     OW26953   3.299   1.090   1.607 -0.3187  0.0264 -0.0202
 5107SOL    HW126954   3.356   1.020   1.639 -1.4620  0.2434  2.5011
 5107SOL    HW226955   3.258   1.099   1.693  0.3963  0.2533  0.2985
 5108SOL     OW26956   0.859   0.396  17.006 -0.8285 -0.1562  0.7424
 5108SOL    HW126957   0.861   0.435  16.919  2.7031  1.1196  1.4021
 5108SOL    HW226958   0.909   0.317  16.984 -0.6641  0.9200 -2.6605
 5109SOL     OW26959   1.284   4.395   8.268  0.3684  0.2817  0.0401
 5109SOL    HW126960   1.377   4.384   8.249 -0.2606 -2.2138 -1.4871
 5109SOL    HW226961   1.303   4.424   8.357  2.1732  0.4883 -0.4021
 5110SOL     OW26962   1.581   0.003   1.411 -0.2656  0.0559  0.1167
 5110SOL    HW126963   1.495   4.723   1.373 -0.4322 -0.2675  0.6432
 5110SOL    HW226964   1.590   0.095   1.388 -3.1764  0.0726 -0.8537
 5111SOL     OW26965   2.934   3.566   8.057  0.6741 -0.2472 -0.2710
 5111SOL    HW126966   2.862   3.616   8.018  2.7762  1.7061 -1.6923
 5111SOL    HW226967   2.916   3.477   8.028 -0.8498 -0.2282  0.6774
 5112SOL     OW26968   1.792   2.251   7.916 -0.9514  0.5151  0.5071
 5112SOL    HW126969   1.874   2.246   7.867 -2.9684  3.4129 -3.1805
 5112SOL    HW226970   1.828   2.283   7.998  1.9281 -1.9097  0.2309
 5113SOL     OW26971   2.610   1.200   9.067  0.6900 -0.3706  0.2083
 5113SOL    HW126972   2.561   1.137   9.014 -0.2912  2.2122 -1.9853
 5113SOL    HW226973   2.699   1.169   9.049 -0.3414 -1.7174 -2.6135
 5114SOL     OW26974   0.663   0.871   3.327  0.0240 -0.6442 -0.1619
 5114SOL    HW126975   0.582   0.862   3.376  0.6503  3.4013  1.6221
 5114SOL    HW226976   0.696   0.956   3.357 -1.9533  0.5280 -1.3229
 5115SOL     OW26977   2.917   2.146  15.677  0.0794 -0.4180 -0.0888
 5115SOL    HW126978   2.967   2.208  15.623 -1.1594  0.0898 -0.6507
 5115SOL    HW226979   2.828   2.180  15.667  0.0614 -0.6168 -0.6028
 5116SOL     OW26980   1.246   1.807  16.330 -0.4690 -0.3142  0.3320
 5116SOL    HW126981   1.260   1.901  16.335 -1.0174 -0.2815  1.3593
 5116SOL    HW226982   1.151   1.809  16.316 -0.4560  3.6387  0.7717
 5117SOL     OW26983   2.821   1.764   4.377  0.0728  0.5135  0.0101
 5117SOL    HW126984   2.744   1.810   4.344 -0.0755  1.2750  1.4326
 5117SOL    HW226985   2.824   1.767   4.472 -0.2069 -0.2393  0.0410
 5118SOL     OW26986   4.242   4.644   8.740  0.0899  0.5887 -0.3115
 5118SOL    HW126987   4.176   4.583   8.772  0.8249  0.3667  0.7793
 5118SOL    HW226988   4.275   4.609   8.657 -0.7085  1.7999 -1.1548
 5119SOL     OW26989   1.939   2.342   8.118  0.3642 -0.7107  0.2172
 5119SOL    HW126990   1.987   2.371   8.195  0.1695  0.8422 -0.2518
 5119SOL    HW226991   2.010   2.297   8.071 -0.3629 -0.6701 -0.9338
 5120SOL     OW26992   3.172   3.057   9.848 -0.4426  0.4135 -0.0620
 5120SOL    HW126993   3.111   2.999   9.893  1.8885 -0.9145  1.4293
 5120SOL    HW226994   3.132   3.141   9.869  0.3076  0.8979 -0.5867
 5121SOL     OW26995   2.368   4.202   4.846  0.4292  0.4759  0.0579
 5121SOL    HW126996   2.423   4.280   4.844 -2.5691  2.5951  0.1552
 5121SOL    HW226997   2.363   4.187   4.940 -2.7592  1.5719  0.0837
 5122SOL     OW26998   0.135   0.114   7.880  0.9828 -0.1038 -0.2109
 5122SOL    HW126999   0.141   0.206   7.905 -0.0223  0.7002 -2.8878
 5122SOL    HW227000   0.217   0.120   7.831 -1.6334  0.4948 -4.5195
 5123SOL     OW27001   1.343   4.035   2.956 -0.1301  0.1321 -0.0819
 5123SOL    HW127002   1.325   4.000   3.043 -0.2828 -0.2918 -0.2836
 5123SOL    HW227003   1.412   4.101   2.966 -0.3180  0.1818  0.9245
 5124SOL     OW27004   3.771   0.293  15.906  0.6497  0.1460  0.3871
 5124SOL    HW127005   3.862   0.320  15.902  1.2472 -1.8815  0.2619
 5124SOL    HW227006   3.769   0.207  15.864 -0.2280  0.5754 -0.4448
 5125SOL     OW27007   3.961   3.301   3.586  0.4225  0.1583 -0.1925
 5125SOL    HW127008   3.989   3.389   3.612 -0.0542  0.0890  0.5677
 5125SOL    HW227009   3.866   3.313   3.591  0.5550  0.0282  2.5631
 5126SOL     OW27010   0.988   3.338   5.362 -0.0971  0.3569  0.2607
 5126SOL    HW127011   0.987   3.432   5.346  0.1344  0.5612  1.4461
 5126SOL    HW227012   0.894   3.321   5.353 -0.2270  0.8780  0.6217
 5127SOL     OW27013   3.661   3.530   6.370 -0.7242 -0.6828 -0.2819
 5127SOL    HW127014   3.728   3.480   6.417  0.3277 -1.1704 -2.2891
 5127SOL    HW227015   3.667   3.618   6.406 -2.1365 -1.7479  2.5529
 5128SOL     OW27016   3.066   2.463   1.725  0.1250  0.5705 -0.2129
 5128SOL    HW127017   3.115   2.383   1.745  0.6493  1.1256  0.7572
 5128SOL    HW227018   3.069   2.518   1.803  0.8751 -1.4303  1.1834
 5129SOL     OW27019   2.808   1.967   5.250 -0.1799 -0.2459  0.0737
 5129SOL    HW127020   2.807   1.964   5.346 -0.3549  2.2618  0.1616
 5129SOL    HW227021   2.810   1.874   5.228  1.4215 -0.3527  0.6399
 5130SOL     OW27022   0.008   0.423   6.269 -0.6171 -0.3960  0.3741
 5130SOL    HW127023   4.737   0.413   6.174  0.1079 -0.0177  0.2667
 5130SOL    HW227024   4.727   0.339   6.311 -0.5680 -0.6696 -0.1485
 5131SOL     OW27025   1.860   1.157   7.288  0.1447  0.6909  1.0556
 5131SOL    HW127026   1.905   1.106   7.355 -0.7147 -0.9505  0.3810
 5131SOL    HW227027   1.811   1.216   7.345  2.5542  0.8809  2.9106
 5132SOL     OW27028   4.509   4.259   7.771 -0.4874 -0.8401 -0.2782
 5132SOL    HW127029   4.560   4.314   7.711  0.0563 -0.0364  0.9412
 5132SOL    HW227030   4.447   4.321   7.809  1.3017 -0.0952  1.3607
 5133SOL     OW27031   4.317   2.150  13.059 -0.1963 -0.6425  0.1774
 5133SOL    HW127032   4.306   2.228  13.112  0.2604 -0.5145  0.0844
 5133SOL    HW227033   4.242   2.100  13.091 -0.1486 -0.8406 -0.0140
 5134SOL     OW27034   0.376   4.183   6.356 -0.2790  0.1909  0.2527
 5134SOL    HW127035   0.392   4.256   6.295 -1.7157  0.1061 -0.2105
 5134SOL    HW227036   0.319   4.132   6.300  0.1836  0.2703 -0.2966
 5135SOL     OW27037   0.799   1.468   0.553  0.3321  0.2208 -0.4011
 5135SOL    HW127038   0.804   1.551   0.599  1.1338 -0.2313  0.3289
 5135SOL    HW227039   0.887   1.430   0.557 -1.0048 -2.7236  1.3349
 5136SOL     OW27040   0.965   1.481   6.631  0.3741  0.3498 -0.0485
 5136SOL    HW127041   0.870   1.471   6.633  0.1405  2.6525  1.1850
 5136SOL    HW227042   0.971   1.575   6.612 -0.8705  0.2793 -0.7893
 5137SOL     OW27043   1.705   3.935   2.154  0.3445 -0.3760 -0.5064
 5137SOL    HW127044   1.685   4.018   2.198  1.8394  0.2723 -1.0636
 5137SOL    HW227045   1.666   3.946   2.068 -0.0873  0.8261 -0.1622
 5138SOL     OW27046   2.298   4.268   3.823 -0.1901 -0.0680 -0.2429
 5138SOL    HW127047   2.219   4.299   3.779  0.9619  2.3416 -0.6054
 5138SOL    HW227048   2.265   4.191   3.868  1.1762 -1.0828 -0.9702
 5139SOL     OW27049   0.127   1.503   6.822  0.2508  0.1309 -0.1663
 5139SOL    HW127050   0.095   1.564   6.888 -1.0146 -1.1507  0.3877
 5139SOL    HW227051   0.152   1.559   6.748  2.0151 -1.3134 -0.6637
 5140SOL     OW27052   4.534   4.280  16.265 -0.5828  0.1049  0.6878
 5140SOL    HW127053   4.491   4.321  16.340 -0.3612 -0.5540  1.1697
 5140SOL    HW227054   4.454   4.262  16.214 -1.7374  2.0273  1.7937
 5141SOL     OW27055   0.958   0.121   5.270  0.0928  0.4879 -0.5423
 5141SOL    HW127056   0.947   0.031   5.240  0.1694  0.5465 -0.7489
 5141SOL    HW227057   1.025   0.155   5.210  2.1321 -1.8966  0.4269
 5142SOL     OW27058   2.048   2.858   3.380  0.2053  0.1879 -0.9301
 5142SOL    HW127059   2.111   2.893   3.444 -1.7987 -1.5461  1.9752
 5142SOL    HW227060   2.088   2.904   3.306  2.1817 -0.0155 -0.0038
 5143SOL     OW27061   3.394   0.114   7.374  0.1982  0.4338  0.2608
 5143SOL    HW127062   3.354   0.185   7.323  0.6358  2.9319  3.3238
 5143SOL    HW227063   3.313   0.070   7.403  0.0368  2.1167  2.3794
 5144SOL     OW27064   0.778   3.927   6.311  0.3518 -0.1742  0.6705
 5144SOL    HW127065   0.741   3.909   6.225  1.2776 -0.0562  0.2454
 5144SOL    HW227066   0.756   4.020   6.313  0.5436 -0.1506  1.6519
 5145SOL     OW27067   3.286   0.168  12.450  0.5529 -0.2713  0.7422
 5145SOL    HW127068   3.191   0.158  12.453  0.6758 -0.8344  2.6792
 5145SOL    HW227069   3.315   0.093  12.501  1.3284  0.3231  1.1729
 5146SOL     OW27070   2.013   0.304  12.149  0.1573  0.2448 -0.0372
 5146SOL    HW127071   1.946   0.268  12.208 -0.4861  2.5188  0.6089
 5146SOL    HW227072   2.042   0.221  12.110  2.3395  0.5196  0.9843
 5147SOL     OW27073   1.450   2.008  10.696  0.9350  0.1213 -0.0418
 5147SOL    HW127074   1.450   1.915  10.716  0.6561 -0.0388 -0.7784
 5147SOL    HW227075   1.383   2.013  10.627 -0.1809  0.9269  1.0838
 5148SOL     OW27076   0.570   3.350   3.150  0.7870  0.3941  0.3386
 5148SOL    HW127077   0.488   3.378   3.110  1.1290  0.6141 -0.1967
 5148SOL    HW227078   0.624   3.333   3.073  0.7508 -1.1015  0.6443
 5149SOL     OW27079   3.893   4.511   8.309 -0.4445 -0.4060  0.4885
 5149SOL    HW127080   3.821   4.518   8.372 -0.1312 -0.0098  0.8001
 5149SOL    HW227081   3.865   4.558   8.230 -0.5315  1.7409  1.8094
 5150SOL     OW27082   4.081   2.499   6.457 -0.6760 -0.0622  0.0492
 5150SOL    HW127083   4.136   2.571   6.427 -1.1955  0.9708  1.6319
 5150SOL    HW227084   4.143   2.430   6.434  0.7186  1.2370 -0.0817
 5151SOL     OW27085   3.390   0.052   9.535  0.3213 -0.0030 -0.5941
 5151SOL    HW127086   3.339   4.717   9.571  0.8344  1.0971  2.4030
 5151SOL    HW227087   3.345   0.067   9.452  1.3891 -1.4423 -1.4390
 5152SOL     OW27088   3.673   3.406   5.090 -0.0315  0.1119 -0.2329
 5152SOL    HW127089   3.607   3.379   5.026  0.8052 -1.0655 -0.6142
 5152SOL    HW227090   3.669   3.501   5.099  0.3215  0.1800 -0.7824
 5153SOL     OW27091   0.171   1.943  15.931 -0.1795  0.3956  0.0523
 5153SOL    HW127092   0.085   1.919  15.896  0.1376  0.3227 -0.6819
 5153SOL    HW227093   0.205   1.983  15.851 -1.2942  0.7792 -0.2333
 5154SOL     OW27094   3.404   1.711   2.320  0.2321 -0.1430  0.3045
 5154SOL    HW127095   3.331   1.732   2.378  0.8285  2.0121  0.2982
 5154SOL    HW227096   3.345   1.688   2.249  1.6686 -2.0060 -0.2925
 5155SOL     OW27097   2.021   3.539  17.065 -0.1141 -0.9099  0.3394
 5155SOL    HW127098   1.945   3.568  17.116 -0.2288  0.5270 -0.6542
 5155SOL    HW227099   2.091   3.536  17.130  0.1803 -0.2477  0.0460
 5156SOL     OW27100   3.235   0.017   6.968  0.2559  0.1555  0.1102
 5156SOL    HW127101   3.295   4.727   7.037 -1.4410  0.3647  1.6551
 5156SOL    HW227102   3.289   0.069   6.908  0.6791 -0.4288 -0.0067
 5157SOL     OW27103   3.455   3.566   7.855  0.2098 -0.2793  0.1057
 5157SOL    HW127104   3.496   3.480   7.867  0.0261 -0.4915 -0.8377
 5157SOL    HW227105   3.392   3.558   7.927  0.0563  2.1487  0.2451
 5158SOL     OW27106   1.640   0.462  16.884 -0.7279  0.1934  0.4439
 5158SOL    HW127107   1.680   0.548  16.876  1.1787 -0.8918 -1.7730
 5158SOL    HW227108   1.630   0.434  16.793  1.7895  0.8231 -0.0199
 5159SOL     OW27109   2.194   3.528  15.223  0.3949 -0.3489  0.2862
 5159SOL    HW127110   2.278   3.572  15.234  0.3582 -0.2917  0.3352
 5159SOL    HW227111   2.191   3.528  15.127 -0.8890 -0.8949  0.3198
 5160SOL     OW27112   0.511   2.883  11.504 -0.1987 -0.0401  0.1552
 5160SOL    HW127113   0.559   2.927  11.574 -1.6426  1.4346  0.2174
 5160SOL    HW227114   0.522   2.791  11.527  1.4385  0.1916  0.3045
 5161SOL     OW27115   0.598   1.415   2.877  0.2733 -0.9697  0.1227
 5161SOL    HW127116   0.557   1.386   2.796  0.2603 -1.1299  0.1852
 5161SOL    HW227117   0.596   1.324   2.907  1.0333 -0.3732  2.0143
 5162SOL     OW27118   0.646   2.406   7.430  0.1613 -0.0763  0.4613
 5162SOL    HW127119   0.646   2.315   7.459 -2.6519 -0.4929 -0.8569
 5162SOL    HW227120   0.687   2.391   7.345  0.0659  0.5304  0.3061
 5163SOL     OW27121   2.211   1.774   0.803 -0.3494  0.5405  0.1872
 5163SOL    HW127122   2.304   1.789   0.822  0.0837  2.1598 -3.2300
 5163SOL    HW227123   2.208   1.680   0.784 -1.6814  0.7623 -0.7121
 5164SOL     OW27124   1.254   2.339   1.710  0.1104 -0.2477  0.4692
 5164SOL    HW127125   1.183   2.361   1.650 -0.9039 -0.0725  1.7422
 5164SOL    HW227126   1.252   2.405   1.779  3.1721  0.0455  0.3106
 5165SOL     OW27127   0.823   4.022   4.094  0.4355 -0.0037  0.2885
 5165SOL    HW127128   0.891   4.037   4.028  0.2980 -2.0377 -0.2945
 5165SOL    HW227129   0.740   4.049   4.054  0.7722 -0.3125 -0.6105
 5166SOL     OW27130   1.157   0.111   4.651 -0.1963  0.1352 -0.1614
 5166SOL    HW127131   1.189   0.043   4.591  0.7842 -1.1612  1.8616
 5166SOL    HW227132   1.238   0.132   4.698 -0.4404  0.3755  0.1537
 5167SOL     OW27133   0.075   2.793   6.927  0.4147 -0.3161  0.2868
 5167SOL    HW127134   0.132   2.763   6.856 -1.0749 -0.2830 -0.9008
 5167SOL    HW227135   4.730   2.758   6.897  0.6448  0.4391 -1.2139
 5168SOL     OW27136   3.546   1.850   8.956 -0.4713 -0.3990 -0.6474
 5168SOL    HW127137   3.615   1.811   9.009  0.2499  0.6828 -0.7908
 5168SOL    HW227138   3.581   1.936   8.933  1.5552 -1.0621 -0.0249
 5169SOL     OW27139   1.958   1.976  15.156 -0.2474  0.6729  0.1121
 5169SOL    HW127140   1.924   2.036  15.090 -1.3453  1.3364  1.2883
 5169SOL    HW227141   2.041   2.023  15.171  0.5209 -0.2117 -1.4319
 5170SOL     OW27142   2.480   0.962   2.988 -0.4847 -0.2203  0.2013
 5170SOL    HW127143   2.537   1.001   2.922  0.0013 -0.7713  0.3027
 5170SOL    HW227144   2.543   0.936   3.054 -0.6242 -1.5479 -0.1792
 5171SOL     OW27145   0.054   0.600   8.868  0.1732 -0.2667  0.1357
 5171SOL    HW127146   0.009   0.516   8.873  0.9424 -0.7102 -0.3332
 5171SOL    HW227147   4.723   0.646   8.821  2.7008  3.0568 -0.2785
 5172SOL     OW27148   1.645   2.433  12.001  0.1085 -0.8397  0.1358
 5172SOL    HW127149   1.612   2.349  11.969  3.3334 -1.9188 -0.3276
 5172SOL    HW227150   1.648   2.428  12.097  1.0915  1.4657  0.2335
 5173SOL     OW27151   3.245   2.820   9.521 -0.0092 -0.5823  0.1876
 5173SOL    HW127152   3.209   2.733   9.506  0.8807 -0.9633  0.2596
 5173SOL    HW227153   3.312   2.808   9.588  2.4587  1.5437 -1.9268
 5174SOL     OW27154   4.617   3.065   1.545  0.6161 -0.0299 -0.2841
 5174SOL    HW127155   4.676   2.998   1.578 -0.4325 -0.0003  1.6114
 5174SOL    HW227156   4.604   3.033   1.455  0.1894 -0.3723 -0.0993
 5175SOL     OW27157   2.686   1.370   1.772 -0.2570 -0.3689 -0.2038
 5175SOL    HW127158   2.701   1.438   1.839 -1.0100  0.8251 -1.2514
 5175SOL    HW227159   2.604   1.328   1.797  0.5912 -0.6121  2.1648
 5176SOL     OW27160   2.776   0.689  15.189 -0.5143 -0.3373  0.7790
 5176SOL    HW127161   2.854   0.642  15.217 -0.5769 -1.6260 -1.2195
 5176SOL    HW227162   2.707   0.636  15.229 -0.9498 -1.1049 -0.9711
 5177SOL     OW27163   2.984   2.118  17.390  0.3179 -0.0982  0.0195
 5177SOL    HW127164   2.967   2.196  17.443  0.8265  1.2332 -1.7589
 5177SOL    HW227165   2.972   2.048  17.454  1.0633 -1.8951 -1.8057
 5178SOL     OW27166   0.560   2.924   6.344  0.3524 -0.4224 -0.0686
 5178SOL    HW127167   0.622   2.861   6.309 -0.9233 -1.8067  0.1903
 5178SOL    HW227168   0.545   2.975   6.264  0.6617  1.4176  1.0318
 5179SOL     OW27169   0.351   0.666   1.388  0.0951  0.2054 -0.0657
 5179SOL    HW127170   0.354   0.666   1.483 -0.1542 -1.4380 -0.0644
 5179SOL    HW227171   0.266   0.708   1.373 -0.5414 -1.3939 -0.9278
 5180SOL     OW27172   3.424   0.458   6.352 -0.2705  0.2218  0.0144
 5180SOL    HW127173   3.416   0.441   6.258 -0.4476  0.4876 -0.0192
 5180SOL    HW227174   3.342   0.502   6.376 -0.5382  0.7863 -1.9219
 5181SOL     OW27175   0.837   4.584   9.149 -0.1972  0.5789 -0.8249
 5181SOL    HW127176   0.769   4.627   9.096 -0.7924 -0.8792 -1.2497
 5181SOL    HW227177   0.786   4.515   9.191  1.0320 -0.3263 -0.8178
 5182SOL     OW27178   2.402   2.972  11.951  0.2596 -0.3199  0.0072
 5182SOL    HW127179   2.427   2.898  12.007  0.6865 -0.1171  0.0829
 5182SOL    HW227180   2.344   3.019  12.012 -0.3086 -0.7315 -0.2150
 5183SOL     OW27181   2.382   1.885  11.782  0.0583  0.4769  0.2504
 5183SOL    HW127182   2.421   1.962  11.824 -0.4273  0.5445  0.5802
 5183SOL    HW227183   2.453   1.854  11.726  0.7804  3.2930 -0.4170
 5184SOL     OW27184   3.942   3.921  13.048 -0.3103  0.1960  0.0341
 5184SOL    HW127185   3.946   3.940  12.954 -0.0043  1.6711  0.3488
 5184SOL    HW227186   4.007   3.976  13.091  0.0647 -1.6807  1.8868
 5185SOL     OW27187   2.659   3.596   7.435  0.3953  0.4691 -0.0130
 5185SOL    HW127188   2.704   3.640   7.363 -2.1766  1.0626 -1.2482
 5185SOL    HW227189   2.625   3.670   7.485  1.2614  1.2316 -0.5635
 5186SOL     OW27190   0.610   2.335   3.651  0.0008 -0.0081 -0.3024
 5186SOL    HW127191   0.697   2.369   3.627  0.0143 -1.8995 -2.9914
 5186SOL    HW227192   0.591   2.412   3.705 -1.0702 -0.0351 -0.6557
 5187SOL     OW27193   2.433   4.075   1.263  0.1881  0.7772 -0.3983
 5187SOL    HW127194   2.403   4.125   1.186 -1.7031  1.6910  0.9262
 5187SOL    HW227195   2.367   4.007   1.275  1.9716 -1.2156 -1.9497
 5188SOL     OW27196   1.642   0.677   5.291 -0.5797 -0.2217  0.5677
 5188SOL    HW127197   1.691   0.686   5.373  1.4462 -0.9642 -0.5523
 5188SOL    HW227198   1.718   0.661   5.234  1.0090 -0.3288  2.6938
 5189SOL     OW27199   3.719   1.203   2.121 -0.0865  0.8825  0.1491
 5189SOL    HW127200   3.794   1.182   2.176 -0.4851  1.0729  0.7689
 5189SOL    HW227201   3.669   1.121   2.121  1.3104  0.0503  1.6248
 5190SOL     OW27202   1.892   0.963   3.660 -1.0537  0.5138  0.4471
 5190SOL    HW127203   1.960   1.019   3.697 -0.0184 -0.7062  0.3886
 5190SOL    HW227204   1.818   1.023   3.670 -0.4154  1.4161 -0.3158
 5191SOL     OW27205   2.397   0.727   0.147  0.0696 -0.0970 -0.2681
 5191SOL    HW127206   2.381   0.819   0.127  2.6193  0.7514  1.4621
 5191SOL    HW227207   2.365   0.678   0.072  0.1387 -0.1716 -0.2485
 5192SOL     OW27208   2.261   2.308   8.522 -0.1812 -0.2680  0.0197
 5192SOL    HW127209   2.332   2.286   8.582  1.5106  1.2895 -1.3958
 5192SOL    HW227210   2.227   2.395   8.544 -0.2278 -0.2934  0.0476
 5193SOL     OW27211   0.302   1.475   5.997  0.3076  0.3489 -0.2339
 5193SOL    HW127212   0.359   1.492   6.072 -0.5156 -0.1880  0.5066
 5193SOL    HW227213   0.249   1.555   6.002 -1.4804 -0.9679  1.8332
 5194SOL     OW27214   4.698   3.124   6.577 -0.2213  0.1393  0.0574
 5194SOL    HW127215   4.685   3.213   6.546 -1.9426  0.0878  0.6508
 5194SOL    HW227216   0.054   3.126   6.597  0.5160 -1.5301 -3.2092
 5195SOL     OW27217   0.681   1.646  11.880  0.1986 -0.1759  0.3789
 5195SOL    HW127218   0.710   1.728  11.841  0.3916 -1.2392 -1.7094
 5195SOL    HW227219   0.604   1.668  11.932  0.6835 -0.6020  1.2892
 5196SOL     OW27220   3.632   1.100   6.169  0.7651 -0.1381 -0.6628
 5196SOL    HW127221   3.626   1.189   6.133 -0.4521  0.3123  0.6466
 5196SOL    HW227222   3.698   1.107   6.238  1.3381 -1.0302 -1.1249
 5197SOL     OW27223   1.787   1.024  11.843 -0.4483 -0.5408 -0.0348
 5197SOL    HW127224   1.703   0.978  11.836 -0.1148 -1.1674  0.0783
 5197SOL    HW227225   1.816   0.994  11.929  2.1432 -0.4243 -0.8681
 5198SOL     OW27226   3.066   4.134   5.079  0.0626 -0.8432  0.2423
 5198SOL    HW127227   3.162   4.139   5.080 -0.0349  0.9726 -1.3514
 5198SOL    HW227228   3.063   4.038   5.079 -0.0308 -0.8410 -0.0821
 5199SOL     OW27229   1.157   3.924   4.804 -0.1487 -0.1511  0.8084
 5199SOL    HW127230   1.197   3.954   4.885  3.2268  0.0235 -0.9182
 5199SOL    HW227231   1.162   3.831   4.828 -0.1571 -0.7027 -1.2417
 5200SOL     OW27232   0.682   3.656   2.914  0.5568  0.4389  0.0378
 5200SOL    HW127233   0.738   3.621   2.846 -3.0138 -1.8548 -1.7320
 5200SOL    HW227234   0.600   3.621   2.877 -0.1561  2.9709 -0.7274
 5201SOL     OW27235   2.356   1.273   4.375  0.3979  0.2785  0.1536
 5201SOL    HW127236   2.392   1.361   4.380  1.2751 -0.1132  0.7124
 5201SOL    HW227237   2.264   1.286   4.397 -0.1450 -2.1060 -0.6901
 5202SOL     OW27238   3.337   0.451  12.564 -0.1374  0.7768 -0.2312
 5202SOL    HW127239   3.329   0.432  12.657 -2.5715 -1.4735 -0.8802
 5202SOL    HW227240   3.340   0.361  12.530  1.3386  1.6156 -2.3375
 5203SOL     OW27241   1.443   4.300   2.539 -0.1564 -0.3077 -0.2603
 5203SOL    HW127242   1.508   4.311   2.470  1.5257 -2.1762  1.0035
 5203SOL    HW227243   1.371   4.346   2.497  1.1797 -0.0671 -2.3069
 5204SOL     OW27244   4.724   0.621   4.659 -0.2309  0.2425 -0.0381
 5204SOL    HW127245   4.709   0.545   4.715 -0.2598 -0.2245 -0.6933
 5204SOL    HW227246   0.076   0.649   4.676  0.3338 -0.8847 -1.1900
 5205SOL     OW27247   1.558   4.047   6.391  0.0436  0.0535 -0.5199
 5205SOL    HW127248   1.505   4.097   6.329 -0.8546 -0.8601 -0.5014
 5205SOL    HW227249   1.491   4.028   6.456  0.8421 -1.2487 -0.0743
 5206SOL     OW27250   3.111   0.307  13.706  1.3689 -0.4560  0.5223
 5206SOL    HW127251   3.153   0.393  13.703  0.9307 -0.1926  2.2326
 5206SOL    HW227252   3.119   0.281  13.797 -0.2173 -0.7458  0.5787
 5207SOL     OW27253   4.130   0.472   2.088 -0.3109  0.5624  0.3369
 5207SOL    HW127254   4.197   0.540   2.075 -0.8618  1.0127 -0.1738
 5207SOL    HW227255   4.048   0.520   2.090 -0.1051  1.1129 -3.7624
 5208SOL     OW27256   1.371   1.936   0.525 -0.3365 -0.2705  0.3052
 5208SOL    HW127257   1.401   1.997   0.592 -1.2252 -1.5023  1.7943
 5208SOL    HW227258   1.408   1.855   0.560 -1.4922 -1.6035 -1.5508
 5209SOL     OW27259   2.712   3.712  10.047 -0.5166 -0.3429 -0.2703
 5209SOL    HW127260   2.775   3.650  10.085  3.2657  1.9619 -2.7887
 5209SOL    HW227261   2.765   3.789  10.066 -2.0594  0.9636 -1.2945
 5210SOL     OW27262   0.306   4.220  10.132  0.2747 -0.6237  0.0036
 5210SOL    HW127263   0.327   4.192  10.221  2.1769  1.4824  0.2076
 5210SOL    HW227264   0.225   4.270  10.137  0.5091 -0.1453 -1.1617
 5211SOL     OW27265   2.445   1.017  10.442  0.1391  0.1164  0.5975
 5211SOL    HW127266   2.534   1.019  10.477  1.1544  1.8670 -2.0576
 5211SOL    HW227267   2.419   1.098  10.486  0.6164 -0.0179  1.1116
 5212SOL     OW27268   1.138   4.115   4.274 -0.0281  0.4165 -0.1208
 5212SOL    HW127269   1.130   4.030   4.231 -0.0926 -1.0714  2.8478
 5212SOL    HW227270   1.151   4.087   4.365 -1.5721 -2.9044 -0.9388
 5213SOL     OW27271   1.620   1.724   5.252 -0.0799  0.0276 -0.3525
 5213SOL    HW127272   1.626   1.639   5.209  1.4769 -0.3336  0.6120
 5213SOL    HW227273   1.702   1.724   5.301 -0.9826 -2.0949  1.1516
 5214SOL     OW27274   3.762   0.206   7.889 -0.3478  0.2008  0.7435
 5214SOL    HW127275   3.751   0.153   7.810  0.2450  0.9107  0.1825
 5214SOL    HW227276   3.845   0.172   7.923  1.0006  2.5002 -0.2650
 5215SOL     OW27277   0.972   1.582   4.591  0.3996  0.4227 -0.1797
 5215SOL    HW127278   1.026   1.656   4.566 -0.5169  1.1663  0.0546
 5215SOL    HW227279   1.020   1.542   4.663  2.3912  0.8860 -1.2678
 5216SOL     OW27280   0.463   2.987   6.094 -0.2568 -0.0236 -0.0610
 5216SOL    HW127281   0.391   2.981   6.031  1.8929 -0.7598 -2.4600
 5216SOL    HW227282   0.534   2.945   6.044  0.2703 -0.4285  1.0350
 5217SOL     OW27283   4.314   0.892   7.111 -0.0866 -0.2499 -0.1782
 5217SOL    HW127284   4.375   0.937   7.052 -0.9234  0.4128 -0.5396
 5217SOL    HW227285   4.250   0.859   7.047 -0.3928  0.5908 -0.2982
 5218SOL     OW27286   0.039   2.449   5.830  0.4312  0.3528 -0.1483
 5218SOL    HW127287   4.726   2.368   5.827  0.2679  0.4486  0.1349
 5218SOL    HW227288   0.085   2.428   5.911 -0.1991  1.3282  0.4680
 5219SOL     OW27289   0.918   3.632  13.126 -0.0283  0.2461  0.4762
 5219SOL    HW127290   0.993   3.664  13.077 -0.5125  0.9106  0.1616
 5219SOL    HW227291   0.958   3.591  13.203  2.2732  1.0634 -0.3171
 5220SOL     OW27292   1.974   0.896   7.879  0.1231 -0.8729 -0.0250
 5220SOL    HW127293   1.892   0.930   7.845  0.0368  0.5342  1.6083
 5220SOL    HW227294   1.960   0.803   7.862 -1.2453 -1.0948  2.3440
 5221SOL     OW27295   0.453   0.046  10.260  0.3249  0.0982  0.0524
 5221SOL    HW127296   0.489   0.102  10.328  0.7650 -0.8308  0.5728
 5221SOL    HW227297   0.394   4.731  10.313 -1.1182  1.0679 -0.5688
 5222SOL     OW27298   3.772   1.710   4.168  0.1488 -0.1361 -0.1146
 5222SOL    HW127299   3.676   1.712   4.170  0.1208 -1.1332 -0.4527
 5222SOL    HW227300   3.786   1.751   4.254 -0.6482 -1.5682  0.7054
 5223SOL     OW27301   2.573   4.148   3.839  0.2133  0.2011 -0.1649
 5223SOL    HW127302   2.559   4.221   3.900  0.2186 -0.7594  1.0014
 5223SOL    HW227303   2.483   4.127   3.815 -0.1806  2.8933 -1.0034
 5224SOL     OW27304   4.271   2.244  13.862  0.0531  0.4677  0.2588
 5224SOL    HW127305   4.300   2.153  13.871  2.4164  1.1439 -0.5444
 5224SOL    HW227306   4.186   2.245  13.907  0.9081  2.2256  1.8250
 5225SOL     OW27307   2.290   3.751   7.725 -0.1801  0.4109 -0.0108
 5225SOL    HW127308   2.237   3.824   7.694  0.6769  0.2356 -1.8606
 5225SOL    HW227309   2.243   3.678   7.686 -1.0906  0.5225  0.8800
 5226SOL     OW27310   4.188   2.753   7.985 -0.0641 -0.6014 -0.4899
 5226SOL    HW127311   4.140   2.834   7.971 -1.7375 -1.8689 -2.1279
 5226SOL    HW227312   4.246   2.763   7.909  0.6235 -1.0907 -0.0359
 5227SOL     OW27313   1.848   1.783  16.009  0.6713 -0.0997  0.0461
 5227SOL    HW127314   1.937   1.812  16.027 -0.3038  3.4956 -0.8521
 5227SOL    HW227315   1.820   1.725  16.080  0.6184  2.2703  1.9378
 5228SOL     OW27316   2.460   0.295  17.249 -0.5320  0.1847  0.0564
 5228SOL    HW127317   2.386   0.235  17.253 -0.5093  0.2011  0.7755
 5228SOL    HW227318   2.416   0.373  17.284  0.4935  0.9965 -0.4769
 5229SOL     OW27319   0.237   0.713   4.115 -0.2123  0.1960  0.1393
 5229SOL    HW127320   0.234   0.670   4.200  2.1579 -0.8647 -0.3088
 5229SOL    HW227321   0.276   0.646   4.060  0.4389  0.0669  0.7428
 5230SOL     OW27322   3.075   1.125   6.171 -0.1960  0.2959  0.2757
 5230SOL    HW127323   3.002   1.130   6.109 -0.1944  0.1264  0.2599
 5230SOL    HW227324   3.050   1.047   6.220  1.9277  0.1753  1.1667
 5231SOL     OW27325   2.893   3.930   2.061 -0.4432 -0.5001  0.3768
 5231SOL    HW127326   2.888   3.927   2.156 -0.3899 -1.3169  0.3523
 5231SOL    HW227327   2.958   3.864   2.035 -1.3479 -0.2124 -2.6118
 5232SOL     OW27328   3.013   1.460   3.951  0.3874  0.1263 -0.2921
 5232SOL    HW127329   3.003   1.365   3.946 -0.5326  0.2799 -1.2013
 5232SOL    HW227330   3.095   1.465   3.902  0.9144 -0.7876  0.5020
 5233SOL     OW27331   2.616   4.603   5.078 -0.2838  0.5208  0.4288
 5233SOL    HW127332   2.699   4.626   5.120 -1.2894  1.0003  2.1719
 5233SOL    HW227333   2.565   4.577   5.155  0.4738  1.6559  1.3058
 5234SOL     OW27334   0.142   2.298  12.054  0.3596  0.0960 -0.1279
 5234SOL    HW127335   0.161   2.206  12.037 -1.4245 -0.3570  0.3352
 5234SOL    HW227336   0.047   2.298  12.062  0.5192  0.2521  1.7714
 5235SOL     OW27337   3.071   0.768   7.451  0.4018  0.3330  0.8755
 5235SOL    HW127338   2.988   0.737   7.487 -0.3616 -0.8451 -1.8763
 5235SOL    HW227339   3.061   0.862   7.470 -0.9547  0.1193  1.2792
 5236SOL     OW27340   4.489   1.868   1.882 -0.7724  0.1375 -0.3419
 5236SOL    HW127341   4.458   1.784   1.849 -0.6213 -0.7049  1.6090
 5236SOL    HW227342   4.413   1.901   1.931 -0.3444 -0.5356  0.7979
 5237SOL     OW27343   3.673   3.332   8.880  0.2292 -0.1803  0.4969
 5237SOL    HW127344   3.672   3.408   8.821  0.6584 -0.2178  0.4450
 5237SOL    HW227345   3.767   3.316   8.876  0.0877 -0.8620 -0.1469
 5238SOL     OW27346   1.484   2.760   3.085 -0.3601 -0.2308  0.3236
 5238SOL    HW127347   1.452   2.676   3.052 -0.2243  0.0776 -0.5935
 5238SOL    HW227348   1.530   2.722   3.160 -1.1949 -0.8020  0.5450
 5239SOL     OW27349   3.952   4.622   6.240  0.1888  0.3741 -0.1477
 5239SOL    HW127350   4.040   4.586   6.250  0.8290  2.5667  2.0665
 5239SOL    HW227351   3.966   4.700   6.293 -2.7776 -0.0409  1.2568
 5240SOL     OW27352   2.444   2.732  14.537  0.1491  0.0724  0.1456
 5240SOL    HW127353   2.428   2.665  14.471 -0.6343  0.5292 -0.1211
 5240SOL    HW227354   2.465   2.804  14.478  0.5214 -0.5039 -0.4223
 5241SOL     OW27355   3.348   2.461   4.966  0.2537  0.0301 -0.0659
 5241SOL    HW127356   3.282   2.473   4.897  0.0737  1.2710  0.3220
 5241SOL    HW227357   3.421   2.519   4.943  0.2686 -0.1942 -0.5838
 5242SOL     OW27358   1.464   1.265   5.098 -0.7498  0.1982 -0.1646
 5242SOL    HW127359   1.530   1.202   5.070  0.4175  1.6661 -0.7364
 5242SOL    HW227360   1.513   1.348   5.096  0.5207 -0.5331  0.4541
 5243SOL     OW27361   2.669   1.630   2.720 -0.0786 -0.3482 -0.4046
 5243SOL    HW127362   2.674   1.666   2.632 -0.9423 -1.6606 -0.9912
 5243SOL    HW227363   2.591   1.676   2.753 -0.5502 -0.4149 -1.4483
 5244SOL     OW27364   1.297   2.757   2.835  0.0171  0.0040  0.3495
 5244SOL    HW127365   1.344   2.839   2.820  0.3601 -0.1870  0.3717
 5244SOL    HW227366   1.283   2.727   2.745 -0.2673 -1.0042  0.7329
 5245SOL     OW27367   1.700   2.796   2.518  0.1720 -0.2358 -0.1945
 5245SOL    HW127368   1.645   2.851   2.462 -0.8504  0.5197  1.5558
 5245SOL    HW227369   1.774   2.781   2.459  0.4445 -2.1661  0.6410
 5246SOL     OW27370   0.684   0.983   6.454  0.4172  0.2544 -0.3028
 5246SOL    HW127371   0.665   0.998   6.362  1.2924 -0.4200 -0.5986
 5246SOL    HW227372   0.609   0.932   6.482 -0.9727  2.4581 -0.0046
 5247SOL     OW27373   4.381   3.047   2.478  0.6177  0.6397 -0.0130
 5247SOL    HW127374   4.470   3.082   2.489 -0.4016  3.4309 -0.5609
 5247SOL    HW227375   4.399   2.955   2.457 -0.7683  0.2881  0.3278
 5248SOL     OW27376   2.197   2.010   2.667 -0.3813 -0.0964 -0.6344
 5248SOL    HW127377   2.280   2.056   2.652 -0.0348 -0.7855 -0.8341
 5248SOL    HW227378   2.198   1.960   2.586 -1.6512 -0.3060 -0.5166
 5249SOL     OW27379   2.255   4.112  12.423  0.1888  0.8924 -0.3888
 5249SOL    HW127380   2.218   4.193  12.459 -0.1243 -0.1500  1.6290
 5249SOL    HW227381   2.217   4.048  12.483  0.9527 -0.4192 -1.3048
 5250SOL     OW27382   0.716   1.628  12.456  0.0308 -0.6454  0.3441
 5250SOL    HW127383   0.634   1.583  12.436  0.0760  0.5127 -2.4035
 5250SOL    HW227384   0.769   1.561  12.500 -0.1986 -1.0516  0.0089
 5251SOL     OW27385   3.141   3.390   3.857  0.7533 -1.0827 -0.7105
 5251SOL    HW127386   3.101   3.426   3.936  1.2474 -1.1657 -0.4242
 5251SOL    HW227387   3.143   3.472   3.806  0.0132 -1.6538 -1.6769
 5252SOL     OW27388   3.134   4.068   4.518  0.2278  0.2889 -0.1425
 5252SOL    HW127389   3.119   4.014   4.596 -2.2761  0.8920 -0.2142
 5252SOL    HW227390   3.044   4.087   4.492 -0.1681 -1.0208  0.2793
 5253SOL     OW27391   1.554   3.670  14.243 -0.1496 -0.2833  0.5169
 5253SOL    HW127392   1.601   3.694  14.163 -0.8246 -0.4147  0.0774
 5253SOL    HW227393   1.560   3.575  14.241 -1.1435 -0.3166 -0.7531
 5254SOL     OW27394   0.682   4.155   9.109  0.5162 -0.2199 -0.5668
 5254SOL    HW127395   0.754   4.099   9.140 -0.7441 -1.7592 -0.4119
 5254SOL    HW227396   0.685   4.226   9.173  2.1940  0.5966 -1.5759
 5255SOL     OW27397   4.231   0.216   7.511  0.0650 -0.1035  0.5444
 5255SOL    HW127398   4.167   0.167   7.563  0.5817 -0.5200  0.7968
 5255SOL    HW227399   4.183   0.239   7.432  1.5438  1.1408  0.0319
 5256SOL     OW27400   4.514   4.316   2.140 -0.3189 -0.2212  0.0933
 5256SOL    HW127401   4.511   4.353   2.052  0.6870  1.7504  0.8938
 5256SOL    HW227402   4.600   4.341   2.175 -0.5261  1.1283 -0.3771
 5257SOL     OW27403   1.837   3.589  16.084  0.0697  0.0053 -0.5441
 5257SOL    HW127404   1.749   3.563  16.058 -0.7733  0.6495  1.6698
 5257SOL    HW227405   1.886   3.525  16.032  1.5691 -0.8585  1.9592
 5258SOL     OW27406   4.557   1.216   8.878  0.3973  0.4992 -0.4905
 5258SOL    HW127407   4.485   1.253   8.929 -0.2653  0.2015 -1.2108
 5258SOL    HW227408   4.599   1.296   8.846 -1.3572  1.7304  0.2743
 5259SOL     OW27409   2.252   1.290  16.980  0.0333 -0.0255 -0.4420
 5259SOL    HW127410   2.279   1.227  17.047  1.2654  1.5526  0.5367
 5259SOL    HW227411   2.293   1.256  16.901 -0.3982 -0.8994 -0.2870
 5260SOL     OW27412   0.052   0.441  15.245  0.4647  0.8150 -0.6645
 5260SOL    HW127413   0.070   0.423  15.153  0.3579  1.3638 -0.7919
 5260SOL    HW227414   4.705   0.398  15.259  0.6292  0.6813 -0.0672
 5261SOL     OW27415   4.051   2.760   4.673  0.5056 -0.6381  0.0417
 5261SOL    HW127416   3.992   2.836   4.664  0.5112 -0.6086  0.2571
 5261SOL    HW227417   4.128   2.801   4.712  1.8381 -3.2212  0.1032
 5262SOL     OW27418   3.773   3.614   5.749  0.1301  0.2267  0.0011
 5262SOL    HW127419   3.740   3.525   5.756 -1.0473  0.6387 -0.2478
 5262SOL    HW227420   3.796   3.616   5.656  1.7184  0.7132  0.3896
 5263SOL     OW27421   4.710   1.114  15.680 -0.2621 -0.4983  0.3512
 5263SOL    HW127422   0.009   1.185  15.627  2.0612 -0.2277  2.3216
 5263SOL    HW227423   0.045   1.090  15.738  1.5193  0.9521 -1.2883
 5264SOL     OW27424   3.630   1.513   7.675 -0.5233  0.2149 -0.3289
 5264SOL    HW127425   3.653   1.523   7.583  1.7196 -1.1942  0.0877
 5264SOL    HW227426   3.716   1.528   7.714 -1.2817  3.6532  0.1007
 5265SOL     OW27427   1.552   2.567   9.550 -0.4967 -0.0967  0.0830
 5265SOL    HW127428   1.602   2.599   9.625 -1.2577 -0.6267  0.8139
 5265SOL    HW227429   1.470   2.615   9.556 -0.2001  0.3276  0.7708
 5266SOL     OW27430   0.624   1.781   4.146  0.2368  0.2132 -0.2425
 5266SOL    HW127431   0.576   1.703   4.175 -0.0592 -0.0893 -1.5348
 5266SOL    HW227432   0.555   1.819   4.092  1.5754  1.0313 -1.3511
 5267SOL     OW27433   3.681   0.381   2.905 -0.4357 -0.0288  0.4677
 5267SOL    HW127434   3.599   0.416   2.938  0.2870  2.0750  0.0495
 5267SOL    HW227435   3.662   0.287   2.908 -1.4604  0.1684 -0.0712
 5268SOL     OW27436   2.436   3.063   2.739 -0.0982  0.2817 -0.9925
 5268SOL    HW127437   2.389   3.007   2.677  1.4195 -1.8375 -0.1995
 5268SOL    HW227438   2.476   3.132   2.686 -2.4239  1.6213 -1.0195
 5269SOL     OW27439   4.196   1.548   1.370 -0.5155 -0.7324 -0.4504
 5269SOL    HW127440   4.158   1.473   1.322  0.7397 -0.0597 -2.5184
 5269SOL    HW227441   4.145   1.618   1.330 -2.4057 -2.1166 -0.4821
 5270SOL     OW27442   1.764   2.094   7.552 -0.3153  0.2610 -0.3313
 5270SOL    HW127443   1.826   2.026   7.525 -3.2520 -1.6702 -2.2967
 5270SOL    HW227444   1.791   2.180   7.521  0.6661 -0.0693 -0.3754
 5271SOL     OW27445   2.680   3.129  16.912 -0.3596 -0.6027 -0.7109
 5271SOL    HW127446   2.620   3.114  16.985 -0.1142 -0.4712 -0.4845
 5271SOL    HW227447   2.647   3.074  16.841 -2.3692  0.3348 -0.5266
 5272SOL     OW27448   2.198   0.210   3.361  0.5931 -0.3327  0.5568
 5272SOL    HW127449   2.260   0.217   3.434 -1.1484 -2.9353  2.2700
 5272SOL    HW227450   2.118   0.247   3.396  0.3809 -0.6623  0.4243
 5273SOL     OW27451   3.450   1.798   1.562 -0.2810 -0.1615 -0.0697
 5273SOL    HW127452   3.361   1.830   1.549  0.0455  1.0662  0.7358
 5273SOL    HW227453   3.470   1.837   1.647 -0.7356  0.1197 -0.0935
 5274SOL     OW27454   3.235   3.713   6.401 -0.0122 -0.3518 -0.3168
 5274SOL    HW127455   3.317   3.695   6.446  0.0936  0.8766  0.0014
 5274SOL    HW227456   3.198   3.628   6.380 -0.9547  0.5110 -2.2030
 5275SOL     OW27457   1.486   3.324   4.142 -0.1403 -0.6246  0.1908
 5275SOL    HW127458   1.516   3.413   4.123 -0.1622 -0.5423  0.5541
 5275SOL    HW227459   1.458   3.297   4.054  1.8541  0.1355 -0.6808
 5276SOL     OW27460   0.704   4.346   9.298  0.1875  0.3092 -0.2834
 5276SOL    HW127461   0.639   4.347   9.369  1.4681 -4.4716  0.9797
 5276SOL    HW227462   0.773   4.388   9.350  1.4366  1.9482 -3.2505
 5277SOL     OW27463   1.607   4.583  11.518 -0.9206  0.5442  0.1900
 5277SOL    HW127464   1.702   4.583  11.511 -0.9716  0.5862 -0.5340
 5277SOL    HW227465   1.591   4.524  11.444  0.1262  1.7757 -1.0230
 5278SOL     OW27466   0.901   0.946   5.314 -0.0846  0.8501 -0.0709
 5278SOL    HW127467   0.934   0.888   5.383  1.1125 -1.2461 -2.3968
 5278SOL    HW227468   0.807   0.930   5.320  0.1990 -0.8128 -0.1307
 5279SOL     OW27469   0.855   4.452  14.527 -0.4881  0.1522 -0.1534
 5279SOL    HW127470   0.900   4.525  14.485  3.7832 -2.2070  0.4055
 5279SOL    HW227471   0.936   4.403  14.542 -1.0869 -0.8135 -0.0589
 5280SOL     OW27472   0.537   3.725   3.133  0.8525 -0.5017  0.0023
 5280SOL    HW127473   0.466   3.764   3.082  2.0254  0.2123 -1.0941
 5280SOL    HW227474   0.598   3.696   3.065  0.2482  2.1244 -1.6921
 5281SOL     OW27475   1.693   3.477   3.828 -0.9147  0.4577 -0.1334
 5281SOL    HW127476   1.763   3.451   3.769 -1.3521  0.0658 -0.4805
 5281SOL    HW227477   1.630   3.406   3.817 -1.9242  0.5487  4.8954
 5282SOL     OW27478   4.353   0.937   9.787  0.8501  0.0837  0.2454
 5282SOL    HW127479   4.325   0.845   9.790 -0.4908  0.5118  0.7576
 5282SOL    HW227480   4.267   0.974   9.769  1.5048  0.7202 -1.4866
 5283SOL     OW27481   1.357   2.835   1.113  0.0361 -0.7553  0.0605
 5283SOL    HW127482   1.369   2.925   1.142 -2.8583 -0.2998 -0.1442
 5283SOL    HW227483   1.432   2.835   1.053 -0.5690 -1.5608 -0.6921
 5284SOL     OW27484   4.527   4.261  10.059  0.0396 -0.3713 -0.1421
 5284SOL    HW127485   4.447   4.212  10.078 -0.1906  0.2468  0.4409
 5284SOL    HW227486   4.499   4.346  10.092  1.0044 -0.3964  0.7438
 5285SOL     OW27487   2.998   0.077  10.634  0.1880  0.5040  0.6182
 5285SOL    HW127488   2.948   0.106  10.711  0.9576  0.2371  1.2250
 5285SOL    HW227489   2.969   4.723  10.630 -0.1572  0.6478 -0.0774
 5286SOL     OW27490   0.370   0.729   9.067 -0.4470  0.3470 -0.2795
 5286SOL    HW127491   0.445   0.720   9.126 -0.7169 -1.4192 -0.2131
 5286SOL    HW227492   0.333   0.806   9.109 -2.4513  0.3708 -2.0874
 5287SOL     OW27493   0.819   1.741   5.722  0.0417  0.1697 -0.6796
 5287SOL    HW127494   0.870   1.821   5.707  0.3971  0.2472  0.9267
 5287SOL    HW227495   0.839   1.725   5.814  0.6199 -0.2304 -0.8699
 5288SOL     OW27496   3.103   0.760   5.413  0.1729  0.0640 -0.4545
 5288SOL    HW127497   3.137   0.699   5.478 -0.4172  2.7478  2.3597
 5288SOL    HW227498   3.146   0.726   5.334  1.1728  1.9157 -0.7244
 5289SOL     OW27499   0.100   1.170   2.346  0.1366  0.0168  0.0241
 5289SOL    HW127500   0.152   1.173   2.266 -0.1588 -1.5546 -0.2333
 5289SOL    HW227501   0.112   1.079   2.374  1.1175  0.3560  0.6877
 5290SOL     OW27502   4.211   3.501   8.406  0.2668  0.3784  0.2284
 5290SOL    HW127503   4.290   3.447   8.396 -0.4930 -0.8882  0.9585
 5290SOL    HW227504   4.186   3.497   8.498 -0.3041 -0.6779  0.0328
 5291SOL     OW27505   4.682   2.441   0.233  0.0197 -0.2130  0.5306
 5291SOL    HW127506   4.720   2.415   0.149  0.7558 -2.7481  1.6699
 5291SOL    HW227507   4.678   2.356   0.277 -0.6379 -0.2348  0.4269
 5292SOL     OW27508   0.299   3.687   8.503 -0.1698  0.3686 -0.4689
 5292SOL    HW127509   0.278   3.766   8.553  0.2701  0.2803 -0.1451
 5292SOL    HW227510   0.355   3.730   8.437  1.6306  1.3496  1.6864
 5293SOL     OW27511   3.823   3.526   7.000 -0.0285 -0.9091  0.5372
 5293SOL    HW127512   3.797   3.436   7.016  0.3309 -1.3497 -1.4701
 5293SOL    HW227513   3.908   3.513   6.958 -0.7787 -1.7658 -0.6977
 5294SOL     OW27514   1.085   3.784   2.590 -0.2948  0.3044  0.1301
 5294SOL    HW127515   1.138   3.809   2.665  1.1440 -2.0587 -0.1057
 5294SOL    HW227516   1.102   3.690   2.593 -3.2571 -0.3240 -1.6063
 5295SOL     OW27517   0.873   1.213   2.613  0.9456 -0.0575  0.0494
 5295SOL    HW127518   0.929   1.141   2.641  0.2225 -0.7248 -0.2283
 5295SOL    HW227519   0.785   1.187   2.639  0.9175  0.3454  0.3532
 5296SOL     OW27520   3.122   2.528   4.823  0.6427  0.1603  0.7172
 5296SOL    HW127521   3.146   2.620   4.816  2.3062 -0.4956 -2.3623
 5296SOL    HW227522   3.028   2.518   4.808  0.5135  0.6573  1.2224
 5297SOL     OW27523   2.892   1.210  12.475 -0.8813  0.1152  0.2212
 5297SOL    HW127524   2.808   1.165  12.478 -0.0326 -1.4042  1.0322
 5297SOL    HW227525   2.932   1.186  12.558  0.1805 -0.2660 -0.3949
 5298SOL     OW27526   3.143   0.986   8.661 -0.4979  0.5146 -0.0321
 5298SOL    HW127527   3.188   1.023   8.585  0.9646  0.2686  0.7180
 5298SOL    HW227528   3.129   0.896   8.632  1.3268 -0.1533  1.1425
 5299SOL     OW27529   0.387   0.449   6.545  0.0687 -0.0214 -0.0483
 5299SOL    HW127530   0.346   0.426   6.461 -0.3991  0.1597  0.1310
 5299SOL    HW227531   0.322   0.503   6.589 -0.6598 -0.4590 -0.5882
 5300SOL     OW27532   4.694   4.293   0.453 -0.2767  0.2185  0.2765
 5300SOL    HW127533   4.715   4.333   0.369 -0.8517  0.5442  0.2877
 5300SOL    HW227534   0.040   4.262   0.488  0.2838  2.3229  0.7881
 5301SOL     OW27535   0.537   3.918   1.318  0.5776 -0.0608 -0.2474
 5301SOL    HW127536   0.627   3.905   1.288  0.4913 -3.3030  0.8765
 5301SOL    HW227537   0.486   3.902   1.239  0.8105 -2.2567  0.0643
 5302SOL     OW27538   3.964   4.270   2.922  0.2103 -0.6226 -0.1510
 5302SOL    HW127539   4.005   4.235   2.843  0.2699  1.5166 -1.0648
 5302SOL    HW227540   3.871   4.250   2.914  0.1192 -0.3495  0.2261
 5303SOL     OW27541   1.555   1.033   4.690 -0.1568  0.2301  0.5567
 5303SOL    HW127542   1.468   1.047   4.651  0.7005  2.0639 -0.6499
 5303SOL    HW227543   1.514   1.006   4.772  1.3195 -3.1565  0.2033
 5304SOL     OW27544   1.024   0.878   1.783 -0.4531  0.1086 -0.3961
 5304SOL    HW127545   1.036   0.959   1.833 -1.7322  0.4558 -0.6740
 5304SOL    HW227546   0.998   0.822   1.857 -1.0041  2.2284  0.9962
 5305SOL     OW27547   3.168   1.820   1.534  0.9131 -0.3024  0.4411
 5305SOL    HW127548   3.177   1.728   1.509 -2.3458 -0.0835 -1.5231
 5305SOL    HW227549   3.148   1.802   1.625  0.5003  3.3787  1.0694
 5306SOL     OW27550   2.560   3.916  13.358  0.4822 -0.6510 -0.0474
 5306SOL    HW127551   2.558   3.999  13.310 -0.7083 -1.0178 -0.6432
 5306SOL    HW227552   2.469   3.889  13.341  0.4714 -1.7229  1.6346
 5307SOL     OW27553   0.375   0.508  16.397  0.0921  0.2954 -0.1819
 5307SOL    HW127554   0.467   0.481  16.391  0.2401  0.7361  0.1392
 5307SOL    HW227555   0.365   0.492  16.491  1.2266  1.6590  0.1744
 5308SOL     OW27556   1.649   4.631  15.859  0.1125 -0.2995  0.5451
 5308SOL    HW127557   1.631   4.542  15.828 -2.1992  1.0047 -1.8577
 5308SOL    HW227558   1.705   4.615  15.935 -1.1993 -0.9550  1.3767
 5309SOL     OW27559   2.433   2.306  17.141  0.1521  0.3922 -0.0982
 5309SOL    HW127560   2.480   2.375  17.093 -1.7702  1.0585 -1.0096
 5309SOL    HW227561   2.436   2.229  17.085 -3.3198  1.5045 -1.7782
 5310SOL     OW27562   3.239   1.449   0.497  0.1730  0.0369 -0.6393
 5310SOL    HW127563   3.181   1.377   0.471  0.5142  0.9434 -3.9559
 5310SOL    HW227564   3.258   1.481   0.408  0.6404  2.3822  0.3097
 5311SOL     OW27565   1.544   0.484   8.564 -0.2458 -0.5267 -0.1933
 5311SOL    HW127566   1.512   0.560   8.612  1.4390  0.3883 -0.5254
 5311SOL    HW227567   1.593   0.530   8.495  0.3577  0.5830  0.9866
 5312SOL     OW27568   1.008   0.837   3.729  0.1144 -0.0007  0.3862
 5312SOL    HW127569   1.042   0.828   3.640  0.3448  1.1441  0.3574
 5312SOL    HW227570   1.042   0.752   3.755  0.1586 -0.2508 -0.4957
 5313SOL     OW27571   4.320   1.464   6.960  0.1324  0.2509  0.1225
 5313SOL    HW127572   4.234   1.504   6.955 -0.1683 -0.1423  2.1147
 5313SOL    HW227573   4.290   1.394   7.018 -2.2115 -0.4066 -1.9021
 5314SOL     OW27574   4.040   1.665   0.200  0.1714 -0.4953 -0.4071
 5314SOL    HW127575   4.017   1.758   0.202  1.2662 -0.3214  3.0587
 5314SOL    HW227576   4.051   1.649   0.294 -0.5763 -2.4082 -0.6330
 5315SOL     OW27577   1.923   4.527   7.524 -0.0637 -1.2079 -0.3720
 5315SOL    HW127578   1.932   4.552   7.432  0.2293 -2.4506 -0.6875
 5315SOL    HW227579   2.011   4.515   7.558 -0.7393 -0.1475  1.7211
 5316SOL     OW27580   4.696   1.946  13.549  0.6567  0.5649 -0.1267
 5316SOL    HW127581   4.653   2.014  13.601 -0.1573 -0.9029  1.1249
 5316SOL    HW227582   0.013   1.995  13.487 -0.5772  0.3295 -1.3936
 5317SOL     OW27583   2.321   1.424  15.827  0.3584  0.2662 -0.1785
 5317SOL    HW127584   2.313   1.505  15.777  4.2775  0.2735 -0.8724
 5317SOL    HW227585   2.416   1.413  15.840  0.4186  1.3388  0.2231
 5318SOL     OW27586   1.686   2.019  12.856 -0.0295 -0.5162  0.0285
 5318SOL    HW127587   1.640   2.034  12.773  0.5822  1.9013  0.1359
 5318SOL    HW227588   1.762   2.077  12.846 -1.4954  1.3903 -0.1905
 5319SOL     OW27589   2.250   2.542  13.542 -0.5483 -0.5222 -0.1058
 5319SOL    HW127590   2.345   2.544  13.553 -0.4514 -0.4707 -0.9562
 5319SOL    HW227591   2.225   2.453  13.567 -0.8716  0.2294  2.2406
 5320SOL     OW27592   2.404   0.137  16.839 -0.6820  0.1919  0.0469
 5320SOL    HW127593   2.393   0.141  16.744 -1.6330  1.8022  0.2162
 5320SOL    HW227594   2.368   0.221  16.868  1.1444  1.0780 -0.2619
 5321SOL     OW27595   1.663   3.708  14.814  0.3314 -0.4746  0.0264
 5321SOL    HW127596   1.664   3.780  14.751  2.7186 -0.8311 -0.3321
 5321SOL    HW227597   1.572   3.698  14.841  0.1005 -2.3485 -1.4441
 5322SOL     OW27598   2.468   0.724   7.010  0.6415  0.0562  0.3123
 5322SOL    HW127599   2.529   0.651   7.020 -1.0236 -1.3559  0.0965
 5322SOL    HW227600   2.397   0.704   7.071  0.5534  1.9885  0.8554
 5323SOL     OW27601   0.178   3.958   8.586  0.2211  0.7578  0.1883
 5323SOL    HW127602   0.255   3.991   8.633  0.9073  0.5158 -0.7641
 5323SOL    HW227603   0.164   4.030   8.526 -0.1692 -0.1632 -0.8287
 5324SOL     OW27604   2.878   1.090   7.016  0.3220 -0.3562  0.6125
 5324SOL    HW127605   2.886   1.166   6.959  0.4192 -0.3076  0.6910
 5324SOL    HW227606   2.787   1.059   7.012  0.0440  0.5678 -0.2750
 5325SOL     OW27607   3.050   3.103   3.510  0.1185 -0.0332  0.1440
 5325SOL    HW127608   3.100   3.091   3.430  2.6642  3.5429  1.2190
 5325SOL    HW227609   3.046   3.015   3.549  0.4633 -0.2374 -0.2877
 5326SOL     OW27610   0.707   1.412   4.619 -0.3885 -0.1186  0.2122
 5326SOL    HW127611   0.763   1.461   4.559 -1.6391  0.8594 -0.1567
 5326SOL    HW227612   0.630   1.398   4.564  0.5672 -2.0432 -0.6325
 5327SOL     OW27613   0.211   3.921   6.958 -0.2922 -0.0583  0.0729
 5327SOL    HW127614   0.118   3.940   6.970 -0.8472 -1.2657 -2.3282
 5327SOL    HW227615   0.199   3.835   6.919  1.6703  0.4346 -1.6134
 5328SOL     OW27616   4.272   3.712  13.086  0.1986 -0.6413  0.3445
 5328SOL    HW127617   4.304   3.796  13.053 -2.0778  0.3310  0.6447
 5328SOL    HW227618   4.177   3.719  13.088  0.2726  0.0394  1.5488
 5329SOL     OW27619   1.076   0.529  10.069  0.6742  0.3966 -0.5852
 5329SOL    HW127620   0.982   0.542  10.059  0.9795  1.6653 -1.7281
 5329SOL    HW227621   1.111   0.579   9.996 -0.0768  2.4190  0.4539
 5330SOL     OW27622   1.754   1.026  10.433 -0.2267  0.0208  0.4842
 5330SOL    HW127623   1.759   0.932  10.445  0.7161 -0.0396 -0.4270
 5330SOL    HW227624   1.701   1.041  10.512  2.0704  0.7970  1.8708
 5331SOL     OW27625   0.522   3.336   3.852  0.1179 -0.7595  0.0326
 5331SOL    HW127626   0.440   3.382   3.830  1.0427  0.6471 -0.4673
 5331SOL    HW227627   0.577   3.412   3.871 -1.6250  0.9750 -1.8688
 5332SOL     OW27628   0.414   1.577   3.776 -0.1911 -0.4557 -0.8442
 5332SOL    HW127629   0.476   1.648   3.794 -0.5947 -0.5699  1.0019
 5332SOL    HW227630   0.337   1.626   3.746  0.7397  1.6143  0.1040
 5333SOL     OW27631   0.218   2.480   7.244 -0.4263  0.2242  0.8905
 5333SOL    HW127632   0.313   2.472   7.238 -0.5245 -1.2234  1.1047
 5333SOL    HW227633   0.203   2.570   7.215 -0.6351  0.3401  1.3733
 5334SOL     OW27634   0.089   4.445   6.765  0.3556  0.0002 -0.0620
 5334SOL    HW127635   0.138   4.375   6.721 -0.3483 -0.2415 -0.4768
 5334SOL    HW227636   0.002   4.418   6.733 -0.0006  0.3837  0.5854
 5335SOL     OW27637   0.248   1.249   7.107 -0.2953  0.9548 -0.2524
 5335SOL    HW127638   0.266   1.335   7.145 -0.8857  1.1383 -0.3776
 5335SOL    HW227639   0.159   1.259   7.072  0.5920  0.8643 -2.5068
 5336SOL     OW27640   1.210   0.879  14.971  0.5444  0.4838  0.4024
 5336SOL    HW127641   1.219   0.795  14.926  0.1041  0.6835 -0.0602
 5336SOL    HW227642   1.149   0.871  15.044 -0.2313 -1.8635 -0.5146
 5337SOL     OW27643   0.474   4.728   5.237 -0.6057 -0.6807 -0.3423
 5337SOL    HW127644   0.531   0.067   5.247 -1.7161 -0.0840  1.4195
 5337SOL    HW227645   0.506   4.695   5.154 -0.7092 -0.7730 -0.3444
 5338SOL     OW27646   1.151   3.506   9.871  0.1019  0.3434 -0.1195
 5338SOL    HW127647   1.108   3.468   9.947 -0.1357 -0.5237 -0.6891
 5338SOL    HW227648   1.181   3.591   9.903 -0.2982  0.1598  0.7307
 5339SOL     OW27649   4.628   4.422   2.615 -0.2221  0.1457 -0.1038
 5339SOL    HW127650   4.640   4.451   2.705  1.3414  0.8043 -0.5172
 5339SOL    HW227651   4.677   4.483   2.559  1.5196 -1.5025 -0.3903
 5340SOL     OW27652   1.341   2.389   5.250 -0.7908  0.5673  0.3763
 5340SOL    HW127653   1.372   2.353   5.333  0.1955  3.0698  1.0943
 5340SOL    HW227654   1.358   2.309   5.199 -0.1429  0.6852  0.4076
 5341SOL     OW27655   0.321   4.444   3.521 -0.4290 -0.4702  0.0706
 5341SOL    HW127656   0.234   4.432   3.559 -1.3589 -0.7280 -2.1362
 5341SOL    HW227657   0.313   4.526   3.471  0.8592 -1.4898 -1.8012
 5342SOL     OW27658   0.279   0.832   0.067  0.0149  0.3935 -0.5632
 5342SOL    HW127659   0.314   0.753   0.026 -2.1992 -0.0073 -1.6245
 5342SOL    HW227660   0.249   0.811   0.155  0.5812  1.0085 -0.2201
 5343SOL     OW27661   1.636   0.792   0.359  0.0289 -0.6708  0.6911
 5343SOL    HW127662   1.682   0.735   0.298 -1.1945 -0.0816 -0.7980
 5343SOL    HW227663   1.611   0.863   0.300  1.2683 -0.1808  0.7594
 5344SOL     OW27664   0.666   2.735   3.565  0.0686  0.8131 -0.1597
 5344SOL    HW127665   0.579   2.716   3.602  0.1901 -0.2344 -0.4068
 5344SOL    HW227666   0.705   2.800   3.623 -1.1045  1.8519 -0.5337
 5345SOL     OW27667   2.967   3.399   4.725  0.1164  0.5043  0.0094
 5345SOL    HW127668   2.996   3.484   4.691  2.3885 -1.0607 -1.9495
 5345SOL    HW227669   2.948   3.421   4.816  2.3824 -1.1774  0.8836
 5346SOL     OW27670   1.620   2.595   5.049 -0.4815  0.4480  0.7176
 5346SOL    HW127671   1.671   2.592   4.968  1.3036 -0.1591  1.8501
 5346SOL    HW227672   1.624   2.689   5.066 -0.8794  0.6496 -0.2914
 5347SOL     OW27673   2.837   4.296   2.031 -0.1466  0.0596  0.1888
 5347SOL    HW127674   2.925   4.280   2.065 -0.3043 -0.8265  0.1994
 5347SOL    HW227675   2.849   4.371   1.972 -0.4880 -1.2147 -1.5197
 5348SOL     OW27676   0.162   1.976   1.743  0.2157 -0.2005  0.1792
 5348SOL    HW127677   0.080   1.939   1.710 -0.1226  1.9219 -1.3776
 5348SOL    HW227678   0.216   1.946   1.669  0.1392 -0.4963  0.2407
 5349SOL     OW27679   1.184   2.535   6.176  0.6507 -0.1002 -0.8980
 5349SOL    HW127680   1.260   2.576   6.217 -0.7233  2.3968 -0.8427
 5349SOL    HW227681   1.202   2.451   6.217  0.6088  0.1102 -0.4467
 5350SOL     OW27682   4.323   4.081   2.900 -0.6185  0.0228 -0.6113
 5350SOL    HW127683   4.392   4.134   2.939  2.2523 -3.8884 -0.3446
 5350SOL    HW227684   4.246   4.136   2.917 -0.6155 -0.5276  1.2211
 5351SOL     OW27685   3.324   1.192  13.473  0.5908 -0.2126  0.0575
 5351SOL    HW127686   3.283   1.105  13.471  0.3563 -0.1480  1.5069
 5351SOL    HW227687   3.273   1.228  13.546 -2.8679  0.5173 -2.7046
 5352SOL     OW27688   3.101   0.208   2.779 -0.5506  0.4418 -0.1292
 5352SOL    HW127689   3.106   0.249   2.866 -0.2811  0.1856 -0.0218
 5352SOL    HW227690   3.163   0.263   2.732 -2.0945  2.4714  0.2201
 5353SOL     OW27691   4.674   0.004   9.115  0.3384 -0.5275  0.6518
 5353SOL    HW127692   4.709   4.654   9.129  2.2243  0.3485  1.4113
 5353SOL    HW227693   4.581   0.001   9.136  0.1963 -1.3154 -0.0590
 5354SOL     OW27694   3.655   2.168   0.767 -0.0785  0.4259 -0.1062
 5354SOL    HW127695   3.567   2.181   0.804  0.6810  0.3380  1.7256
 5354SOL    HW227696   3.639   2.113   0.690 -0.4240 -0.4435  0.5906
 5355SOL     OW27697   0.794   3.121  15.880  0.3355 -0.2168 -0.2064
 5355SOL    HW127698   0.768   3.188  15.817 -0.3374  0.8640  1.1988
 5355SOL    HW227699   0.867   3.083  15.832  1.9554  1.1383  1.1513
 5356SOL     OW27700   0.513   3.171   4.586  0.5565  0.4270  0.4566
 5356SOL    HW127701   0.518   3.075   4.584  2.2336  0.5461 -0.9389
 5356SOL    HW227702   0.543   3.192   4.674  0.9191 -2.0632  0.9302
 5357SOL     OW27703   2.300   0.551   7.763 -0.2626  0.2073  0.0465
 5357SOL    HW127704   2.367   0.541   7.831  0.0991 -1.0449 -0.4883
 5357SOL    HW227705   2.283   0.458   7.745  0.0211  0.1848 -0.1105
 5358SOL     OW27706   1.986   0.040   4.380 -0.1676  0.1357  0.3794
 5358SOL    HW127707   2.002   4.709   4.316  0.5466  1.1351 -0.5063
 5358SOL    HW227708   2.044   0.105   4.341 -0.4859 -1.2612 -2.4264
 5359SOL     OW27709   4.030   2.339  11.396  0.0703  0.2529 -0.2199
 5359SOL    HW127710   4.047   2.348  11.303  1.2368  0.8550  0.0547
 5359SOL    HW227711   3.993   2.426  11.415  0.9995  0.6800 -0.3898
 5360SOL     OW27712   0.363   1.316   2.151 -0.5012 -0.1966 -0.4176
 5360SOL    HW127713   0.420   1.377   2.106 -1.6874  1.6295  0.5694
 5360SOL    HW227714   0.280   1.361   2.136 -0.0387  1.8011  2.9608
 5361SOL     OW27715   0.884   1.057   4.422 -0.3049  0.7248  0.0899
 5361SOL    HW127716   0.974   1.029   4.435 -0.7382 -1.3834 -1.4535
 5361SOL    HW227717   0.890   1.111   4.343 -1.1283  0.1541 -0.3630
 5362SOL     OW27718   2.927   3.789   3.923 -0.2254 -0.0946 -0.0467
 5362SOL    HW127719   2.871   3.754   3.854 -1.1020 -2.5777  1.9075
 5362SOL    HW227720   2.865   3.850   3.964  1.0484  0.1994  1.4300
 5363SOL     OW27721   4.346   3.343   5.999 -0.6499 -0.0197 -0.3614
 5363SOL    HW127722   4.358   3.435   6.021 -0.1203  0.0830 -1.0759
 5363SOL    HW227723   4.417   3.330   5.936 -1.8936 -2.7676 -1.1865
 5364SOL     OW27724   0.439   0.734   5.262 -0.2242 -0.6218 -0.1220
 5364SOL    HW127725   0.382   0.659   5.280 -1.1979 -0.1784 -1.3256
 5364SOL    HW227726   0.467   0.715   5.172 -2.5159  0.3908 -1.0563
 5365SOL     OW27727   2.001   3.227   7.685 -0.2207 -0.3403  0.2293
 5365SOL    HW127728   2.076   3.200   7.739  1.5816  2.6623 -0.7234
 5365SOL    HW227729   1.930   3.186   7.734 -1.3414  1.0619 -0.2184
 5366SOL     OW27730   2.809   1.125   6.431 -0.1077 -1.0575  0.2105
 5366SOL    HW127731   2.783   1.101   6.520 -0.0872  0.4825  0.6268
 5366SOL    HW227732   2.874   1.056   6.420 -0.8999 -1.4292 -2.1015
 5367SOL     OW27733   4.043   4.497   2.252  1.1457  0.0286  0.5378
 5367SOL    HW127734   4.110   4.458   2.196  1.2473  2.6776 -1.2196
 5367SOL    HW227735   3.962   4.448   2.240  1.7312 -0.8396  0.1409
 5368SOL     OW27736   2.405   3.306   2.276 -0.5195 -0.3879  0.2568
 5368SOL    HW127737   2.427   3.222   2.234 -2.8930 -1.4000  1.0188
 5368SOL    HW227738   2.355   3.289   2.356  1.8446  2.1565  2.2818
 5369SOL     OW27739   2.062   1.710   2.277  0.5173 -0.1281 -0.5136
 5369SOL    HW127740   2.090   1.634   2.226 -0.6994 -0.8209 -0.1587
 5369SOL    HW227741   1.977   1.727   2.236 -0.0996 -0.3482  0.6387
 5370SOL     OW27742   3.370   2.515   4.092  0.6101  0.2722  0.6730
 5370SOL    HW127743   3.347   2.488   4.181 -3.1147  0.3554 -0.2467
 5370SOL    HW227744   3.428   2.442   4.071 -0.1692  0.4859 -2.2528
 5371SOL     OW27745   4.462   0.417   4.825 -0.0429  0.2048  0.0828
 5371SOL    HW127746   4.389   0.360   4.801  1.6738 -1.0669 -2.1263
 5371SOL    HW227747   4.519   0.351   4.864  1.3698  2.2826  1.5804
 5372SOL     OW27748   3.251   3.723   1.821  0.2907  0.5290 -0.0051
 5372SOL    HW127749   3.196   3.652   1.788  0.2104  0.9208 -0.7095
 5372SOL    HW227750   3.315   3.721   1.750 -0.9265 -3.0299 -1.0027
 5373SOL     OW27751   2.986   4.655   6.537 -0.6025  0.4723  0.2362
 5373SOL    HW127752   2.974   4.673   6.444 -0.8775 -1.1170 -0.0342
 5373SOL    HW227753   2.952   4.566   6.544  0.8644 -0.1525 -0.4408
 5374SOL     OW27754   0.506   2.628   4.353 -1.2242  0.8413 -0.3777
 5374SOL    HW127755   0.582   2.669   4.394  0.1625 -2.2621  0.1077
 5374SOL    HW227756   0.478   2.575   4.428  0.9523 -0.7230 -0.6755
 5375SOL     OW27757   3.584   4.121   7.478 -0.2346  0.6657  0.1524
 5375SOL    HW127758   3.606   4.040   7.524  0.5926  1.5465  1.2973
 5375SOL    HW227759   3.663   4.119   7.424  0.8273  1.2379  1.6951
 5376SOL     OW27760   3.936   2.477  10.705  0.0324 -0.3950 -0.4086
 5376SOL    HW127761   3.920   2.459  10.613  2.0595  1.4263 -1.1175
 5376SOL    HW227762   4.015   2.532  10.709 -1.2721  1.5682 -2.0511
 5377SOL     OW27763   0.110   1.603  17.232 -0.1796  0.7655 -0.4496
 5377SOL    HW127764   0.203   1.585  17.245 -0.5397 -1.3255 -0.8732
 5377SOL    HW227765   0.079   1.625  17.320 -0.6043 -0.0602 -0.3956
 5378SOL     OW27766   2.823   2.386   7.439  0.2489 -0.3255 -0.3402
 5378SOL    HW127767   2.868   2.464   7.406 -0.4224  0.6320  1.0620
 5378SOL    HW227768   2.789   2.349   7.357 -0.1579 -2.7492  0.9152
 5379SOL     OW27769   1.019   2.035  15.749 -0.4253  0.3751 -0.2028
 5379SOL    HW127770   1.062   2.071  15.826 -1.7556  0.8193  0.3477
 5379SOL    HW227771   0.994   1.944  15.767  0.2583  0.1487 -0.4010
 5380SOL     OW27772   0.893   2.884  10.045 -0.5280 -0.0188 -0.1049
 5380SOL    HW127773   0.959   2.900  10.112 -0.8275 -2.1514  0.6937
 5380SOL    HW227774   0.911   2.794  10.019  3.0079  1.0306 -1.2422
 5381SOL     OW27775   2.038   3.059  13.069 -0.6558 -0.4219  0.1781
 5381SOL    HW127776   1.945   3.073  13.054 -1.8424 -4.7698  3.3306
 5381SOL    HW227777   2.056   3.099  13.154 -2.2758 -2.1108  1.3037
 5382SOL     OW27778   3.772   0.261   2.255  0.0367 -0.4062 -0.1545
 5382SOL    HW127779   3.818   0.309   2.324  0.6928 -1.9526  0.4707
 5382SOL    HW227780   3.705   0.212   2.303  2.1636 -2.4894  0.6701
 5383SOL     OW27781   1.218   1.668  12.279 -0.6119  0.0521 -0.2694
 5383SOL    HW127782   1.153   1.617  12.327 -2.2447  1.6958 -0.7601
 5383SOL    HW227783   1.165   1.698  12.205 -0.7798 -3.1218 -1.4450
 5384SOL     OW27784   4.343   2.125   2.386 -0.0846 -0.2036  0.2429
 5384SOL    HW127785   4.345   2.220   2.401 -2.0271 -0.2551  0.7464
 5384SOL    HW227786   4.313   2.133   2.296  2.6111  0.1804 -0.6368
 5385SOL     OW27787   1.932   0.326   9.347 -0.0067 -0.1195  0.0325
 5385SOL    HW127788   1.960   0.351   9.435  0.6888  1.9538 -0.7820
 5385SOL    HW227789   2.016   0.295   9.313  1.1521  0.7945  2.0168
 5386SOL     OW27790   2.284   3.341   8.965 -0.3288 -0.2799  0.2628
 5386SOL    HW127791   2.215   3.407   8.978 -0.1829  0.1109 -0.9556
 5386SOL    HW227792   2.359   3.380   9.010 -0.0252 -0.2125 -0.3004
 5387SOL     OW27793   1.859   0.017   6.164  0.5379 -0.6277 -0.1096
 5387SOL    HW127794   1.798   0.068   6.111 -0.8699 -1.3394  0.8112
 5387SOL    HW227795   1.794   0.007   6.233  0.8062  0.6950  0.3388
 5388SOL     OW27796   2.178   4.703   0.435 -0.5647 -0.2775  0.1349
 5388SOL    HW127797   2.186   4.673   0.345 -0.1639  0.0615  0.0570
 5388SOL    HW227798   2.091   4.669   0.455 -0.5272  0.2127  1.1147
 5389SOL     OW27799   3.099   2.617   2.596  0.3755  0.3947 -0.0923
 5389SOL    HW127800   3.026   2.666   2.635  1.5401  0.9768  1.3529
 5389SOL    HW227801   3.150   2.679   2.545  1.7656  2.1229  3.4322
 5390SOL     OW27802   4.158   2.757   1.256 -0.2270  0.3962  0.1864
 5390SOL    HW127803   4.146   2.675   1.304  0.6400  0.3797  0.3718
 5390SOL    HW227804   4.182   2.730   1.167  0.3140  0.3148  0.3595
 5391SOL     OW27805   1.707   2.746  11.608  0.6245 -0.5299 -0.7126
 5391SOL    HW127806   1.672   2.664  11.641  1.0806 -0.6836 -0.6089
 5391SOL    HW227807   1.777   2.776  11.667  0.9016  4.5765 -3.6081
 5392SOL     OW27808   2.370   1.565  16.283 -0.2569 -0.0631  0.2217
 5392SOL    HW127809   2.292   1.549  16.231 -0.2779 -0.6926  0.4551
 5392SOL    HW227810   2.363   1.490  16.341  1.0286 -1.3812 -1.3315
 5393SOL     OW27811   2.882   0.370   4.163  0.0118 -0.4886  0.3705
 5393SOL    HW127812   2.901   0.282   4.196  1.5035 -0.6524 -0.9009
 5393SOL    HW227813   2.892   0.416   4.247  0.5798 -1.7019  0.9810
 5394SOL     OW27814   0.658   2.108   7.492  0.0159 -0.0254  0.1655
 5394SOL    HW127815   0.571   2.082   7.521 -0.2079  0.6265  0.0677
 5394SOL    HW227816   0.681   2.031   7.440 -0.1701  0.7222 -1.0223
 5395SOL     OW27817   0.528   4.250  15.193  0.0447 -0.1320  0.1846
 5395SOL    HW127818   0.523   4.339  15.158  0.2193 -0.1586  0.0950
 5395SOL    HW227819   0.623   4.239  15.197  0.0144 -0.4226  0.0840
 5396SOL     OW27820   3.617   0.578   8.879 -0.5434 -0.2415 -0.5379
 5396SOL    HW127821   3.686   0.602   8.941 -1.3884  0.0613  0.2912
 5396SOL    HW227822   3.636   0.631   8.802 -1.9611 -0.4774 -1.0572
 5397SOL     OW27823   3.635   3.671   6.126  0.2685 -0.4382 -0.1200
 5397SOL    HW127824   3.652   3.595   6.071 -0.5106 -0.4029 -0.4139
 5397SOL    HW227825   3.629   3.624   6.210  2.0907 -3.1113 -1.4894
 5398SOL     OW27826   3.530   1.999   1.122  0.6090  0.2937 -0.6749
 5398SOL    HW127827   3.579   2.024   1.201  0.0832 -0.5753 -0.0672
 5398SOL    HW227828   3.511   1.907   1.144 -1.7235  1.1424  0.8177
 5399SOL     OW27829   1.423   0.716  10.322  0.4112 -0.3280 -0.1696
 5399SOL    HW127830   1.455   0.735  10.411 -0.8665  1.9569 -0.1899
 5399SOL    HW227831   1.504   0.688  10.280 -0.0796 -1.0330 -0.6393
 5400SOL     OW27832   4.290   4.573   2.871 -0.1134 -0.5525 -0.7055
 5400SOL    HW127833   4.211   4.566   2.818  0.6880  1.2718 -2.1438
 5400SOL    HW227834   4.345   4.635   2.823  1.2772  0.5018  2.2181
 5401SOL     OW27835   3.903   1.232  11.599  0.8714  0.1171 -0.0973
 5401SOL    HW127836   3.912   1.183  11.518 -1.7782 -0.0639 -0.2941
 5401SOL    HW227837   3.816   1.271  11.588  1.1306  0.5328 -0.6407
 5402SOL     OW27838   0.170   3.663   6.005 -0.2186 -0.1246 -0.2998
 5402SOL    HW127839   0.218   3.648   6.086 -1.5817 -1.3258  0.2612
 5402SOL    HW227840   0.080   3.666   6.036  0.2211 -1.5564  1.1063
 5403SOL     OW27841   0.089   3.850   8.060  0.0934 -0.0558 -0.0289
 5403SOL    HW127842   0.168   3.878   8.107 -1.4053  2.4392  0.9640
 5403SOL    HW227843   0.027   3.916   8.088 -0.6893 -0.5716 -0.5459
 5404SOL     OW27844   1.091   1.776   3.852 -0.5433  0.1688  0.2842
 5404SOL    HW127845   1.077   1.780   3.947  2.1587  1.4611  0.6169
 5404SOL    HW227846   1.148   1.700   3.861  2.3029  2.3610  0.6860
 5405SOL     OW27847   0.004   1.640   3.514 -0.3037 -0.8467 -0.4138
 5405SOL    HW127848   4.705   1.584   3.583 -0.1476 -0.4557 -0.0153
 5405SOL    HW227849   0.011   1.580   3.440  0.2858 -1.0081 -0.2280
 5406SOL     OW27850   1.886   4.593  15.709  0.3301 -0.0595 -0.3800
 5406SOL    HW127851   1.873   4.498  15.712  0.9728 -0.0794  1.8215
 5406SOL    HW227852   1.808   4.635  15.744 -0.4632 -0.7940 -1.2751
 5407SOL     OW27853   2.317   3.208   4.201  0.4860  0.3801  0.1984
 5407SOL    HW127854   2.356   3.294   4.187 -0.1509  0.4891 -0.9587
 5407SOL    HW227855   2.397   3.157   4.187  0.3876  0.5338 -0.9393
 5408SOL     OW27856   4.521   1.696   5.063 -0.5420 -0.3117 -0.2964
 5408SOL    HW127857   4.579   1.761   5.103 -0.4816 -0.4507 -0.1575
 5408SOL    HW227858   4.580   1.621   5.071 -2.0620 -1.5847 -1.2236
 5409SOL     OW27859   1.756   2.047  16.344  0.3003 -0.2729  0.7605
 5409SOL    HW127860   1.771   1.958  16.375  1.2269 -0.2424  0.3887
 5409SOL    HW227861   1.825   2.091  16.394 -2.3095 -0.0844  4.1389
 5410SOL     OW27862   4.403   2.827   1.407  0.3534 -0.4018  0.1490
 5410SOL    HW127863   4.319   2.817   1.363  0.4285 -0.9552  0.1311
 5410SOL    HW227864   4.413   2.749   1.462  3.1395  0.1149  0.3837
 5411SOL     OW27865   2.620   1.161   4.383  0.0015  0.0147  0.2640
 5411SOL    HW127866   2.640   1.187   4.294  0.0055  1.7145  0.7675
 5411SOL    HW227867   2.525   1.157   4.387 -0.1989  3.3222 -1.9520
 5412SOL     OW27868   2.675   3.385   6.574  0.2299 -0.4990  0.3196
 5412SOL    HW127869   2.697   3.430   6.493  2.1610 -1.0406  0.5418
 5412SOL    HW227870   2.745   3.403   6.637  1.4823  1.6209 -1.7200
 5413SOL     OW27871   2.684   3.593  14.741  0.5649 -0.1388  0.2729
 5413SOL    HW127872   2.727   3.517  14.782 -0.3509 -0.4367  0.6732
 5413SOL    HW227873   2.593   3.562  14.742  1.7172 -3.5569  0.4221
 5414SOL     OW27874   0.567   1.665   8.272  0.2152  0.0672  0.1234
 5414SOL    HW127875   0.507   1.593   8.285 -2.4274  1.5327 -3.9027
 5414SOL    HW227876   0.627   1.640   8.342  0.1471  1.0021  0.5211
 5415SOL     OW27877   2.487   0.062   6.014  0.4096  0.0059 -0.1043
 5415SOL    HW127878   2.496   0.094   6.104 -1.4675 -1.4747  0.6089
 5415SOL    HW227879   2.464   4.709   6.035  0.1936 -0.0346 -0.5179
 5416SOL     OW27880   1.917   4.231   9.231 -0.1288  0.6059 -0.4843
 5416SOL    HW127881   1.853   4.282   9.181 -2.0150  0.0585  1.3573
 5416SOL    HW227882   1.887   4.142   9.210 -1.5008  0.7088  1.0320
 5417SOL     OW27883   2.631   1.849  13.101 -0.1320 -0.3492 -0.0639
 5417SOL    HW127884   2.719   1.884  13.113 -0.9910  1.8303 -0.2192
 5417SOL    HW227885   2.572   1.918  13.130 -0.1172 -0.4660  0.2477
 5418SOL     OW27886   0.993   1.474  12.946 -0.0380 -0.2607 -0.0463
 5418SOL    HW127887   1.014   1.429  12.864  0.2818 -0.4579  0.1390
 5418SOL    HW227888   1.052   1.436  13.011  1.5168  2.3096  0.0447
 5419SOL     OW27889   3.880   2.554  13.354 -0.4403  0.0969 -0.1452
 5419SOL    HW127890   3.804   2.574  13.300 -0.0844 -0.6618 -0.9177
 5419SOL    HW227891   3.893   2.640  13.395  0.4737  0.1069 -0.4570
 5420SOL     OW27892   3.632   2.688  13.295  0.8768  0.5132  0.3645
 5420SOL    HW127893   3.555   2.682  13.352  1.4390 -2.7573  0.7465
 5420SOL    HW227894   3.616   2.753  13.227 -1.0153 -0.1050  0.2149
 5421SOL     OW27895   0.794   1.854   5.208  0.0590  0.0122  0.2708
 5421SOL    HW127896   0.779   1.875   5.116  0.8955 -0.2304  0.0839
 5421SOL    HW227897   0.870   1.796   5.213 -1.2684 -1.7587 -0.3815
 5422SOL     OW27898   2.841   0.045   6.740  0.2244  0.1343 -0.0488
 5422SOL    HW127899   2.888   4.731   6.806  1.3416  0.6914 -0.4058
 5422SOL    HW227900   2.887   0.017   6.661  1.3508  2.7765 -0.3392
 5423SOL     OW27901   2.833   2.977   7.799  0.1138  0.6022  0.1862
 5423SOL    HW127902   2.865   2.916   7.865  2.3993  1.8896  0.2763
 5423SOL    HW227903   2.838   2.925   7.718  0.6677 -0.1295  0.6905
 5424SOL     OW27904   1.722   0.492   3.341  0.4070  0.0162  0.7956
 5424SOL    HW127905   1.793   0.439   3.378 -1.2623 -2.6999  0.0504
 5424SOL    HW227906   1.654   0.436   3.377  0.5188 -0.6071  0.0284
 5425SOL     OW27907   3.178   4.670   7.992  0.3677  0.3638  0.6730
 5425SOL    HW127908   3.161   4.684   7.899  1.8687 -0.8074  0.2254
 5425SOL    HW227909   3.148   4.579   8.003  0.0804  0.2179 -1.3936
 5426SOL     OW27910   0.688   2.311   9.289  0.4911 -0.0075  0.5420
 5426SOL    HW127911   0.719   2.336   9.376  0.2523 -3.0021  1.4697
 5426SOL    HW227912   0.635   2.232   9.296  2.4134 -1.0503  3.2363
 5427SOL     OW27913   1.632   3.016  14.789 -0.2405 -0.1594 -0.0996
 5427SOL    HW127914   1.570   2.987  14.856 -1.8655 -0.2848 -1.6708
 5427SOL    HW227915   1.586   3.081  14.737  1.0952  0.4556 -0.5047
 5428SOL     OW27916   4.078   1.655   3.655  0.1903 -0.1574 -0.6679
 5428SOL    HW127917   4.028   1.609   3.723 -0.5814  1.0927 -0.3966
 5428SOL    HW227918   4.160   1.666   3.704 -0.1962 -2.6819  0.5662
 5429SOL     OW27919   0.971   4.351   7.157  0.0920  0.3069  0.1247
 5429SOL    HW127920   1.043   4.389   7.107 -0.7620  0.0345 -1.3068
 5429SOL    HW227921   1.014   4.271   7.188 -3.7622 -1.1913  1.5953
 5430SOL     OW27922   0.906   3.163   2.586  0.1831 -0.0693  0.1705
 5430SOL    HW127923   0.971   3.162   2.657 -0.3135 -1.3640  0.6106
 5430SOL    HW227924   0.917   3.073   2.555 -1.1039  0.1488 -0.9214
 5431SOL     OW27925   1.234   0.376   5.367  0.4618 -0.1847  0.4948
 5431SOL    HW127926   1.234   0.349   5.275  0.6457 -2.3076  1.1127
 5431SOL    HW227927   1.309   0.434   5.372  1.0911 -1.1573  2.2272
 5432SOL     OW27928   0.704   1.381   7.495 -0.0730  0.4039  0.2864
 5432SOL    HW127929   0.630   1.435   7.523  0.0951  0.5063  0.5304
 5432SOL    HW227930   0.770   1.449   7.485 -0.0537  0.1421 -1.4427
 5433SOL     OW27931   3.359   0.712  10.584 -0.2383  0.0195 -0.3922
 5433SOL    HW127932   3.373   0.618  10.573  1.8674  0.3843 -0.9071
 5433SOL    HW227933   3.400   0.734  10.668  0.6133  0.1487 -0.8404
 5434SOL     OW27934   0.620   1.188  11.533  0.2930 -0.2087 -0.6405
 5434SOL    HW127935   0.647   1.227  11.450  1.6714  0.6803  0.2080
 5434SOL    HW227936   0.694   1.203  11.592  0.4009  0.9837 -1.0852
 5435SOL     OW27937   3.661   3.505   3.884  0.1577  0.0108 -0.1763
 5435SOL    HW127938   3.597   3.441   3.914  0.3171  1.2141  2.7378
 5435SOL    HW227939   3.633   3.533   3.796 -0.4373  1.7468  0.5571
 5436SOL     OW27940   0.668   1.452   8.004  0.0912 -0.0111  0.0249
 5436SOL    HW127941   0.704   1.540   7.995  0.1035  0.1501  1.6601
 5436SOL    HW227942   0.717   1.419   8.080  2.8140 -1.2018 -2.2538
 5437SOL     OW27943   0.207   3.068   1.836 -0.1380 -0.4211 -0.2828
 5437SOL    HW127944   0.222   3.135   1.769 -0.8264 -0.0010 -0.0137
 5437SOL    HW227945   0.288   3.058   1.885 -0.9671  1.2763  1.4061
 5438SOL     OW27946   1.296   1.613   8.319  0.3732  0.3766  0.0619
 5438SOL    HW127947   1.253   1.557   8.384 -0.2725 -0.4838 -1.1030
 5438SOL    HW227948   1.260   1.698   8.346 -0.3048 -0.5615  2.0790
 5439SOL     OW27949   1.079   0.772   2.942 -0.3845  0.1881 -0.2928
 5439SOL    HW127950   1.021   0.815   3.004 -0.1439  0.3790 -0.2025
 5439SOL    HW227951   1.152   0.757   3.003  0.5491 -1.6958 -1.8498
 5440SOL     OW27952   0.318   0.074   1.963  0.5063  0.3318 -0.1820
 5440SOL    HW127953   0.385   0.142   1.963  0.9535 -0.1087 -2.9711
 5440SOL    HW227954   0.237   0.120   1.944  1.0480  1.0126 -0.8166
 5441SOL     OW27955   2.839   2.700  15.799  0.0005  0.4154  0.2713
 5441SOL    HW127956   2.932   2.680  15.804 -0.2876 -0.5834  1.7418
 5441SOL    HW227957   2.831   2.781  15.849  3.1270  1.2049 -0.5351
 5442SOL     OW27958   3.919   3.134  10.484  0.4001  0.3595  0.6137
 5442SOL    HW127959   3.890   3.050  10.518 -0.3997  0.1759 -0.4915
 5442SOL    HW227960   4.015   3.133  10.488  0.3153 -1.2497  2.1377
 5443SOL     OW27961   1.658   2.855   5.454 -0.0691  0.2965 -0.0942
 5443SOL    HW127962   1.673   2.905   5.374 -0.2345  0.4515 -0.0284
 5443SOL    HW227963   1.566   2.877   5.468 -0.8377  0.3977 -4.9872
 5444SOL     OW27964   2.848   0.222  13.904  0.8354  0.9118 -0.4055
 5444SOL    HW127965   2.846   0.311  13.868  0.7074  1.0133 -0.1490
 5444SOL    HW227966   2.824   0.242  13.995 -0.3954 -1.1758 -0.2887
 5445SOL     OW27967   4.438   0.994   2.274  0.6158  0.3334  0.5525
 5445SOL    HW127968   4.482   0.984   2.358 -1.6831  2.3899  1.9865
 5445SOL    HW227969   4.424   1.088   2.275  0.4386  0.2774  2.2552
 5446SOL     OW27970   1.208   1.851   8.423 -0.2052  0.1037 -0.1978
 5446SOL    HW127971   1.252   1.914   8.481  0.4154  0.7299 -1.3406
 5446SOL    HW227972   1.195   1.902   8.343  1.0928  2.5856  1.1443
 5447SOL     OW27973   3.744   3.974  11.698  0.6485 -0.3481 -0.2658
 5447SOL    HW127974   3.759   3.882  11.678 -1.3867 -0.5263 -0.9123
 5447SOL    HW227975   3.746   4.016  11.612 -2.5898  0.5206  0.0941
 5448SOL     OW27976   4.512   3.994   7.547  0.4409 -0.4081  0.3412
 5448SOL    HW127977   4.461   3.921   7.512 -0.2995  0.4057 -0.2794
 5448SOL    HW227978   4.480   4.008   7.636  0.5334  0.9801  0.1566
 5449SOL     OW27979   1.649   2.096   5.470 -0.0911  0.2715 -0.1577
 5449SOL    HW127980   1.715   2.151   5.511  0.5672  0.9293 -2.0995
 5449SOL    HW227981   1.575   2.096   5.530 -1.8640  3.4272 -2.3813
 5450SOL     OW27982   2.561   2.305  13.610 -0.0645 -0.0799 -0.3546
 5450SOL    HW127983   2.570   2.308  13.705  2.5640 -0.2674 -0.6031
 5450SOL    HW227984   2.647   2.338  13.582 -0.6521  0.8572 -1.0662
 5451SOL     OW27985   1.115   2.573   4.894  0.4297  0.2172 -0.1820
 5451SOL    HW127986   1.183   2.597   4.957  2.2236  1.0351 -2.4414
 5451SOL    HW227987   1.109   2.480   4.917 -4.5505  1.4173  3.3813
 5452SOL     OW27988   2.039   3.541   8.171  0.2853 -0.2211 -0.7421
 5452SOL    HW127989   1.995   3.625   8.162 -0.2870 -0.4652 -0.2006
 5452SOL    HW227990   2.060   3.538   8.264  0.6058  2.5999 -0.7184
 5453SOL     OW27991   0.572   1.638  16.855 -0.0962  0.2843 -0.2740
 5453SOL    HW127992   0.606   1.654  16.767  1.2142  1.6293  0.4736
 5453SOL    HW227993   0.495   1.695  16.851 -1.5675 -1.6826  0.0889
 5454SOL     OW27994   4.403   4.090   6.511 -0.1755 -0.1911 -0.4012
 5454SOL    HW127995   4.390   4.183   6.493  1.5743  0.3797  1.3555
 5454SOL    HW227996   4.368   4.056   6.428 -0.1842  0.0732 -0.5065
 5455SOL     OW27997   3.681   2.130  17.607 -0.0889  0.4718 -0.1347
 5455SOL    HW127998   3.601   2.083  17.581  0.7872 -0.2536 -1.5002
 5455SOL    HW227999   3.749   2.074  17.570 -0.4013 -1.4766  2.2444
 5456SOL     OW28000   0.706   1.023   1.469 -0.6455  0.0864 -0.4237
 5456SOL    HW128001   0.634   0.983   1.422 -1.0822  2.1742 -1.5397
 5456SOL    HW228002   0.704   0.971   1.549 -1.6241  0.9168  0.0986
 5457SOL     OW28003   3.176   1.317   2.464 -0.2241  0.5009 -0.0779
 5457SOL    HW128004   3.156   1.401   2.507  0.4653  0.1146  1.0035
 5457SOL    HW228005   3.254   1.332   2.412  0.2777  1.3251  0.9000
 5458SOL     OW28006   4.488   1.905   9.258  0.4585 -0.3951  0.5442
 5458SOL    HW128007   4.427   1.930   9.326  0.2346  1.7366 -0.4519
 5458SOL    HW228008   4.478   1.970   9.188  0.8627 -0.0711  0.7898
 5459SOL     OW28009   4.327   4.153   5.070 -0.4491  0.0304  0.2970
 5459SOL    HW128010   4.252   4.113   5.028 -0.0766  0.8790 -1.1905
 5459SOL    HW228011   4.384   4.076   5.061 -0.6894 -0.0251 -0.7230
 5460SOL     OW28012   3.341   1.099   2.833  0.1692  0.0942  0.0306
 5460SOL    HW128013   3.338   1.160   2.907  0.6447 -1.7716  1.5757
 5460SOL    HW228014   3.427   1.059   2.833  0.8213  1.4950  1.6774
 5461SOL     OW28015   3.537   2.756   4.237  0.4250  0.2478  1.1421
 5461SOL    HW128016   3.632   2.765   4.232  0.5502 -1.2048  0.8072
 5461SOL    HW228017   3.517   2.727   4.148  0.4274 -0.4920  1.3828
 5462SOL     OW28018   2.983   2.031   8.160 -0.4287  0.0813 -0.2423
 5462SOL    HW128019   2.999   1.946   8.120 -1.4204 -0.4525  0.5301
 5462SOL    HW228020   2.917   2.017   8.227  1.3292 -2.1632  1.0284
 5463SOL     OW28021   2.324   3.337   7.847 -0.6347 -0.5069  0.6348
 5463SOL    HW128022   2.344   3.378   7.932 -0.3873 -1.5534  1.0813
 5463SOL    HW228023   2.272   3.258   7.861 -1.5813  0.1059  0.5282
 5464SOL     OW28024   0.036   3.824   9.388  0.8313 -0.2114  0.1508
 5464SOL    HW128025   0.015   3.880   9.463 -1.5208 -0.0616 -0.6268
 5464SOL    HW228026   4.687   3.795   9.362 -0.0271  2.4405 -0.0263
 5465SOL     OW28027   2.150   0.182   6.162  0.1096 -0.6608  0.7041
 5465SOL    HW128028   2.112   0.267   6.184  0.8784  0.4820 -2.4085
 5465SOL    HW228029   2.076   0.122   6.170 -0.5219 -0.2186 -2.0539
 5466SOL     OW28030   3.161   2.156   8.460 -0.1694  0.1066  0.2219
 5466SOL    HW128031   3.162   2.082   8.400 -2.3946  0.3028 -0.0859
 5466SOL    HW228032   3.121   2.219   8.399 -1.2928  0.6441  1.5106
 5467SOL     OW28033   0.503   1.924  11.195 -0.2536 -0.6389  0.1137
 5467SOL    HW128034   0.555   2.004  11.200 -1.3470 -0.0476  1.9494
 5467SOL    HW228035   0.517   1.892  11.284 -1.0497 -1.1203  0.0683
 5468SOL     OW28036   4.692   1.984   4.847  0.4135 -0.6454 -0.5188
 5468SOL    HW128037   4.670   2.077   4.848  2.3021 -0.2075 -0.7062
 5468SOL    HW228038   4.602   1.950   4.840 -0.7207  2.4750 -1.1614
 5469SOL     OW28039   1.119   1.930  15.435  0.2757 -0.5821 -0.1911
 5469SOL    HW128040   1.095   1.846  15.397  0.9108 -0.2143 -1.3993
 5469SOL    HW228041   1.052   1.931  15.503 -1.6017  0.5316 -2.0673
 5470SOL     OW28042   2.248   3.451   8.649  0.8198  0.4329  0.4038
 5470SOL    HW128043   2.238   3.364   8.688 -2.7894  1.5514  1.9935
 5470SOL    HW228044   2.337   3.470   8.678  0.9778  0.7930 -0.3170
 5471SOL     OW28045   4.310   1.038   4.305  0.6310 -0.1533 -0.1421
 5471SOL    HW128046   4.380   1.007   4.248 -0.0091  0.9865 -1.5229
 5471SOL    HW228047   4.258   1.092   4.246 -0.2530 -2.4490 -1.4504
 5472SOL     OW28048   2.018   0.497   3.630 -0.5054  0.4072 -0.6599
 5472SOL    HW128049   1.965   0.575   3.649 -0.5963 -0.1486  1.3679
 5472SOL    HW228050   2.082   0.497   3.701 -0.8279  1.2929 -0.3665
 5473SOL     OW28051   1.468   1.668  12.413  0.4420  0.3490  0.5340
 5473SOL    HW128052   1.387   1.659  12.363  0.8875  1.4520 -0.3831
 5473SOL    HW228053   1.538   1.658  12.348  0.1157  0.6271  0.1374
 5474SOL     OW28054   3.923   3.178   5.623 -0.4098  0.0779  0.3160
 5474SOL    HW128055   3.975   3.232   5.683  1.2706 -2.9238  1.5511
 5474SOL    HW228056   3.849   3.150   5.678 -0.5050  0.7900  0.5543
 5475SOL     OW28057   0.757   4.439   7.681 -0.0681 -0.7371 -0.4378
 5475SOL    HW128058   0.834   4.469   7.730  0.0775 -0.4674 -0.8344
 5475SOL    HW228059   0.787   4.353   7.654  0.5348 -1.4336  2.4221
 5476SOL     OW28060   0.257   3.225   6.240  0.1077 -0.3959  0.1501
 5476SOL    HW128061   0.180   3.189   6.195  0.4881 -1.8546  0.6594
 5476SOL    HW228062   0.217   3.301   6.282 -3.1131 -2.1412  0.2624
 5477SOL     OW28063   4.685   0.375   8.941 -0.0412  0.6275  0.4240
 5477SOL    HW128064   4.639   0.295   8.915 -0.0166  0.4706  0.8578
 5477SOL    HW228065   4.699   0.380   9.035  0.0791 -0.4849  0.4765
 5478SOL     OW28066   0.134   0.837   7.999  0.0705  0.3255 -0.1020
 5478SOL    HW128067   0.183   0.910   8.038 -2.0518  1.5340  0.2575
 5478SOL    HW228068   0.043   0.867   7.998  0.1354  0.4554 -1.7355
 5479SOL     OW28069   3.411   3.181   3.634 -0.2743  0.5172  0.2543
 5479SOL    HW128070   3.371   3.263   3.605  1.3493  0.8475 -1.1239
 5479SOL    HW228071   3.347   3.145   3.695  0.5075  0.4209  1.0125
 5480SOL     OW28072   3.443   4.193  11.870  0.4940  0.0306 -0.0519
 5480SOL    HW128073   3.465   4.185  11.777 -2.2403 -0.9806 -0.5897
 5480SOL    HW228074   3.534   4.185  11.902 -0.4584 -1.6567  2.2837
 5481SOL     OW28075   3.958   2.793   8.809 -0.6262 -0.0205 -0.5058
 5481SOL    HW128076   3.996   2.850   8.743  0.7068 -0.1117  0.1883
 5481SOL    HW228077   3.998   2.833   8.886  1.0607 -0.7689 -1.0079
 5482SOL     OW28078   0.090   1.054  17.113  0.0683 -0.0242  0.6528
 5482SOL    HW128079   0.059   1.100  17.035  0.5861 -0.3283  0.2713
 5482SOL    HW228080   0.139   1.121  17.159 -0.5741  1.9793 -1.6039
 5483SOL     OW28081   4.478   4.712   2.515 -0.1624 -0.3964  0.4960
 5483SOL    HW128082   4.550   4.661   2.476  0.4373 -0.9027  2.2523
 5483SOL    HW228083   4.412   4.686   2.450  1.8554  1.1404 -2.1820
 5484SOL     OW28084   2.645   3.365   0.315 -0.1747 -0.5550 -0.2982
 5484SOL    HW128085   2.579   3.306   0.350 -1.4007  1.6721  1.1595
 5484SOL    HW228086   2.725   3.315   0.329  0.6478  0.1210 -2.5977
 5485SOL     OW28087   3.649   0.072   7.523 -0.1600  0.0584 -0.0270
 5485SOL    HW128088   3.657   0.017   7.601  0.0191 -0.1482 -0.1916
 5485SOL    HW228089   3.576   0.034   7.474 -0.5895  1.1760 -0.2615
 5486SOL     OW28090   0.642   1.237   9.027  0.0073  0.3455  0.0023
 5486SOL    HW128091   0.637   1.245   9.122  0.3149  0.4355  0.0113
 5486SOL    HW228092   0.551   1.250   9.001  0.5104 -2.5328 -3.2845
 5487SOL     OW28093   4.126   4.422   3.088 -0.2395 -0.5414 -0.5938
 5487SOL    HW128094   4.201   4.443   3.032 -0.0450  1.1890  0.3047
 5487SOL    HW228095   4.075   4.358   3.039 -0.7055 -0.2157 -0.5385
 5488SOL     OW28096   1.685   3.950  17.597  0.0505 -0.7700  0.0777
 5488SOL    HW128097   1.714   4.040  17.612  2.7484 -1.5754 -0.2439
 5488SOL    HW228098   1.621   3.957  17.526  0.7543 -0.8501 -0.5723
 5489SOL     OW28099   3.873   2.980   4.672  0.5098 -0.3261 -0.5269
 5489SOL    HW128100   3.806   2.987   4.605  1.1335  1.9060 -0.9155
 5489SOL    HW228101   3.945   3.020   4.624  1.0084  0.1314  0.5933
 5490SOL     OW28102   3.529   1.489  10.156  0.2295 -0.3046 -0.4301
 5490SOL    HW128103   3.505   1.557  10.220 -0.9897 -1.4385  0.3308
 5490SOL    HW228104   3.522   1.415  10.217 -2.8548 -0.3718 -0.8687
 5491SOL     OW28105   3.289   4.716  14.954 -0.2096  0.6328 -0.6462
 5491SOL    HW128106   3.232   0.005  14.882  1.8023  1.1233 -2.0589
 5491SOL    HW228107   3.265   4.625  14.972  0.8125  0.5492  0.3147
 5492SOL     OW28108   4.260   3.425  13.278  0.0838  0.1627 -0.1803
 5492SOL    HW128109   4.324   3.435  13.349  0.4530 -2.3374 -0.1401
 5492SOL    HW228110   4.271   3.503  13.223  2.1181 -0.5363 -0.7801
 5493SOL     OW28111   3.917   0.365   5.538 -0.5926  0.1048 -0.0687
 5493SOL    HW128112   3.978   0.381   5.466 -0.0998  2.7203  0.8942
 5493SOL    HW228113   3.889   0.277   5.514 -1.6646 -0.2004  2.3291
 5494SOL     OW28114   0.472   3.417   5.099 -0.4007 -0.6969 -0.2935
 5494SOL    HW128115   0.562   3.427   5.071 -0.7763  0.6233 -1.0649
 5494SOL    HW228116   0.488   3.445   5.189 -0.0734  1.5450 -1.0358
 5495SOL     OW28117   0.169   1.568   3.956 -0.3379  0.0790  0.3393
 5495SOL    HW128118   0.204   1.533   3.874 -0.6259  2.1870 -0.6694
 5495SOL    HW228119   0.079   1.592   3.933 -0.4878 -1.6824 -0.9890
 5496SOL     OW28120   1.164   3.968   1.641  0.2283 -0.0883  0.1828
 5496SOL    HW128121   1.129   3.880   1.649 -0.3973  0.1619  0.2104
 5496SOL    HW228122   1.085   4.018   1.621  1.2583  2.2781  1.8898
 5497SOL     OW28123   2.192   3.206  11.511 -0.5112  0.7137 -0.1322
 5497SOL    HW128124   2.137   3.254  11.449 -0.5716  1.9362  0.8768
 5497SOL    HW228125   2.276   3.242  11.481 -0.9854  1.9985  0.0797
 5498SOL     OW28126   3.970   0.895   6.826 -0.0740 -0.0261 -0.4337
 5498SOL    HW128127   3.901   0.833   6.848  1.0906 -1.6876 -1.4820
 5498SOL    HW228128   3.944   0.920   6.737 -1.2633  1.3145  0.2906
 5499SOL     OW28129   4.318   3.545  14.035 -0.2603  0.4236 -0.0706
 5499SOL    HW128130   4.343   3.488  13.963  0.9148 -1.1299  1.5731
 5499SOL    HW228131   4.354   3.498  14.110 -0.4825 -0.0199 -0.2422
 5500SOL     OW28132   0.682   4.624  11.532  0.2276  0.3934  0.4931
 5500SOL    HW128133   0.620   4.677  11.483  0.7420 -1.2317 -1.8837
 5500SOL    HW228134   0.636   4.608  11.614 -0.3770 -2.1778 -0.3646
 5501SOL     OW28135   1.361   3.462  13.448 -0.7971 -0.2271 -0.0544
 5501SOL    HW128136   1.410   3.385  13.420 -0.4961 -0.9039  2.3593
 5501SOL    HW228137   1.407   3.525  13.392 -0.6901 -1.8395 -1.7764
 5502SOL     OW28138   2.996   3.882   5.121 -0.3418  0.6394  0.4690
 5502SOL    HW128139   2.929   3.902   5.187  0.9675 -1.2070  2.3564
 5502SOL    HW228140   3.064   3.873   5.188  0.6442  2.4313 -0.2768
 5503SOL     OW28141   2.789   0.831  13.188  0.2686 -0.4156  0.5504
 5503SOL    HW128142   2.786   0.803  13.097 -0.2550  0.3417  0.3396
 5503SOL    HW228143   2.752   0.750  13.224 -0.1523 -0.5277 -0.1548
 5504SOL     OW28144   1.661   1.615   5.588  0.6192 -0.7601  0.4039
 5504SOL    HW128145   1.598   1.584   5.524  3.6283 -0.6210 -2.6048
 5504SOL    HW228146   1.668   1.542   5.649  1.8850 -0.6397  0.4089
 5505SOL     OW28147   2.430   2.768  13.785  0.1238 -0.6504  0.0319
 5505SOL    HW128148   2.351   2.822  13.777  0.7761 -0.0647 -2.4029
 5505SOL    HW228149   2.400   2.678  13.783 -1.5877 -0.0975  0.4377
 5506SOL     OW28150   3.512   2.643   4.850  0.2107 -0.4380  0.4491
 5506SOL    HW128151   3.488   2.728   4.813  1.5183 -0.5952 -0.7636
 5506SOL    HW228152   3.600   2.640   4.812 -0.8613  0.2000 -2.1076
 5507SOL     OW28153   2.056   4.541  17.048  0.5086 -0.1796 -0.1222
 5507SOL    HW128154   2.025   4.565  16.960 -2.0116  0.0093  0.8115
 5507SOL    HW228155   2.068   4.623  17.096  0.3473  0.2435 -0.7920
 5508SOL     OW28156   0.832   2.725   3.988  0.0597  0.1845  0.1084
 5508SOL    HW128157   0.740   2.732   4.013 -0.1964  0.1266 -0.8135
 5508SOL    HW228158   0.876   2.710   4.072  0.9821 -3.0326 -0.9270
 5509SOL     OW28159   4.663   1.188   8.083 -0.3908 -0.3078 -0.3414
 5509SOL    HW128160   4.665   1.282   8.064  0.6096 -0.1801  0.4166
 5509SOL    HW228161   4.615   1.183   8.166  3.4102 -0.2321  1.8564
 5510SOL     OW28162   2.071   4.478  14.079  0.2781 -0.1399 -0.6042
 5510SOL    HW128163   2.098   4.392  14.045 -0.5641  0.0008 -1.6446
 5510SOL    HW228164   2.128   4.498  14.153 -1.0624  0.7014  0.1998
 5511SOL     OW28165   3.473   0.437  15.312  0.7021  0.4309  0.3006
 5511SOL    HW128166   3.489   0.395  15.397 -3.1278 -1.5427  0.0725
 5511SOL    HW228167   3.509   0.373  15.250 -2.1843 -0.4804 -0.4191
 5512SOL     OW28168   1.174   1.470   6.957  0.1386  0.7709  0.2240
 5512SOL    HW128169   1.123   1.390   6.971  0.2954  0.4663 -0.9427
 5512SOL    HW228170   1.105   1.537   6.954 -2.4298 -1.8189  0.9367
 5513SOL     OW28171   1.545   3.409   5.670  0.7870 -0.1199 -0.6585
 5513SOL    HW128172   1.541   3.413   5.575 -2.1017  1.3350 -0.4494
 5513SOL    HW228173   1.552   3.498   5.704  0.1087 -1.1321  2.1808
 5514SOL     OW28174   2.626   4.382   5.672 -0.0159  0.0358  0.1377
 5514SOL    HW128175   2.687   4.316   5.706 -0.4457 -0.7703 -0.6480
 5514SOL    HW228176   2.660   4.392   5.583 -2.0924 -1.0371 -0.7787
 5515SOL     OW28177   2.502   4.197  16.380 -0.2287  0.2811  0.1549
 5515SOL    HW128178   2.422   4.235  16.415 -0.5841 -0.7330  0.4577
 5515SOL    HW228179   2.474   4.114  16.339  1.8312 -0.9902  1.3135
 5516SOL     OW28180   2.824   4.343   5.454  0.4709 -0.0393  0.4881
 5516SOL    HW128181   2.825   4.319   5.361 -0.4439  1.1254  0.1792
 5516SOL    HW228182   2.847   4.436   5.453 -1.9368  0.5389  0.7370
 5517SOL     OW28183   2.940   0.460   3.511 -0.0810 -0.4379 -0.4766
 5517SOL    HW128184   2.872   0.395   3.528  0.2263 -1.2134 -2.2210
 5517SOL    HW228185   2.960   0.484   3.601  1.8918  0.3703 -1.1399
 5518SOL     OW28186   2.071   4.473   4.559  0.5577  0.2183  0.1131
 5518SOL    HW128187   2.121   4.420   4.497  2.7143  0.4211  1.6772
 5518SOL    HW228188   2.077   4.419   4.638 -2.1778 -1.9970 -1.1971
 5519SOL     OW28189   0.516   0.508  13.071 -0.3532 -0.7171 -0.4167
 5519SOL    HW128190   0.438   0.505  13.126  1.1190 -0.8978  1.6551
 5519SOL    HW228191   0.593   0.516  13.128 -1.4967  0.1208  1.0017
 5520SOL     OW28192   2.446   2.137   5.177  0.3370 -0.7949 -0.1475
 5520SOL    HW128193   2.398   2.211   5.214 -2.3025 -1.6812 -1.8769
 5520SOL    HW228194   2.532   2.168   5.148 -0.8420  1.2749 -1.4237
 5521SOL     OW28195   3.851   1.510   1.038  0.4742  0.5244 -0.0233
 5521SOL    HW128196   3.909   1.435   1.026 -0.7841 -0.3172 -0.8368
 5521SOL    HW228197   3.803   1.513   0.955  3.6658 -0.4488 -1.8923
 5522SOL     OW28198   4.642   3.961   3.407  0.4598  0.2499 -0.3453
 5522SOL    HW128199   4.716   3.902   3.388  1.5931  1.4904  0.2159
 5522SOL    HW228200   4.563   3.926   3.366 -0.3707  1.0158  0.6121
 5523SOL     OW28201   4.441   4.007   9.307  0.2961  0.1789 -0.3875
 5523SOL    HW128202   4.458   4.011   9.401 -0.2485  0.0584 -0.2871
 5523SOL    HW228203   4.448   3.912   9.298 -0.4889  0.0383  0.4141
 5524SOL     OW28204   0.030   0.851   9.023 -0.0096 -0.4994 -0.3419
 5524SOL    HW128205   4.725   0.896   8.950  1.1419  3.0995  1.1812
 5524SOL    HW228206   0.013   0.759   9.003 -2.0822  0.1004 -1.3797
 5525SOL     OW28207   4.081   3.549   5.259  0.0421 -0.3105 -0.5243
 5525SOL    HW128208   4.063   3.642   5.248  1.9706  0.2799  1.2573
 5525SOL    HW228209   4.070   3.542   5.354  0.4958  1.6798 -0.3358
 5526SOL     OW28210   1.750   4.002   1.732 -0.5789 -0.2735 -0.3106
 5526SOL    HW128211   1.698   4.077   1.705  1.0628  0.9599 -0.1065
 5526SOL    HW228212   1.838   4.038   1.717 -0.3517 -0.4521  0.5590
 5527SOL     OW28213   4.674   1.411   5.771 -0.4870  0.0423  0.2586
 5527SOL    HW128214   4.707   1.327   5.740  2.1051  0.5984  1.4497
 5527SOL    HW228215   4.693   1.390   5.862  0.2026  1.4250  0.4487
 5528SOL     OW28216   1.590   0.443  15.047 -0.4439  0.0345 -0.0952
 5528SOL    HW128217   1.498   0.421  15.036 -0.4315  0.8112 -1.7668
 5528SOL    HW228218   1.636   0.360  15.063 -1.5910 -0.7919 -1.1240
 5529SOL     OW28219   0.507   1.457   9.953  0.6248 -0.2990 -0.4018
 5529SOL    HW128220   0.459   1.402   9.892 -1.4618  0.0909  0.8771
 5529SOL    HW228221   0.454   1.536   9.968 -0.6492 -1.2886  0.2433
 5530SOL     OW28222   2.382   3.310   6.415  0.2369 -0.5064  0.1176
 5530SOL    HW128223   2.389   3.350   6.502  1.4668 -0.7697  0.1460
 5530SOL    HW228224   2.421   3.372   6.353  0.0259  1.0746  1.5685
 5531SOL     OW28225   4.101   3.942   3.040  0.3150 -0.1548 -0.4823
 5531SOL    HW128226   4.194   3.952   3.021 -0.2908  0.0575 -3.2456
 5531SOL    HW228227   4.076   3.893   2.962 -1.1992  0.5655 -0.4448
 5532SOL     OW28228   3.199   0.174   5.079  0.5785  0.2705 -0.0445
 5532SOL    HW128229   3.261   0.236   5.118 -0.1853  0.2473  1.2107
 5532SOL    HW228230   3.137   0.159   5.151  0.3046 -1.1259 -0.5552
 5533SOL     OW28231   3.092   0.305   6.053  0.1014  0.1320 -0.2268
 5533SOL    HW128232   3.137   0.347   5.979 -0.2154 -0.4488 -0.7506
 5533SOL    HW228233   3.116   0.361   6.127 -2.2895  0.5757  0.2240
 5534SOL     OW28234   1.054   0.029   7.332  0.7892 -0.3624  0.1372
 5534SOL    HW128235   1.051   4.696   7.396 -0.4818  0.0325  0.4999
 5534SOL    HW228236   0.963   0.054   7.344  0.3225 -0.6188 -2.8570
 5535SOL     OW28237   0.183   2.506  10.309 -0.7106  0.3661  0.2258
 5535SOL    HW128238   0.130   2.563  10.364 -0.0719 -0.1451  1.3810
 5535SOL    HW228239   0.266   2.551  10.322  0.3377 -1.7566  0.9955
 5536SOL     OW28240   2.016   1.080   2.186 -0.4736  0.5941  0.0744
 5536SOL    HW128241   1.971   1.093   2.269 -4.3482  0.1760 -1.9727
 5536SOL    HW228242   2.098   1.036   2.206  0.1706  1.4518 -0.6682
 5537SOL     OW28243   3.959   0.076   3.019 -0.1905 -0.2521  0.1605
 5537SOL    HW128244   3.977   4.724   2.988 -1.8948 -0.5230 -0.0400
 5537SOL    HW228245   3.995   0.127   2.947 -0.7559 -2.8699 -2.0050
 5538SOL     OW28246   1.820   1.458   4.880 -0.0425  0.4987 -0.3224
 5538SOL    HW128247   1.859   1.529   4.931 -0.6008  1.0602 -0.6680
 5538SOL    HW228248   1.884   1.388   4.885 -0.9271 -0.1818  1.5561
 5539SOL     OW28249   0.031   2.642  15.421  0.4116  0.2696  0.7798
 5539SOL    HW128250   0.125   2.646  15.401  0.5581 -2.5021  0.8775
 5539SOL    HW228251   4.729   2.610  15.340  1.7591  1.4469 -0.3325
 5540SOL     OW28252   1.912   2.442   1.584 -0.6058 -0.6851  0.3413
 5540SOL    HW128253   1.850   2.372   1.603 -1.3900 -0.1269 -0.1428
 5540SOL    HW228254   1.969   2.429   1.659 -1.1849  0.9260  1.0603
 5541SOL     OW28255   1.434   4.039   1.607 -0.2876  0.1004  0.8452
 5541SOL    HW128256   1.348   4.048   1.649 -0.2478  0.3362  0.8779
 5541SOL    HW228257   1.452   4.132   1.587  2.4979 -0.2957  1.5514
 5542SOL     OW28258   2.512   0.644   0.377  0.7103 -0.2669 -0.0032
 5542SOL    HW128259   2.478   0.682   0.296  0.8573  0.3034  0.2048
 5542SOL    HW228260   2.429   0.614   0.413  0.0196  1.1591 -0.4335
 5543SOL     OW28261   3.314   0.107   1.556  0.0532 -0.6114 -0.2184
 5543SOL    HW128262   3.276   0.151   1.631  2.3177 -2.0808  1.7882
 5543SOL    HW228263   3.405   0.108   1.586 -0.9699  2.1465  2.7141
 5544SOL     OW28264   4.555   1.048   3.987 -0.2110 -0.6085 -0.0639
 5544SOL    HW128265   4.521   1.043   3.898  0.9983  0.0791 -0.5664
 5544SOL    HW228266   4.631   0.991   3.975  0.6780  1.0760 -2.3885
 5545SOL     OW28267   0.000   4.257   8.196 -0.0443  0.7515 -0.2045
 5545SOL    HW128268   4.697   4.175   8.168 -0.6783  1.5303 -1.6068
 5545SOL    HW228269   0.070   4.219   8.250 -0.9614  1.5323  1.5174
 5546SOL     OW28270   2.414   1.799   2.869 -0.7857  0.2726 -0.2476
 5546SOL    HW128271   2.345   1.818   2.933 -1.8363  0.3743 -1.4128
 5546SOL    HW228272   2.369   1.790   2.785 -0.3392  1.7429 -0.6431
 5547SOL     OW28273   4.193   3.641   4.240 -0.1295 -1.0479  0.3887
 5547SOL    HW128274   4.186   3.593   4.322 -1.4283  2.0723  2.1098
 5547SOL    HW228275   4.286   3.623   4.225  0.2923  1.0720  0.3945
 5548SOL     OW28276   4.276   4.299   5.286  0.0022 -0.4050  0.0716
 5548SOL    HW128277   4.346   4.307   5.351  0.3823 -3.0524 -0.0082
 5548SOL    HW228278   4.311   4.238   5.221  0.1187 -0.8661  0.5715
 5549SOL     OW28279   0.035   1.735   6.952 -0.1535  0.2516  0.7439
 5549SOL    HW128280   4.695   1.680   6.961 -2.1115  2.6025 -1.6687
 5549SOL    HW228281   0.007   1.800   6.888 -3.4259 -1.1675  0.7019
 5550SOL     OW28282   0.060   4.337   4.544  0.3256  0.6038  0.1886
 5550SOL    HW128283   0.047   4.352   4.637  2.0384  1.1156  0.3451
 5550SOL    HW228284   0.111   4.411   4.511  0.3264  1.4488  2.1259
 5551SOL     OW28285   2.811   3.533   6.756 -0.0874 -0.6727  0.3106
 5551SOL    HW128286   2.903   3.532   6.729 -0.1441 -0.0418  0.0954
 5551SOL    HW228287   2.801   3.624   6.784  0.6727 -1.0589  1.8296
 5552SOL     OW28288   4.038   4.634   3.439 -0.1098  0.3351  0.1492
 5552SOL    HW128289   4.016   4.542   3.453 -1.0306  0.6729  0.8810
 5552SOL    HW228290   4.102   4.667   3.502 -1.4631 -0.3733  1.8795
 5553SOL     OW28291   1.129   2.408   2.434 -0.0983  0.2264 -0.0668
 5553SOL    HW128292   1.136   2.482   2.373 -2.3375  0.8556  0.4361
 5553SOL    HW228293   1.046   2.365   2.414 -0.8709  1.2920  0.8076
 5554SOL     OW28294   1.531   2.985   6.662 -0.3124  0.0841 -0.1753
 5554SOL    HW128295   1.619   3.008   6.692 -0.0321 -0.0867 -0.8822
 5554SOL    HW228296   1.537   2.899   6.621 -2.6924 -0.3708  0.4211
 5555SOL     OW28297   1.313   4.147  13.960  0.2951  0.2631  0.2574
 5555SOL    HW128298   1.239   4.110  13.912  0.8304 -0.3005 -0.1246
 5555SOL    HW228299   1.347   4.203  13.890  1.2070 -2.2090 -1.2794
 5556SOL     OW28300   4.462   4.447   4.068  0.1357 -0.1988  0.6891
 5556SOL    HW128301   4.549   4.476   4.040  0.1412 -0.4639  0.4311
 5556SOL    HW228302   4.457   4.356   4.038 -0.8922 -0.8724  2.8483
 5557SOL     OW28303   4.535   1.448  14.503 -0.2222 -0.2209  0.6281
 5557SOL    HW128304   4.625   1.475  14.522  0.7162 -2.8991  0.0239
 5557SOL    HW228305   4.553   1.353  14.502 -0.1059 -0.1907 -0.4173
 5558SOL     OW28306   1.585   2.637   3.306 -0.9188  0.6273 -0.6335
 5558SOL    HW128307   1.667   2.678   3.334 -0.1612 -0.7310 -0.8599
 5558SOL    HW228308   1.526   2.649   3.381 -0.1228  0.3074  0.0477
 5559SOL     OW28309   1.826   1.764   2.183  0.2039  0.0057  0.0751
 5559SOL    HW128310   1.773   1.687   2.168  0.7720 -0.3621 -0.0415
 5559SOL    HW228311   1.757   1.829   2.167 -0.8281 -1.8470 -2.8686
 5560SOL     OW28312   3.223   4.242   4.026  0.6591 -0.5198 -0.3880
 5560SOL    HW128313   3.208   4.149   4.041  1.4219 -0.6989 -0.7851
 5560SOL    HW228314   3.138   4.258   3.984  0.3364 -0.5034  0.2658
 5561SOL     OW28315   1.991   0.947   9.865 -0.6404 -0.4986 -0.5694
 5561SOL    HW128316   2.072   0.996   9.852 -0.9146  0.0910 -0.0977
 5561SOL    HW228317   1.940   1.025   9.886  1.2027  0.1410  1.5475
 5562SOL     OW28318   1.730   3.082   1.999  0.0941  0.3680 -0.0853
 5562SOL    HW128319   1.761   3.002   2.042  1.5685  2.0583  1.9812
 5562SOL    HW228320   1.790   3.086   1.925  0.0283  0.4423 -0.1344
 5563SOL     OW28321   1.067   3.302   6.547 -0.0066  0.0227 -0.5409
 5563SOL    HW128322   1.129   3.375   6.546 -1.2264  1.0579 -0.3309
 5563SOL    HW228323   0.994   3.341   6.501  0.6798  2.6279  0.5648
 5564SOL     OW28324   2.864   1.618   2.918 -0.3199  0.5747 -0.0819
 5564SOL    HW128325   2.794   1.640   2.857 -0.6089 -2.0262 -0.6840
 5564SOL    HW228326   2.850   1.528   2.946 -1.5829 -0.1212 -2.9729
 5565SOL     OW28327   2.744   0.155  16.867  0.0397  0.5300 -0.1632
 5565SOL    HW128328   2.703   0.240  16.856 -0.2036  0.1068 -2.6085
 5565SOL    HW228329   2.686   0.111  16.929 -3.0295 -0.4096 -3.6801
 5566SOL     OW28330   3.391   3.998   2.350  0.3272  0.0289 -0.3623
 5566SOL    HW128331   3.304   4.009   2.389  0.9483 -0.6214  1.2192
 5566SOL    HW228332   3.383   3.917   2.300  0.3355 -0.0861 -0.1771
 5567SOL     OW28333   3.495   2.520   6.155  0.1610  0.5657  0.5324
 5567SOL    HW128334   3.514   2.435   6.114 -0.3180  0.1031  1.2654
 5567SOL    HW228335   3.453   2.568   6.084  1.5531 -0.4199 -0.9679
 5568SOL     OW28336   3.283   3.879   0.964 -0.0527 -0.5507 -0.4133
 5568SOL    HW128337   3.220   3.837   0.905 -1.0212  0.9323 -0.4232
 5568SOL    HW228338   3.232   3.946   1.009  1.8947 -1.0832  2.5924
 5569SOL     OW28339   4.202   2.239   5.061  0.3459  0.3580  0.1984
 5569SOL    HW128340   4.236   2.325   5.037  0.4880  0.7232  1.6782
 5569SOL    HW228341   4.247   2.189   4.993 -0.1785  0.2279 -0.0503
 5570SOL     OW28342   1.718   4.210   2.882 -0.2097 -0.1080  0.0608
 5570SOL    HW128343   1.794   4.206   2.940 -1.4504 -0.6809  1.6738
 5570SOL    HW228344   1.704   4.121   2.852 -1.8902  0.6850 -1.4919
 5571SOL     OW28345   4.373   4.232   6.890  0.3152 -0.0817 -0.2052
 5571SOL    HW128346   4.418   4.293   6.832 -0.0040  0.4055  0.0641
 5571SOL    HW228347   4.385   4.282   6.970  1.3467 -0.9163  0.1604
 5572SOL     OW28348   1.662   0.636  14.248 -0.0199  0.2333 -0.2948
 5572SOL    HW128349   1.598   0.580  14.293  3.0015 -2.3596  0.8021
 5572SOL    HW228350   1.611   0.714  14.225  0.2202  0.0595 -1.3747
 5573SOL     OW28351   0.902   3.936  10.894 -0.2756  0.6182  0.0908
 5573SOL    HW128352   0.870   3.984  10.818 -0.8168  1.5412  0.9017
 5573SOL    HW228353   0.964   4.003  10.925 -0.8256  0.6311  1.1558
 5574SOL     OW28354   3.809   2.942   7.046  0.5389 -0.3485 -0.5278
 5574SOL    HW128355   3.780   2.961   6.957 -3.9423 -2.2611  0.5143
 5574SOL    HW228356   3.849   2.856   7.036 -0.7624 -0.8409 -1.4481
 5575SOL     OW28357   4.589   1.394   6.296  0.2919 -0.2683 -0.0553
 5575SOL    HW128358   4.620   1.465   6.238 -1.4482  2.2146  2.0486
 5575SOL    HW228359   4.498   1.383   6.268  0.9173  0.4386 -2.3866
 5576SOL     OW28360   0.346   3.776   2.929  0.2517  0.5857 -0.1832
 5576SOL    HW128361   0.335   3.789   2.835 -1.0523 -0.4017 -0.1867
 5576SOL    HW228362   0.303   3.690   2.933  0.2653  0.5438 -1.1227
 5577SOL     OW28363   4.486   1.060   6.290  0.1732  0.0694  0.2108
 5577SOL    HW128364   4.525   1.114   6.359  0.9517  1.4419 -1.3249
 5577SOL    HW228365   4.536   1.090   6.214  0.9547  1.3969  1.2506
 5578SOL     OW28366   0.024   1.430   4.751 -0.5485  0.7413 -0.4852
 5578SOL    HW128367   0.039   1.387   4.836 -0.4961  3.4241  0.8705
 5578SOL    HW228368   0.049   1.357   4.694 -0.9959 -0.4788  0.8552
 5579SOL     OW28369   2.147   0.926   5.828 -0.6782 -0.5750 -0.5927
 5579SOL    HW128370   2.215   0.992   5.817 -1.7841  0.7600  0.5139
 5579SOL    HW228371   2.067   0.966   5.795  0.9321  0.8190 -2.7363
 5580SOL     OW28372   2.264   4.364   5.423  0.1702  1.1033 -0.4550
 5580SOL    HW128373   2.288   4.309   5.498  0.7070  0.7478 -0.8891
 5580SOL    HW228374   2.169   4.354   5.417  0.1022  0.8724  0.9022
 5581SOL     OW28375   1.181   0.830  10.223 -0.3730  0.2619 -0.3515
 5581SOL    HW128376   1.157   0.820  10.131 -0.6459 -1.9796 -0.0394
 5581SOL    HW228377   1.271   0.798  10.228  0.0863  2.1675  3.1398
 5582SOL     OW28378   0.097   1.155   1.086 -0.4549 -0.1482 -0.6752
 5582SOL    HW128379   0.153   1.233   1.091 -0.5494 -0.1320  0.2429
 5582SOL    HW228380   0.024   1.197   1.042 -0.6330  1.1713  0.8726
 5583SOL     OW28381   2.279   1.528   7.778  0.0528 -0.4083  0.2358
 5583SOL    HW128382   2.299   1.452   7.724 -1.0730 -0.6719  0.1858
 5583SOL    HW228383   2.248   1.489   7.860 -0.3249  1.8899  1.1900
 5584SOL     OW28384   2.348   4.224   4.159 -0.2948 -0.4417  0.4629
 5584SOL    HW128385   2.357   4.156   4.092 -0.8443 -1.0303  0.9794
 5584SOL    HW228386   2.384   4.290   4.100 -0.7817  0.2130  0.9028
 5585SOL     OW28387   2.519   0.036   2.600 -0.0112 -0.2081  0.0038
 5585SOL    HW128388   2.435   0.045   2.556 -0.5327  0.3341  1.1234
 5585SOL    HW228389   2.541   0.129   2.609  1.8261 -0.8331  2.1226
 5586SOL     OW28390   0.656   1.040   3.900 -0.4572 -0.0143  1.0907
 5586SOL    HW128391   0.732   1.013   3.951 -1.1016 -0.6399  1.7178
 5586SOL    HW228392   0.593   0.975   3.933 -1.0281  0.0441  0.1324
 5587SOL     OW28393   4.121   0.742   8.565  0.7721  0.5103  0.5108
 5587SOL    HW128394   4.208   0.779   8.582  1.1282  1.0048 -2.3439
 5587SOL    HW228395   4.110   0.694   8.647 -1.0894  1.5892  0.8931
 5588SOL     OW28396   4.036   3.611   6.762 -0.1532 -0.5052 -0.1722
 5588SOL    HW128397   3.943   3.620   6.742 -0.2418  1.0857  0.9018
 5588SOL    HW228398   4.060   3.697   6.796 -2.0784 -0.3495  0.7833
 5589SOL     OW28399   1.904   4.555  14.444  0.2867 -0.2485  0.1806
 5589SOL    HW128400   1.942   4.634  14.481  0.7169 -0.4762  0.2325
 5589SOL    HW228401   1.837   4.519  14.503 -1.2828  1.6348 -0.4559
 5590SOL     OW28402   4.563   3.972   4.591  1.0862  0.3597  0.5056
 5590SOL    HW128403   4.470   3.994   4.598  1.0601  0.1825  0.7464
 5590SOL    HW228404   4.595   4.020   4.668 -2.5516  0.5917  1.8663
 5591SOL     OW28405   4.366   4.462  14.213 -0.4964 -0.9186 -0.0302
 5591SOL    HW128406   4.272   4.466  14.232 -0.4140  1.5413 -0.0974
 5591SOL    HW228407   4.394   4.542  14.257 -1.0912 -2.2438  2.7750
 5592SOL     OW28408   0.295   3.253   1.650  0.2668 -0.2958 -0.0140
 5592SOL    HW128409   0.222   3.283   1.596  1.5230  0.0425 -1.5173
 5592SOL    HW228410   0.360   3.321   1.628 -1.6443  0.6548 -2.7396
 5593SOL     OW28411   3.041   2.102  16.481  0.2022 -0.5860 -0.0594
 5593SOL    HW128412   3.070   2.015  16.455  0.4483 -0.6839  0.5362
 5593SOL    HW228413   3.093   2.118  16.560 -0.9683 -2.0972  1.0085
 5594SOL     OW28414   1.968   2.889   5.432 -0.2562  0.1778  0.2416
 5594SOL    HW128415   1.984   2.903   5.338  0.5101  1.3017  0.5378
 5594SOL    HW228416   1.915   2.967   5.446 -1.6911 -1.1780  2.2796
 5595SOL     OW28417   3.821   1.360   3.864 -0.4519 -0.1610  0.0821
 5595SOL    HW128418   3.785   1.375   3.951  0.1031 -0.5322  0.3694
 5595SOL    HW228419   3.751   1.304   3.832  0.1021 -1.0435  0.4389
 5596SOL     OW28420   3.543   2.392  14.851  0.0502  0.1535  0.4218
 5596SOL    HW128421   3.610   2.406  14.918 -1.6828  0.1856  2.1483
 5596SOL    HW228422   3.565   2.307  14.814 -0.3965 -0.0621  0.6590
 5597SOL     OW28423   0.764   2.062   5.596  0.2051  0.1057  0.1858
 5597SOL    HW128424   0.850   2.104   5.598 -0.6687  1.8967  0.9919
 5597SOL    HW228425   0.720   2.124   5.537 -0.1341  1.0371  1.4150
 5598SOL     OW28426   4.457   3.987   7.830  0.4759 -0.3220 -0.4048
 5598SOL    HW128427   4.484   4.076   7.807 -1.3495  0.3238 -0.0106
 5598SOL    HW228428   4.418   4.011   7.914  1.8605 -0.7258  0.3568
 5599SOL     OW28429   1.828   3.257   5.759  0.2636 -0.0772 -0.2546
 5599SOL    HW128430   1.753   3.264   5.699 -0.1489 -0.2659  0.2347
 5599SOL    HW228431   1.887   3.201   5.709 -0.9120 -1.2324 -0.3346
 5600SOL     OW28432   2.491   0.700   4.169 -0.0380  0.5913  0.3546
 5600SOL    HW128433   2.533   0.666   4.248  1.2378 -0.1361 -0.6351
 5600SOL    HW228434   2.551   0.680   4.098  0.9087 -1.4382  1.7365
 5601SOL     OW28435   2.343   2.594   4.678 -0.3794  0.1006 -0.5604
 5601SOL    HW128436   2.310   2.563   4.762  0.2280 -1.7074 -0.9817
 5601SOL    HW228437   2.321   2.686   4.692 -0.3770 -0.2261  1.6703
 5602SOL     OW28438   0.596   0.972   4.492  0.1441 -0.6176  0.3039
 5602SOL    HW128439   0.692   0.975   4.497  0.2075 -0.3972 -1.1203
 5602SOL    HW228440   0.570   1.015   4.410  0.6547  2.4044  1.7286
 5603SOL     OW28441   2.552   3.436  11.129  0.2136  0.0298  0.0625
 5603SOL    HW128442   2.551   3.530  11.108  0.1416  0.2573  1.0664
 5603SOL    HW228443   2.568   3.431  11.223 -1.8953 -1.0596  0.3547
 5604SOL     OW28444   0.269   1.050   2.173  0.1106 -1.0103  0.1718
 5604SOL    HW128445   0.307   1.131   2.138 -2.1824 -1.0271 -2.3232
 5604SOL    HW228446   0.341   1.034   2.234  0.2452  0.3113  0.3631
 5605SOL     OW28447   3.001   0.565  15.283  0.5699 -0.2840 -0.4880
 5605SOL    HW128448   3.067   0.508  15.243  0.7519 -2.0663  2.3836
 5605SOL    HW228449   3.040   0.573  15.370 -1.7637  1.2398  0.4181
 5606SOL     OW28450   1.904   0.519  12.048  0.2449  0.4344  0.3803
 5606SOL    HW128451   1.946   0.452  12.102 -1.0915  0.7157  1.7999
 5606SOL    HW228452   1.971   0.587  12.042 -1.7820  2.4106  0.0188
 5607SOL     OW28453   0.318   3.604   7.889  0.6886 -0.3566  0.2510
 5607SOL    HW128454   0.307   3.534   7.954 -0.2119  2.5125  3.1560
 5607SOL    HW228455   0.233   3.645   7.903  1.1192  0.3261  0.8708
 5608SOL     OW28456   1.485   1.590  16.142 -0.3606 -0.5173  0.3376
 5608SOL    HW128457   1.400   1.550  16.124 -0.1270 -0.4635 -0.9268
 5608SOL    HW228458   1.549   1.519  16.138  1.6729  1.4612 -1.9947
 5609SOL     OW28459   2.086   1.835  16.131 -0.3344  0.2853 -0.4169
 5609SOL    HW128460   2.108   1.812  16.221  1.1178 -1.9686 -1.3501
 5609SOL    HW228461   2.127   1.921  16.125  1.2162 -0.2871  1.9303
 5610SOL     OW28462   2.459   2.364  13.229  0.5555 -0.4485 -0.5424
 5610SOL    HW128463   2.515   2.440  13.248 -0.7204  0.6521 -1.1440
 5610SOL    HW228464   2.423   2.335  13.313 -1.2149 -0.3679 -1.2875
 5611SOL     OW28465   3.552   0.877   8.579 -0.3110 -0.3453 -0.6577
 5611SOL    HW128466   3.584   0.906   8.665  0.8448 -1.3426 -0.7587
 5611SOL    HW228467   3.625   0.865   8.518  0.9530  1.3040  0.5420
 5612SOL     OW28468   1.899   3.241   8.749  0.2868 -0.3194  0.1140
 5612SOL    HW128469   1.986   3.221   8.783  0.0672 -1.3102  0.0775
 5612SOL    HW228470   1.851   3.158   8.755  1.0841 -0.6244  2.1158
 5613SOL     OW28471   3.372   3.479   8.202 -0.2633 -0.0301  0.1208
 5613SOL    HW128472   3.313   3.544   8.165  2.1776  1.5133 -1.0499
 5613SOL    HW228473   3.347   3.410   8.140  0.8424 -0.5445  0.2440
 5614SOL     OW28474   1.673   4.634   7.633  0.1930 -0.0277 -0.2268
 5614SOL    HW128475   1.594   4.581   7.627  0.7683 -0.7610 -1.3337
 5614SOL    HW228476   1.743   4.596   7.580  0.2588  1.8152 -1.4645
 5615SOL     OW28477   1.588   2.429  10.571 -0.4719  0.1357  0.1615
 5615SOL    HW128478   1.498   2.402  10.591 -0.0721 -1.1380  0.2917
 5615SOL    HW228479   1.575   2.515  10.610  0.4403 -0.1363  1.0652
 5616SOL     OW28480   0.442   4.483   9.812  0.1139  0.0604 -0.4705
 5616SOL    HW128481   0.401   4.552   9.864  0.1784  1.6471 -2.4968
 5616SOL    HW228482   0.387   4.415   9.850 -0.0263  1.0748  1.1639
 5617SOL     OW28483   3.270   3.236   2.217  0.1483 -0.3943 -0.4246
 5617SOL    HW128484   3.193   3.181   2.203  0.3686 -0.4637 -1.4080
 5617SOL    HW228485   3.261   3.294   2.141 -1.5230  0.8639  0.7313
 5618SOL     OW28486   0.611   3.516   7.975 -0.0777  0.0402 -0.5695
 5618SOL    HW128487   0.685   3.480   8.023 -1.5665 -0.4868  1.3254
 5618SOL    HW228488   0.637   3.506   7.884 -2.1453 -0.4850 -1.1074
 5619SOL     OW28489   3.304   2.946   2.823  0.0081  0.4859 -0.1070
 5619SOL    HW128490   3.251   2.987   2.891 -1.0783 -0.5837 -0.3000
 5619SOL    HW228491   3.273   2.994   2.747 -3.0948  1.4179  1.7499
 5620SOL     OW28492   1.335   0.572   4.972 -0.2401 -0.0499  0.5976
 5620SOL    HW128493   1.403   0.632   5.002  0.8796 -0.1243 -1.8506
 5620SOL    HW228494   1.370   0.490   5.006 -1.1323 -1.0030 -0.8199
 5621SOL     OW28495   2.420   0.064   7.607  0.3037  0.0314 -0.5272
 5621SOL    HW128496   2.511   0.052   7.579 -0.8192 -1.3006 -3.5808
 5621SOL    HW228497   2.435   0.020   7.690  3.0851  1.4288 -0.2874
 5622SOL     OW28498   1.819   2.243   3.107 -0.0003  0.5287  0.1525
 5622SOL    HW128499   1.774   2.327   3.104  0.2714  0.6795  0.2174
 5622SOL    HW228500   1.909   2.267   3.129  0.5228 -0.7037 -0.6409
 5623SOL     OW28501   1.154   0.310   1.782  0.2591 -0.0779 -0.0084
 5623SOL    HW128502   1.146   0.378   1.848 -1.3136  1.0824 -1.3876
 5623SOL    HW228503   1.104   0.244   1.831  0.6012  1.5738  2.5257
 5624SOL     OW28504   2.295   3.225  15.232  0.4370  0.6410 -0.1928
 5624SOL    HW128505   2.307   3.154  15.296 -0.7474  0.9600  0.3865
 5624SOL    HW228506   2.374   3.272  15.258 -0.5754  1.5798  1.1827
 5625SOL     OW28507   1.043   3.361  16.182 -0.1161 -0.6378 -0.1235
 5625SOL    HW128508   1.106   3.308  16.133  1.1868  0.5877  0.2163
 5625SOL    HW228509   0.960   3.319  16.162 -1.5557  1.5537  1.2528
 5626SOL     OW28510   2.801   2.854  10.912 -0.6045 -0.3074  0.7504
 5626SOL    HW128511   2.868   2.906  10.869  1.0483 -0.5606  3.0368
 5626SOL    HW228512   2.845   2.847  10.997 -0.9923 -0.4011  0.9429
 5627SOL     OW28513   0.431   0.883   4.025 -0.0036  0.3375  0.5814
 5627SOL    HW128514   0.367   0.832   4.074 -0.1844 -0.4524 -0.4704
 5627SOL    HW228515   0.505   0.830   4.056  0.0367  0.9829  1.5920
 5628SOL     OW28516   1.317   4.034   9.673 -0.4119  0.1819  0.2726
 5628SOL    HW128517   1.338   4.041   9.580 -1.6447  0.6617  0.0281
 5628SOL    HW228518   1.270   3.951   9.661  2.3732 -1.0960 -1.6517
 5629SOL     OW28519   1.294   4.661   5.297 -0.1064  0.0052  0.8304
 5629SOL    HW128520   1.271   0.015   5.299 -0.6254 -0.1007 -0.2758
 5629SOL    HW228521   1.207   4.628   5.322 -1.0060  1.4900 -0.3813
 5630SOL     OW28522   1.024   2.335   7.325  0.0311 -0.4937 -0.3092
 5630SOL    HW128523   1.082   2.363   7.254  1.1314 -0.4221  0.6198
 5630SOL    HW228524   1.079   2.303   7.396  0.1016  1.1645  0.3640
 5631SOL     OW28525   1.721   4.452  14.683  0.3904 -0.2270 -0.0279
 5631SOL    HW128526   1.676   4.470  14.766  1.3171 -0.2531  0.4858
 5631SOL    HW228527   1.707   4.359  14.667 -2.0484  0.3315 -1.0953
 5632SOL     OW28528   0.180   1.300  17.259  0.2791  0.1108 -0.3236
 5632SOL    HW128529   0.150   1.388  17.237 -0.5020 -0.8638 -3.1908
 5632SOL    HW228530   0.159   1.296  17.352 -2.8852 -2.4322 -1.1334
 5633SOL     OW28531   3.003   4.599   6.931  0.6480 -0.0492 -0.2157
 5633SOL    HW128532   3.029   4.526   6.987 -0.4665 -1.5337 -1.6414
 5633SOL    HW228533   3.081   4.653   6.944 -1.1910  2.3104  1.0934
 5634SOL     OW28534   1.012   2.581  11.858 -0.2322  0.0080  0.3334
 5634SOL    HW128535   1.019   2.674  11.879  2.6054 -0.2526  0.5634
 5634SOL    HW228536   0.936   2.582  11.800  0.1614  0.8962 -0.1546
 5635SOL     OW28537   2.053   3.694   9.945 -0.8256  0.2845 -0.7039
 5635SOL    HW128538   1.974   3.680   9.893  0.3658  0.5969 -2.5839
 5635SOL    HW228539   2.058   3.789   9.934 -0.3136 -0.1168 -4.0796
 5636SOL     OW28540   3.424   0.470   9.047  0.6444  0.1513 -0.2970
 5636SOL    HW128541   3.506   0.498   9.007  0.7119  1.6605  0.8857
 5636SOL    HW228542   3.439   0.376   9.062 -0.2171 -0.1093 -1.0948
 5637SOL     OW28543   1.834   2.798   2.890 -0.7653 -0.0485  0.3315
 5637SOL    HW128544   1.848   2.858   2.963 -1.5137  1.2144 -0.5539
 5637SOL    HW228545   1.891   2.726   2.916 -1.5879 -1.0014 -0.4790
 5638SOL     OW28546   3.535   1.260   8.755 -0.0488  0.4910  0.6814
 5638SOL    HW128547   3.556   1.167   8.767  2.3441  0.9732  0.1489
 5638SOL    HW228548   3.506   1.260   8.664  0.2938  1.1913  0.5730
 5639SOL     OW28549   3.025   3.352   9.099  0.1630 -0.3915 -0.2995
 5639SOL    HW128550   3.034   3.285   9.167 -3.0038 -0.3203  0.1725
 5639SOL    HW228551   3.080   3.314   9.030  1.8029  0.7373  0.3912
 5640SOL     OW28552   4.322   2.370   9.668  0.5382 -0.0743 -0.1171
 5640SOL    HW128553   4.395   2.332   9.716 -0.6491 -2.9004 -0.5408
 5640SOL    HW228554   4.279   2.288   9.643  1.3325 -0.0193 -1.6295
 5641SOL     OW28555   2.428   2.039   8.298 -0.4123  0.3286  0.2447
 5641SOL    HW128556   2.482   2.111   8.329 -1.1983  0.0364  2.2981
 5641SOL    HW228557   2.441   1.980   8.372  0.4885 -1.2847 -1.1977
 5642SOL     OW28558   3.391   2.634   9.836  0.5456  0.2260 -0.3328
 5642SOL    HW128559   3.402   2.612   9.744 -3.4326 -0.5186 -0.6034
 5642SOL    HW228560   3.297   2.651   9.845  0.6312  1.4221 -1.6800
 5643SOL     OW28561   0.411   1.162  16.879  0.0958 -0.0248  0.0578
 5643SOL    HW128562   0.398   1.175  16.785  2.3596 -0.9499 -0.3659
 5643SOL    HW228563   0.423   1.254  16.901  1.0516 -0.2496  0.4509
 5644SOL     OW28564   0.049   4.304   3.208 -0.5198 -0.0583  0.4953
 5644SOL    HW128565   0.042   4.247   3.131  1.2198  1.2981 -0.6654
 5644SOL    HW228566   4.716   4.276   3.267 -0.5414 -0.5421  0.2392
 5645SOL     OW28567   1.262   2.880  15.761  0.5764  0.0697 -0.1561
 5645SOL    HW128568   1.214   2.798  15.748 -1.7543  1.2802  0.7846
 5645SOL    HW228569   1.335   2.852  15.818  0.7828 -0.1338 -0.5227
 5646SOL     OW28570   3.941   2.105  14.236  0.4049 -0.1065  0.2225
 5646SOL    HW128571   3.999   2.036  14.268  1.0285  0.2190 -0.2172
 5646SOL    HW228572   3.945   2.174  14.302 -1.5314  1.9244 -1.7616
 5647SOL     OW28573   0.880   2.009   6.082  1.2503  0.1405  0.3314
 5647SOL    HW128574   0.953   2.015   6.145  2.1617  0.8937 -0.7884
 5647SOL    HW228575   0.878   1.914   6.071  1.9698  0.1578  0.0410
 5648SOL     OW28576   1.785   3.947   5.230 -0.3426  0.4367 -0.2368
 5648SOL    HW128577   1.871   3.905   5.238 -0.2460  0.7431  0.3695
 5648SOL    HW228578   1.810   4.037   5.209  1.0253 -0.7573 -3.6843
 5649SOL     OW28579   4.238   2.867  12.698 -0.6933  0.5583 -0.2409
 5649SOL    HW128580   4.328   2.847  12.723 -1.8410 -2.0186  1.8712
 5649SOL    HW228581   4.246   2.960  12.674 -2.7078  1.1742  1.3973
 5650SOL     OW28582   4.508   3.225   5.366  0.0999 -0.3171 -0.3420
 5650SOL    HW128583   4.419   3.250   5.341  0.0349 -0.2729 -0.0672
 5650SOL    HW228584   4.518   3.262   5.454  0.7495  3.5193 -2.0635
 5651SOL     OW28585   4.140   3.660   2.762 -0.5101  0.6315  0.2989
 5651SOL    HW128586   4.153   3.673   2.856 -0.7557  0.8138  0.3058
 5651SOL    HW228587   4.206   3.595   2.739 -0.1038  0.5385  1.7515
 5652SOL     OW28588   0.036   4.260   1.560 -0.1808 -0.2484  0.0949
 5652SOL    HW128589   0.051   4.202   1.485  1.2004 -0.0177  0.1827
 5652SOL    HW228590   4.686   4.238   1.589 -0.5854 -1.1618 -1.8461
 5653SOL     OW28591   0.768   3.789   1.999 -0.4493  0.5482 -0.3275
 5653SOL    HW128592   0.757   3.726   1.928  1.7117 -0.7527  0.4911
 5653SOL    HW228593   0.793   3.740   2.078 -0.3413  0.9999 -0.0805
 5654SOL     OW28594   3.341   1.352   9.203  0.5953 -0.0735 -0.3340
 5654SOL    HW128595   3.397   1.300   9.145 -0.7183 -3.3991  1.3901
 5654SOL    HW228596   3.411   1.399   9.248 -0.2115 -1.7157  2.6572
 5655SOL     OW28597   4.189   2.828   8.402  0.9321 -0.1442 -0.1835
 5655SOL    HW128598   4.283   2.821   8.415  0.6369 -2.6344  0.5227
 5655SOL    HW228599   4.166   2.742   8.437  0.3128 -0.5918 -1.7051
 5656SOL     OW28600   2.265   0.982   2.255  0.2817 -0.3296  0.2452
 5656SOL    HW128601   2.276   0.896   2.214  0.0951 -1.0246  1.6403
 5656SOL    HW228602   2.318   0.957   2.331  1.3403 -0.5093 -0.5529
 5657SOL     OW28603   3.657   3.291  12.847 -0.2062  0.5072 -0.0029
 5657SOL    HW128604   3.644   3.333  12.932  0.4927  1.2358 -0.2565
 5657SOL    HW228605   3.733   3.339  12.814 -0.7955  1.6717  0.3397
 5658SOL     OW28606   1.594   3.498  16.007  0.2066  0.4398 -0.1589
 5658SOL    HW128607   1.600   3.404  15.990  1.1846  0.9304 -2.4767
 5658SOL    HW228608   1.528   3.497  16.076  0.6279  1.3213  0.2558
 5659SOL     OW28609   0.832   3.129   4.013 -0.8626 -0.6904 -0.0376
 5659SOL    HW128610   0.748   3.108   3.970  0.1934 -2.1974 -1.3800
 5659SOL    HW228611   0.866   3.208   3.970 -1.2179  1.3076  3.3357
 5660SOL     OW28612   2.919   2.531   6.948 -0.2909 -0.0410 -0.2480
 5660SOL    HW128613   2.967   2.470   7.004 -0.4177 -1.4091 -1.6370
 5660SOL    HW228614   2.870   2.472   6.892 -0.5844  0.6454 -0.7204
 5661SOL     OW28615   3.874   1.836   5.162 -0.3512 -0.5122 -0.5111
 5661SOL    HW128616   3.955   1.837   5.111  0.0089  0.0147  0.0717
 5661SOL    HW228617   3.853   1.929   5.170  0.5345 -0.3183 -0.4737
 5662SOL     OW28618   1.448   2.998   5.137  0.2059  0.4393 -0.8525
 5662SOL    HW128619   1.500   3.050   5.199 -2.2756  0.8428  0.8672
 5662SOL    HW228620   1.513   2.957   5.079  1.0951  0.7710 -0.0916
 5663SOL     OW28621   2.457   2.054  13.147 -0.2069 -0.1815 -0.2848
 5663SOL    HW128622   2.527   2.119  13.145 -3.3847  3.1712 -1.3863
 5663SOL    HW228623   2.385   2.085  13.092 -0.6138  0.9090  0.8656
 5664SOL     OW28624   1.575   0.403   4.780  0.2896 -0.1413 -0.1917
 5664SOL    HW128625   1.664   0.398   4.813 -0.1311  0.2872  1.0358
 5664SOL    HW228626   1.588   0.336   4.713 -2.0032 -2.2840  1.5026
 5665SOL     OW28627   2.292   0.210   0.542  0.2184  0.2182  0.2551
 5665SOL    HW128628   2.238   0.137   0.510  0.0662  0.3773  0.1503
 5665SOL    HW228629   2.306   0.190   0.635 -1.4018 -1.3129  0.1913
 5666SOL     OW28630   3.028   1.840   4.220 -0.5268 -0.0662  0.2031
 5666SOL    HW128631   2.960   1.790   4.265 -0.7714  2.6864  2.8737
 5666SOL    HW228632   3.025   1.920   4.272  1.0699  0.0783  0.0489
 5667SOL     OW28633   1.099   0.728  15.563  0.0324  0.4156  0.3596
 5667SOL    HW128634   1.130   0.785  15.633 -1.8075  0.0148  1.5095
 5667SOL    HW228635   1.161   0.745  15.492  1.0671 -0.6858  1.0150
 5668SOL     OW28636   0.452   2.639   5.513 -0.2134  0.0861  0.3486
 5668SOL    HW128637   0.371   2.595   5.537 -1.3623  1.5347 -0.8262
 5668SOL    HW228638   0.499   2.637   5.596  0.9321 -1.3474 -0.3422
 5669SOL     OW28639   3.206   3.536  10.853 -0.2686  0.2874  0.2665
 5669SOL    HW128640   3.225   3.580  10.770  1.0865 -0.3551  0.2361
 5669SOL    HW228641   3.266   3.582  10.912 -0.9579  0.7674  0.5955
 5670SOL     OW28642   1.153   3.201   8.597  0.0060 -0.3576  0.0744
 5670SOL    HW128643   1.062   3.191   8.571  0.0586 -1.4409  0.3108
 5670SOL    HW228644   1.191   3.115   8.578  1.4866  0.4728 -0.7897
 5671SOL     OW28645   1.904   4.486  16.790 -0.1774 -0.5733 -0.3747
 5671SOL    HW128646   1.903   4.394  16.817 -0.0697 -0.5351 -0.2354
 5671SOL    HW228647   1.914   4.474  16.696 -0.4031  1.3128 -0.6377
 5672SOL     OW28648   2.590   1.427   6.404 -0.1364 -0.4102  0.2033
 5672SOL    HW128649   2.625   1.414   6.492  2.0112 -0.3816 -0.6577
 5672SOL    HW228650   2.546   1.507   6.431 -2.2328 -1.3510 -0.4032
 5673SOL     OW28651   1.032   4.550   5.375 -0.1237 -0.0230 -0.1532
 5673SOL    HW128652   0.973   4.531   5.447 -1.1814 -0.0594 -1.0234
 5673SOL    HW228653   0.964   4.571   5.310 -2.0824 -0.8969  1.6163
 5674SOL     OW28654   4.118   4.454   4.047 -0.5265 -0.5789  0.0150
 5674SOL    HW128655   4.134   4.404   4.127  2.0772  3.3260  1.9268
 5674SOL    HW228656   4.114   4.388   3.978  2.0465 -0.0074 -0.6764
 5675SOL     OW28657   0.953   0.479  11.049 -0.1359  0.3992  0.6467
 5675SOL    HW128658   1.001   0.515  10.974 -0.3626  0.4093  0.5047
 5675SOL    HW228659   1.006   0.409  11.087  0.9936 -0.0849 -1.8121
 5676SOL     OW28660   3.991   2.387   1.987  0.4017  0.0237 -0.1040
 5676SOL    HW128661   4.085   2.407   1.994 -0.0053  1.0381  2.4256
 5676SOL    HW228662   3.979   2.410   1.895 -0.1558 -0.0743 -0.0559
 5677SOL     OW28663   2.557   2.717  10.957  0.0169  0.4198  0.2140
 5677SOL    HW128664   2.635   2.772  10.963  1.0632 -1.0553  0.3199
 5677SOL    HW228665   2.519   2.733  11.044 -0.7980  0.5043 -0.1551
 5678SOL     OW28666   2.274   3.807   8.197 -0.3658  0.1929  0.2632
 5678SOL    HW128667   2.193   3.756   8.199 -0.4415  0.3037  0.0747
 5678SOL    HW228668   2.342   3.741   8.189  1.3360  1.9625 -0.0105
 5679SOL     OW28669   1.333   1.950  17.282  0.4699 -0.4152 -0.0397
 5679SOL    HW128670   1.372   1.953  17.369 -0.5821 -0.2678  0.4359
 5679SOL    HW228671   1.240   1.934  17.302  0.4668  0.7597  0.8812
 5680SOL     OW28672   4.072   4.320   3.565 -0.5646  0.3239  0.0300
 5680SOL    HW128673   4.154   4.272   3.570  0.1016  1.3218 -1.4123
 5680SOL    HW228674   4.040   4.271   3.490 -1.1132 -0.4664  0.7838
 5681SOL     OW28675   3.483   4.694   8.001  0.3441  0.5490  0.3152
 5681SOL    HW128676   3.508   4.689   7.909 -0.2862  1.0094  0.1209
 5681SOL    HW228677   3.389   4.678   7.992  0.1477  2.9884 -1.8915
 5682SOL     OW28678   3.937   0.358   4.898 -0.3490 -0.2017 -0.2658
 5682SOL    HW128679   3.951   0.264   4.907 -0.4995  0.0858  3.3100
 5682SOL    HW228680   3.876   0.370   4.826 -0.0677  1.7423 -0.1938
 5683SOL     OW28681   3.366   2.004   4.509  0.8843  0.4095  0.4295
 5683SOL    HW128682   3.368   2.062   4.585 -2.7684  0.5885  0.3821
 5683SOL    HW228683   3.350   1.923   4.558  0.9138 -0.7921 -1.5714
 5684SOL     OW28684   2.903   2.737   7.135  0.5449  0.1298 -0.3653
 5684SOL    HW128685   2.957   2.816   7.130  1.8078 -0.9124 -3.1190
 5684SOL    HW228686   2.928   2.685   7.059 -0.6018  0.1710 -0.7607
 5685SOL     OW28687   3.325   3.420   5.309 -0.1062 -0.1649 -0.1974
 5685SOL    HW128688   3.320   3.381   5.221  0.1874  0.9754 -0.7183
 5685SOL    HW228689   3.282   3.501   5.281  2.6207  1.2789 -0.1612
 5686SOL     OW28690   3.112   1.231   9.142  0.5313 -0.0190  0.0195
 5686SOL    HW128691   3.148   1.196   9.060  0.9405  0.5893 -0.0622
 5686SOL    HW228692   3.197   1.257   9.178  0.2787 -0.6929  1.1305
 5687SOL     OW28693   4.027   2.634   4.415  0.5122 -0.2631  0.1401
 5687SOL    HW128694   4.035   2.676   4.500  2.3284  0.4413 -0.3797
 5687SOL    HW228695   4.117   2.649   4.385 -0.0688 -0.3718 -1.6346
 5688SOL     OW28696   3.055   1.200  13.214  0.0272 -0.1277  0.0903
 5688SOL    HW128697   3.048   1.272  13.277 -2.2479 -0.0489 -0.2538
 5688SOL    HW228698   3.016   1.126  13.260 -2.4374  1.5247  0.6833
 5689SOL     OW28699   0.069   2.774   2.581  0.4915 -0.8776  0.0943
 5689SOL    HW128700   0.113   2.859   2.577 -1.4111  0.1439  1.2066
 5689SOL    HW228701   0.095   2.753   2.671  0.4536 -2.6568 -0.3160
 5690SOL     OW28702   2.850   1.249   4.606 -0.3312 -0.2154 -0.1428
 5690SOL    HW128703   2.795   1.175   4.630  2.5185 -1.8945  1.1105
 5690SOL    HW228704   2.810   1.284   4.526  1.4121 -0.7728 -1.2417
 5691SOL     OW28705   3.600   1.792  15.846  0.4654 -0.4083 -0.0830
 5691SOL    HW128706   3.603   1.825  15.936 -0.9174  0.1242 -0.2399
 5691SOL    HW228707   3.509   1.798  15.816  0.9184 -1.0653 -1.5966
 5692SOL     OW28708   3.876   2.869  10.574 -0.0790 -0.1425 -0.1487
 5692SOL    HW128709   3.810   2.820  10.524 -0.5672 -0.9042  1.2341
 5692SOL    HW228710   3.929   2.797  10.609  0.8720 -0.9217 -3.1696
 5693SOL     OW28711   3.550   4.211   6.165  0.1873  0.4724 -0.5336
 5693SOL    HW128712   3.602   4.283   6.202  0.7613 -0.5478  0.6302
 5693SOL    HW228713   3.571   4.208   6.071 -0.7067 -1.0588 -0.6843
 5694SOL     OW28714   4.422   1.536   3.871  0.2831 -0.2711  0.1743
 5694SOL    HW128715   4.419   1.548   3.776  4.3932 -1.9276 -0.1753
 5694SOL    HW228716   4.344   1.585   3.894 -0.5228  0.3967 -4.0454
 5695SOL     OW28717   3.211   3.091   1.358 -0.7083  0.0535  0.0190
 5695SOL    HW128718   3.247   3.041   1.285  1.7131  1.4893  0.2132
 5695SOL    HW228719   3.117   3.074   1.364 -0.5613 -0.5477  0.4954
 5696SOL     OW28720   3.890   3.552   2.674  0.5027 -0.3336 -0.5035
 5696SOL    HW128721   3.964   3.604   2.704 -0.8931  0.4189  1.6262
 5696SOL    HW228722   3.944   3.477   2.648  4.0812  3.3361 -3.6811
 5697SOL     OW28723   3.934   2.012   6.664  0.3462  0.8317 -0.2873
 5697SOL    HW128724   3.993   1.991   6.592 -2.6931 -2.0202 -1.9637
 5697SOL    HW228725   3.908   2.100   6.638 -1.0535  1.2508  2.4462
 5698SOL     OW28726   2.104   1.771   2.908  0.1773 -0.2634 -0.4992
 5698SOL    HW128727   2.150   1.764   2.825  0.0824 -0.9359 -0.4922
 5698SOL    HW228728   2.080   1.680   2.924  0.8535 -0.6083 -1.4592
 5699SOL     OW28729   4.507   2.823   8.033 -0.5188  0.2923  0.5555
 5699SOL    HW128730   4.546   2.837   7.947 -2.0171 -1.0478 -0.3290
 5699SOL    HW228731   4.495   2.915   8.058 -0.8362 -0.1169  1.9111
 5700SOL     OW28732   4.462   3.816   2.402 -0.1151  0.5125 -0.4370
 5700SOL    HW128733   4.429   3.906   2.393  1.1184  0.8581 -1.4315
 5700SOL    HW228734   4.449   3.808   2.497 -1.2091 -1.8517 -0.7825
 5701SOL     OW28735   2.126   2.526   5.892 -0.0829 -0.1616 -0.0168
 5701SOL    HW128736   2.123   2.566   5.979 -0.7998 -1.5341  0.5961
 5701SOL    HW228737   2.040   2.552   5.858  0.0638 -0.0518 -0.3032
 5702SOL     OW28738   3.663   1.039   7.409 -0.3068 -0.2981  0.4723
 5702SOL    HW128739   3.640   1.042   7.502  1.4560  0.3125  0.8980
 5702SOL    HW228740   3.587   1.075   7.364  1.5728 -0.3530 -2.7961
 5703SOL     OW28741   3.440   4.090   8.810 -0.8946  0.3106  0.0038
 5703SOL    HW128742   3.427   4.081   8.905 -2.0515  0.0172 -0.1888
 5703SOL    HW228743   3.536   4.097   8.815 -0.8019 -1.5576  0.7531
 5704SOL     OW28744   2.461   3.493   9.953  0.2622 -0.1298  0.1880
 5704SOL    HW128745   2.548   3.492   9.994  0.7473  0.9650 -0.8066
 5704SOL    HW228746   2.428   3.415   9.999 -1.3242 -0.4053 -1.4586
 5705SOL     OW28747   2.302   3.830   3.729 -0.5353 -0.5553  0.1595
 5705SOL    HW128748   2.303   3.757   3.791  1.5262 -2.5767 -2.2739
 5705SOL    HW228749   2.252   3.894   3.779  0.5039  0.2604  0.1578
 5706SOL     OW28750   1.040   1.732   2.890 -0.2583  0.0388 -0.1893
 5706SOL    HW128751   1.040   1.779   2.806  0.6529  1.7141  0.7411
 5706SOL    HW228752   0.988   1.656   2.866 -0.2007 -0.4576  1.2909
 5707SOL     OW28753   1.731   1.829   9.236  0.8700 -0.3023  0.3910
 5707SOL    HW128754   1.722   1.838   9.331 -1.3548 -0.3737  0.1784
 5707SOL    HW228755   1.794   1.899   9.218 -0.1408  0.2024 -1.1562
 5708SOL     OW28756   0.441   2.176   2.352  0.2957  0.0651  0.1289
 5708SOL    HW128757   0.478   2.153   2.266 -1.5780  0.7449 -0.8562
 5708SOL    HW228758   0.349   2.189   2.329 -0.0377 -1.5289  0.5326
 5709SOL     OW28759   1.712   3.730  11.000 -1.0418 -0.7221  0.0391
 5709SOL    HW128760   1.670   3.727  10.914  1.4078  0.5326 -1.2236
 5709SOL    HW228761   1.653   3.796  11.037 -0.1356 -0.8252  1.6873
 5710SOL     OW28762   2.115   2.627  14.933  0.0790  0.4101  0.5476
 5710SOL    HW128763   2.025   2.659  14.922 -0.7005 -1.7343  0.7222
 5710SOL    HW228764   2.145   2.715  14.958 -0.7583  1.1076 -0.8938
 5711SOL     OW28765   4.486   1.629   9.045 -0.3377 -0.6324 -0.7996
 5711SOL    HW128766   4.402   1.669   9.023 -0.9259 -0.2518  2.0611
 5711SOL    HW228767   4.530   1.654   8.964  1.5861 -0.8507  0.1800
 5712SOL     OW28768   4.060   3.227   7.567  0.3120 -0.5084  0.2278
 5712SOL    HW128769   4.013   3.152   7.604 -1.9963  0.6220 -0.4535
 5712SOL    HW228770   4.113   3.197   7.493 -1.1178  0.4997 -1.1824
 5713SOL     OW28771   1.840   0.515  13.692 -0.0266  0.7109 -0.6030
 5713SOL    HW128772   1.823   0.476  13.606 -1.5515 -0.1075  0.0619
 5713SOL    HW228773   1.760   0.562  13.717  1.1501  2.4859 -0.2347
 5714SOL     OW28774   2.934   4.548   2.677 -0.1372 -0.2744 -0.0123
 5714SOL    HW128775   2.931   4.559   2.582 -0.9259  1.2243  0.1932
 5714SOL    HW228776   2.872   4.616   2.702 -0.1913 -0.1261 -0.5592
 5715SOL     OW28777   0.745   3.940   4.773  0.1755 -0.0723 -0.1487
 5715SOL    HW128778   0.826   3.975   4.736  1.3494 -1.6945  0.8726
 5715SOL    HW228779   0.698   3.897   4.701 -0.0381 -0.1281  0.0244
 5716SOL     OW28780   0.528   4.373   4.042 -0.2873 -0.7517 -0.2041
 5716SOL    HW128781   0.497   4.304   3.983 -0.9993 -2.2383  1.8867
 5716SOL    HW228782   0.531   4.449   3.984 -0.5775 -0.4216  0.2047
 5717SOL     OW28783   0.444   1.416   4.005 -0.1492  0.1717  0.1049
 5717SOL    HW128784   0.457   1.472   3.929 -1.2508  0.5571  0.2068
 5717SOL    HW228785   0.463   1.471   4.081 -0.1907 -0.7938  0.8170
 5718SOL     OW28786   0.359   3.204   8.307 -0.1074 -0.1480 -0.3594
 5718SOL    HW128787   0.393   3.284   8.348  0.0786 -0.5463  0.2698
 5718SOL    HW228788   0.387   3.135   8.367  0.2268 -1.0233 -1.5447
 5719SOL     OW28789   4.179   4.265  16.931  0.4947 -0.1127 -0.5548
 5719SOL    HW128790   4.239   4.313  16.989 -2.6254  0.0170  2.5283
 5719SOL    HW228791   4.112   4.234  16.990  2.1011 -0.5331  1.0459
 5720SOL     OW28792   2.977   0.208  15.039 -0.3779  0.0215 -0.6421
 5720SOL    HW128793   2.941   0.192  15.126  0.4716 -0.7804 -0.4374
 5720SOL    HW228794   3.061   0.163  15.042 -1.4203 -2.1255 -4.0479
 5721SOL     OW28795   4.676   0.568   7.969 -0.3225 -0.2609 -0.2445
 5721SOL    HW128796   4.592   0.602   7.936 -0.8946 -0.9757  0.4800
 5721SOL    HW228797   4.695   0.626   8.043 -2.4607 -1.6707  1.3910
 5722SOL     OW28798   1.721   3.752   3.448 -0.3575  0.5628 -0.5163
 5722SOL    HW128799   1.748   3.757   3.540  1.3698 -2.0952 -0.8574
 5722SOL    HW228800   1.792   3.694   3.419 -0.9174  0.0127 -0.7876
 5723SOL     OW28801   0.050   1.366   1.569  0.0100 -0.3164  0.1150
 5723SOL    HW128802   4.704   1.321   1.578  0.6239 -1.5367 -0.1980
 5723SOL    HW228803   0.105   1.303   1.616  0.8928 -0.9302 -1.7284
 5724SOL     OW28804   1.730   0.065   5.768 -0.2690 -0.5781 -0.4459
 5724SOL    HW128805   1.662   4.737   5.786  0.0038 -1.0396 -1.1024
 5724SOL    HW228806   1.733   0.110   5.853  0.6519  1.6913 -1.6817
 5725SOL     OW28807   1.576   3.361   9.247 -0.0304  0.0328  0.0334
 5725SOL    HW128808   1.486   3.332   9.232 -0.8463  1.4422  2.3240
 5725SOL    HW228809   1.567   3.412   9.327 -0.6980 -3.6615  2.2807
 5726SOL     OW28810   0.697   1.061  13.189 -0.7344  0.0810  0.0191
 5726SOL    HW128811   0.739   0.982  13.222 -0.9621 -0.2053 -0.3852
 5726SOL    HW228812   0.612   1.057  13.234 -1.0755  0.5585 -0.5787
 5727SOL     OW28813   1.421   1.823   3.803  0.0641  0.2636 -0.7490
 5727SOL    HW128814   1.382   1.861   3.882  0.8648  0.3539 -0.3907
 5727SOL    HW228815   1.393   1.884   3.735  2.1071  3.0429  0.8882
 5728SOL     OW28816   0.922   1.564   6.951  0.0992  0.2201 -0.3849
 5728SOL    HW128817   0.856   1.630   6.930 -0.3203 -0.9631 -2.8257
 5728SOL    HW228818   0.875   1.503   6.895 -3.0932  3.0674 -0.8563
 5729SOL     OW28819   2.180   0.539   3.873  0.2601 -0.0785  0.4900
 5729SOL    HW128820   2.189   0.465   3.933  0.7420 -1.4371 -1.2553
 5729SOL    HW228821   2.153   0.612   3.929  1.6528 -0.1939  1.3084
 5730SOL     OW28822   4.728   2.277   4.317  0.4869 -0.2390 -0.6259
 5730SOL    HW128823   0.040   2.255   4.239 -1.7549  1.3421 -2.5365
 5730SOL    HW228824   4.651   2.228   4.289  0.6790  0.2899 -2.0825
 5731SOL     OW28825   1.981   3.747   5.488 -0.4226 -0.6327 -0.0646
 5731SOL    HW128826   2.039   3.672   5.506  2.1970  1.3586 -0.1567
 5731SOL    HW228827   2.037   3.812   5.529  0.2127 -2.2601  1.6360
 5732SOL     OW28828   0.344   3.035   5.222  0.1200 -0.2584 -0.4614
 5732SOL    HW128829   0.362   2.981   5.146 -0.0017  1.5359 -1.7662
 5732SOL    HW228830   0.312   3.112   5.175 -0.4680 -1.7011 -2.4317
 5733SOL     OW28831   0.184   4.347   8.769  0.0457 -0.2746 -0.0040
 5733SOL    HW128832   0.191   4.364   8.862 -1.6810  0.9612 -0.0985
 5733SOL    HW228833   0.221   4.258   8.768  0.9220  0.1125 -1.3987
 5734SOL     OW28834   1.158   0.066   8.939  0.6396  0.4591  0.3845
 5734SOL    HW128835   1.198   4.720   8.963 -1.5988 -0.1097  2.0837
 5734SOL    HW228836   1.227   0.104   8.886  0.0099  2.1794  0.7956
 5735SOL     OW28837   1.478   1.073   9.103 -0.4550  0.0192 -0.8605
 5735SOL    HW128838   1.383   1.059   9.103  0.0713 -3.4680 -0.4470
 5735SOL    HW228839   1.504   0.983   9.085 -0.1674  0.5025 -2.9004
 5736SOL     OW28840   3.416   2.469  13.140  0.5341 -1.0834  0.0583
 5736SOL    HW128841   3.505   2.469  13.107  0.7604  1.2760  0.6825
 5736SOL    HW228842   3.388   2.557  13.165 -0.9093 -2.1289  2.1188
 5737SOL     OW28843   2.594   3.995   4.413  0.3198 -0.2409  0.4043
 5737SOL    HW128844   2.521   4.056   4.400  2.3781  2.3218  0.9394
 5737SOL    HW228845   2.550   3.910   4.415  0.1583 -0.2073 -1.2939
 5738SOL     OW28846   0.532   4.604   3.900 -0.4797  0.8275  0.0791
 5738SOL    HW128847   0.496   4.688   3.926  0.0863  0.8193  0.8843
 5738SOL    HW228848   0.561   4.622   3.810 -1.2886 -0.8790 -0.5355
 5739SOL     OW28849   2.689   0.556  11.004 -0.2829 -0.2536 -0.2387
 5739SOL    HW128850   2.620   0.492  10.987  2.3824 -2.6935 -1.8417
 5739SOL    HW228851   2.741   0.563  10.923 -1.7182  0.1437 -1.1356
 5740SOL     OW28852   1.445   2.251   7.438 -0.1268  0.1871 -0.6612
 5740SOL    HW128853   1.508   2.179   7.442  0.5216  0.6685 -2.1179
 5740SOL    HW228854   1.468   2.303   7.361  0.4202 -0.2443 -0.7886
 5741SOL     OW28855   3.925   0.574   5.959  0.0179  0.3332 -0.1881
 5741SOL    HW128856   3.999   0.553   5.901 -1.5568  1.1631 -2.4651
 5741SOL    HW228857   3.957   0.556   6.047  1.5835 -0.7308 -0.9675
 5742SOL     OW28858   0.829   2.817  12.121  0.0418  0.1833  0.2902
 5742SOL    HW128859   0.825   2.892  12.180  1.4119 -0.7503  1.5823
 5742SOL    HW228860   0.769   2.848  12.053  1.3730  1.9333 -0.0873
 5743SOL     OW28861   1.013   2.953   4.740  0.0182  0.0175 -0.9755
 5743SOL    HW128862   0.936   2.955   4.798 -1.7095 -1.4670 -3.2522
 5743SOL    HW228863   0.974   2.974   4.655 -1.6776 -0.9718 -0.4478
 5744SOL     OW28864   3.169   1.532  15.820 -0.1541 -0.4064  0.2725
 5744SOL    HW128865   3.239   1.503  15.762 -0.6851 -1.0668 -0.0328
 5744SOL    HW228866   3.136   1.603  15.765 -2.3882 -2.4393 -0.9814
 5745SOL     OW28867   1.302   1.014  12.002  0.9440 -0.1225  0.4385
 5745SOL    HW128868   1.230   1.034  12.062 -0.6760 -1.6152 -0.9942
 5745SOL    HW228869   1.277   0.927  11.970  3.4406 -0.1354 -1.4632
 5746SOL     OW28870   0.698   0.490   1.748  0.5149 -0.4222  0.2694
 5746SOL    HW128871   0.660   0.577   1.732  0.5372 -0.9197 -2.4350
 5746SOL    HW228872   0.732   0.467   1.661  0.5003  1.9494 -0.3790
 5747SOL     OW28873   2.127   1.606   6.660 -0.1330  0.0055  0.0095
 5747SOL    HW128874   2.140   1.693   6.620  2.1597 -0.0194  0.6979
 5747SOL    HW228875   2.114   1.558   6.578  2.4708  1.4967 -1.2910
 5748SOL     OW28876   2.859   4.266   5.202 -0.3006 -0.0971 -0.1264
 5748SOL    HW128877   2.930   4.222   5.155  1.5705  0.0674  2.5389
 5748SOL    HW228878   2.790   4.271   5.136 -1.1367  2.0067  0.9252
 5749SOL     OW28879   2.076   3.710  10.699  0.0464 -0.4318  0.6591
 5749SOL    HW128880   1.990   3.741  10.669  0.8235 -2.0876 -3.3248
 5749SOL    HW228881   2.138   3.738  10.632 -0.1073  0.5182  0.9224
 5750SOL     OW28882   1.249   3.744   3.592  0.5197 -0.7183  0.5921
 5750SOL    HW128883   1.331   3.712   3.630 -0.2164 -1.8944  1.2114
 5750SOL    HW228884   1.202   3.660   3.593 -3.2515  1.3739  0.7052
 5751SOL     OW28885   3.478   0.839   6.811  0.1353 -0.2864  0.0228
 5751SOL    HW128886   3.485   0.762   6.754 -0.3472 -1.9898  2.2648
 5751SOL    HW228887   3.407   0.885   6.765 -0.5781 -2.5838 -1.1885
 5752SOL     OW28888   1.580   2.714  10.693 -0.0682  0.0384  0.3253
 5752SOL    HW128889   1.650   2.778  10.704  0.5969 -0.8373  1.1600
 5752SOL    HW228890   1.570   2.678  10.781 -0.1508 -0.9641 -0.0982
 5753SOL     OW28891   3.769   4.042   6.703  0.2145 -0.6806  0.1550
 5753SOL    HW128892   3.773   4.028   6.609  2.5366  1.7832 -0.1350
 5753SOL    HW228893   3.697   3.981   6.718 -0.9835  1.0319  1.4130
 5754SOL     OW28894   0.482   4.011   6.972  0.1145 -0.3907  0.1468
 5754SOL    HW128895   0.394   3.986   6.945  0.0712  1.3185 -1.2934
 5754SOL    HW228896   0.538   3.934   6.983  2.9594  1.6797  0.2367
 5755SOL     OW28897   1.159   0.133   8.339  0.7293 -0.4448 -0.0641
 5755SOL    HW128898   1.162   0.109   8.432 -1.7500  0.9978  0.3849
 5755SOL    HW228899   1.086   0.079   8.309  0.9127 -0.7666  0.0658
 5756SOL     OW28900   1.776   3.668   6.333 -0.1018  0.9530 -0.7188
 5756SOL    HW128901   1.835   3.638   6.263 -1.0981  1.1958 -1.6522
 5756SOL    HW228902   1.825   3.637   6.409  1.2143  0.0299 -1.9306
 5757SOL     OW28903   3.889   1.965   3.915 -0.3494 -0.6075  0.1720
 5757SOL    HW128904   3.911   1.873   3.905  2.6228  0.1063  0.2798
 5757SOL    HW228905   3.961   2.000   3.967 -0.5188 -0.3294  0.2210
 5758SOL     OW28906   1.664   3.743  16.235  0.0142 -0.3175  0.5628
 5758SOL    HW128907   1.602   3.672  16.219 -1.2114  0.9028 -0.0890
 5758SOL    HW228908   1.744   3.709  16.195 -0.3815 -0.3672 -0.1744
 5759SOL     OW28909   2.864   2.425  13.142  0.1391 -0.2602  0.4574
 5759SOL    HW128910   2.914   2.358  13.188  3.2511  1.4894 -0.3601
 5759SOL    HW228911   2.937   2.480  13.111 -0.7087  0.4129 -0.3446
 5760SOL     OW28912   4.500   4.244   3.011 -0.4687  0.5099 -0.1855
 5760SOL    HW128913   4.516   4.339   3.014 -0.2080  0.4055  1.5376
 5760SOL    HW228914   4.593   4.221   3.013 -0.3851  0.7362 -1.1995
 5761SOL     OW28915   3.882   3.120   1.902  0.8385  0.1155  0.2366
 5761SOL    HW128916   3.890   3.144   1.995 -0.1069 -0.7178  0.5391
 5761SOL    HW228917   3.832   3.039   1.910  0.0793  0.5435 -0.1475
 5762SOL     OW28918   3.846   4.596   5.394 -0.2010 -0.0756  0.3422
 5762SOL    HW128919   3.800   4.679   5.381  1.6626  0.8307 -0.4850
 5762SOL    HW228920   3.775   4.532   5.401 -0.8415  0.3086 -2.5064
 5763SOL     OW28921   2.001   3.937  14.365  0.0555  0.2937  0.2734
 5763SOL    HW128922   1.921   3.980  14.394 -0.0315  1.5524 -1.8917
 5763SOL    HW228923   1.991   3.855  14.413  1.2989  0.5378  0.9586
 5764SOL     OW28924   1.071   3.905   0.288  0.1711  0.1536 -0.7281
 5764SOL    HW128925   1.132   3.918   0.361 -0.5458 -1.4522  0.1525
 5764SOL    HW228926   1.018   3.833   0.321 -1.9376  1.4912 -1.1568
 5765SOL     OW28927   1.741   0.854  12.721  0.6688 -0.1224  0.1721
 5765SOL    HW128928   1.705   0.942  12.721  0.0501 -0.3700  1.9328
 5765SOL    HW228929   1.782   0.847  12.808 -2.0034 -1.3797  1.3385
 5766SOL     OW28930   0.387   3.451  15.633 -0.0942  0.0266 -0.0551
 5766SOL    HW128931   0.388   3.369  15.683  2.1600  0.2404  0.2604
 5766SOL    HW228932   0.352   3.415  15.551  0.7851 -0.1114 -0.3706
 5767SOL     OW28933   1.189   3.000   5.040  0.1621  0.3910  0.2563
 5767SOL    HW128934   1.257   2.997   5.108  1.2985  0.9964 -0.8349
 5767SOL    HW228935   1.240   2.992   4.959 -0.8487  0.2123 -0.3521
 5768SOL     OW28936   1.187   0.205   9.681 -0.3860 -0.6268  0.2219
 5768SOL    HW128937   1.216   0.294   9.661 -1.1193 -0.4666 -0.1365
 5768SOL    HW228938   1.161   0.176   9.593 -1.7793 -1.6207  0.9587
 5769SOL     OW28939   2.400   1.233  11.261  0.7336 -0.5371  0.0510
 5769SOL    HW128940   2.400   1.148  11.306  2.0931 -0.3131  0.5065
 5769SOL    HW228941   2.361   1.210  11.177  1.9900  0.2877 -0.7517
 5770SOL     OW28942   3.619   0.079   2.362 -0.7543  0.1879 -0.4393
 5770SOL    HW128943   3.545   0.050   2.310 -2.0307  0.2355  1.3580
 5770SOL    HW228944   3.671   4.737   2.348 -0.9576  0.2070 -1.2670
 5771SOL     OW28945   4.069   1.486  12.018  0.1055  0.4575 -0.1491
 5771SOL    HW128946   4.032   1.461  11.933  0.7123 -1.2735  0.1044
 5771SOL    HW228947   4.021   1.438  12.085  1.5419 -0.3149  0.3103
 5772SOL     OW28948   3.057   2.446   8.862  0.1939 -0.5683 -0.2960
 5772SOL    HW128949   3.143   2.463   8.901  0.1672 -2.1752  0.4734
 5772SOL    HW228950   3.033   2.524   8.813  1.8391 -0.3443 -0.7475
 5773SOL     OW28951   4.085   2.833  12.490  0.0637 -0.0551 -0.2168
 5773SOL    HW128952   4.162   2.842  12.434 -1.1200  1.2475 -1.6457
 5773SOL    HW228953   4.126   2.824  12.576 -0.5510  0.0611  0.0890
 5774SOL     OW28954   1.246   1.121   3.188  0.3522 -0.1040 -0.0994
 5774SOL    HW128955   1.266   1.151   3.100 -0.0227  0.1412 -0.1041
 5774SOL    HW228956   1.287   1.198   3.228 -1.4662  0.4042  0.8364
 5775SOL     OW28957   2.272   0.579   0.455 -0.1051 -0.1481 -0.0152
 5775SOL    HW128958   2.259   0.486   0.477 -1.0909 -0.1683 -0.7177
 5775SOL    HW228959   2.210   0.619   0.515  1.0541 -0.9625  1.7367
 5776SOL     OW28960   0.150   4.495   1.744 -0.0247 -0.5658 -0.0040
 5776SOL    HW128961   0.229   4.470   1.793 -1.0830  2.2349  3.0718
 5776SOL    HW228962   0.158   4.441   1.666  1.4869  0.9113 -0.8713
 5777SOL     OW28963   1.646   3.430   7.506 -0.0816  0.2574  0.5045
 5777SOL    HW128964   1.613   3.346   7.475 -1.2327  0.9770 -0.1987
 5777SOL    HW228965   1.683   3.401   7.589  0.9916 -1.5571 -0.6056
 5778SOL     OW28966   2.127   1.138   6.941 -0.0315  0.3888 -0.2542
 5778SOL    HW128967   2.181   1.116   6.866 -0.2796 -0.1067 -0.2880
 5778SOL    HW228968   2.039   1.152   6.906 -0.9174 -1.9472  0.9997
 5779SOL     OW28969   4.569   0.372   8.185  0.0809  0.1779  0.3407
 5779SOL    HW128970   4.550   0.363   8.092 -2.2646 -0.6361  0.9046
 5779SOL    HW228971   4.566   0.277   8.201  0.7861 -0.2454 -1.9931
 5780SOL     OW28972   3.282   1.418  10.474 -0.0036  0.1466  0.3803
 5780SOL    HW128973   3.360   1.437  10.423 -0.7055  2.5882  0.2124
 5780SOL    HW228974   3.220   1.441  10.406 -1.9315 -2.1137  1.3428
 5781SOL     OW28975   2.032   1.001  11.726 -0.2101  0.1139 -0.5338
 5781SOL    HW128976   1.943   0.999  11.762  0.1853  0.6208  0.4619
 5781SOL    HW228977   2.033   0.922  11.671 -0.2790  1.1142 -1.9747
 5782SOL     OW28978   0.476   0.790   4.655  0.5037 -0.0423 -0.4526
 5782SOL    HW128979   0.459   0.856   4.722 -1.0818  0.7893 -1.6521
 5782SOL    HW228980   0.505   0.845   4.582 -0.1852 -1.5726 -1.8744
 5783SOL     OW28981   1.138   3.878   4.130 -0.2497 -0.3225 -0.2738
 5783SOL    HW128982   1.073   3.818   4.165  2.2187 -2.1607  1.2011
 5783SOL    HW228983   1.127   3.866   4.036 -0.2071 -0.7465 -0.2229
 5784SOL     OW28984   1.912   4.367  17.195  0.7189  1.8179  0.0004
 5784SOL    HW128985   1.956   4.432  17.140 -2.6226  2.6083 -1.7486
 5784SOL    HW228986   1.975   4.352  17.265  2.5504 -0.1463 -2.0768
 5785SOL     OW28987   0.711   4.609  13.194  0.9317  0.0016 -0.1513
 5785SOL    HW128988   0.760   4.531  13.166  1.1932  0.4667 -1.0024
 5785SOL    HW228989   0.699   4.596  13.288  3.6815 -0.5591  0.1331
 5786SOL     OW28990   0.776   3.036   4.250 -0.6343 -0.4109 -0.0673
 5786SOL    HW128991   0.681   3.040   4.242 -0.6591  0.9264  1.0179
 5786SOL    HW228992   0.804   3.059   4.161  1.5791  0.9583  0.9797
 5787SOL     OW28993   2.396   3.919   4.052 -0.5367  0.0450  0.6523
 5787SOL    HW128994   2.302   3.933   4.063 -0.4432  0.6652  0.6767
 5787SOL    HW228995   2.399   3.828   4.023 -0.0540  0.9529 -2.1601
 5788SOL     OW28996   4.353   3.502   8.005 -0.3577  0.0518  0.2342
 5788SOL    HW128997   4.427   3.480   8.061  0.4604 -0.2966 -0.9822
 5788SOL    HW228998   4.392   3.574   7.955 -1.2691  0.5338  0.2230
 5789SOL     OW28999   3.672   3.247   3.535 -0.0569  0.3363  0.8810
 5789SOL    HW129000   3.668   3.189   3.459 -0.4165  1.5611 -0.0400
 5789SOL    HW229001   3.589   3.230   3.580 -0.2239 -0.4658  0.2762
 5790SOL     OW29002   1.824   4.727   3.121 -0.1812 -0.0916  0.2688
 5790SOL    HW129003   1.798   4.639   3.096 -2.6252  0.7949 -0.2994
 5790SOL    HW229004   1.919   4.720   3.132  0.0215  2.7651  0.4625
 5791SOL     OW29005   4.429   4.177  15.845  0.1060 -0.5140  0.3140
 5791SOL    HW129006   4.367   4.184  15.917 -2.4094 -0.8560 -1.8048
 5791SOL    HW229007   4.511   4.172  15.894 -0.6685 -0.8451  1.5604
 5792SOL     OW29008   1.296   4.277   5.425 -0.0618  0.1443 -0.1547
 5792SOL    HW129009   1.368   4.230   5.383 -0.3409 -1.4744  1.1682
 5792SOL    HW229010   1.245   4.200   5.449 -0.2543  0.9704  2.1011
 5793SOL     OW29011   0.038   0.436   4.880  0.3374  0.3314 -0.1187
 5793SOL    HW129012   4.719   0.393   4.944  1.4612 -0.0204  0.6458
 5793SOL    HW229013   0.118   0.382   4.878 -0.8782 -1.4634 -0.5555
 5794SOL     OW29014   2.722   3.268   2.464  0.0978 -0.2467 -0.3209
 5794SOL    HW129015   2.780   3.193   2.472  0.3832 -0.1893 -1.8135
 5794SOL    HW229016   2.714   3.263   2.369 -1.0284 -1.1790 -0.1794
 5795SOL     OW29017   0.356   1.221   5.891 -0.1831  1.0483 -0.2837
 5795SOL    HW129018   0.342   1.233   5.797  0.3382 -2.9461 -0.8643
 5795SOL    HW229019   0.340   1.309   5.925  0.7743  0.5329  1.4767
 5796SOL     OW29020   2.407   3.176  12.675 -0.7741  0.1796 -0.2330
 5796SOL    HW129021   2.327   3.163  12.726  0.7077 -0.6963  1.9146
 5796SOL    HW229022   2.416   3.271  12.669  2.1512  0.1384  3.3285
 5797SOL     OW29023   3.030   4.438   5.696 -0.4075 -0.1644 -0.2595
 5797SOL    HW129024   3.108   4.395   5.661 -2.0997 -2.0592 -1.6554
 5797SOL    HW229025   3.038   4.527   5.661  0.3605 -0.6498 -1.3046
 5798SOL     OW29026   3.341   4.371  10.368 -0.0129  0.0568  0.2955
 5798SOL    HW129027   3.302   4.454  10.394 -0.5264  0.1075 -0.6738
 5798SOL    HW229028   3.428   4.379  10.409 -0.3395  2.9287  0.4222
 5799SOL     OW29029   0.948   0.198   6.264 -0.6437  0.4655 -0.6799
 5799SOL    HW129030   0.867   0.220   6.310  0.1837  0.2082  0.9150
 5799SOL    HW229031   0.988   0.148   6.335 -0.2185  1.2852 -0.3493
 5800SOL     OW29032   2.066   1.723   9.124 -0.0082 -0.0620  0.1603
 5800SOL    HW129033   2.112   1.728   9.040 -0.2019 -4.8451 -0.2505
 5800SOL    HW229034   2.134   1.683   9.178 -0.7147 -1.5856 -0.0516
 5801SOL     OW29035   0.264   1.767   4.109  0.1753 -0.3397 -0.3840
 5801SOL    HW129036   0.255   1.687   4.058 -0.2091  0.0761 -0.9611
 5801SOL    HW229037   0.211   1.833   4.064 -1.3381 -0.8542  0.6761
 5802SOL     OW29038   1.570   4.376  14.255  0.2227 -0.3302  0.8155
 5802SOL    HW129039   1.606   4.303  14.305 -0.5101 -0.1247  1.6387
 5802SOL    HW229040   1.645   4.418  14.213  0.5486 -0.5860  1.1352
 5803SOL     OW29041   4.504   1.165   8.307 -0.1348 -0.0337  0.4856
 5803SOL    HW129042   4.487   1.077   8.342  0.0104  0.9197  2.9526
 5803SOL    HW229043   4.540   1.208   8.385  1.3246  1.1545 -0.8531
 5804SOL     OW29044   2.024   0.702   6.252  0.3144  0.0681 -0.0706
 5804SOL    HW129045   2.040   0.763   6.179  3.3961  0.7627  1.1925
 5804SOL    HW229046   1.932   0.728   6.265  0.8869  2.1295 -0.0637
 5805SOL     OW29047   0.915   4.711  14.703 -0.7558 -0.1281  0.0010
 5805SOL    HW129048   0.907   0.052  14.649  1.0598  0.4566  0.5662
 5805SOL    HW229049   0.832   4.664  14.699 -0.9700  0.3497 -1.2141
 5806SOL     OW29050   2.711   4.057   6.784  0.2354  0.0080  0.3551
 5806SOL    HW129051   2.673   4.108   6.855  0.9261 -1.5752  1.8498
 5806SOL    HW229052   2.702   4.115   6.708  0.8819 -1.6823 -1.0250
 5807SOL     OW29053   2.207   3.407   9.266 -0.1814  0.0913 -0.1128
 5807SOL    HW129054   2.286   3.448   9.229  0.8483 -1.4279  0.3988
 5807SOL    HW229055   2.203   3.437   9.357  2.0788  2.2980 -0.7428
 5808SOL     OW29056   3.305   2.821  11.432 -0.3836 -0.2644  0.3966
 5808SOL    HW129057   3.346   2.760  11.370  1.0428 -0.0349  1.1115
 5808SOL    HW229058   3.340   2.796  11.517  2.3134 -1.5219 -1.0891
 5809SOL     OW29059   4.118   1.104  11.876 -0.1936 -0.1521 -0.4447
 5809SOL    HW129060   4.152   1.192  11.859  0.3989 -0.5970 -1.5500
 5809SOL    HW229061   4.096   1.088  11.784 -2.0200  2.2578 -0.4071
 5810SOL     OW29062   1.967   4.222   2.186  0.0576  0.5434 -0.2523
 5810SOL    HW129063   1.908   4.294   2.164 -1.3426  0.7289  4.1732
 5810SOL    HW229064   2.042   4.235   2.128  0.9975  1.9136  1.2547
 5811SOL     OW29065   1.314   3.717   8.575  0.3340  0.0710  0.0042
 5811SOL    HW129066   1.309   3.627   8.542  1.6273 -0.0182  0.0504
 5811SOL    HW229067   1.224   3.741   8.554  0.2847  0.4587  0.6481
 5812SOL     OW29068   1.943   4.450   2.451  0.4629  0.3642 -0.0850
 5812SOL    HW129069   1.957   4.486   2.364 -1.7139  0.8262 -0.2289
 5812SOL    HW229070   1.891   4.522   2.486  1.0713  0.4488  0.6714
 5813SOL     OW29071   4.660   0.250   1.659 -0.1701 -0.0805  0.1704
 5813SOL    HW129072   0.012   0.225   1.682  0.6490  0.2388 -2.6502
 5813SOL    HW229073   4.676   0.339   1.627 -0.0347  0.2899  1.2731
 5814SOL     OW29074   2.012   4.456   9.472 -0.2428  0.0363  0.4202
 5814SOL    HW129075   2.013   4.530   9.412  0.1807  0.3091  0.7650
 5814SOL    HW229076   2.027   4.502   9.555  1.1314  0.9959 -0.3671
 5815SOL     OW29077   3.223   2.357  17.167  0.5333  0.0013 -0.4139
 5815SOL    HW129078   3.209   2.275  17.121  3.2815 -1.3137  1.1155
 5815SOL    HW229079   3.305   2.392  17.131 -0.7522  1.9169 -1.4867
 5816SOL     OW29080   3.047   4.086  11.886  0.3921 -0.1630  0.0184
 5816SOL    HW129081   3.065   4.173  11.922 -0.4836 -0.1558  0.4437
 5816SOL    HW229082   2.957   4.082  11.920  0.1537 -1.0818 -0.7187
 5817SOL     OW29083   3.903   2.254   2.278  0.6321 -0.3327  0.2085
 5817SOL    HW129084   3.900   2.285   2.188 -0.0808 -1.4407 -0.1467
 5817SOL    HW229085   3.937   2.171   2.245 -0.8876 -1.5337  1.6843
 5818SOL     OW29086   4.675   4.235   8.650 -0.1162 -0.8590 -0.1584
 5818SOL    HW129087   4.727   4.239   8.730 -2.2093 -1.0251  1.2099
 5818SOL    HW229088   4.638   4.147   8.654  0.0477 -0.9664 -0.9225
 5819SOL     OW29089   4.073   0.109   4.350 -0.6727 -0.5330 -0.2174
 5819SOL    HW129090   4.127   0.152   4.416 -1.5118 -0.4631  0.4177
 5819SOL    HW229091   4.142   0.043   4.336 -2.1878 -1.8063 -1.7270
 5820SOL     OW29092   3.108   0.250  13.357 -0.1385 -0.7565  0.3310
 5820SOL    HW129093   3.191   0.227  13.400  0.8435 -1.0570 -1.6960
 5820SOL    HW229094   3.042   0.264  13.424  0.4533  1.0317  0.5514
 5821SOL     OW29095   3.155   4.147   8.889  0.1436 -0.1881 -0.3769
 5821SOL    HW129096   3.112   4.143   8.803 -0.2145 -3.5345 -0.0281
 5821SOL    HW229097   3.232   4.095   8.867  0.1456 -0.1289 -0.5158
 5822SOL     OW29098   2.583   2.741   8.054  0.1837  0.3840  0.2350
 5822SOL    HW129099   2.583   2.766   8.147  1.2427  2.9659 -0.4626
 5822SOL    HW229100   2.676   2.729   8.036  0.3045 -0.7954  1.6356
 5823SOL     OW29101   0.714   0.522  11.490 -0.6261  0.0187  0.1569
 5823SOL    HW129102   0.803   0.503  11.461 -0.5356  1.1598 -0.3166
 5823SOL    HW229103   0.660   0.480  11.423  0.9304  2.0567 -2.3899
 5824SOL     OW29104   1.080   1.780  13.996 -0.0528 -0.5000 -0.4520
 5824SOL    HW129105   1.151   1.719  13.976  0.4637  0.3005 -1.0908
 5824SOL    HW229106   0.999   1.729  13.993  0.2875 -1.0850  0.8483
 5825SOL     OW29107   0.468   3.853   7.906 -0.0981 -0.2736 -0.3094
 5825SOL    HW129108   0.440   3.762   7.910 -1.3000 -0.0395 -3.3454
 5825SOL    HW229109   0.560   3.834   7.923  0.3062  0.4764 -1.6766
 5826SOL     OW29110   3.249   4.620   4.984 -0.9435  0.0589  0.1447
 5826SOL    HW129111   3.173   4.562   4.980 -0.3811 -0.6977  0.4176
 5826SOL    HW229112   3.215   4.708   4.992 -1.7306 -0.4917  2.8631
 5827SOL     OW29113   0.283   3.037   2.777  0.1780  0.0162 -0.4017
 5827SOL    HW129114   0.344   2.971   2.746 -1.1005 -0.9540 -0.8119
 5827SOL    HW229115   0.241   3.047   2.692  0.7232  1.3230 -0.5283
 5828SOL     OW29116   2.801   4.330   4.701  0.2293 -0.1622  0.1124
 5828SOL    HW129117   2.879   4.304   4.750 -0.1679 -2.2576 -0.4019
 5828SOL    HW229118   2.739   4.329   4.774 -2.7268  0.5551 -2.4124
 5829SOL     OW29119   4.146   0.746   0.937  0.2830  0.3982 -0.5402
 5829SOL    HW129120   4.136   0.673   0.876 -0.0624 -0.8381  1.0019
 5829SOL    HW229121   4.217   0.712   0.991 -0.5932 -0.2352  0.2141
 5830SOL     OW29122   4.272   3.644   5.954  0.3965 -0.4530 -0.1913
 5830SOL    HW129123   4.276   3.719   5.896 -0.8466 -0.9662 -0.9281
 5830SOL    HW229124   4.179   3.623   5.946  0.0030  0.7155  1.2960
 5831SOL     OW29125   2.315   1.662   8.390  0.3630 -0.1247  0.3927
 5831SOL    HW129126   2.266   1.721   8.447  2.2586  0.5414  1.3349
 5831SOL    HW229127   2.252   1.600   8.352 -0.3341  0.9165 -0.1194
 5832SOL     OW29128   2.976   4.427  15.114  0.0267 -0.0798 -0.2864
 5832SOL    HW129129   2.980   4.351  15.172  1.1056  0.2715  0.0852
 5832SOL    HW229130   2.931   4.389  15.038 -2.4751  0.3445  0.9854
 5833SOL     OW29131   1.451   3.187  14.654  0.1459  0.9580 -0.1801
 5833SOL    HW129132   1.440   3.282  14.647 -1.0244  0.8845  0.7529
 5833SOL    HW229133   1.366   3.168  14.693 -0.7271  3.0906 -1.0233
 5834SOL     OW29134   4.495   2.753   3.369  0.2479 -0.3658 -0.6523
 5834SOL    HW129135   4.402   2.766   3.347  0.4929  0.3863 -1.2162
 5834SOL    HW229136   4.517   2.671   3.325 -1.4804 -0.8122 -0.6860
 5835SOL     OW29137   0.598   3.182   9.013  0.2246 -0.1408 -0.1050
 5835SOL    HW129138   0.580   3.190   9.107  0.0678 -1.2342 -0.0474
 5835SOL    HW229139   0.603   3.276   8.997  0.9759  0.0161  0.9857
 5836SOL     OW29140   4.238   3.728  10.268 -0.2379  0.0369 -0.0004
 5836SOL    HW129141   4.177   3.679  10.212 -2.4407  0.9023  1.6420
 5836SOL    HW229142   4.297   3.656  10.291  0.3204  0.4135 -0.2782
 5837SOL     OW29143   2.376   1.758   9.694 -0.1281  0.3898 -0.1214
 5837SOL    HW129144   2.294   1.803   9.673  0.9793  2.4600  0.0115
 5837SOL    HW229145   2.406   1.825   9.755  1.9877 -0.0345 -0.7219
 5838SOL     OW29146   3.458   0.281   2.061  0.3520 -0.3127 -0.6071
 5838SOL    HW129147   3.389   0.226   2.097 -1.1069  0.9321 -1.4720
 5838SOL    HW229148   3.456   0.359   2.116  3.9489 -1.5510  1.2976
 5839SOL     OW29149   1.454   1.247   7.295  0.5384  0.5112  0.1191
 5839SOL    HW129150   1.401   1.325   7.283  0.2725 -0.0643 -2.3987
 5839SOL    HW229151   1.400   1.179   7.254  0.5073  1.3297 -1.1655
 5840SOL     OW29152   3.545   2.435   2.350  0.2932  0.1567  0.0157
 5840SOL    HW129153   3.466   2.434   2.405  0.8576 -2.5859  0.7851
 5840SOL    HW229154   3.526   2.385   2.271  2.9821  1.1854 -1.2842
 5841SOL     OW29155   2.156   1.669  17.640  0.0759  0.0050 -0.5926
 5841SOL    HW129156   2.075   1.701  17.680 -1.3318 -2.3364 -1.5913
 5841SOL    HW229157   2.210   1.747  17.656  0.1114 -0.1869  0.2524
 5842SOL     OW29158   1.606   2.572   9.262  0.2308  0.2987  0.8540
 5842SOL    HW129159   1.671   2.574   9.333 -0.6041 -0.0745  1.6309
 5842SOL    HW229160   1.622   2.660   9.227 -1.0052  0.8852  1.7232
 5843SOL     OW29161   4.135   1.819   5.752  0.2219 -0.1899 -0.1161
 5843SOL    HW129162   4.166   1.777   5.672  0.4747  0.1567 -0.1984
 5843SOL    HW229163   4.122   1.740   5.805 -0.1316 -0.9093 -1.2665
 5844SOL     OW29164   4.291   3.744   9.069 -0.2332 -0.1222 -0.3933
 5844SOL    HW129165   4.213   3.756   9.123  1.2600  1.3053  1.4372
 5844SOL    HW229166   4.315   3.656   9.098 -3.3092 -0.4498  1.2226
 5845SOL     OW29167   3.128   1.686  12.055 -0.4700 -0.2353  0.3989
 5845SOL    HW129168   3.073   1.716  12.128  1.0801 -1.3575  2.0368
 5845SOL    HW229169   3.165   1.772  12.035  0.4627 -0.9349 -0.8538
 5846SOL     OW29170   0.658   4.063   5.778  0.3175  0.3992  0.7357
 5846SOL    HW129171   0.659   4.158   5.790  0.8620  0.6508 -1.2807
 5846SOL    HW229172   0.569   4.055   5.743  0.0071  0.4620  1.5133
 5847SOL     OW29173   4.014   0.851   5.661 -0.5655 -0.0985 -0.0717
 5847SOL    HW129174   3.956   0.779   5.636 -2.5653  1.8074 -0.9268
 5847SOL    HW229175   3.958   0.916   5.704  1.0020 -0.5961  2.7163
 5848SOL     OW29176   2.910   0.694   7.703  0.7350  0.1735 -0.0902
 5848SOL    HW129177   2.888   0.634   7.775  2.4160 -1.2204 -0.7382
 5848SOL    HW229178   2.827   0.733   7.677  1.3338  0.4117 -1.6393
 5849SOL     OW29179   2.164   3.881   4.560 -0.3323 -0.0384 -0.4211
 5849SOL    HW129180   2.112   3.920   4.630 -1.4150  0.5577 -1.5502
 5849SOL    HW229181   2.160   3.789   4.586 -0.2601 -0.1288 -0.7306
 5850SOL     OW29182   1.742   0.357   6.490 -0.2236  0.4822 -0.2179
 5850SOL    HW129183   1.668   0.357   6.428 -0.6117  0.0655  0.2405
 5850SOL    HW229184   1.700   0.323   6.569 -1.1771  0.7344 -0.6123
 5851SOL     OW29185   1.953   0.472   2.336 -0.2989  0.0070  0.4376
 5851SOL    HW129186   1.965   0.467   2.242 -1.8560 -0.0253  0.2446
 5851SOL    HW229187   2.011   0.545   2.356 -0.1944 -0.6652  2.5741
 5852SOL     OW29188   0.598   3.404  11.904 -0.1371 -0.1328  0.4852
 5852SOL    HW129189   0.586   3.481  11.960  0.2001  0.5527 -0.3835
 5852SOL    HW229190   0.562   3.427  11.818  1.4951 -1.4552 -0.5479
 5853SOL     OW29191   3.108   3.558   9.506  0.1379  0.4442  0.5558
 5853SOL    HW129192   3.170   3.490   9.481 -0.2934 -0.0560  0.8381
 5853SOL    HW229193   3.042   3.512   9.558 -0.7015 -0.2867 -1.1586
 5854SOL     OW29194   0.940   2.171   1.559  0.4711 -0.6254  0.1608
 5854SOL    HW129195   1.003   2.101   1.540  1.1534  0.7141 -2.5400
 5854SOL    HW229196   0.877   2.153   1.489 -0.1773  0.8143  0.3870
 5855SOL     OW29197   0.699   1.377   8.664 -0.8258 -0.0874 -0.4418
 5855SOL    HW129198   0.737   1.431   8.734  2.0215  0.7657 -2.6418
 5855SOL    HW229199   0.754   1.299   8.668 -0.9793 -0.2289 -1.3038
 5856SOL     OW29200   0.885   0.117  13.474  0.5659 -0.6822 -0.2236
 5856SOL    HW129201   0.831   0.039  13.489 -0.1462  0.1878  1.7127
 5856SOL    HW229202   0.906   0.129  13.566  1.0783  2.6916 -0.7902
 5857SOL     OW29203   1.022   2.151   8.619 -0.3544 -0.1195 -0.0222
 5857SOL    HW129204   1.112   2.137   8.590  0.1016  1.5899  0.5186
 5857SOL    HW229205   0.997   2.064   8.649  1.7299 -0.7446 -0.0520
 5858SOL     OW29206   1.101   2.568  17.067 -0.6934  0.4035  0.1461
 5858SOL    HW129207   1.173   2.631  17.071  0.0881 -0.4457 -0.4892
 5858SOL    HW229208   1.075   2.565  16.975 -1.8057 -0.3867  0.4780
 5859SOL     OW29209   1.133   3.411   7.986  0.3234 -0.4336 -0.3669
 5859SOL    HW129210   1.156   3.344   8.051 -0.0275  0.3416  0.5466
 5859SOL    HW229211   1.101   3.354   7.915  1.7262 -2.4620  0.6218
 5860SOL     OW29212   1.427   4.579  11.713  0.2101  0.0443 -0.1657
 5860SOL    HW129213   1.416   4.489  11.684  2.9806 -0.7133  1.1861
 5860SOL    HW229214   1.493   4.605  11.649  1.1550 -0.5807  0.5472
 5861SOL     OW29215   1.182   0.139  11.654  0.2594 -0.0799 -0.1279
 5861SOL    HW129216   1.112   0.078  11.680 -0.4682  1.5874  1.8189
 5861SOL    HW229217   1.205   0.103  11.569 -2.1311 -2.4429  0.2152
 5862SOL     OW29218   2.057   1.634   3.797 -0.0580  0.4561  0.2904
 5862SOL    HW129219   2.122   1.660   3.732 -0.8946  1.0513 -0.2887
 5862SOL    HW229220   2.092   1.674   3.877  0.3448  1.9172 -0.6246
 5863SOL     OW29221   3.230   2.313   3.910  0.4187  0.6428  0.1730
 5863SOL    HW129222   3.314   2.280   3.941 -0.5177 -1.2690  0.6520
 5863SOL    HW229223   3.174   2.237   3.926  1.4660 -0.4516 -1.3871
 5864SOL     OW29224   2.694   1.982  17.094  0.7771 -0.0386 -0.3694
 5864SOL    HW129225   2.721   1.909  17.150 -1.5621 -0.1130  0.6434
 5864SOL    HW229226   2.752   2.040  17.144  0.8192 -1.6781  1.4935
 5865SOL     OW29227   4.141   0.673   0.211  0.4306 -0.3226  0.2458
 5865SOL    HW129228   4.184   0.697   0.129  0.9145 -0.9753  0.3067
 5865SOL    HW229229   4.051   0.698   0.193  0.3599  0.4645  1.6511
 5866SOL     OW29230   1.028   2.351   7.778  0.4558  0.8710  0.3880
 5866SOL    HW129231   1.080   2.309   7.709  0.0060  0.0023  0.5753
 5866SOL    HW229232   0.994   2.427   7.732  0.2114  0.1285 -0.6652
 5867SOL     OW29233   3.481   4.166   3.881 -0.0660 -0.4362 -0.2702
 5867SOL    HW129234   3.524   4.107   3.818  0.7498 -0.0659 -0.0639
 5867SOL    HW229235   3.482   4.111   3.959  1.0204  1.9743  1.4075
 5868SOL     OW29236   3.713   3.580   1.893  0.6226  0.3020 -0.0552
 5868SOL    HW129237   3.651   3.514   1.926  0.8544  0.0393 -0.1413
 5868SOL    HW229238   3.766   3.516   1.846  0.0577  0.9648 -1.5783
 5869SOL     OW29239   2.515   2.565   7.176 -0.6021 -0.0214  0.1967
 5869SOL    HW129240   2.473   2.607   7.101  1.0272  1.1605 -0.0548
 5869SOL    HW229241   2.579   2.633   7.199  2.1135 -2.1054 -1.1916
 5870SOL     OW29242   4.234   2.715   4.093  0.5933  0.2060  0.8218
 5870SOL    HW129243   4.264   2.746   4.178  1.0006  1.4515  0.2265
 5870SOL    HW229244   4.146   2.685   4.117  0.7173 -0.5675  0.2973
 5871SOL     OW29245   4.035   4.058   7.981 -0.0820 -0.3693 -0.8057
 5871SOL    HW129246   3.980   3.980   7.979 -0.8149  0.0812  1.5669
 5871SOL    HW229247   3.972   4.109   8.032  2.7175  0.5125  1.7778
 5872SOL     OW29248   0.303   1.485   2.757 -0.2805 -1.0880  0.3490
 5872SOL    HW129249   0.229   1.441   2.799 -0.1637 -0.3066  1.3572
 5872SOL    HW229250   0.355   1.409   2.730 -2.4814 -1.8125 -1.9701
 5873SOL     OW29251   3.691   1.303  16.473 -0.1443  0.7722 -0.7256
 5873SOL    HW129252   3.649   1.218  16.487  0.4144  0.4683 -0.9198
 5873SOL    HW229253   3.616   1.363  16.475  0.2111  1.1222  3.1340
 5874SOL     OW29254   2.672   2.020   6.810 -0.1220  0.0109  0.4041
 5874SOL    HW129255   2.758   2.057   6.832 -0.5218  0.8798  0.5003
 5874SOL    HW229256   2.674   1.939   6.861  0.1190 -1.5866 -2.1419
 5875SOL     OW29257   2.108   0.201   5.887 -0.5052  0.7611  0.5967
 5875SOL    HW129258   2.163   0.188   5.964 -0.2944  2.8125  0.7920
 5875SOL    HW229259   2.080   0.290   5.910  0.5001  1.9283 -2.6447
 5876SOL     OW29260   2.186   1.739   8.883  0.3855 -0.5182 -0.5997
 5876SOL    HW129261   2.278   1.744   8.909 -0.1644 -0.2077  1.2846
 5876SOL    HW229262   2.183   1.681   8.807  1.5725  0.0407 -1.0779
 5877SOL     OW29263   3.286   4.652   5.528 -0.0486 -0.1768  0.6490
 5877SOL    HW129264   3.303   4.558   5.537  2.0469  0.3684  2.5585
 5877SOL    HW229265   3.266   4.673   5.619 -1.5288 -1.7727  0.6743
 5878SOL     OW29266   1.349   0.061  14.060 -0.7051 -0.3000 -0.4722
 5878SOL    HW129267   1.440   0.032  14.051 -0.5787 -0.7570  2.4878
 5878SOL    HW229268   1.366   0.155  14.057  1.6860 -0.7615 -1.8876
 5879SOL     OW29269   3.826   1.847   8.180 -0.0083  0.6089 -1.0474
 5879SOL    HW129270   3.749   1.848   8.123 -1.4991 -1.4398  0.9146
 5879SOL    HW229271   3.848   1.756   8.157 -1.5149  0.2079 -0.8990
 5880SOL     OW29272   1.550   2.135   3.897 -0.5695 -0.5397 -0.3612
 5880SOL    HW129273   1.598   2.192   3.837 -0.2916 -0.6610 -0.2513
 5880SOL    HW229274   1.618   2.119   3.962 -1.4413  0.3426  0.7673
 5881SOL     OW29275   0.219   2.075   8.932  0.1782 -0.0396  0.3578
 5881SOL    HW129276   0.294   2.088   8.990  0.7592  0.9141 -0.6012
 5881SOL    HW229277   0.243   2.145   8.871  1.6179 -2.8121 -2.2864
 5882SOL     OW29278   0.941   3.860   2.864  0.1772 -0.0471  0.2909
 5882SOL    HW129279   0.944   3.765   2.853 -1.9945 -0.0592 -0.1196
 5882SOL    HW229280   0.886   3.871   2.787  0.6026 -1.5753 -0.2436
 5883SOL     OW29281   0.794   0.347   9.834  0.5888  0.3365  0.2261
 5883SOL    HW129282   0.852   0.275   9.859  1.1529  0.5371 -0.5038
 5883SOL    HW229283   0.812   0.407   9.906 -1.0209  1.2815 -0.1607
 5884SOL     OW29284   4.081   4.302   3.832  0.2072 -0.3168 -0.3607
 5884SOL    HW129285   3.999   4.279   3.789  0.5529 -3.5632  0.6377
 5884SOL    HW229286   4.120   4.355   3.763  0.8863 -0.4270 -0.0683
 5885SOL     OW29287   4.179   3.359   2.833  0.3226  0.3639 -0.9447
 5885SOL    HW129288   4.254   3.299   2.835  0.4801  0.6269  0.6178
 5885SOL    HW229289   4.166   3.353   2.738 -2.6960  1.5254 -0.6003
 5886SOL     OW29290   1.251   4.014   3.231 -0.3262  0.1573  0.8869
 5886SOL    HW129291   1.282   3.997   3.319 -1.0398  0.4208  1.1904
 5886SOL    HW229292   1.192   4.088   3.247 -0.2085  0.7374 -1.3251
 5887SOL     OW29293   2.544   2.007   5.858  0.0408 -0.3185 -1.1151
 5887SOL    HW129294   2.598   1.943   5.904 -0.2459 -0.5150 -1.0522
 5887SOL    HW229295   2.597   2.017   5.779  1.9212 -0.8600  0.1067
 5888SOL     OW29296   2.301   3.023  12.266 -0.0951  0.0400  0.6762
 5888SOL    HW129297   2.303   3.118  12.276 -1.8585  0.1023  0.4066
 5888SOL    HW229298   2.208   3.004  12.261 -0.0709  0.2645 -0.8419
 5889SOL     OW29299   3.874   0.681   7.497 -0.0834 -0.6113  0.3249
 5889SOL    HW129300   3.834   0.630   7.567 -1.3641  1.7342  1.2929
 5889SOL    HW229301   3.960   0.638   7.498  0.5386  0.6067  0.0590
 5890SOL     OW29302   3.903   1.385   8.654  0.4187  0.1809  0.8488
 5890SOL    HW129303   3.873   1.335   8.579 -0.0966  1.5362  0.1438
 5890SOL    HW229304   3.993   1.356   8.670  0.6718  1.4733  1.8102
 5891SOL     OW29305   3.337   1.238   6.918  0.1265 -0.2056  0.2843
 5891SOL    HW129306   3.405   1.178   6.945 -0.3803 -0.2457  1.4826
 5891SOL    HW229307   3.260   1.233   6.974 -0.6117 -0.5347 -0.7532
 5892SOL     OW29308   3.831   1.879  17.547 -0.3606  0.4806 -0.7685
 5892SOL    HW129309   3.762   1.814  17.558  2.2388 -1.9588  1.2810
 5892SOL    HW229310   3.899   1.812  17.533 -1.9577 -2.0912  3.5968
 5893SOL     OW29311   0.354   0.423   7.582  0.1540  0.3837 -0.2869
 5893SOL    HW129312   0.338   0.477   7.659  0.4552 -0.1036  0.1196
 5893SOL    HW229313   0.342   0.491   7.517  0.1566  0.7584  0.1090
 5894SOL     OW29314   3.768   2.170   5.955  1.0447  0.0065  0.1072
 5894SOL    HW129315   3.715   2.108   5.905 -1.3613  1.1790  1.1983
 5894SOL    HW229316   3.701   2.230   5.986  0.9137  0.6948 -1.5712
 5895SOL     OW29317   3.451   0.280  16.527 -0.0334 -0.6883  0.1352
 5895SOL    HW129318   3.365   0.321  16.520  0.7187  1.1268  1.4822
 5895SOL    HW229319   3.442   0.213  16.460 -1.4672 -0.1154 -0.2466
 5896SOL     OW29320   1.324   4.187   2.212 -0.2362  0.1439  0.5881
 5896SOL    HW129321   1.295   4.173   2.122  1.8259 -0.2446 -0.0036
 5896SOL    HW229322   1.287   4.112   2.260 -1.6049 -1.1104 -2.3979
 5897SOL     OW29323   1.262   3.368   7.601 -0.0848 -0.1278 -0.1871
 5897SOL    HW129324   1.283   3.461   7.608  0.7886 -0.2547 -1.2837
 5897SOL    HW229325   1.192   3.376   7.536 -0.4559 -1.8651  0.0046
 5898SOL     OW29326   1.678   0.501  14.797 -0.5287 -0.5375 -0.6794
 5898SOL    HW129327   1.635   0.479  14.880 -2.0557 -0.8368 -1.5454
 5898SOL    HW229328   1.607   0.524  14.737 -0.5965  0.5685 -0.1653
 5899SOL     OW29329   2.063   3.939   9.830  0.8754 -0.2905 -0.5884
 5899SOL    HW129330   2.117   3.916   9.754  0.7686  1.3563 -1.1700
 5899SOL    HW229331   2.134   3.971   9.886  1.0282 -0.3826 -0.7289
 5900SOL     OW29332   1.047   1.613   3.587 -0.2518 -0.2087  0.5794
 5900SOL    HW129333   1.130   1.582   3.624 -0.8293 -1.6387  0.6612
 5900SOL    HW229334   1.046   1.706   3.610  0.2669 -0.3900  1.3335
 5901SOL     OW29335   3.216   3.278   4.275 -0.1113 -0.1921 -0.9198
 5901SOL    HW129336   3.271   3.277   4.196  0.6688  0.3286 -0.3853
 5901SOL    HW229337   3.280   3.320   4.333 -1.3214  2.0731 -1.2736
 5902SOL     OW29338   2.414   2.261   7.430  0.4700 -0.5020 -0.1174
 5902SOL    HW129339   2.371   2.256   7.344 -0.0150 -3.1687  0.2774
 5902SOL    HW229340   2.423   2.356   7.442  1.1168 -0.4510 -0.9964
 5903SOL     OW29341   4.283   0.104  14.515 -0.1306 -0.2846  0.3381
 5903SOL    HW129342   4.336   0.183  14.525 -0.2735 -0.1014 -0.3153
 5903SOL    HW229343   4.234   0.119  14.434  0.5352  1.2387  0.2302
 5904SOL     OW29344   3.236   2.419   9.193 -0.1653  0.0609 -0.2038
 5904SOL    HW129345   3.155   2.466   9.214 -0.1454 -0.6302  1.3827
 5904SOL    HW229346   3.201   2.329   9.190 -0.1595  0.0460  0.1420
 5905SOL     OW29347   1.735   3.387   7.783  0.2668 -0.5236 -0.0372
 5905SOL    HW129348   1.778   3.309   7.817 -0.4074 -0.3492  1.1936
 5905SOL    HW229349   1.785   3.462   7.816 -2.5173  0.7162  1.3448
 5906SOL     OW29350   0.408   0.861   3.484  0.9446  0.5467  0.2386
 5906SOL    HW129351   0.346   0.857   3.412  1.9215 -0.7884 -0.5246
 5906SOL    HW229352   0.379   0.795   3.547 -0.8088  1.6857  0.6394
 5907SOL     OW29353   2.469   4.066   3.322 -0.5871  0.3010 -0.1626
 5907SOL    HW129354   2.475   3.992   3.382  1.7118  1.3029  0.8309
 5907SOL    HW229355   2.561   4.091   3.325 -0.4852 -0.2655  1.4555
 5908SOL     OW29356   3.114   2.523   5.424  0.1404 -0.0461 -0.2642
 5908SOL    HW129357   3.032   2.568   5.401 -0.0723 -0.3485 -0.0951
 5908SOL    HW229358   3.159   2.503   5.342  0.3648 -0.1662 -0.1120
 5909SOL     OW29359   0.247   3.196   6.706  0.2389 -0.4108 -0.3972
 5909SOL    HW129360   0.279   3.285   6.697  0.7020 -0.4016  1.2989
 5909SOL    HW229361   0.322   3.144   6.676 -0.2396 -1.9673  1.0688
 5910SOL     OW29362   0.358   1.465   7.252 -0.1942  0.2261 -0.6892
 5910SOL    HW129363   0.283   1.504   7.297  2.0353  2.8263  0.7725
 5910SOL    HW229364   0.368   1.527   7.179 -0.8195  1.0401 -0.0914
 5911SOL     OW29365   4.535   1.475   6.588 -0.4490  0.0009 -0.4927
 5911SOL    HW129366   4.575   1.404   6.638 -3.2159 -0.8999  0.4848
 5911SOL    HW229367   4.521   1.435   6.501  0.7164  1.1593 -1.2099
 5912SOL     OW29368   0.155   0.918   4.720  0.2978 -0.4222 -0.0039
 5912SOL    HW129369   0.170   0.830   4.754 -0.6080  0.0282  1.5302
 5912SOL    HW229370   0.237   0.958   4.750  0.0753  1.4132 -1.8379
 5913SOL     OW29371   0.980   0.317  14.748  0.0121  0.5847  0.2153
 5913SOL    HW129372   0.948   0.249  14.689 -2.9652  2.3076 -0.1335
 5913SOL    HW229373   0.919   0.330  14.821 -1.1114 -1.1627 -0.4226
 5914SOL     OW29374   2.113   1.959  11.707  0.2591  0.9280 -0.4186
 5914SOL    HW129375   2.065   2.028  11.755  1.4708  1.0774  0.5941
 5914SOL    HW229376   2.193   1.950  11.758  0.0343 -0.8164 -0.3964
 5915SOL     OW29377   3.326   2.030   8.955 -0.3663  0.6717  0.6375
 5915SOL    HW129378   3.402   1.973   8.968 -2.3138 -2.2438 -0.7555
 5915SOL    HW229379   3.336   2.056   8.863 -1.0633  0.2528  0.4385
 5916SOL     OW29380   3.523   0.677   2.888  0.1092 -0.2231  0.2973
 5916SOL    HW129381   3.467   0.670   2.965 -1.0319 -2.9361 -0.7977
 5916SOL    HW229382   3.461   0.711   2.824  0.6774  1.4411  0.6221
 5917SOL     OW29383   2.815   0.092   4.782  0.1618  0.0422  0.0482
 5917SOL    HW129384   2.732   0.125   4.816 -0.2731  3.3367 -4.3073
 5917SOL    HW229385   2.882   0.145   4.826 -1.0969  1.9831 -0.3888
 5918SOL     OW29386   2.150   3.021  17.490 -0.0817 -0.8303  0.0606
 5918SOL    HW129387   2.085   3.024  17.420 -1.3085  0.1953  1.2348
 5918SOL    HW229388   2.227   3.012  17.435  0.3726 -0.5961  0.6620
 5919SOL     OW29389   4.049   1.376   5.572  0.1302 -0.0951  0.0457
 5919SOL    HW129390   4.054   1.281   5.566  0.5344 -0.0026 -1.0394
 5919SOL    HW229391   4.139   1.409   5.577 -0.0660  0.1685  1.8422
 5920SOL     OW29392   3.599   0.391   3.201  0.7298  0.6536 -0.0314
 5920SOL    HW129393   3.671   0.330   3.183 -0.1584 -0.1751 -0.7610
 5920SOL    HW229394   3.548   0.347   3.270 -1.3002  4.5382  0.9231
 5921SOL     OW29395   2.716   2.506   1.392 -0.2573 -0.3027  0.1376
 5921SOL    HW129396   2.713   2.435   1.328 -0.2897 -1.0157  0.9342
 5921SOL    HW229397   2.791   2.556   1.360 -0.2208 -0.3211  0.1929
 5922SOL     OW29398   2.065   2.292  16.346  0.0057  0.3772  0.1713
 5922SOL    HW129399   2.105   2.369  16.305  1.5913 -1.4244 -1.6739
 5922SOL    HW229400   1.981   2.333  16.365 -0.4495 -0.5778  0.1764
 5923SOL     OW29401   1.665   2.123  15.679 -0.7068 -0.2271 -0.5631
 5923SOL    HW129402   1.633   2.112  15.590 -1.3534 -1.4537 -0.1812
 5923SOL    HW229403   1.666   2.031  15.706 -1.3203 -0.4778 -1.4232
 5924SOL     OW29404   0.506   4.190   5.130 -1.0807 -0.3442 -0.2898
 5924SOL    HW129405   0.544   4.246   5.061  0.1289 -2.4003 -1.3035
 5924SOL    HW229406   0.581   4.134   5.144  0.4443  1.4607 -1.1232
 5925SOL     OW29407   1.838   0.391   0.310  0.1233  0.6687  0.3645
 5925SOL    HW129408   1.917   0.340   0.328  0.8320  1.6206 -0.0159
 5925SOL    HW229409   1.819   0.414   0.401  1.8035 -0.1572  0.9277
 5926SOL     OW29410   0.853   2.540   5.447  0.1387 -0.2053  0.3950
 5926SOL    HW129411   0.936   2.510   5.411  0.7814 -0.9968  2.5220
 5926SOL    HW229412   0.854   2.502   5.535 -1.7437 -2.1764 -0.4729
 5927SOL     OW29413   2.869   1.657   7.142  0.6731 -0.2029  0.4156
 5927SOL    HW129414   2.935   1.724   7.158 -1.1045  1.7436 -0.3531
 5927SOL    HW229415   2.907   1.583   7.189 -0.4225 -0.3763  1.0414
 5928SOL     OW29416   1.978   0.595   8.273  0.5744  0.3529  0.0072
 5928SOL    HW129417   2.021   0.640   8.200  0.9594 -0.9773 -0.5943
 5928SOL    HW229418   2.051   0.549   8.313  0.4866 -1.2210 -1.6118
 5929SOL     OW29419   0.674   2.049   7.745  0.2598 -0.3813 -0.2718
 5929SOL    HW129420   0.653   2.097   7.665 -2.0518 -3.0998 -1.3377
 5929SOL    HW229421   0.715   1.968   7.713  0.3571 -0.1204 -0.7999
 5930SOL     OW29422   2.463   2.674   0.518  1.0664  0.5729  0.1255
 5930SOL    HW129423   2.371   2.696   0.528  1.1087  1.4833 -1.4040
 5930SOL    HW229424   2.493   2.700   0.605  1.4930  0.2769  0.0694
 5931SOL     OW29425   0.826   0.135   2.926  0.3104  0.4695 -0.2217
 5931SOL    HW129426   0.760   0.180   2.874  1.1155  0.3514 -1.3384
 5931SOL    HW229427   0.889   0.098   2.864 -0.6715  0.1722 -1.0401
 5932SOL     OW29428   3.894   2.157  13.063  0.4079 -0.3840 -0.6628
 5932SOL    HW129429   3.891   2.077  13.116 -0.9164  0.7392  0.9581
 5932SOL    HW229430   3.950   2.135  12.988 -0.2981 -0.5659 -1.1393
 5933SOL     OW29431   1.478   2.008  16.294  0.1842  0.0920  0.6173
 5933SOL    HW129432   1.562   2.032  16.333 -0.1552 -0.8388  1.9345
 5933SOL    HW229433   1.513   1.953  16.224 -1.7276  0.2255 -0.4411
 5934SOL     OW29434   2.983   2.359   3.682  0.3567  0.4612  0.2563
 5934SOL    HW129435   2.941   2.299   3.621  1.1185 -0.4316  0.6033
 5934SOL    HW229436   2.903   2.377   3.731  0.2947  1.7801 -0.3123
 5935SOL     OW29437   4.498   0.969  11.988 -0.0940 -0.1434  0.9288
 5935SOL    HW129438   4.480   0.974  11.894  2.0468  1.1346  0.6022
 5935SOL    HW229439   4.586   0.932  11.995 -0.5440 -1.3197  0.4587
 5936SOL     OW29440   4.492   3.623   7.262  0.2109  0.1581 -0.1262
 5936SOL    HW129441   4.451   3.616   7.348 -0.2824 -0.2958 -0.3922
 5936SOL    HW229442   4.494   3.718   7.253  1.3958  0.1755  0.4101
 5937SOL     OW29443   2.317   3.128   4.479  0.1553 -0.0417  0.0925
 5937SOL    HW129444   2.286   3.037   4.482  1.7160 -0.5660  0.1244
 5937SOL    HW229445   2.339   3.129   4.386 -2.4645 -0.0500 -0.5366
 5938SOL     OW29446   1.267   0.706   9.172 -0.0763 -0.2074  0.2038
 5938SOL    HW129447   1.270   0.624   9.220 -0.3430 -1.5981 -2.1262
 5938SOL    HW229448   1.297   0.674   9.086 -1.6601 -0.7963 -0.1371
 5939SOL     OW29449   0.337   3.264   2.283 -0.2228 -0.4202  0.5531
 5939SOL    HW129450   0.369   3.348   2.248  0.6385 -0.4299  1.3294
 5939SOL    HW229451   0.271   3.254   2.215  0.7150 -1.8696 -0.1556
 5940SOL     OW29452   0.295   1.300   9.882 -0.1287  0.1560 -0.0579
 5940SOL    HW129453   0.209   1.268   9.857  0.6618 -2.5928  0.7489
 5940SOL    HW229454   0.308   1.296   9.977 -0.3620  0.3221 -0.0198
 5941SOL     OW29455   1.406   3.153  13.369  0.4458 -0.9521 -0.0928
 5941SOL    HW129456   1.410   3.118  13.458  0.8683  0.7572  0.5626
 5941SOL    HW229457   1.447   3.086  13.314  3.3016 -0.4737  1.4815
 5942SOL     OW29458   4.545   0.664   1.167  0.1002 -0.6449 -0.3402
 5942SOL    HW129459   4.603   0.724   1.212 -0.5775  0.0865 -0.4359
 5942SOL    HW229460   4.517   0.709   1.087 -2.5223 -1.7687 -0.0621
 5943SOL     OW29461   1.530   1.383   1.936  0.4104  0.1018  0.5905
 5943SOL    HW129462   1.467   1.339   1.992 -1.8202  0.6617 -1.4872
 5943SOL    HW229463   1.485   1.467   1.926  0.0349  0.0816  2.1895
 5944SOL     OW29464   4.144   2.168  15.219 -0.0070 -0.3606 -0.5659
 5944SOL    HW129465   4.091   2.226  15.275  3.0645  1.6733  0.2453
 5944SOL    HW229466   4.211   2.225  15.182  0.2804 -0.1759  0.2329
 5945SOL     OW29467   3.129   0.461   6.319 -0.4312  0.1574 -0.1606
 5945SOL    HW129468   3.125   0.554   6.299  2.3772  0.2431 -0.3298
 5945SOL    HW229469   3.057   0.455   6.383  1.4270  0.6348  1.9766
 5946SOL     OW29470   2.180   1.675  17.137 -0.3293  0.4215  0.3873
 5946SOL    HW129471   2.094   1.650  17.170  0.2008 -1.2575  0.4827
 5946SOL    HW229472   2.164   1.667  17.043  2.9637 -2.0185  0.0644
 5947SOL     OW29473   3.455   2.298   5.491  0.0382  0.3600 -0.5693
 5947SOL    HW129474   3.548   2.293   5.471  0.0463 -1.5515 -0.0448
 5947SOL    HW229475   3.427   2.211   5.464  0.6696  0.1146 -0.4329
 5948SOL     OW29476   1.505   1.487   1.365  0.2841 -0.1924  0.1782
 5948SOL    HW129477   1.456   1.443   1.295  0.7067 -1.2033  0.5266
 5948SOL    HW229478   1.517   1.423   1.435  0.6298 -1.8566 -1.4016
 5949SOL     OW29479   1.405   1.565   3.410  0.5494 -0.1024  0.1299
 5949SOL    HW129480   1.442   1.573   3.498 -0.6808  0.0150  0.6429
 5949SOL    HW229481   1.434   1.651   3.379 -3.5489  0.9661 -0.7336
 5950SOL     OW29482   3.602   2.493   1.694  0.4144 -0.6129 -0.5658
 5950SOL    HW129483   3.590   2.571   1.748  0.5432 -1.2027  0.3109
 5950SOL    HW229484   3.584   2.428   1.762 -1.4621 -0.1257 -0.5747
 5951SOL     OW29485   2.164   2.926   6.306 -0.1316 -0.5529 -0.6409
 5951SOL    HW129486   2.105   2.961   6.372  0.6803  1.0437 -0.7788
 5951SOL    HW229487   2.241   2.979   6.325  0.1040  0.2067 -3.7846
 5952SOL     OW29488   2.733   1.273   5.957 -0.1469 -0.2023  0.2891
 5952SOL    HW129489   2.742   1.297   6.049 -0.6154  1.9700 -0.2274
 5952SOL    HW229490   2.648   1.318   5.953 -0.1700 -0.0393  2.8919
 5953SOL     OW29491   1.335   3.980   7.993  1.0730 -0.4877 -0.1397
 5953SOL    HW129492   1.381   3.898   7.977 -0.1410 -0.9216 -1.4226
 5953SOL    HW229493   1.355   3.991   8.086  2.1221  1.1247 -0.5484
 5954SOL     OW29494   3.435   4.058   9.099  0.1830  0.9838 -0.0414
 5954SOL    HW129495   3.496   3.992   9.132 -1.3196 -0.6787 -0.5630
 5954SOL    HW229496   3.350   4.014   9.102  0.3518  0.6383 -0.3412
 5955SOL     OW29497   0.924   1.490   7.749  0.0474  0.4063  0.6629
 5955SOL    HW129498   0.944   1.474   7.657 -1.6649 -0.3627  0.4137
 5955SOL    HW229499   0.847   1.433   7.752  1.4749 -1.4101  2.6733
 5956SOL     OW29500   0.899   3.714   4.166 -0.4685  0.9157 -0.2205
 5956SOL    HW129501   0.815   3.683   4.198 -1.0871  3.0969  0.2333
 5956SOL    HW229502   0.872   3.762   4.087 -0.2316  0.6059 -0.4931
 5957SOL     OW29503   2.663   2.646  15.057  0.0792  0.0861 -0.3512
 5957SOL    HW129504   2.654   2.578  14.989 -0.6629 -1.2650  1.0947
 5957SOL    HW229505   2.587   2.701  15.037  0.5545  1.4206  1.5059
 5958SOL     OW29506   2.804   3.157   7.538  0.0846 -0.1258 -0.5106
 5958SOL    HW129507   2.768   3.203   7.462  0.7286  0.7778 -0.2808
 5958SOL    HW229508   2.769   3.069   7.531 -1.0719  0.2867  0.1777
 5959SOL     OW29509   2.411   2.555   7.413  0.3212 -0.0007  0.2669
 5959SOL    HW129510   2.321   2.565   7.383  1.2038  0.3012 -2.3124
 5959SOL    HW229511   2.450   2.551   7.326  1.1288 -1.4675  0.7003
 5960SOL     OW29512   3.400   2.586   8.705  0.4641 -0.4176  0.7225
 5960SOL    HW129513   3.377   2.496   8.681 -0.7011  0.7670 -2.5300
 5960SOL    HW229514   3.351   2.597   8.787  1.2719  1.7146  0.9042
 5961SOL     OW29515   3.586   2.258   9.475  0.3908 -0.1465 -0.5704
 5961SOL    HW129516   3.612   2.340   9.433  1.5930 -0.3533 -0.2348
 5961SOL    HW229517   3.607   2.191   9.410 -0.0760  0.3627 -1.2463
 5962SOL     OW29518   1.288   0.840   4.709 -0.7635 -0.0581 -0.4509
 5962SOL    HW129519   1.313   0.748   4.704 -1.1115 -0.2497  1.5366
 5962SOL    HW229520   1.328   0.862   4.793  0.1158 -0.9702 -0.6430
 5963SOL     OW29521   0.332   1.264   7.831  0.2171  0.3921  0.5894
 5963SOL    HW129522   0.407   1.316   7.803 -0.4228  1.7610  1.3949
 5963SOL    HW229523   0.264   1.332   7.835  1.9025  2.0231  1.2615
 5964SOL     OW29524   1.455   2.229   9.680 -0.8961  0.0483 -0.2129
 5964SOL    HW129525   1.404   2.176   9.620  0.6496  0.9504 -2.3044
 5964SOL    HW229526   1.527   2.247   9.620  1.2657  0.6196  2.5400
 5965SOL     OW29527   1.113   1.993   2.520  0.1208 -0.0387  0.2962
 5965SOL    HW129528   1.188   2.050   2.535 -1.3232  2.1251 -0.8459
 5965SOL    HW229529   1.084   2.000   2.429 -0.3427 -1.6829  0.3175
 5966SOL     OW29530   0.839   4.197   7.603  0.3023 -0.6089 -0.4412
 5966SOL    HW129531   0.827   4.155   7.518 -1.4174  1.2273 -1.1125
 5966SOL    HW229532   0.934   4.201   7.608  0.2324 -0.7520  1.0596
 5967SOL     OW29533   1.032   3.390  16.472 -0.5792 -0.1783 -0.1242
 5967SOL    HW129534   1.018   3.394  16.377  0.2341 -0.2248 -0.2452
 5967SOL    HW229535   0.982   3.314  16.502  1.3913 -1.1850  0.6412
 5968SOL     OW29536   3.963   1.278   0.997 -0.5985 -0.3470 -0.2871
 5968SOL    HW129537   3.975   1.183   0.997  2.7500  0.0695  0.5767
 5968SOL    HW229538   3.977   1.300   0.905  0.6451 -0.2264 -0.0749
 5969SOL     OW29539   1.167   0.240   5.119 -0.3459  0.6152 -0.7125
 5969SOL    HW129540   1.089   0.258   5.066  0.7853 -0.2901 -2.6913
 5969SOL    HW229541   1.244   0.253   5.064  0.5984  0.7212  0.6438
 5970SOL     OW29542   0.583   1.145   2.974  0.4855 -0.0722 -0.2016
 5970SOL    HW129543   0.488   1.157   2.971  0.4306  0.3037  2.5775
 5970SOL    HW229544   0.591   1.054   2.946  1.4877  1.0246 -3.4712
 5971SOL     OW29545   1.950   3.830   8.148  0.5118 -0.1318 -0.0453
 5971SOL    HW129546   1.857   3.832   8.172  0.9427  0.1105  1.5987
 5971SOL    HW229547   1.971   3.923   8.154 -1.2688  0.4834 -3.2439
 5972SOL     OW29548   2.749   4.161  16.545 -0.0729  0.4047 -0.2946
 5972SOL    HW129549   2.685   4.128  16.608  0.0335  0.3222 -0.2306
 5972SOL    HW229550   2.685   4.165  16.474  1.4392 -0.3623 -1.6783
 5973SOL     OW29551   1.597   3.755   7.761  0.4281 -0.6317  0.3875
 5973SOL    HW129552   1.671   3.812   7.785 -1.0728  0.6067  2.0018
 5973SOL    HW229553   1.567   3.733   7.849 -0.0722 -0.5872  0.2285
 5974SOL     OW29554   4.001   0.175   1.648 -0.4727  0.3274 -0.4249
 5974SOL    HW129555   3.943   0.118   1.699  1.3471 -1.0593  0.0897
 5974SOL    HW229556   4.006   0.244   1.714  0.3518  0.5591 -0.7350
 5975SOL     OW29557   1.505   1.967   9.168 -0.0863  0.1007 -0.0288
 5975SOL    HW129558   1.574   1.905   9.190 -0.5084 -0.6151 -0.7330
 5975SOL    HW229559   1.454   1.914   9.107  0.9154 -0.9609  0.0564
 5976SOL     OW29560   1.585   0.518  16.302 -0.7554  0.0598 -0.1557
 5976SOL    HW129561   1.591   0.491  16.210 -1.6754  0.5551 -0.3693
 5976SOL    HW229562   1.496   0.554  16.293 -0.7520  0.4665  1.4451
 5977SOL     OW29563   2.871   4.611  11.102 -0.6548  0.0131 -0.4915
 5977SOL    HW129564   2.816   4.613  11.023 -1.5355 -1.4569  0.0693
 5977SOL    HW229565   2.803   4.600  11.169  0.6159  1.1388  0.9457
 5978SOL     OW29566   3.488   1.280   4.242 -0.3882 -0.1287 -0.6177
 5978SOL    HW129567   3.485   1.350   4.307  0.8291 -0.6713  0.0108
 5978SOL    HW229568   3.437   1.313   4.168 -1.7999 -0.5299  0.1965
 5979SOL     OW29569   2.657   3.142   6.845  0.1094  0.1066 -0.5997
 5979SOL    HW129570   2.702   3.062   6.873  2.1229  1.1838 -0.7874
 5979SOL    HW229571   2.713   3.205   6.891 -0.7799 -0.4371  1.2390
 5980SOL     OW29572   3.269   0.712   2.832 -0.7038 -0.5523  0.4264
 5980SOL    HW129573   3.253   0.780   2.897  0.1927  1.6124 -1.6013
 5980SOL    HW229574   3.199   0.648   2.846 -1.5364  0.3008  0.1235
 5981SOL     OW29575   0.624   2.650   8.734 -0.1820 -0.1803  0.0410
 5981SOL    HW129576   0.572   2.731   8.732 -0.0494 -0.1304 -0.9343
 5981SOL    HW229577   0.689   2.676   8.800  0.4894 -2.0051  0.0795
 5982SOL     OW29578   0.212   1.636   5.205 -0.2520  0.1920  0.3758
 5982SOL    HW129579   0.273   1.659   5.135 -0.6460  0.7841  0.2234
 5982SOL    HW229580   0.151   1.709   5.218  0.1526  0.7428 -0.7397
 5983SOL     OW29581   0.502   3.938  13.675 -0.4517 -0.1234  0.5902
 5983SOL    HW129582   0.413   3.909  13.696 -1.1038  2.0963  0.9316
 5983SOL    HW229583   0.532   3.890  13.598 -1.5388  0.7293 -0.3700
 5984SOL     OW29584   2.322   0.644   4.655 -0.2554  0.1184  0.0042
 5984SOL    HW129585   2.347   0.562   4.697  1.2761  0.7993  0.4190
 5984SOL    HW229586   2.273   0.687   4.726  1.1237 -0.8547  1.5372
 5985SOL     OW29587   3.624   0.389   9.463 -0.1840 -0.5271 -0.0628
 5985SOL    HW129588   3.543   0.420   9.503  0.5293  2.3165 -0.8202
 5985SOL    HW229589   3.583   0.320   9.412  1.8595 -1.4928 -0.3958
 5986SOL     OW29590   3.233   0.201   1.305 -0.0564  0.6944 -0.0696
 5986SOL    HW129591   3.267   0.185   1.393 -3.3901 -0.6372  0.9769
 5986SOL    HW229592   3.193   0.288   1.311 -4.0923 -1.0717 -1.6714
 5987SOL     OW29593   0.928   2.466   5.728 -0.6600  0.0770 -0.6889
 5987SOL    HW129594   0.924   2.400   5.797  1.8266  1.5101  0.8270
 5987SOL    HW229595   1.007   2.511   5.758 -0.1766 -2.3439  1.6803
 5988SOL     OW29596   2.249   4.429   7.518  0.5724  0.4279  0.1849
 5988SOL    HW129597   2.288   4.404   7.603  0.9174 -0.7901 -0.3278
 5988SOL    HW229598   2.250   4.345   7.472  2.5744  0.4058  0.2654
 5989SOL     OW29599   0.461   1.854   9.017  0.0126 -0.2549  0.2853
 5989SOL    HW129600   0.390   1.872   9.079  0.8596 -1.4891  1.6159
 5989SOL    HW229601   0.490   1.775   9.062 -0.0250 -1.1905 -1.3661
 5990SOL     OW29602   3.495   2.623   5.308 -0.1783 -1.2101 -0.0352
 5990SOL    HW129603   3.551   2.604   5.232 -1.1055  1.8291 -1.4879
 5990SOL    HW229604   3.492   2.542   5.358  0.9409 -2.2111 -1.5847
 5991SOL     OW29605   3.810   3.719  16.141 -0.5397 -0.0103  0.4714
 5991SOL    HW129606   3.737   3.659  16.153 -1.1458  0.2989 -1.7919
 5991SOL    HW229607   3.852   3.687  16.062  0.3671 -0.1359  1.0021
 5992SOL     OW29608   0.007   4.691   7.367  0.7740  0.5054 -0.4113
 5992SOL    HW129609   4.668   0.010   7.376  0.6188  0.0078  1.4280
 5992SOL    HW229610   4.705   4.606   7.388  1.5692  0.0742 -0.6410
 5993SOL     OW29611   4.455   2.425   4.501  0.5197  0.5619  0.4192
 5993SOL    HW129612   4.404   2.416   4.420  1.7766 -0.5847 -0.2280
 5993SOL    HW229613   4.517   2.353   4.504  0.6491  0.7643  2.5879
 5994SOL     OW29614   2.180   2.884  13.841 -0.6220 -0.0198  0.4031
 5994SOL    HW129615   2.102   2.835  13.814 -0.3724 -0.4929  0.5252
 5994SOL    HW229616   2.133   2.966  13.854 -0.8265  0.0874 -1.0871
 5995SOL     OW29617   1.441   2.045   1.423 -0.3151 -0.5242 -0.0007
 5995SOL    HW129618   1.495   2.123   1.415  1.6503 -1.6880  2.0074
 5995SOL    HW229619   1.471   1.999   1.345 -0.6075  0.7210 -0.8645
 5996SOL     OW29620   4.027   2.506   1.329  0.2498 -0.7716  0.3321
 5996SOL    HW129621   3.962   2.530   1.263  2.6478 -0.5447 -1.9702
 5996SOL    HW229622   3.975   2.516   1.409  2.3250 -1.4577  1.7632
 5997SOL     OW29623   2.834   2.260   5.906 -0.0591  0.6162 -0.2927
 5997SOL    HW129624   2.895   2.331   5.887  0.1092  0.2065 -1.3110
 5997SOL    HW229625   2.781   2.259   5.826 -0.6237  1.9564  0.0608
 5998SOL     OW29626   4.266   2.371   4.321 -0.3409  0.0718 -0.3684
 5998SOL    HW129627   4.297   2.289   4.359  1.7360  1.3493  0.6980
 5998SOL    HW229628   4.180   2.384   4.360 -0.4908 -1.7454 -0.1347
 5999SOL     OW29629   4.156   0.336   5.383  0.5480 -0.5494  0.2058
 5999SOL    HW129630   4.082   0.297   5.336  0.0652  0.0712  0.4536
 5999SOL    HW229631   4.206   0.255   5.395 -0.6754 -1.5625 -1.4717
 6000SOL     OW29632   2.841   2.547   8.625 -0.1448  0.2194  0.4006
 6000SOL    HW129633   2.857   2.456   8.600  2.4101  1.0785 -1.0236
 6000SOL    HW229634   2.750   2.539   8.653 -0.3892 -1.1533 -0.7491
 6001SOL     OW29635   2.369   1.285   9.449  0.0539 -0.7512 -0.0893
 6001SOL    HW129636   2.384   1.371   9.490 -1.0604  0.3038 -1.8673
 6001SOL    HW229637   2.393   1.319   9.362 -1.1191  2.7397  0.9256
 6002SOL     OW29638   1.426   0.585   2.011  0.4642  0.1357  0.1879
 6002SOL    HW129639   1.372   0.642   2.066  2.0410  0.3090  1.5702
 6002SOL    HW229640   1.441   0.508   2.066  1.1131 -0.9114 -1.4514
 6003SOL     OW29641   0.592   1.922  12.119  0.2812  0.1512  0.1353
 6003SOL    HW129642   0.571   1.877  12.201 -1.4523 -2.1381 -1.5645
 6003SOL    HW229643   0.684   1.947  12.129  0.1546 -0.2034  2.1241
 6004SOL     OW29644   0.639   3.206   2.485  0.0807  0.1782  0.5593
 6004SOL    HW129645   0.726   3.196   2.524  0.4058 -0.0481 -0.2203
 6004SOL    HW229646   0.582   3.193   2.561 -0.4227 -1.4573 -0.0921
 6005SOL     OW29647   1.550   0.139   3.632 -0.0727  0.0171 -0.2026
 6005SOL    HW129648   1.565   0.151   3.726  1.1474  1.8537 -0.6295
 6005SOL    HW229649   1.494   0.062   3.624 -0.2156  0.2417 -1.3797
 6006SOL     OW29650   0.991   4.485   8.491 -0.0617  0.2067  0.2167
 6006SOL    HW129651   0.988   4.449   8.402  1.1822 -2.7203  1.3784
 6006SOL    HW229652   0.949   4.423   8.550 -1.3847 -0.6330 -1.6075
 6007SOL     OW29653   3.202   3.055   0.116  0.1274 -0.1160  0.3225
 6007SOL    HW129654   3.161   3.061   0.029 -0.4450  1.4809  0.6984
 6007SOL    HW229655   3.138   2.999   0.161 -1.2466  1.3255  0.1509
 6008SOL     OW29656   1.870   2.044   9.180 -0.2916 -0.5956  0.0405
 6008SOL    HW129657   1.912   2.011   9.101 -0.8221 -0.0458 -0.4685
 6008SOL    HW229658   1.947   2.089   9.216 -0.2054  0.3089 -1.2689
 6009SOL     OW29659   0.316   3.420  10.056  0.3507 -0.6128  0.4237
 6009SOL    HW129660   0.346   3.419  10.147 -1.6788 -1.7732  1.0847
 6009SOL    HW229661   0.352   3.507  10.039 -1.0076 -0.0898  0.2143
 6010SOL     OW29662   1.610   2.845   4.920  0.1592  0.2128  0.8404
 6010SOL    HW129663   1.521   2.835   4.885  0.0734  1.3690  0.7152
 6010SOL    HW229664   1.664   2.799   4.856 -1.5927 -0.9100  0.1645
 6011SOL     OW29665   4.075   2.575  10.226  0.1446  0.0533 -0.3471
 6011SOL    HW129666   4.024   2.596  10.148 -3.6019 -1.4897  1.6931
 6011SOL    HW229667   4.104   2.487  10.201 -1.1891 -0.9688  1.6293
 6012SOL     OW29668   3.359   1.578   7.453  0.0537  0.2523  0.4950
 6012SOL    HW129669   3.337   1.540   7.368 -1.3346  3.2720 -0.4862
 6012SOL    HW229670   3.454   1.567   7.464  0.0279 -1.2540 -0.9052
 6013SOL     OW29671   4.674   2.467  12.974  0.0752 -1.0335  0.3146
 6013SOL    HW129672   4.691   2.380  12.937  1.2940 -0.2539 -0.9774
 6013SOL    HW229673   4.643   2.442  13.061  0.1809 -0.3049  0.5602
 6014SOL     OW29674   4.420   2.489   5.341 -0.1043 -0.0928 -0.6956
 6014SOL    HW129675   4.443   2.543   5.266  1.6818 -1.6582 -1.2991
 6014SOL    HW229676   4.411   2.558   5.407 -0.6253 -1.2761  0.4844
 6015SOL     OW29677   1.127   3.675  13.722 -0.1385 -0.0923  0.5205
 6015SOL    HW129678   1.073   3.632  13.788 -0.1362 -2.4187 -0.9855
 6015SOL    HW229679   1.197   3.610  13.713  1.2172  1.2781  1.2635
 6016SOL     OW29680   3.491   1.371  11.843 -0.9529 -0.3717 -0.1416
 6016SOL    HW129681   3.445   1.432  11.900 -2.2995  0.1937 -1.8306
 6016SOL    HW229682   3.465   1.410  11.759  0.7954 -0.2892 -0.6541
 6017SOL     OW29683   3.796   4.014   5.357 -0.5853 -0.0386  0.3435
 6017SOL    HW129684   3.750   4.071   5.419 -1.6302  0.3302 -0.7818
 6017SOL    HW229685   3.866   4.075   5.332  0.9415 -1.4313  1.1940
 6018SOL     OW29686   2.469   0.159   1.988 -0.1605 -0.0106 -0.5893
 6018SOL    HW129687   2.528   0.084   1.988  1.1096  0.9902  0.2709
 6018SOL    HW229688   2.521   0.223   1.939 -0.1889 -0.5109 -1.2805
 6019SOL     OW29689   2.847   4.231   5.744 -0.4420 -0.4541  0.9031
 6019SOL    HW129690   2.911   4.302   5.741 -0.0875 -0.7369  1.8491
 6019SOL    HW229691   2.913   4.165   5.764  0.4244  0.2068  0.2570
 6020SOL     OW29692   4.540   2.987   1.057  0.0245 -0.1633 -0.2888
 6020SOL    HW129693   4.621   2.951   1.022  1.0532 -0.7555  2.6965
 6020SOL    HW229694   4.483   2.972   0.982 -0.7829 -0.9432  0.4781
 6021SOL     OW29695   1.542   4.417   7.815 -0.2235 -0.4741  0.7379
 6021SOL    HW129696   1.481   4.488   7.797  2.6088  1.6946 -0.2428
 6021SOL    HW229697   1.501   4.381   7.894  1.5664 -0.3531  1.7222
 6022SOL     OW29698   1.749   1.529   6.783 -0.0255 -0.9307 -0.2874
 6022SOL    HW129699   1.682   1.529   6.852  0.5961  0.0323  0.3049
 6022SOL    HW229700   1.825   1.559   6.833 -0.2678  1.8965 -1.6178
 6023SOL     OW29701   0.080   1.245  16.862 -0.0927  0.8063  0.1187
 6023SOL    HW129702   0.171   1.277  16.866  0.6086 -1.1936  0.3770
 6023SOL    HW229703   0.052   1.323  16.910  0.5251  0.8983  0.3343
 6024SOL     OW29704   3.505   1.321   5.683  0.2337 -0.1246  0.0630
 6024SOL    HW129705   3.471   1.310   5.771 -3.5033  1.9945 -1.1032
 6024SOL    HW229706   3.558   1.399   5.702  0.9631 -0.8034  0.7617
 6025SOL     OW29707   2.770   3.681   6.182  0.7302  0.2470  0.3794
 6025SOL    HW129708   2.836   3.699   6.248  0.4293 -1.7811  1.2347
 6025SOL    HW229709   2.743   3.593   6.210  0.3690  0.2368  0.0032
 6026SOL     OW29710   0.029   3.968  12.755 -0.0247 -0.3093  0.3188
 6026SOL    HW129711   0.077   3.939  12.678  0.0192 -0.9002  0.5717
 6026SOL    HW229712   0.032   4.064  12.757 -0.3613 -0.2205 -3.8747
 6027SOL     OW29713   0.838   1.528   2.913  0.2131  0.0180  0.4971
 6027SOL    HW129714   0.749   1.492   2.908 -0.0941  0.8962 -0.2068
 6027SOL    HW229715   0.824   1.585   2.989  0.4663  0.2943  0.3325
 6028SOL     OW29716   4.608   3.492   6.586  0.1124 -0.2499 -0.3447
 6028SOL    HW129717   4.620   3.586   6.595 -0.2842 -0.1781 -0.5388
 6028SOL    HW229718   4.616   3.453   6.673 -0.0053  0.1357 -0.1601
 6029SOL     OW29719   3.685   0.777   4.328  0.4752  0.0569  0.3602
 6029SOL    HW129720   3.777   0.772   4.354  0.3280  1.4026  1.1002
 6029SOL    HW229721   3.666   0.689   4.294  1.4098 -0.5890  1.4949
 6030SOL     OW29722   0.369   2.938   7.626  0.4598 -0.4896 -0.0108
 6030SOL    HW129723   0.304   2.989   7.578  0.2938 -0.8963 -0.2165
 6030SOL    HW229724   0.351   2.959   7.718 -2.4669 -2.2722 -0.1658
 6031SOL     OW29725   3.778   4.482  14.221 -0.3553 -0.2392  0.6343
 6031SOL    HW129726   3.760   4.528  14.139  1.4613 -0.2106  0.2492
 6031SOL    HW229727   3.822   4.550  14.271  0.7081  0.6043 -1.4397
 6032SOL     OW29728   2.995   1.135   5.717  0.0317  0.5170  0.0273
 6032SOL    HW129729   2.981   1.059   5.774 -2.1860 -0.5984 -1.9609
 6032SOL    HW229730   3.038   1.204   5.767  1.9581 -0.1277 -0.7236
 6033SOL     OW29731   0.120   1.088   6.743 -0.2963 -0.8631 -0.2944
 6033SOL    HW129732   0.175   1.166   6.748  1.6098 -2.3012  1.0323
 6033SOL    HW229733   0.187   1.019   6.742 -0.6469 -1.2092  0.1619
 6034SOL     OW29734   3.914   1.023   5.854 -0.6367  0.2864  0.2215
 6034SOL    HW129735   3.930   0.973   5.934 -2.5675  0.6787  0.8403
 6034SOL    HW229736   3.905   1.113   5.885  1.3387  0.2673  0.8251
 6035SOL     OW29737   2.572   1.163  13.666 -0.6691 -0.2028 -0.4200
 6035SOL    HW129738   2.554   1.257  13.677  3.4726  0.4809  0.5212
 6035SOL    HW229739   2.501   1.123  13.715  0.3974 -2.7619 -0.9729
 6036SOL     OW29740   2.877   1.733   1.535 -0.7613 -0.1540  0.1645
 6036SOL    HW129741   2.846   1.764   1.620  0.2474  0.6439  0.2441
 6036SOL    HW229742   2.818   1.777   1.474 -0.6627 -0.8194 -0.4135
 6037SOL     OW29743   3.237   0.142   9.315 -0.7946  0.5631  0.1320
 6037SOL    HW129744   3.184   0.080   9.265  0.6585 -1.3813  1.0032
 6037SOL    HW229745   3.166   0.165   9.376 -2.8289 -0.5535 -1.8109
 6038SOL     OW29746   1.995   0.420  15.103  0.2848  0.5503 -0.7795
 6038SOL    HW129747   1.941   0.467  15.167 -0.4158  1.6045 -2.1656
 6038SOL    HW229748   1.940   0.422  15.025 -0.1289 -2.4937 -0.5383
 6039SOL     OW29749   0.141   1.951  14.885 -0.0195  0.2069  0.1779
 6039SOL    HW129750   0.122   1.894  14.811  0.0670 -0.3816  0.6115
 6039SOL    HW229751   0.156   2.037  14.847 -2.1617 -0.5434 -2.3530
 6040SOL     OW29752   1.367   3.802   6.597 -0.0017 -0.4035 -0.2181
 6040SOL    HW129753   1.301   3.871   6.601  0.2644 -0.1574 -0.0750
 6040SOL    HW229754   1.328   3.729   6.645 -2.0603 -0.0701 -1.3727
 6041SOL     OW29755   2.735   0.805   7.248  0.6209  0.8149 -0.9185
 6041SOL    HW129756   2.756   0.733   7.308  1.8859  0.5051 -1.7371
 6041SOL    HW229757   2.810   0.792   7.190  0.3631  0.3289 -1.1449
 6042SOL     OW29758   0.787   2.079   1.337 -0.3163 -0.3684  0.1267
 6042SOL    HW129759   0.808   2.024   1.262 -0.6885  0.2082 -0.4009
 6042SOL    HW229760   0.772   2.167   1.301 -1.5661 -0.0834  1.3085
 6043SOL     OW29761   2.377   4.155   0.973  0.0522 -0.2171 -0.8382
 6043SOL    HW129762   2.283   4.159   0.952  0.3452 -0.0450 -2.1145
 6043SOL    HW229763   2.410   4.100   0.902 -2.1451 -1.0778 -1.1892
 6044SOL     OW29764   3.469   4.666   0.654  0.0189  0.4654 -0.3723
 6044SOL    HW129765   3.440   4.685   0.744  0.5100 -2.5921  0.4231
 6044SOL    HW229766   3.534   4.736   0.646 -1.8847  2.0190 -2.3245
 6045SOL     OW29767   0.255   0.875   1.864  0.1876  0.2082 -0.1424
 6045SOL    HW129768   0.176   0.929   1.860 -0.8007 -1.1245  1.3157
 6045SOL    HW229769   0.239   0.834   1.949 -0.1503 -0.9635 -0.7701
 6046SOL     OW29770   2.475   0.186   0.011  0.2500  0.0681 -0.9155
 6046SOL    HW129771   2.382   0.182  17.741 -0.2579  2.3292  1.0792
 6046SOL    HW229772   2.486   0.153   0.100 -1.0519 -0.4599 -0.9552
 6047SOL     OW29773   2.325   0.712   2.257 -0.2115  0.0892  0.2542
 6047SOL    HW129774   2.386   0.685   2.188  1.1096 -1.3866  2.0153
 6047SOL    HW229775   2.291   0.626   2.282  0.1528 -0.4532 -1.1185
 6048SOL     OW29776   3.369   2.710   4.451  0.3090 -0.0658  0.5402
 6048SOL    HW129777   3.426   2.721   4.375 -0.6843 -0.4597 -0.2675
 6048SOL    HW229778   3.388   2.618   4.471  1.2783  0.1766  0.7021
 6049SOL     OW29779   1.761   1.373  17.122  0.4469 -0.1248 -0.0154
 6049SOL    HW129780   1.699   1.429  17.076  0.0700 -0.1707  0.4377
 6049SOL    HW229781   1.704   1.296  17.128 -0.8725  0.7245 -1.8660
 6050SOL     OW29782   2.459   3.839  15.015  0.6102  0.7569 -0.5658
 6050SOL    HW129783   2.483   3.911  15.073  0.4548 -0.3732  0.9007
 6050SOL    HW229784   2.524   3.854  14.946  1.3058  2.4978  0.4461
 6051SOL     OW29785   1.971   4.170   9.698 -0.2800  0.3163  0.1140
 6051SOL    HW129786   1.960   4.255   9.741 -0.8571  1.6104 -2.5934
 6051SOL    HW229787   1.975   4.114   9.776  2.5371 -0.9689 -0.9655
 6052SOL     OW29788   0.941   2.836  16.249 -0.0394  0.1366  0.4816
 6052SOL    HW129789   0.967   2.895  16.320  0.8027  1.4619 -0.9337
 6052SOL    HW229790   0.850   2.860  16.237 -0.0564 -0.0065  0.3276
 6053SOL     OW29791   0.558   0.435   9.290  0.1984  0.1645 -0.0128
 6053SOL    HW129792   0.529   0.361   9.237 -0.4276  0.6972 -0.4154
 6053SOL    HW229793   0.610   0.383   9.351  0.1513  1.2656  0.9601
 6054SOL     OW29794   3.762   0.591   8.249 -0.1446 -0.2061 -0.0719
 6054SOL    HW129795   3.692   0.526   8.260 -0.6476 -0.0279 -2.1475
 6054SOL    HW229796   3.835   0.537   8.220  1.2516  1.4265  0.4748
 6055SOL     OW29797   0.289   0.116   3.207 -0.1889 -0.0585 -0.3435
 6055SOL    HW129798   0.348   0.185   3.177  1.3047 -1.5830 -0.9516
 6055SOL    HW229799   0.260   0.079   3.123  1.8554  0.7364 -1.4154
 6056SOL     OW29800   0.281   1.420  12.250 -0.2765 -0.3497 -0.6102
 6056SOL    HW129801   0.196   1.462  12.259  0.9001  1.9956 -0.4614
 6056SOL    HW229802   0.296   1.433  12.156  0.9819  1.7581 -0.1063
 6057SOL     OW29803   0.836   0.332   7.683 -0.1533 -0.0089 -0.7185
 6057SOL    HW129804   0.836   0.424   7.710  2.7647  0.1977 -1.4131
 6057SOL    HW229805   0.861   0.293   7.767 -1.4118  0.0314 -0.3226
 6058SOL     OW29806   4.512   1.986   5.203 -0.1100  0.0834  0.8684
 6058SOL    HW129807   4.429   1.989   5.252  0.3936  0.3733  1.7173
 6058SOL    HW229808   4.516   2.081   5.191 -1.1361 -0.1844 -1.5669
 6059SOL     OW29809   0.922   1.239   4.220 -0.1310 -0.4181  0.1439
 6059SOL    HW129810   0.988   1.252   4.152  1.2608  1.5258  1.8574
 6059SOL    HW229811   0.838   1.263   4.179 -0.2554 -1.3611 -0.1458
 6060SOL     OW29812   3.777   2.393   2.485 -0.1177 -0.2320 -0.1610
 6060SOL    HW129813   3.707   2.426   2.429  0.6094 -0.8831 -1.4436
 6060SOL    HW229814   3.825   2.345   2.418  0.7230 -1.0470  1.0245
 6061SOL     OW29815   3.944   2.360   8.100 -0.6214 -0.2211  0.5364
 6061SOL    HW129816   3.951   2.265   8.097 -0.1228 -0.2786  2.8919
 6061SOL    HW229817   4.004   2.379   8.029  0.0610 -1.7471  0.7075
 6062SOL     OW29818   2.011   0.486   7.520 -0.3352 -0.0725 -0.1480
 6062SOL    HW129819   2.103   0.510   7.512 -0.7568 -0.0617 -4.7229
 6062SOL    HW229820   1.980   0.494   7.430  0.9206  2.9565 -0.2712
 6063SOL     OW29821   1.062   3.501  13.321 -0.4108  0.2559  0.7655
 6063SOL    HW129822   1.093   3.414  13.296 -0.8016 -0.5922  3.1933
 6063SOL    HW229823   1.133   3.525  13.380 -1.6556  0.6091  2.1189
 6064SOL     OW29824   3.569   1.584   9.606 -0.5945  0.0535  0.6707
 6064SOL    HW129825   3.569   1.545   9.693  0.8726 -0.8991  0.2269
 6064SOL    HW229826   3.501   1.648   9.628  0.2101  0.6075  1.5484
 6065SOL     OW29827   0.644   4.114   5.409  0.1040 -0.1229 -0.1552
 6065SOL    HW129828   0.625   4.202   5.442  1.8045  0.1846 -0.0040
 6065SOL    HW229829   0.561   4.069   5.397 -0.5269  0.9752  0.0488
 6066SOL     OW29830   0.456   2.230   6.506 -0.3664  0.5590  0.2127
 6066SOL    HW129831   0.398   2.301   6.534 -1.2623  0.0450 -0.3214
 6066SOL    HW229832   0.394   2.158   6.507 -1.3972  1.4435  0.1948
 6067SOL     OW29833   0.857   0.860   8.235  0.4218 -0.3355  0.2798
 6067SOL    HW129834   0.765   0.846   8.214  0.1458  0.0854  1.2248
 6067SOL    HW229835   0.890   0.773   8.257  0.5131 -0.5279 -0.6258
 6068SOL     OW29836   1.905   2.905   7.978  0.1330 -0.0433 -0.6308
 6068SOL    HW129837   1.877   2.819   8.007  2.1662 -1.1725 -2.0115
 6068SOL    HW229838   1.981   2.920   8.034 -0.6559 -3.7039  1.3811
 6069SOL     OW29839   1.019   0.679   8.490 -0.0713 -0.7477 -0.0086
 6069SOL    HW129840   1.036   0.589   8.519  0.1326 -0.5822  0.3818
 6069SOL    HW229841   1.101   0.725   8.475  0.4396 -0.5620  3.2826
 6070SOL     OW29842   3.924   4.212  10.335 -0.3934  0.0877 -0.0475
 6070SOL    HW129843   3.980   4.217  10.413  1.3374 -0.3952 -1.2517
 6070SOL    HW229844   3.942   4.119  10.322  0.8487  0.0870  1.6426
 6071SOL     OW29845   4.393   2.871   9.222  0.1357 -0.1853 -0.4396
 6071SOL    HW129846   4.477   2.825   9.217  0.3195 -0.2357  2.9675
 6071SOL    HW229847   4.416   2.961   9.243 -1.1422 -0.4374  2.0978
 6072SOL     OW29848   0.270   0.380   6.327 -0.5296 -0.8378  0.3547
 6072SOL    HW129849   0.179   0.399   6.306  0.6095  2.1711 -1.9585
 6072SOL    HW229850   0.291   0.321   6.254  1.5851 -0.8463  0.9512
 6073SOL     OW29851   1.572   3.467   6.446  0.0774  0.9511 -0.3557
 6073SOL    HW129852   1.614   3.545   6.409 -2.1099  0.9865 -2.7559
 6073SOL    HW229853   1.625   3.390   6.424 -0.7782  0.3750 -0.3987
 6074SOL     OW29854   3.729   0.503  14.586  0.0011  0.0080 -0.5090
 6074SOL    HW129855   3.719   0.566  14.514  0.8137  0.4714 -0.2084
 6074SOL    HW229856   3.817   0.518  14.620 -0.1938  2.1130 -0.9177
 6075SOL     OW29857   0.463   3.887  15.290  0.4153  0.0895  0.4715
 6075SOL    HW129858   0.539   3.841  15.254 -1.2434  0.1171 -2.9967
 6075SOL    HW229859   0.448   3.840  15.372  0.9269  0.0038  0.5188
 6076SOL     OW29860   1.855   4.232   7.856  0.1026  0.0006 -0.0801
 6076SOL    HW129861   1.885   4.322   7.855  0.7432 -0.1827  3.0999
 6076SOL    HW229862   1.804   4.233   7.937  1.5327  2.6643  0.7511
 6077SOL     OW29863   0.860   3.374  11.880 -0.2527 -0.5137 -0.2847
 6077SOL    HW129864   0.765   3.375  11.891 -0.0843  0.1195  1.1614
 6077SOL    HW229865   0.880   3.402  11.790 -0.2086 -1.6874 -0.6324
 6078SOL     OW29866   3.352   0.738   3.719  0.5806  0.3855 -0.0349
 6078SOL    HW129867   3.316   0.762   3.805  0.3771 -1.8020  0.4932
 6078SOL    HW229868   3.410   0.667   3.747 -0.5562  0.1678  1.7727
 6079SOL     OW29869   0.432   2.707   2.938  0.4531 -0.0245  0.1850
 6079SOL    HW129870   0.496   2.654   2.986  1.6227  0.7981 -0.4721
 6079SOL    HW229871   0.496   2.746   2.879  1.3296 -1.0063  0.4858
 6080SOL     OW29872   2.990   1.221   5.034 -0.1013  0.0846 -0.3578
 6080SOL    HW129873   2.932   1.297   5.030  0.6624  0.6976  0.3794
 6080SOL    HW229874   3.042   1.249   5.109  0.9948  0.6438 -1.3456
 6081SOL     OW29875   2.539   4.024  10.238  0.3633  0.1131  0.0257
 6081SOL    HW129876   2.548   3.932  10.259  0.4977 -0.2704 -1.7293
 6081SOL    HW229877   2.444   4.040  10.237  0.3929  0.3731  1.8467
 6082SOL     OW29878   1.997   2.902   6.082 -0.0069 -0.3046 -0.3661
 6082SOL    HW129879   1.937   2.828   6.094 -0.3655 -0.1124 -0.9833
 6082SOL    HW229880   2.024   2.918   6.172 -1.5673  1.1135 -0.1485
 6083SOL     OW29881   0.741   4.350   3.299 -0.0733  0.0367 -0.4839
 6083SOL    HW129882   0.648   4.348   3.278 -0.5893  0.4110  1.6666
 6083SOL    HW229883   0.723   4.359   3.393  1.9555 -0.9213  0.0189
 6084SOL     OW29884   0.316   2.555   1.362  0.3720  0.4148 -0.2954
 6084SOL    HW129885   0.294   2.647   1.371 -0.7076  0.3135 -1.8721
 6084SOL    HW229886   0.404   2.563   1.325  0.6961  0.2776  0.4564
 6085SOL     OW29887   0.903   4.194   2.703  0.3738 -0.4745 -0.0210
 6085SOL    HW129888   0.947   4.153   2.628  1.1919  0.9784 -0.3238
 6085SOL    HW229889   0.945   4.153   2.779  0.7830  2.7285  1.4634
 6086SOL     OW29890   0.060   3.152   8.011 -0.0940 -0.1470 -0.6770
 6086SOL    HW129891   4.732   3.130   8.077  2.2865 -0.8971  1.4663
 6086SOL    HW229892   0.118   3.206   8.066 -0.3490 -1.5161  0.9381
 6087SOL     OW29893   4.501   3.216  10.874 -0.0759  0.1880 -0.6375
 6087SOL    HW129894   4.516   3.147  10.810  0.2946  0.9204 -1.3492
 6087SOL    HW229895   4.542   3.184  10.954  0.4948 -0.6949 -1.2929
 6088SOL     OW29896   4.304   1.214  12.625  0.4878 -0.6776  0.4838
 6088SOL    HW129897   4.345   1.208  12.539  0.0078  0.1881  0.1948
 6088SOL    HW229898   4.320   1.307  12.641  1.3138 -1.0802  2.0893
 6089SOL     OW29899   3.494   0.489  10.393 -0.1407 -0.0849  0.1949
 6089SOL    HW129900   3.516   0.487  10.300  0.6060 -0.3580  0.3736
 6089SOL    HW229901   3.446   0.409  10.411  1.3215 -1.2728 -1.1500
 6090SOL     OW29902   3.028   1.511   5.745 -0.0588 -0.3292  0.1024
 6090SOL    HW129903   2.992   1.586   5.792  0.0617  0.0989 -0.5008
 6090SOL    HW229904   3.073   1.558   5.675 -1.3924  1.7606  0.6689
 6091SOL     OW29905   3.178   0.627   4.377  0.1711 -0.7820 -0.0192
 6091SOL    HW129906   3.188   0.617   4.472  1.1315 -1.6088 -0.2124
 6091SOL    HW229907   3.268   0.646   4.349 -0.8955  2.9754 -0.8265
 6092SOL     OW29908   2.323   4.021   8.402  0.4537  0.2596 -0.1405
 6092SOL    HW129909   2.369   3.953   8.353  0.0609  1.3445 -1.9782
 6092SOL    HW229910   2.239   4.013   8.358 -0.0297 -2.0196  1.1715
 6093SOL     OW29911   1.603   0.814   4.156 -0.2168 -0.0519 -0.1287
 6093SOL    HW129912   1.526   0.846   4.109 -1.8739 -0.0094  2.5489
 6093SOL    HW229913   1.562   0.793   4.241 -0.4050 -0.3997 -0.3070
 6094SOL     OW29914   3.492   3.783   0.706  0.1478 -0.0151  0.1145
 6094SOL    HW129915   3.562   3.840   0.738 -0.1548  0.1863  0.4235
 6094SOL    HW229916   3.509   3.794   0.613 -0.5873 -0.3558 -0.0611
 6095SOL     OW29917   4.427   1.852  17.704 -0.2114  0.4411 -0.1074
 6095SOL    HW129918   4.370   1.776  17.693  0.7065 -0.4588  1.2248
 6095SOL    HW229919   4.372   1.898   0.017  0.0233 -1.5057  1.5483
 6096SOL     OW29920   2.224   2.673   5.199  0.1240  0.1211 -0.0983
 6096SOL    HW129921   2.155   2.733   5.171  0.4035  0.1483 -0.7536
 6096SOL    HW229922   2.178   2.597   5.233 -3.3629  1.7369 -1.2244
 6097SOL     OW29923   3.955   2.221   7.631  0.7651  0.4887 -0.4428
 6097SOL    HW129924   4.028   2.213   7.569  0.2700 -0.5486 -0.8919
 6097SOL    HW229925   3.885   2.254   7.575 -1.4491 -0.0100  2.0424
 6098SOL     OW29926   3.473   3.110  12.945 -0.0562  0.5520 -0.3257
 6098SOL    HW129927   3.549   3.164  12.920  0.0772  0.9605  0.9611
 6098SOL    HW229928   3.429   3.085  12.863  1.6314 -1.9867 -0.4529
 6099SOL     OW29929   3.744   4.553   1.219  0.4659 -0.5038 -0.8205
 6099SOL    HW129930   3.825   4.548   1.268  0.1301 -1.2292 -0.3386
 6099SOL    HW229931   3.725   4.645   1.240  2.7794 -0.4848  1.1570
 6100SOL     OW29932   4.691   4.649  16.441  0.3434  0.0840  0.1438
 6100SOL    HW129933   0.026   4.706  16.415  0.4015 -0.3037 -0.5592
 6100SOL    HW229934   4.620   4.710  16.460  2.8130  3.3998 -1.1763
 6101SOL     OW29935   1.238   2.537  14.494 -0.0680  0.0096 -0.4711
 6101SOL    HW129936   1.171   2.476  14.525 -0.4115  0.3565 -0.5366
 6101SOL    HW229937   1.309   2.474  14.479  0.4476  0.0855  1.5681
 6102SOL     OW29938   0.507   2.783   1.821  0.0855 -0.2565  0.0059
 6102SOL    HW129939   0.600   2.760   1.814 -0.2204 -1.0237 -1.4407
 6102SOL    HW229940   0.462   2.699   1.822  0.1426 -0.2738  2.7130
 6103SOL     OW29941   4.297   4.733   8.989 -0.0595  0.3132  0.1259
 6103SOL    HW129942   4.233   4.673   9.028 -1.6189  0.5150 -2.1312
 6103SOL    HW229943   4.297   4.698   8.900 -0.0403  0.3812  0.0993
 6104SOL     OW29944   0.900   1.979  10.833 -0.3815 -0.3924  0.0481
 6104SOL    HW129945   0.942   1.898  10.804 -0.6872 -2.2625  4.7867
 6104SOL    HW229946   0.982   2.026  10.850 -0.3725  1.0155 -3.9012
 6105SOL     OW29947   1.699   0.691  15.528 -0.6356 -0.0273  0.0659
 6105SOL    HW129948   1.693   0.700  15.623  0.6663 -3.4435  0.4725
 6105SOL    HW229949   1.795   0.694  15.527 -0.6241 -0.5255 -0.1860
 6106SOL     OW29950   2.713   3.120   6.356 -0.0605 -0.2860  0.3622
 6106SOL    HW129951   2.690   3.102   6.447  0.0423  0.3585  0.5151
 6106SOL    HW229952   2.799   3.084   6.335 -1.0748 -2.4343 -0.1226
 6107SOL     OW29953   2.441   3.569   6.295  0.2674 -0.0274  0.0287
 6107SOL    HW129954   2.357   3.580   6.340 -0.5283 -1.1468 -1.1608
 6107SOL    HW229955   2.493   3.610   6.364 -0.3662 -0.5370  0.8148
 6108SOL     OW29956   1.375   4.629   7.780 -0.1600 -0.0158  0.5548
 6108SOL    HW129957   1.363   4.723   7.791 -1.6680  0.1568 -2.5512
 6108SOL    HW229958   1.395   4.615   7.687  0.9514  0.3153  0.7459
 6109SOL     OW29959   0.970   0.167   5.824 -0.1799 -0.0002  0.4421
 6109SOL    HW129960   0.972   0.145   5.730  0.8134  2.4630 -0.1092
 6109SOL    HW229961   0.878   0.155   5.846 -0.5775  0.6098 -0.8796
 6110SOL     OW29962   3.873   1.482   4.273  0.1812 -0.2730 -0.5021
 6110SOL    HW129963   3.840   1.403   4.229  1.4083 -0.3238 -1.3239
 6110SOL    HW229964   3.834   1.552   4.222 -2.3798 -2.4216 -1.5039
 6111SOL     OW29965   4.597   0.287   3.131  0.1632 -0.3212 -0.3104
 6111SOL    HW129966   4.578   0.237   3.210 -0.4602  1.7456  0.8309
 6111SOL    HW229967   4.517   0.263   3.085 -0.5644  0.7389  0.4147
 6112SOL     OW29968   0.271   4.394  13.227 -0.2222 -0.1835  0.0681
 6112SOL    HW129969   0.179   4.375  13.247 -0.6377  2.0190  0.2579
 6112SOL    HW229970   0.308   4.404  13.314  0.6897 -0.1717 -0.3263
 6113SOL     OW29971   0.573   0.430   1.460 -0.6457  1.1618  0.2355
 6113SOL    HW129972   0.536   0.357   1.410 -0.7926  0.2828  1.6067
 6113SOL    HW229973   0.517   0.498   1.424  0.9068  2.7284  0.8116
 6114SOL     OW29974   3.810   1.733   5.406  0.3717  0.7484  0.1191
 6114SOL    HW129975   3.794   1.639   5.407 -0.2156  0.8591  1.3349
 6114SOL    HW229976   3.846   1.756   5.321 -2.0517 -0.7530 -1.3179
 6115SOL     OW29977   4.238   1.113   5.999 -0.2571  0.1892 -0.0839
 6115SOL    HW129978   4.236   1.139   5.907 -0.0107 -0.2638 -0.2147
 6115SOL    HW229979   4.169   1.047   5.992  0.5822 -0.6823 -0.1285
 6116SOL     OW29980   4.150   0.225   7.234 -0.1035  0.3282  0.0007
 6116SOL    HW129981   4.178   0.196   7.148 -3.3744 -0.6821 -0.7154
 6116SOL    HW229982   4.081   0.286   7.209  0.1084  0.7988  0.5537
 6117SOL     OW29983   1.432   1.325   8.257 -0.1114  0.1746 -0.3416
 6117SOL    HW129984   1.361   1.287   8.310 -0.6063  0.2579 -0.9452
 6117SOL    HW229985   1.369   1.360   8.194  1.5420  0.6361 -1.7043
 6118SOL     OW29986   1.815   1.698   9.026 -0.3581  0.1614 -0.9523
 6118SOL    HW129987   1.899   1.699   9.071 -0.6434  1.6755 -0.4357
 6118SOL    HW229988   1.769   1.763   9.080 -0.6752 -0.9937  0.1787
 6119SOL     OW29989   3.205   2.836   2.253 -0.2734 -0.0380  0.1138
 6119SOL    HW129990   3.184   2.892   2.179  0.5825  0.0345 -0.0719
 6119SOL    HW229991   3.114   2.829   2.281 -0.3906  1.2250  0.0376
 6120SOL     OW29992   0.800   0.634   1.029 -0.2018 -0.0892 -0.0905
 6120SOL    HW129993   0.846   0.649   1.112  1.7177 -1.6085 -0.8718
 6120SOL    HW229994   0.844   0.697   0.972  0.0146  1.1242  1.4232
 6121SOL     OW29995   1.351   4.672   2.533  0.4009 -0.1763 -0.2337
 6121SOL    HW129996   1.325   0.018   2.571 -1.0550  0.1483 -1.9260
 6121SOL    HW229997   1.301   4.618   2.594 -0.5558  3.6818  2.3786
 6122SOL     OW29998   1.942   4.269   5.985  0.1721 -0.3386 -0.5544
 6122SOL    HW129999   1.977   4.287   5.898 -0.0187 -1.0151 -0.7736
 6122SOL    HW230000   1.939   4.355   6.027  0.3755 -1.4182  1.7118
 6123SOL     OW30001   4.102   2.481   7.909 -0.3845  0.1335 -0.2212
 6123SOL    HW130002   4.122   2.572   7.931 -1.6694  0.4010 -0.1473
 6123SOL    HW230003   4.059   2.501   7.826  2.1038 -4.2967 -2.5684
 6124SOL     OW30004   3.691   3.856   7.539 -0.3545  0.6908 -0.2215
 6124SOL    HW130005   3.643   3.792   7.592 -1.3255  2.8427  1.5269
 6124SOL    HW230006   3.770   3.851   7.593 -0.1347  2.4756 -0.3824
 6125SOL     OW30007   1.726   1.196   3.696  0.0897  0.1870 -0.2700
 6125SOL    HW130008   1.789   1.266   3.717  0.1645  0.3859 -1.1705
 6125SOL    HW230009   1.656   1.259   3.679 -0.6421 -0.5061  0.1849
 6126SOL     OW30010   3.544   1.498   9.337  0.0126 -0.1283  0.4155
 6126SOL    HW130011   3.558   1.526   9.428 -1.9752 -0.1069  0.7139
 6126SOL    HW230012   3.605   1.541   9.277  1.0833 -0.5739  1.1826
 6127SOL     OW30013   2.475   2.541   3.331 -0.1316 -0.5736  0.3170
 6127SOL    HW130014   2.431   2.624   3.317  0.9771  0.0585  0.5935
 6127SOL    HW230015   2.547   2.552   3.268 -1.5824 -0.8940 -1.4053
 6128SOL     OW30016   0.101   0.051   7.125 -0.5400 -0.3751 -0.6448
 6128SOL    HW130017   0.085   0.025   7.216 -0.5617 -1.2907 -0.9153
 6128SOL    HW230018   0.158   0.126   7.142 -0.6352 -1.0205  2.4736
 6129SOL     OW30019   4.595   2.054   6.041  0.0258  0.1248  0.7887
 6129SOL    HW130020   4.573   2.046   5.949 -1.5009  1.2706  1.0562
 6129SOL    HW230021   4.657   1.982   6.050  2.4545  2.0734 -0.2195
 6130SOL     OW30022   2.329   2.091   5.517 -0.3527  0.4640  0.3210
 6130SOL    HW130023   2.360   2.047   5.438 -1.7673 -0.9602  0.5727
 6130SOL    HW230024   2.331   2.017   5.577  0.8314 -0.0409 -0.3525
 6131SOL     OW30025   1.386   4.370  14.466 -0.0584  0.1299  0.2019
 6131SOL    HW130026   1.338   4.453  14.473  0.8381  0.5414  1.4083
 6131SOL    HW230027   1.429   4.395  14.384 -1.6474 -0.2764 -0.7712
 6132SOL     OW30028   3.802   1.948   9.417  0.2304  0.5663 -0.3032
 6132SOL    HW130029   3.878   1.930   9.361  0.7451 -2.3216  1.3353
 6132SOL    HW230030   3.778   1.861   9.449 -1.5280  1.2489  0.2329
 6133SOL     OW30031   1.357   3.266   6.432 -0.2875  0.6202 -0.0295
 6133SOL    HW130032   1.409   3.341   6.402  0.6901 -0.0332  0.0408
 6133SOL    HW230033   1.362   3.280   6.526 -0.0601 -0.6334  0.1465
 6134SOL     OW30034   1.770   4.193   3.778 -0.7371 -0.8678 -0.3219
 6134SOL    HW130035   1.726   4.125   3.830 -0.6532  0.5640  1.5930
 6134SOL    HW230036   1.707   4.264   3.774  0.0308 -0.0406  2.8198
 6135SOL     OW30037   0.177   3.066   7.349  0.3015 -0.2861  0.5605
 6135SOL    HW130038   0.202   2.978   7.376  1.3314 -0.1964 -0.1083
 6135SOL    HW230039   0.181   3.049   7.255  0.0791  1.5505  0.2048
 6136SOL     OW30040   3.087   3.015   6.708  0.4420  0.2796 -0.0329
 6136SOL    HW130041   3.149   2.992   6.777  0.0157  2.1898  0.9753
 6136SOL    HW230042   3.132   3.074   6.649  1.3910 -1.5639 -1.1598
 6137SOL     OW30043   2.927   2.968   6.499 -0.5611  0.4129 -0.0857
 6137SOL    HW130044   2.970   2.987   6.582 -1.1621  1.7463 -0.0750
 6137SOL    HW230045   2.919   2.874   6.513 -1.9786  0.3337 -1.3835
 6138SOL     OW30046   0.747   4.353   2.267  0.2746  0.1624  0.0886
 6138SOL    HW130047   0.768   4.353   2.361 -2.2651 -0.2684  0.6536
 6138SOL    HW230048   0.696   4.273   2.259 -0.4676  0.6705 -0.2900
 6139SOL     OW30049   1.765   3.461   4.096 -0.3093  0.0992 -0.0748
 6139SOL    HW130050   1.733   3.459   4.006 -1.3550 -0.3528  0.3077
 6139SOL    HW230051   1.753   3.553   4.118  2.8355 -0.0315  2.1397
 6140SOL     OW30052   1.249   3.779   9.605 -0.0717  0.0580 -0.2009
 6140SOL    HW130053   1.224   3.695   9.643 -1.8815  0.5837 -0.1831
 6140SOL    HW230054   1.314   3.759   9.538 -0.0879 -1.5522  0.2701
 6141SOL     OW30055   1.008   0.265   2.118  0.0385 -0.1756  0.1612
 6141SOL    HW130056   0.998   0.332   2.051 -1.0149  0.1808  0.6917
 6141SOL    HW230057   1.007   0.184   2.067 -0.3026 -0.6524  0.9244
 6142SOL     OW30058   4.242   0.158   5.044 -0.1117  0.0936  0.0429
 6142SOL    HW130059   4.313   0.095   5.032 -1.2943 -1.0833 -0.8042
 6142SOL    HW230060   4.203   0.137   5.129 -1.4893 -0.9615 -0.8608
 6143SOL     OW30061   1.427   3.979  10.328  0.8657  0.0151  0.0576
 6143SOL    HW130062   1.482   4.048  10.367 -0.9096  1.3262  0.2155
 6143SOL    HW230063   1.468   3.963  10.243 -1.8699  3.9331 -1.9694
 6144SOL     OW30064   3.579   2.108   2.485  0.0851  0.2266 -0.0100
 6144SOL    HW130065   3.496   2.092   2.529 -0.6048  2.1695 -0.5923
 6144SOL    HW230066   3.630   2.140   2.560 -1.7515 -0.6787  1.6115
 6145SOL     OW30067   3.165   3.801   2.194  0.2570  0.4931 -0.4779
 6145SOL    HW130068   3.122   3.756   2.122 -2.0056  0.0043  1.1694
 6145SOL    HW230069   3.231   3.851   2.146  2.2649 -0.8571  0.8297
 6146SOL     OW30070   0.117   2.778   7.985 -0.3834 -0.1567  0.0421
 6146SOL    HW130071   0.159   2.828   8.055  1.0277  1.0033 -1.6302
 6146SOL    HW230072   0.055   2.725   8.035 -0.5905  0.1000  0.0595
 6147SOL     OW30073   4.516   1.483  12.060  0.6477 -0.2102  0.5540
 6147SOL    HW130074   4.548   1.395  12.041  1.9116  0.5809 -0.9680
 6147SOL    HW230075   4.498   1.481  12.154  0.4362  1.6132  0.5500
 6148SOL     OW30076   0.671   1.873   7.307  0.2088 -0.7427  0.2161
 6148SOL    HW130077   0.763   1.897   7.315  0.2962 -1.4959  1.5052
 6148SOL    HW230078   0.682   1.787   7.267  1.2130 -0.8001  0.6193
 6149SOL     OW30079   2.308   3.890   1.856 -0.4390 -0.1087  0.5900
 6149SOL    HW130080   2.236   3.915   1.799 -0.7794  1.3086  1.6370
 6149SOL    HW230081   2.283   3.804   1.891 -2.4763 -0.0431 -0.7240
 6150SOL     OW30082   4.623   1.129   4.805  0.4384  0.1625  0.6066
 6150SOL    HW130083   4.682   1.158   4.736  2.9821  0.6758  3.0053
 6150SOL    HW230084   4.660   1.047   4.839  1.9595  0.9843  0.9158
 6151SOL     OW30085   0.468   0.248   8.804  0.6189 -0.0484 -0.4204
 6151SOL    HW130086   0.387   0.256   8.855 -0.4591 -0.4798 -2.0957
 6151SOL    HW230087   0.430   0.226   8.719  0.0437  1.6516 -0.6092
 6152SOL     OW30088   4.439   1.825   4.803 -0.7340  0.4059 -0.5686
 6152SOL    HW130089   4.473   1.759   4.743  2.4964  2.8275 -1.3955
 6152SOL    HW230090   4.436   1.774   4.884  0.1843  1.7149  0.2820
 6153SOL     OW30091   0.125   0.578   6.621 -0.1672  0.4270  0.4506
 6153SOL    HW130092   0.094   0.643   6.684  0.3701  1.9439 -0.8563
 6153SOL    HW230093   0.066   0.597   6.548 -0.8733  0.8033  1.1301
 6154SOL     OW30094   3.180   4.302   2.166  0.2526 -0.1912  0.3199
 6154SOL    HW130095   3.160   4.271   2.254  1.4647  2.5225  1.5600
 6154SOL    HW230096   3.255   4.249   2.140  1.3384  1.1801  0.6223
 6155SOL     OW30097   3.434   0.404   2.387 -0.3825  0.3903  0.0974
 6155SOL    HW130098   3.503   0.470   2.395 -1.4502  1.4933  0.2525
 6155SOL    HW230099   3.460   0.346   2.459 -0.0253 -2.0600 -2.0086
 6156SOL     OW30100   0.394   4.548   8.732 -0.6317  0.2384 -0.3819
 6156SOL    HW130101   0.316   4.505   8.766  1.7163 -2.6580  1.3296
 6156SOL    HW230102   0.388   4.631   8.779  1.4127 -0.0533  0.4290
 6157SOL     OW30103   4.457   3.904   8.407 -0.1794 -0.1759  0.9713
 6157SOL    HW130104   4.438   3.958   8.484  2.7453  1.2640  0.6680
 6157SOL    HW230105   4.547   3.880   8.427  0.0413  0.0168  0.2103
 6158SOL     OW30106   1.869   1.414   2.790  0.2162  0.2029  0.3307
 6158SOL    HW130107   1.910   1.329   2.807 -1.4201 -0.5260  0.6289
 6158SOL    HW230108   1.905   1.430   2.703  0.5551 -0.6141  0.3140
 6159SOL     OW30109   1.324   0.780  11.712  0.5337 -0.0187 -0.1406
 6159SOL    HW130110   1.327   0.760  11.806 -0.2250 -1.1007 -0.3397
 6159SOL    HW230111   1.412   0.817  11.709  0.6427 -0.4655 -1.9380
 6160SOL     OW30112   2.084   3.517   8.451 -0.1753  0.6345  0.0666
 6160SOL    HW130113   2.151   3.500   8.517 -0.6791 -0.0884  0.3951
 6160SOL    HW230114   2.030   3.437   8.454  0.3266  0.2568 -1.0542
 6161SOL     OW30115   3.940   1.254   1.857  0.1270  0.2114 -0.0255
 6161SOL    HW130116   3.907   1.203   1.783  1.0741 -0.1270 -0.2137
 6161SOL    HW230117   4.029   1.220   1.856 -0.2907 -0.8638 -0.1379
 6162SOL     OW30118   3.156   2.617   8.449 -0.4089  0.4365  0.3984
 6162SOL    HW130119   3.219   2.612   8.521  0.4214  0.9774 -0.2838
 6162SOL    HW230120   3.069   2.593   8.482 -0.3281 -0.3094  0.0531
 6163SOL     OW30121   0.509   4.384   5.516 -0.6877 -0.4550  0.3181
 6163SOL    HW130122   0.544   4.457   5.567  2.6506 -1.5418 -0.4650
 6163SOL    HW230123   0.441   4.355   5.578 -0.3898 -0.0176  0.8524
 6164SOL     OW30124   0.383   0.228   6.721  0.5218  0.0029 -0.2686
 6164SOL    HW130125   0.292   0.236   6.752  0.7970 -0.6340  0.6840
 6164SOL    HW230126   0.385   0.293   6.651 -2.2392 -0.7949 -1.1181
 6165SOL     OW30127   0.466   1.589   9.123 -0.0733 -0.4016  0.3034
 6165SOL    HW130128   0.393   1.544   9.081  2.0142 -3.7194  0.1642
 6165SOL    HW230129   0.427   1.610   9.208 -1.9945  1.9135 -1.1519
 6166SOL     OW30130   3.615   2.856  15.177 -0.1905  0.1141  0.5287
 6166SOL    HW130131   3.595   2.866  15.270  1.1176  0.8735  0.7370
 6166SOL    HW230132   3.542   2.900  15.133  1.5817  2.0327 -0.5056
 6167SOL     OW30133   0.061   3.536   2.309  0.4888  0.1664  0.4749
 6167SOL    HW130134   0.066   3.470   2.379  1.2298 -1.8357 -1.4419
 6167SOL    HW230135   0.089   3.485   2.232 -2.0857 -2.0508  0.9858
 6168SOL     OW30136   3.777   4.414   3.281  0.0716  0.9003  0.4940
 6168SOL    HW130137   3.799   4.469   3.206 -1.2752  0.9421  0.1371
 6168SOL    HW230138   3.712   4.465   3.329 -2.1296  1.6163 -3.2651
 6169SOL     OW30139   0.999   1.666   5.196  0.3141 -0.1903  0.1991
 6169SOL    HW130140   1.032   1.690   5.110  0.7789  0.2931  0.5111
 6169SOL    HW230141   1.084   1.648   5.237  0.9135  1.9143 -0.1038
 6170SOL     OW30142   1.471   2.927  16.179  0.2947 -0.2609  0.0665
 6170SOL    HW130143   1.427   3.012  16.173  1.0779  0.0374 -1.6055
 6170SOL    HW230144   1.429   2.880  16.107  0.9118 -1.9424  0.8222
 6171SOL     OW30145   0.206   4.424   0.005  0.2819 -0.2535  0.2759
 6171SOL    HW130146   0.267   4.360  17.717  1.5143  1.6082 -0.9213
 6171SOL    HW230147   0.257   4.500  17.725 -0.2217 -0.1646 -0.3617
 6172SOL     OW30148   1.386   2.316   8.115  0.0967  0.2534  0.1772
 6172SOL    HW130149   1.318   2.325   8.181 -0.0462  1.7583 -0.1638
 6172SOL    HW230150   1.360   2.236   8.069  1.0756  0.5977 -0.9845
 6173SOL     OW30151   2.011   0.951  13.502  0.1916 -0.1725  0.4456
 6173SOL    HW130152   2.051   0.975  13.418 -1.0596 -0.5344 -0.2423
 6173SOL    HW230153   1.964   0.868  13.490 -0.6477  0.1024  1.8809
 6174SOL     OW30154   2.427   2.380   8.920 -0.2703  0.2300  0.5655
 6174SOL    HW130155   2.338   2.380   8.955 -0.3281 -0.2849  0.4276
 6174SOL    HW230156   2.479   2.380   9.000  3.3391  0.1513 -1.7989
 6175SOL     OW30157   3.861   1.402   7.181  0.4728  0.0139 -0.2266
 6175SOL    HW130158   3.892   1.429   7.267  0.2375 -1.4424  0.3171
 6175SOL    HW230159   3.883   1.309   7.176  3.1708  0.6753 -0.7077
 6176SOL     OW30160   4.117   3.494   8.695  0.1126  0.6925 -0.0652
 6176SOL    HW130161   4.200   3.455   8.723  1.1737  2.0582 -1.2974
 6176SOL    HW230162   4.140   3.585   8.713  0.6203  0.5460  0.0107
 6177SOL     OW30163   4.599   1.231   6.776  0.1722 -0.3197 -0.3474
 6177SOL    HW130164   4.657   1.157   6.760  1.3805 -0.0419  2.8473
 6177SOL    HW230165   4.528   1.181   6.817 -0.1396 -0.3664 -0.9468
 6178SOL     OW30166   3.404   0.183   3.286  0.1364 -0.0514 -0.4560
 6178SOL    HW130167   3.337   0.238   3.325 -0.0598 -0.1146 -0.7039
 6178SOL    HW230168   3.421   0.106   3.342 -1.7383 -0.6425 -0.6953
 6179SOL     OW30169   1.767   0.396   1.713  1.0489  1.1479  0.2554
 6179SOL    HW130170   1.724   0.336   1.774  2.1729  0.0082 -0.0738
 6179SOL    HW230171   1.855   0.360   1.712  0.5211 -0.1288 -1.0716
 6180SOL     OW30172   3.304   2.417   7.535 -0.7581 -0.4815  0.5079
 6180SOL    HW130173   3.211   2.420   7.555 -0.5060  1.3120  1.3977
 6180SOL    HW230174   3.285   2.382   7.448  1.4851 -0.2051 -0.1018
 6181SOL     OW30175   1.539   1.976   2.898 -0.0164 -0.1700 -0.4877
 6181SOL    HW130176   1.560   1.919   2.824 -0.8288  0.0547 -0.8997
 6181SOL    HW230177   1.455   1.937   2.923  0.1036 -1.6492 -2.4125
 6182SOL     OW30178   4.054   4.007  11.009  0.4306 -0.0347  0.6124
 6182SOL    HW130179   4.098   4.073  11.063  2.6166 -0.5938 -0.5246
 6182SOL    HW230180   4.017   3.955  11.080  1.6069 -0.9640  0.5372
 6183SOL     OW30181   1.848   4.557  11.367  0.6177 -0.0812 -0.6238
 6183SOL    HW130182   1.777   4.583  11.308  0.0148  0.5456  0.3809
 6183SOL    HW230183   1.890   4.642  11.379  1.2541 -0.0120 -3.2947
 6184SOL     OW30184   3.670   1.060  17.245 -0.3530  0.1009  0.4610
 6184SOL    HW130185   3.644   0.971  17.224 -1.3552 -0.0231  2.2909
 6184SOL    HW230186   3.608   1.123  17.207 -1.0274  0.0627  1.5062
 6185SOL     OW30187   2.884   2.401   2.137  0.6558 -0.2339 -0.2496
 6185SOL    HW130188   2.937   2.402   2.217  2.0211 -0.5701 -1.1343
 6185SOL    HW230189   2.944   2.450   2.080 -0.8817  2.7429  0.6715
 6186SOL     OW30190   1.468   1.790   7.032 -0.1720 -0.2431 -0.0380
 6186SOL    HW130191   1.532   1.823   7.095 -0.2745 -0.5976  0.2550
 6186SOL    HW230192   1.510   1.706   7.013 -3.6521 -1.4416 -2.4127
 6187SOL     OW30193   2.849   1.065   3.099  0.3702  0.1945  0.3245
 6187SOL    HW130194   2.941   1.050   3.077 -0.0849 -2.9021  0.5802
 6187SOL    HW230195   2.813   0.980   3.125  0.6728 -0.2072 -0.5716
 6188SOL     OW30196   3.620   1.292   6.427  0.3174 -0.0150 -0.3212
 6188SOL    HW130197   3.641   1.369   6.478  0.4131  0.8756 -1.6980
 6188SOL    HW230198   3.673   1.225   6.470  1.3985  1.8803  1.2694
 6189SOL     OW30199   0.116   1.145   4.336  0.1712 -0.3081 -0.3592
 6189SOL    HW130200   0.208   1.150   4.312  0.0036  4.7978  0.1531
 6189SOL    HW230201   0.088   1.228   4.298  1.7226 -0.1699 -1.1867
 6190SOL     OW30202   1.985   4.552  17.511 -0.2001 -0.2276 -0.8324
 6190SOL    HW130203   1.986   4.457  17.500 -0.6300 -0.3182 -0.0629
 6190SOL    HW230204   1.945   4.553  17.598 -1.8929 -0.2417 -1.6167
 6191SOL     OW30205   3.607   4.681   8.897 -0.2208 -0.9443 -0.1581
 6191SOL    HW130206   3.682   4.623   8.882 -0.3211 -1.1507  0.1395
 6191SOL    HW230207   3.573   4.657   8.983  0.1417  0.2457  0.3160
 6192SOL     OW30208   3.952   2.396  17.578  0.1730 -0.3930  0.3344
 6192SOL    HW130209   3.933   2.444  17.658 -1.7595  0.5550 -0.7059
 6192SOL    HW230210   4.038   2.434  17.558 -0.7797  1.9590  0.7306
 6193SOL     OW30211   0.858   1.317   1.195  0.1369 -0.3375  0.0536
 6193SOL    HW130212   0.839   1.258   1.122 -0.8918  1.1298 -0.8630
 6193SOL    HW230213   0.796   1.290   1.262 -1.2168 -0.9811 -1.4616
 6194SOL     OW30214   4.640   2.210   5.770  0.6526 -0.2028 -0.3560
 6194SOL    HW130215   4.559   2.159   5.761  1.5599 -1.9282  1.2628
 6194SOL    HW230216   4.677   2.205   5.681 -0.0762  2.0486 -0.7830
 6195SOL     OW30217   3.119   0.510   7.602  0.1521 -0.6369  0.0625
 6195SOL    HW130218   3.210   0.499   7.629 -0.5354  1.2673  3.1208
 6195SOL    HW230219   3.109   0.605   7.606  0.0764 -0.6183 -0.5544
 6196SOL     OW30220   4.118   4.170   7.753  0.5981  0.5806  0.8216
 6196SOL    HW130221   4.111   4.131   7.841  2.1044  0.5022  0.8923
 6196SOL    HW230222   4.139   4.261   7.770  2.4583  0.3776 -0.5160
 6197SOL     OW30223   0.536   0.654   5.007  0.1968 -0.4786 -0.7194
 6197SOL    HW130224   0.503   0.728   4.955  0.3651 -0.1844 -0.4132
 6197SOL    HW230225   0.629   0.666   4.989  0.1194 -1.6551 -1.8033
 6198SOL     OW30226   0.537   0.171   3.735 -0.4075  0.2070 -0.2762
 6198SOL    HW130227   0.442   0.165   3.725 -0.4528  0.2917  0.0950
 6198SOL    HW230228   0.557   0.258   3.701  0.2136 -0.4383 -1.5580
 6199SOL     OW30229   0.853   2.659  13.665 -0.3444 -0.1731  0.5773
 6199SOL    HW130230   0.928   2.603  13.645 -0.4686 -0.6425  1.4026
 6199SOL    HW230231   0.897   2.737  13.699  2.5219 -1.0377 -1.1372
 6200SOL     OW30232   4.313   3.464  16.867 -0.7641 -0.1404 -0.3771
 6200SOL    HW130233   4.378   3.534  16.856 -2.2021  1.5444  1.7475
 6200SOL    HW230234   4.242   3.504  16.917 -0.8862 -0.8981  0.0578
 6201SOL     OW30235   1.091   0.859   4.504 -0.1977  0.1118  0.0234
 6201SOL    HW130236   1.115   0.850   4.596 -0.9471  2.5901  0.4498
 6201SOL    HW230237   1.106   0.770   4.471 -0.6737 -0.9243  2.5793
 6202SOL     OW30238   3.068   4.645   7.766 -0.3669 -0.0702  0.6522
 6202SOL    HW130239   2.990   4.671   7.718 -0.3755  0.3586  0.9046
 6202SOL    HW230240   3.108   4.565   7.731 -1.5080  0.3145 -1.4738
 6203SOL     OW30241   3.195   3.781   8.941 -0.5319  0.3300  0.0943
 6203SOL    HW130242   3.223   3.784   9.032  0.6646  0.4016 -0.2747
 6203SOL    HW230243   3.101   3.795   8.947 -0.5600 -0.8093  2.2615
 6204SOL     OW30244   3.012   0.283   6.779  0.4624  0.4407  0.0961
 6204SOL    HW130245   2.946   0.215   6.768  1.6057 -0.5061 -0.8510
 6204SOL    HW230246   2.954   0.360   6.784  0.5139  0.5164 -0.4177
 6205SOL     OW30247   1.029   4.522   7.486  0.8694 -0.1252  0.4031
 6205SOL    HW130248   1.100   4.495   7.428 -0.0076 -0.9583 -0.2852
 6205SOL    HW230249   1.051   4.491   7.573 -0.5731  0.6908  1.0643
 6206SOL     OW30250   2.266   1.700   2.668  0.0184  0.8815  0.0742
 6206SOL    HW130251   2.251   1.617   2.624 -0.2714  0.5861  0.7289
 6206SOL    HW230252   2.258   1.748   2.586 -2.0811  0.5963  0.1295
 6207SOL     OW30253   1.396   1.783   2.123  0.0793  0.2514  0.4218
 6207SOL    HW130254   1.358   1.848   2.064  2.9806  2.9408  1.5010
 6207SOL    HW230255   1.401   1.708   2.064 -1.4879  1.8003 -1.6633
 6208SOL     OW30256   0.901   2.482   4.672  0.1712 -0.4408  0.0723
 6208SOL    HW130257   0.822   2.469   4.621  1.0441 -1.6621 -0.9686
 6208SOL    HW230258   0.905   2.404   4.728 -1.5885 -0.6941 -0.1710
 6209SOL     OW30259   0.576   0.406   5.939 -0.3411  0.8737 -0.4562
 6209SOL    HW130260   0.530   0.418   5.856  0.0194  0.2714 -0.7473
 6209SOL    HW230261   0.664   0.440   5.920  0.4723 -0.7104  0.4297
 6210SOL     OW30262   3.766   4.455   8.836 -0.1120 -0.1832 -1.0572
 6210SOL    HW130263   3.860   4.447   8.822  0.0083  1.0344 -1.0191
 6210SOL    HW230264   3.750   4.366   8.867 -0.0616  0.7352  1.6386
 6211SOL     OW30265   0.768   4.647  12.249 -0.6189 -0.5469  0.1662
 6211SOL    HW130266   0.855   4.612  12.269 -0.5699 -0.5134  0.0078
 6211SOL    HW230267   0.724   4.583  12.304  0.0209 -1.3587 -0.2707
 6212SOL     OW30268   2.975   4.509   2.406  0.0486 -0.4890  0.1324
 6212SOL    HW130269   3.015   4.539   2.325  0.7704 -2.0383 -0.0893
 6212SOL    HW230270   2.927   4.427   2.389  0.4276 -1.0726  1.8401
 6213SOL     OW30271   3.246   3.063  16.893  0.4977  0.3685  0.3412
 6213SOL    HW130272   3.326   3.100  16.856  1.6812 -2.4999  0.0278
 6213SOL    HW230273   3.285   3.028  16.974  0.4625  0.5771  0.4482
 6214SOL     OW30274   3.456   1.549  11.633  0.3843 -0.8149 -0.2121
 6214SOL    HW130275   3.387   1.495  11.596 -0.5316 -0.2829  0.7272
 6214SOL    HW230276   3.431   1.637  11.605  1.7971 -0.2489  0.2775
 6215SOL     OW30277   1.988   1.399   0.033  0.1210  0.1734 -0.0439
 6215SOL    HW130278   2.037   1.465   0.083  0.1374 -0.2331  0.4838
 6215SOL    HW230279   2.052   1.341  17.743  2.3637  1.1824  2.0323
 6216SOL     OW30280   4.328   1.484   4.859  0.0681  0.2521  0.1928
 6216SOL    HW130281   4.268   1.471   4.786 -1.0039  0.5946  1.0070
 6216SOL    HW230282   4.400   1.527   4.812  0.4647 -0.3277  0.2605
 6217SOL     OW30283   3.488   0.649   6.635  0.3971  0.5792 -0.3166
 6217SOL    HW130284   3.491   0.619   6.544  2.6302  1.8615 -0.6650
 6217SOL    HW230285   3.467   0.570   6.685 -2.2115  1.3822 -0.1226
 6218SOL     OW30286   4.193   2.432   8.294  0.1474 -0.4859 -0.1265
 6218SOL    HW130287   4.124   2.490   8.328 -0.5961 -1.7075  0.4399
 6218SOL    HW230288   4.239   2.483   8.228 -1.6208  2.0761  0.5912
 6219SOL     OW30289   0.210   2.111  15.698 -0.0833 -0.1687 -0.1346
 6219SOL    HW130290   0.246   2.192  15.664 -0.4793 -0.4440 -1.2029
 6219SOL    HW230291   0.124   2.109  15.655  0.4391 -1.9134 -1.0904
 6220SOL     OW30292   2.673   1.042  12.429  0.1988 -0.0865 -0.1901
 6220SOL    HW130293   2.682   0.950  12.454  2.0122 -0.0155 -0.5808
 6220SOL    HW230294   2.642   1.023  12.340  1.8618 -1.1425 -0.5297
 6221SOL     OW30295   4.035   0.897   4.152  0.2491  0.0363  0.5132
 6221SOL    HW130296   4.049   0.991   4.163  0.6793 -0.0474  0.6651
 6221SOL    HW230297   4.124   0.866   4.136  0.6483  1.0637  0.7689
 6222SOL     OW30298   3.780   1.661   2.891 -0.4137  0.0427 -0.0353
 6222SOL    HW130299   3.755   1.744   2.851 -0.3436  0.1100  0.0589
 6222SOL    HW230300   3.828   1.685   2.971 -0.8149  0.6730  0.0178
 6223SOL     OW30301   0.235   0.014  12.592 -0.1406  0.2038 -0.2150
 6223SOL    HW130302   0.275   0.024  12.679  0.0994  2.9774 -0.6448
 6223SOL    HW230303   0.315   0.022  12.541  1.6271  0.3449  2.5346
 6224SOL     OW30304   2.752   1.159   3.535 -0.3642 -0.6505  0.1860
 6224SOL    HW130305   2.686   1.130   3.472 -0.5738  0.5963 -0.1798
 6224SOL    HW230306   2.753   1.085   3.596 -2.5457 -0.5182  0.3649
 6225SOL     OW30307   0.627   0.158  12.253  0.5779  0.0761 -0.7038
 6225SOL    HW130308   0.631   0.064  12.270  0.5505 -0.0297 -1.2890
 6225SOL    HW230309   0.706   0.191  12.294 -0.1250 -0.6793  1.2381
 6226SOL     OW30310   3.819   4.692   7.193 -0.5460 -0.6318 -0.1747
 6226SOL    HW130311   3.731   4.728   7.183 -0.7559 -0.8718  0.8184
 6226SOL    HW230312   3.860   0.009   7.259 -2.2790  0.2414  0.1740
 6227SOL     OW30313   0.676   2.777   7.678 -0.7323  0.6699 -0.2097
 6227SOL    HW130314   0.686   2.684   7.659  1.2353  0.6250  0.9858
 6227SOL    HW230315   0.612   2.776   7.749 -0.7533  0.3735 -0.2332
 6228SOL     OW30316   0.085   1.640  12.000  0.0005 -1.1140  0.0655
 6228SOL    HW130317   0.046   1.694  12.068 -1.7387 -0.7503 -1.2264
 6228SOL    HW230318   0.097   1.702  11.928 -2.4233 -0.1305  0.5175
 6229SOL     OW30319   2.022   1.572   6.915 -0.2478 -0.1300 -0.3054
 6229SOL    HW130320   2.089   1.553   6.980 -0.6888  1.1949  0.5388
 6229SOL    HW230321   2.087   1.584   6.845 -1.5432 -0.1197 -1.4883
 6230SOL     OW30322   4.132   4.569  15.718 -0.3453  0.2032  0.6164
 6230SOL    HW130323   4.188   4.643  15.741 -1.7940  1.1658  1.0795
 6230SOL    HW230324   4.194   4.501  15.696 -0.2385  0.2589  0.7457
 6231SOL     OW30325   0.602   3.335  17.542 -0.7464 -0.3600  0.4178
 6231SOL    HW130326   0.509   3.339  17.522 -1.3511 -1.4653  3.0661
 6231SOL    HW230327   0.605   3.287  17.625 -1.0843 -1.9327 -0.4774
 6232SOL     OW30328   0.354   1.894  12.593 -0.1733  0.1317  0.0986
 6232SOL    HW130329   0.383   1.848  12.671 -0.8913 -3.2171 -1.6139
 6232SOL    HW230330   0.259   1.880  12.597 -0.3989  1.3246 -1.1441
 6233SOL     OW30331   3.326   1.772  15.699 -0.0928  0.3104  0.3946
 6233SOL    HW130332   3.249   1.819  15.729  0.5952 -0.0358  2.6850
 6233SOL    HW230333   3.335   1.813  15.613  0.5149 -1.0108 -0.1795
 6234SOL     OW30334   0.366   1.188   4.623  0.6650  1.1339  0.2231
 6234SOL    HW130335   0.400   1.105   4.656 -1.2863  0.6127  0.9686
 6234SOL    HW230336   0.368   1.240   4.704  0.2385  0.9394  0.3612
 6235SOL     OW30337   3.670   2.153   1.368  0.0607  0.4847  0.2492
 6235SOL    HW130338   3.665   2.231   1.423  0.4141  0.1901  0.6990
 6235SOL    HW230339   3.677   2.086   1.436 -0.0472  2.4648  2.2287
 6236SOL     OW30340   0.937   3.824  12.771 -0.8164 -0.2192 -0.3832
 6236SOL    HW130341   1.012   3.843  12.827  0.1605 -1.3928 -1.2893
 6236SOL    HW230342   0.911   3.737  12.802 -0.3536  0.7016  2.5587
 6237SOL     OW30343   2.672   1.740  12.597 -0.2519  0.4027 -0.7229
 6237SOL    HW130344   2.667   1.646  12.617 -0.7576  0.8283  1.1743
 6237SOL    HW230345   2.592   1.765  12.644  0.3175 -0.9357  0.9650
 6238SOL     OW30346   2.666   0.733   5.019 -0.4898 -0.1082  0.2733
 6238SOL    HW130347   2.588   0.700   4.975 -0.3937  1.8803 -1.4101
 6238SOL    HW230348   2.737   0.722   4.956 -1.0717 -1.5756 -0.1216
 6239SOL     OW30349   0.636   2.273   2.528  0.4143 -0.4166 -0.0857
 6239SOL    HW130350   0.597   2.253   2.613  0.3713  3.0835  0.7018
 6239SOL    HW230351   0.571   2.233   2.470  0.4383 -0.6171  0.0255
 6240SOL     OW30352   3.395   3.555   2.495 -0.5961  0.9756  0.1971
 6240SOL    HW130353   3.486   3.538   2.520  0.1228  1.0690 -2.2840
 6240SOL    HW230354   3.343   3.491   2.543  0.3369 -1.1387 -1.5883
 6241SOL     OW30355   3.716   0.555   0.208  0.1302  0.0074 -0.1002
 6241SOL    HW130356   3.637   0.511   0.238 -0.8114  1.1229 -0.9517
 6241SOL    HW230357   3.790   0.497   0.223  0.8210  1.2885  1.4752
 6242SOL     OW30358   4.283   2.002  15.619 -0.1192  0.1731  0.0078
 6242SOL    HW130359   4.289   1.998  15.524  0.1768 -0.3037  0.0466
 6242SOL    HW230360   4.233   2.081  15.642 -0.5625 -0.2591  0.5438
 6243SOL     OW30361   1.571   4.084  12.977 -0.4237  0.2033 -0.6310
 6243SOL    HW130362   1.513   4.159  12.963  1.3092  1.4661 -1.0449
 6243SOL    HW230363   1.612   4.087  12.890 -0.5070 -1.5843 -0.7304
 6244SOL     OW30364   2.729   4.285   3.607 -0.1003  0.2091 -0.0973
 6244SOL    HW130365   2.735   4.224   3.533  0.9238  0.9665 -0.6508
 6244SOL    HW230366   2.665   4.244   3.666  0.0298  0.7253  0.3993
 6245SOL     OW30367   3.122   2.598  11.521 -0.1783 -0.6458 -0.3835
 6245SOL    HW130368   3.160   2.595  11.433  2.6641 -1.2651  0.8572
 6245SOL    HW230369   3.182   2.664  11.556 -0.5167 -0.0573 -0.9181
 6246SOL     OW30370   4.080   1.068   3.828 -0.2727 -0.3666  0.1300
 6246SOL    HW130371   4.116   0.987   3.864 -1.2510 -0.5167  0.7628
 6246SOL    HW230372   3.987   1.052   3.842  0.0483 -0.2027  2.3866
 6247SOL     OW30373   1.903   4.227  16.897 -0.2422 -0.1092  0.1226
 6247SOL    HW130374   1.824   4.247  16.947 -0.6411  2.7216 -1.5934
 6247SOL    HW230375   1.867   4.183  16.820  0.9355  2.0901 -1.6702
 6248SOL     OW30376   0.134   1.879  17.163 -0.1310  0.0115  0.2439
 6248SOL    HW130377   0.133   1.784  17.169  1.2203  0.0275  0.6730
 6248SOL    HW230378   0.041   1.896  17.179 -0.5588 -1.1333 -1.0781
 6249SOL     OW30379   1.661   0.459   6.038 -0.7163 -0.4448 -0.0435
 6249SOL    HW130380   1.655   0.493   6.127  0.3312 -0.8324  0.1699
 6249SOL    HW230381   1.586   0.496   5.990  0.5325  1.3579 -0.6217
 6250SOL     OW30382   3.575   0.983  11.611 -0.4285  0.1640 -0.6951
 6250SOL    HW130383   3.642   1.025  11.664  0.2537 -0.3150 -1.1704
 6250SOL    HW230384   3.498   1.012  11.659 -1.0699 -2.8710  0.0726
 6251SOL     OW30385   2.193   3.724  10.205 -0.1820 -0.3449  0.0640
 6251SOL    HW130386   2.111   3.752  10.246 -0.2702  0.9570 -0.9676
 6251SOL    HW230387   2.166   3.688  10.121  0.3146 -1.4335  0.3678
 6252SOL     OW30388   3.108   4.693   1.972  0.2762 -1.0339  0.3532
 6252SOL    HW130389   3.072   4.721   2.057  0.9946  0.7102  0.0976
 6252SOL    HW230390   3.171   4.625   1.994  0.6886 -0.3740  1.2186
 6253SOL     OW30391   4.273   0.731   2.768 -0.4194  0.4033  0.2770
 6253SOL    HW130392   4.266   0.657   2.829  0.3423  0.9739  1.0478
 6253SOL    HW230393   4.191   0.770   2.797 -0.1462  0.3900  1.0516
 6254SOL     OW30394   3.460   2.674   3.206  0.7130  0.1905  0.0059
 6254SOL    HW130395   3.526   2.742   3.221  2.3281 -1.4182  0.1486
 6254SOL    HW230396   3.449   2.637   3.293  2.0909  1.1815  0.5920
 6255SOL     OW30397   4.191   3.990   7.562 -0.2591 -0.1219  0.5525
 6255SOL    HW130398   4.181   4.007   7.655 -2.4986 -0.8908  0.4416
 6255SOL    HW230399   4.116   4.034   7.521 -0.9553 -2.9916 -1.2240
 6256SOL     OW30400   1.614   2.454   7.624 -0.0851 -0.2280  0.0125
 6256SOL    HW130401   1.687   2.423   7.570  1.1831 -0.4253  1.8633
 6256SOL    HW230402   1.597   2.392   7.695  0.2165 -0.6837 -0.3031
 6257SOL     OW30403   2.079   0.845  17.364 -0.3783  0.1145  0.0874
 6257SOL    HW130404   2.005   0.868  17.308  1.2326 -0.2239 -2.1719
 6257SOL    HW230405   2.144   0.833  17.294  0.5539 -1.0043  1.1537
 6258SOL     OW30406   0.508   4.342  16.482 -0.5505 -0.2492 -0.0193
 6258SOL    HW130407   0.525   4.386  16.399 -0.9393  1.4956  0.8411
 6258SOL    HW230408   0.584   4.283  16.485  1.1134  1.8960 -0.0014
 6259SOL     OW30409   3.849   2.067   8.435 -0.5477 -0.1729  0.4607
 6259SOL    HW130410   3.754   2.065   8.422 -0.6513 -1.2516  1.3338
 6259SOL    HW230411   3.874   2.158   8.423  1.4667 -0.4596  2.4334
 6260SOL     OW30412   2.032   3.654  14.613  0.0489 -0.4456 -0.0292
 6260SOL    HW130413   2.093   3.708  14.662  1.1423 -2.2978  0.6776
 6260SOL    HW230414   2.066   3.567  14.635  0.1027 -0.0336  1.4921
 6261SOL     OW30415   2.400   4.220   0.400  0.2509 -0.0158  0.0110
 6261SOL    HW130416   2.305   4.220   0.392  0.1926 -0.5646  0.6884
 6261SOL    HW230417   2.424   4.136   0.361  0.0627 -1.2857  2.6260
 6262SOL     OW30418   1.226   3.782   3.081 -0.0183 -0.4153 -0.0437
 6262SOL    HW130419   1.246   3.860   3.134  1.0052 -0.2267 -0.7059
 6262SOL    HW230420   1.147   3.752   3.126  0.7911 -0.1950  1.5430
 6263SOL     OW30421   2.813   4.163   8.085  0.5231 -0.7233  0.0709
 6263SOL    HW130422   2.819   4.197   7.996  0.6716 -1.2202 -0.1106
 6263SOL    HW230423   2.899   4.124   8.100  0.3061 -1.8405 -1.5041
 6264SOL     OW30424   0.388   1.649   3.274 -0.6671 -0.7129 -0.1937
 6264SOL    HW130425   0.467   1.703   3.267 -1.1281  0.3166  2.5972
 6264SOL    HW230426   0.316   1.709   3.255 -0.6404 -0.2225  1.2659
 6265SOL     OW30427   4.313   0.483  17.328  0.2379 -1.1831 -0.0636
 6265SOL    HW130428   4.371   0.495  17.403 -1.6834 -1.9191  1.5510
 6265SOL    HW230429   4.276   0.569  17.309  1.5661 -0.4937  0.4987
 6266SOL     OW30430   3.251   0.318   3.457  0.2187  0.6370 -0.3133
 6266SOL    HW130431   3.246   0.255   3.530  3.0087  1.5138  0.6274
 6266SOL    HW230432   3.160   0.347   3.451  0.9075  3.0721  0.8732
 6267SOL     OW30433   0.900   3.294  17.692  0.3178  0.4452 -0.2049
 6267SOL    HW130434   0.807   3.274  17.706  0.8109 -1.3289  0.6658
 6267SOL    HW230435   0.888   3.336  17.608 -2.7050  1.2552  0.6550
 6268SOL     OW30436   2.748   1.470   7.460  0.3102 -0.1322 -0.4319
 6268SOL    HW130437   2.728   1.388   7.504 -0.6167  0.3930  0.1327
 6268SOL    HW230438   2.709   1.528   7.526  1.5735 -1.0507  1.1485
 6269SOL     OW30439   1.526   0.421   7.417  0.2549 -0.1485 -0.0262
 6269SOL    HW130440   1.537   0.329   7.442  2.2445 -0.5535 -2.3739
 6269SOL    HW230441   1.437   0.430   7.451 -0.2152 -1.8916 -0.8055
 6270SOL     OW30442   1.232   1.055   5.510 -0.1360  0.2351 -0.2332
 6270SOL    HW130443   1.141   1.086   5.511  0.8692  3.1345 -2.7292
 6270SOL    HW230444   1.234   0.990   5.440  1.8926 -0.5721  0.5674
 6271SOL     OW30445   0.323   3.511  15.283  0.4014  0.2256 -0.2821
 6271SOL    HW130446   0.239   3.499  15.329 -0.3036  0.1422 -1.5871
 6271SOL    HW230447   0.360   3.573  15.345 -0.0147  0.0778  0.1164
 6272SOL     OW30448   0.037   3.891   2.546 -0.1300  0.2077 -0.1711
 6272SOL    HW130449   4.725   3.970   2.564 -0.1117  0.9410 -3.4489
 6272SOL    HW230450   4.715   3.824   2.579 -0.4767  1.0088  0.8367
 6273SOL     OW30451   0.370   1.098   0.034  0.6302 -0.7684 -0.1125
 6273SOL    HW130452   0.425   1.131   0.105 -1.2837 -1.1142  1.4963
 6273SOL    HW230453   0.362   1.005   0.053  1.2726 -0.1505  3.0813
 6274SOL     OW30454   1.129   2.353   6.917 -0.0320  0.4318  1.0439
 6274SOL    HW130455   1.056   2.403   6.954 -0.8150 -0.6218  0.9244
 6274SOL    HW230456   1.112   2.364   6.823  0.3435  1.5832  1.1112
 6275SOL     OW30457   4.313   4.211  17.256 -1.0183 -0.1147 -0.1571
 6275SOL    HW130458   4.307   4.296  17.213 -0.8867 -0.2585 -0.4609
 6275SOL    HW230459   4.406   4.200  17.272 -0.9007  1.3894  0.2286
 6276SOL     OW30460   4.715   0.448   9.271 -0.0194 -0.0079 -0.0404
 6276SOL    HW130461   0.047   0.512   9.287 -0.2316  0.5468 -1.3328
 6276SOL    HW230462   4.634   0.499   9.269  1.8284  2.9228 -0.4844
 6277SOL     OW30463   1.274   2.167   4.276  0.4647 -0.0390 -0.2794
 6277SOL    HW130464   1.259   2.074   4.264 -0.4410  0.4354 -2.9658
 6277SOL    HW230465   1.332   2.166   4.352  0.3568  3.7349 -0.1493
 6278SOL     OW30466   2.181   1.523   2.093 -0.3828 -0.3848  0.4593
 6278SOL    HW130467   2.155   1.557   2.008  1.6445 -0.6455 -0.2700
 6278SOL    HW230468   2.163   1.429   2.082 -0.8279 -0.0139 -1.8559
 6279SOL     OW30469   3.589   1.250   1.649  0.5764  0.0459 -0.1449
 6279SOL    HW130470   3.663   1.311   1.657  0.5755  0.5686 -4.1416
 6279SOL    HW230471   3.558   1.238   1.738 -1.8467 -0.0100 -1.0094
 6280SOL     OW30472   1.538   1.865   7.468 -0.1780 -0.0662 -0.1171
 6280SOL    HW130473   1.582   1.785   7.497 -2.1971 -0.5449  1.6048
 6280SOL    HW230474   1.577   1.925   7.532 -1.2295  1.2917 -0.7742
 6281SOL     OW30475   2.295   1.223  13.160  0.2492  0.0452  0.1026
 6281SOL    HW130476   2.387   1.228  13.186  0.3508  1.3329 -0.5143
 6281SOL    HW230477   2.295   1.135  13.121 -1.6182 -0.1536  0.5346
 6282SOL     OW30478   3.250   0.227  16.201  0.5639  0.0047  0.1996
 6282SOL    HW130479   3.229   0.136  16.179 -1.2480  0.7819 -1.2605
 6282SOL    HW230480   3.321   0.196  16.257  0.3511 -0.4771  0.2050
 6283SOL     OW30481   1.747   3.602   0.653  0.3548 -0.4451 -0.0868
 6283SOL    HW130482   1.828   3.582   0.606  0.5668  1.8456 -0.7112
 6283SOL    HW230483   1.685   3.548   0.605  1.4007  0.4882 -2.4555
 6284SOL     OW30484   3.397   3.644  14.110  0.5124 -0.1215 -0.3197
 6284SOL    HW130485   3.460   3.575  14.132  1.4813  0.3926 -1.5280
 6284SOL    HW230486   3.450   3.710  14.066 -0.8040  0.3967 -1.1432
 6285SOL     OW30487   3.309   2.841   5.215 -0.3309 -0.6180  0.1083
 6285SOL    HW130488   3.383   2.896   5.190 -0.0822 -1.7439 -1.5849
 6285SOL    HW230489   3.351   2.770   5.262 -1.1443 -0.8856  0.4347
 6286SOL     OW30490   3.380   0.766   4.230 -0.0115  0.0568 -0.0633
 6286SOL    HW130491   3.447   0.795   4.169  0.0408  0.4792  0.1977
 6286SOL    HW230492   3.321   0.840   4.234  1.8458  1.4259  2.3922
 6287SOL     OW30493   1.714   0.111   0.238 -0.0666 -0.5486  0.7601
 6287SOL    HW130494   1.650   0.174   0.273 -0.5015  1.1275 -3.0989
 6287SOL    HW230495   1.651   0.064   0.184  0.1757  0.4053 -0.3366
 6288SOL     OW30496   3.973   2.517   9.984  0.3455 -0.5571 -0.6412
 6288SOL    HW130497   4.024   2.519   9.903  1.6115  0.9989  0.1872
 6288SOL    HW230498   3.916   2.442   9.968  0.6152 -0.9938  0.4519
 6289SOL     OW30499   0.104   2.243   7.818 -1.0078  0.0717  0.1209
 6289SOL    HW130500   0.076   2.285   7.899 -0.8337  1.2276 -0.4181
 6289SOL    HW230501   0.141   2.309   7.759  0.4334 -0.7315  0.1398
 6290SOL     OW30502   2.429   1.427   6.081 -0.2392 -0.1222 -0.1259
 6290SOL    HW130503   2.402   1.448   6.170  1.4285 -0.7931  0.5361
 6290SOL    HW230504   2.434   1.512   6.037  1.3905  0.0739  0.4168
 6291SOL     OW30505   4.093   3.347  14.477  0.0690 -0.2961  0.0496
 6291SOL    HW130506   4.159   3.412  14.453 -1.4620  1.2605  0.0692
 6291SOL    HW230507   4.069   3.313  14.391 -1.5085  1.9126 -0.3887
 6292SOL     OW30508   3.675   1.159   1.185 -0.0788  0.1773  0.2958
 6292SOL    HW130509   3.667   1.254   1.183  1.6039  0.3094 -0.3000
 6292SOL    HW230510   3.660   1.120   1.099  1.6358  2.5216 -1.0733
 6293SOL     OW30511   4.645   1.461   8.781 -0.1739  0.1543 -0.0014
 6293SOL    HW130512   4.632   1.556   8.782 -0.6350  0.1097 -1.1948
 6293SOL    HW230513   4.732   1.452   8.818  1.3482  2.1423 -3.0516
 6294SOL     OW30514   2.040   0.691  13.763 -0.1603 -0.1315 -0.2980
 6294SOL    HW130515   1.986   0.732  13.829 -0.5995 -2.5510  0.8351
 6294SOL    HW230516   1.969   0.655  13.711  0.3482  1.0376 -1.8355
 6295SOL     OW30517   1.779   0.148   8.233 -0.3937  0.3194  0.1622
 6295SOL    HW130518   1.801   0.167   8.324  0.9921 -2.4331  0.4055
 6295SOL    HW230519   1.814   0.230   8.198  0.8522 -0.0578  0.5136
 6296SOL     OW30520   1.381   0.937   7.689 -0.6177 -0.6161  0.5163
 6296SOL    HW130521   1.433   0.948   7.609 -0.9127  1.4159  0.6153
 6296SOL    HW230522   1.422   0.997   7.750  1.8072  0.8900 -2.6024
 6297SOL     OW30523   2.609   0.391  16.781  0.0018 -0.0200 -0.0253
 6297SOL    HW130524   2.578   0.394  16.690  1.1019  0.0737 -0.3925
 6297SOL    HW230525   2.528   0.383  16.833 -2.7670 -1.5895 -4.5875
 6298SOL     OW30526   2.146   1.463   8.313 -0.2203  0.1869  0.3592
 6298SOL    HW130527   2.063   1.473   8.359 -0.5183 -2.6170  0.4620
 6298SOL    HW230528   2.165   1.377   8.350  0.4881 -0.8400 -2.3969
 6299SOL     OW30529   3.088   2.746   5.091  0.1106  0.3985 -0.3102
 6299SOL    HW130530   3.102   2.757   4.997  0.0439  0.8290 -0.2668
 6299SOL    HW230531   3.176   2.754   5.127 -0.2451 -1.5980  1.0167
 6300SOL     OW30532   0.530   1.687   2.942  1.2241 -0.2246 -0.2266
 6300SOL    HW130533   0.533   1.591   2.937  0.0497 -0.3117  0.7757
 6300SOL    HW230534   0.585   1.691   3.021 -0.2311 -1.2187  0.8429
 6301SOL     OW30535   2.760   0.325  14.153 -0.1214 -0.7218 -0.6115
 6301SOL    HW130536   2.821   0.317  14.227 -1.0349 -1.0312  0.1085
 6301SOL    HW230537   2.747   0.416  14.130 -0.9306 -0.9191 -0.9155
 6302SOL     OW30538   0.374   1.691   9.965 -0.4230 -0.3314 -0.3400
 6302SOL    HW130539   0.340   1.733   9.885  0.1739 -0.1546 -0.4967
 6302SOL    HW230540   0.393   1.772  10.013  0.8691 -1.0249  0.2860
 6303SOL     OW30541   0.755   2.069  15.509 -0.8872 -0.4759  0.7239
 6303SOL    HW130542   0.768   1.975  15.522  1.7989 -0.3246 -0.8788
 6303SOL    HW230543   0.727   2.085  15.599  1.2393 -0.7338  1.4293
 6304SOL     OW30544   3.514   2.272   6.028 -0.0689 -0.8504  0.2628
 6304SOL    HW130545   3.466   2.200   6.070 -0.4253 -0.3990  0.6281
 6304SOL    HW230546   3.478   2.282   5.940  0.6593  0.4214  0.1125
 6305SOL     OW30547   4.300   1.815   8.176  0.5869 -0.2047  0.3480
 6305SOL    HW130548   4.277   1.725   8.197 -0.2748 -0.5688 -2.1566
 6305SOL    HW230549   4.220   1.848   8.136 -0.0279 -0.9407  0.9747
 6306SOL     OW30550   0.947   1.941   4.261  0.1477 -0.3667  0.0197
 6306SOL    HW130551   0.986   1.857   4.236 -0.5008 -0.3901 -0.9231
 6306SOL    HW230552   0.903   1.959   4.178 -0.9089  2.0112  1.0859
 6307SOL     OW30553   4.335   1.199   9.216 -0.1412  0.0652  0.4150
 6307SOL    HW130554   4.428   1.184   9.229 -0.1573  1.5272  2.2285
 6307SOL    HW230555   4.318   1.188   9.122 -1.7296 -1.0095  0.8309
 6308SOL     OW30556   1.274   2.857  13.299  0.1313 -0.1300  0.0165
 6308SOL    HW130557   1.226   2.922  13.249 -0.3407 -1.8021 -1.7109
 6308SOL    HW230558   1.361   2.863  13.261 -0.0230 -0.5779 -0.4123
 6309SOL     OW30559   1.898   0.999   7.573 -0.5779 -0.1352 -0.1358
 6309SOL    HW130560   1.822   0.952   7.538 -1.2114 -0.0980  1.1870
 6309SOL    HW230561   1.845   1.046   7.638 -1.1464 -0.6551 -0.2214
 6310SOL     OW30562   1.512   2.658  17.699  0.6248 -0.3613 -0.4955
 6310SOL    HW130563   1.571   2.733  17.711  0.9618 -0.2343 -2.8660
 6310SOL    HW230564   1.474   2.647   0.036  0.3535  3.5968 -0.1020
 6311SOL     OW30565   0.498   2.080   5.142  0.1528  0.4206 -0.0822
 6311SOL    HW130566   0.498   1.992   5.180  0.9864  0.0176 -1.0274
 6311SOL    HW230567   0.407   2.094   5.114  0.3736 -1.8105 -1.8879
 6312SOL     OW30568   3.274   0.607   4.644  0.1720 -0.2276 -0.1298
 6312SOL    HW130569   3.356   0.656   4.631 -0.6395  1.2184  0.1563
 6312SOL    HW230570   3.307   0.526   4.682  0.4604 -0.0291  0.0498
 6313SOL     OW30571   1.397   4.282  13.750  0.1307  0.3939  0.1152
 6313SOL    HW130572   1.403   4.368  13.793  0.5347 -0.3885  1.6333
 6313SOL    HW230573   1.465   4.296  13.684  1.7493 -0.9860  1.5011
 6314SOL     OW30574   2.195   0.643  16.765  0.3285 -0.0408 -0.1439
 6314SOL    HW130575   2.214   0.550  16.765 -0.4976 -0.2118  0.2009
 6314SOL    HW230576   2.225   0.672  16.851 -2.6242  0.8477  0.5805
 6315SOL     OW30577   0.173   1.060   6.023  0.3929 -0.0692  0.1214
 6315SOL    HW130578   0.182   0.974   5.982 -0.1521 -0.5464  1.0148
 6315SOL    HW230579   0.248   1.111   5.992 -0.3286 -0.3149 -2.0046
 6316SOL     OW30580   1.096   1.255   6.700 -0.2206  0.8703 -0.0347
 6316SOL    HW130581   1.026   1.318   6.683 -0.9969  0.4386  1.5412
 6316SOL    HW230582   1.084   1.200   6.623 -1.2498 -0.3052  0.9648
 6317SOL     OW30583   2.290   1.096   6.691  0.1410  0.2331 -0.3145
 6317SOL    HW130584   2.224   1.047   6.641  0.4752  0.9750 -1.4953
 6317SOL    HW230585   2.341   1.121   6.613 -0.3159 -0.4752 -0.8493
 6318SOL     OW30586   3.379   0.436   7.426  0.0117 -1.0179  0.2010
 6318SOL    HW130587   3.395   0.477   7.342  0.1947 -0.3075  0.5826
 6318SOL    HW230588   3.305   0.483   7.464 -0.2778 -0.0429 -1.6107
 6319SOL     OW30589   2.392   4.240   9.882 -0.1799  0.3657 -0.1812
 6319SOL    HW130590   2.473   4.189   9.874  0.2021  1.7486 -5.3623
 6319SOL    HW230591   2.328   4.180   9.920  0.4063 -0.2187 -0.1097
 6320SOL     OW30592   1.332   2.614   5.050  0.0522  0.1178 -0.7257
 6320SOL    HW130593   1.426   2.617   5.069 -0.1589 -2.2504  0.7013
 6320SOL    HW230594   1.305   2.552   5.118  0.1418 -0.1031 -0.8945
 6321SOL     OW30595   4.533   3.269   3.702  0.3479 -0.2374  0.2442
 6321SOL    HW130596   4.466   3.203   3.680  0.1497  0.5973 -1.6282
 6321SOL    HW230597   4.485   3.352   3.706  0.1069 -0.2823 -1.8277
 6322SOL     OW30598   3.443   1.984  17.507  0.6570  0.1840 -0.3157
 6322SOL    HW130599   3.432   1.934  17.426  0.0744 -0.5465  0.2017
 6322SOL    HW230600   3.382   2.056  17.489  2.5911  1.9886  0.4127
 6323SOL     OW30601   0.187   2.093   6.194 -0.1796  0.5420  0.3057
 6323SOL    HW130602   0.106   2.132   6.162 -0.1802  0.5496  0.3161
 6323SOL    HW230603   0.254   2.161   6.189 -0.9069  1.2123 -0.3254
 6324SOL     OW30604   3.255   0.843   7.069 -0.4488 -0.1205 -0.1231
 6324SOL    HW130605   3.346   0.814   7.066 -0.7056 -0.9250 -0.2947
 6324SOL    HW230606   3.231   0.848   6.977 -0.9363  0.9653  0.0617
 6325SOL     OW30607   2.181   3.391   3.783 -0.1717 -0.7344  0.3474
 6325SOL    HW130608   2.202   3.388   3.689  1.4374  0.5584  0.6635
 6325SOL    HW230609   2.235   3.319   3.815  1.5478  1.0193  1.3720
 6326SOL     OW30610   3.632   2.059   7.354  0.4733  0.2933  0.5940
 6326SOL    HW130611   3.537   2.074   7.363  0.5018  1.5848 -1.1993
 6326SOL    HW230612   3.642   1.979   7.405  1.7815  0.8003  1.1270
 6327SOL     OW30613   2.858   3.818   5.622 -0.0400  0.1150  0.5389
 6327SOL    HW130614   2.827   3.774   5.700 -1.9549 -1.2998 -1.0249
 6327SOL    HW230615   2.781   3.800   5.569  1.1766  3.5758 -2.4708
 6328SOL     OW30616   0.381   2.616   0.132 -0.7351 -0.3600  0.1119
 6328SOL    HW130617   0.292   2.590   0.153 -1.3033 -0.0366 -1.8978
 6328SOL    HW230618   0.393   2.706   0.162  1.2235 -1.0385  1.3735
 6329SOL     OW30619   3.760   3.522  16.638  0.0325  1.1644  0.5916
 6329SOL    HW130620   3.671   3.539  16.608 -0.1302  0.0261  0.4305
 6329SOL    HW230621   3.812   3.592  16.598  0.1775  0.4799 -0.4218
 6330SOL     OW30622   2.747   4.552   8.574 -0.3586 -0.2869 -1.0255
 6330SOL    HW130623   2.670   4.526   8.624  1.1498 -1.8915  0.4642
 6330SOL    HW230624   2.719   4.638   8.543 -1.7764 -0.0609  0.9364
 6331SOL     OW30625   4.374   1.702   9.813 -0.0728 -0.0112 -0.1060
 6331SOL    HW130626   4.443   1.764   9.838 -1.1517  2.1321 -2.3757
 6331SOL    HW230627   4.407   1.692   9.724 -1.0299 -1.0293 -0.3401
 6332SOL     OW30628   4.506   1.272   2.332 -0.7411  0.5768  0.1150
 6332SOL    HW130629   4.486   1.324   2.410  2.6618  1.5355  0.3777
 6332SOL    HW230630   4.600   1.290   2.324 -0.8806  0.2053 -2.5420
 6333SOL     OW30631   3.103   4.700   1.465 -0.1144  0.6189 -0.4347
 6333SOL    HW130632   3.176   0.019   1.491 -0.4514  1.0104 -0.3372
 6333SOL    HW230633   3.120   4.624   1.521 -0.4672 -0.6501 -2.0482
 6334SOL     OW30634   4.032   1.457   1.591 -0.1499  0.0205 -0.0065
 6334SOL    HW130635   4.068   1.371   1.612  1.3221  0.7335  0.3798
 6334SOL    HW230636   4.096   1.500   1.535  1.0555 -1.0458  0.5684
 6335SOL     OW30637   2.628   1.966   9.426  0.4372  0.0505  0.2331
 6335SOL    HW130638   2.672   1.909   9.363  0.2922  1.4060 -1.0937
 6335SOL    HW230639   2.582   2.029   9.370  3.1906  1.1042 -0.8688
 6336SOL     OW30640   3.095   2.984   2.050 -0.3688 -0.4574  0.5591
 6336SOL    HW130641   3.112   2.990   1.956 -3.3934 -0.0422  0.0503
 6336SOL    HW230642   3.054   3.069   2.065  1.0910  0.5737 -1.3400
 6337SOL     OW30643   0.752   0.469   0.746 -0.4325 -0.0530  0.2971
 6337SOL    HW130644   0.704   0.388   0.765 -1.8607  1.0909  1.4797
 6337SOL    HW230645   0.737   0.519   0.826 -0.9114  0.9619 -0.4257
 6338SOL     OW30646   1.564   1.638  16.714  0.5457 -0.4091 -0.2704
 6338SOL    HW130647   1.553   1.580  16.789 -2.6882 -0.1730 -0.5784
 6338SOL    HW230648   1.621   1.577  16.667  1.7411 -0.9882  1.9386
 6339SOL     OW30649   2.407   1.539   2.232 -0.1862  0.0635 -0.1666
 6339SOL    HW130650   2.333   1.539   2.172  0.2925 -0.1114 -0.7590
 6339SOL    HW230651   2.401   1.453   2.273  1.5308 -0.3598 -0.7942
 6340SOL     OW30652   4.548   2.525   3.851 -0.1114  0.2491  0.3050
 6340SOL    HW130653   4.466   2.478   3.867  0.7502 -0.8739  1.4250
 6340SOL    HW230654   4.549   2.501   3.758  1.2379 -2.3084  0.9865
 6341SOL     OW30655   3.810   1.272   8.192 -0.0652 -0.5867 -0.0175
 6341SOL    HW130656   3.744   1.282   8.122 -0.7393  1.7407  0.9337
 6341SOL    HW230657   3.878   1.224   8.144 -0.4077 -0.6637 -0.4308
 6342SOL     OW30658   3.900   0.920   7.330 -0.6652 -0.2118  0.4413
 6342SOL    HW130659   3.818   0.954   7.365 -1.9850 -0.9911 -1.8424
 6342SOL    HW230660   3.920   0.840   7.379  2.8841  0.9911  0.9304
 6343SOL     OW30661   4.144   0.835   5.991  0.2859 -0.4474 -0.0253
 6343SOL    HW130662   4.208   0.788   6.044  1.1611  2.8633  1.7997
 6343SOL    HW230663   4.170   0.811   5.902 -0.8067 -0.2863 -0.3930
 6344SOL     OW30664   1.431   3.597   7.567 -0.6567 -0.4280 -0.1032
 6344SOL    HW130665   1.512   3.553   7.541 -1.5891 -2.6553  0.7709
 6344SOL    HW230666   1.438   3.625   7.658  0.0061  3.1333 -1.2560
 6345SOL     OW30667   4.103   3.562   5.552  0.0787 -0.0872 -0.0897
 6345SOL    HW130668   4.128   3.479   5.593 -0.3697 -1.1403 -1.9465
 6345SOL    HW230669   4.114   3.633   5.615  0.7933 -0.8788  0.6755
 6346SOL     OW30670   2.134   4.189   6.469 -0.3220  0.0943  0.1520
 6346SOL    HW130671   2.224   4.191   6.501 -0.0083  2.2956 -0.8238
 6346SOL    HW230672   2.138   4.247   6.393  0.3026  0.3108  0.3521
 6347SOL     OW30673   4.215   1.538   7.886 -0.0972 -0.3540  0.3436
 6347SOL    HW130674   4.154   1.464   7.894  0.7182 -0.8028  2.3250
 6347SOL    HW230675   4.159   1.614   7.877 -0.2559 -0.6685 -1.4790
 6348SOL     OW30676   3.994   2.029   2.521 -0.1109  0.2168 -0.1783
 6348SOL    HW130677   3.917   2.086   2.519  0.2945  0.7210 -1.6469
 6348SOL    HW230678   3.971   1.964   2.454  3.3749  0.2939 -1.4773
 6349SOL     OW30679   0.706   3.577   4.996 -0.1143 -0.5693 -0.1353
 6349SOL    HW130680   0.765   3.538   4.932  0.8126  1.5322 -0.5657
 6349SOL    HW230681   0.730   3.670   4.992 -2.4550 -0.0062 -1.0148
 6350SOL     OW30682   0.107   0.166   5.542 -0.7952 -0.8028  0.1241
 6350SOL    HW130683   0.175   0.233   5.537 -2.2669  0.6542 -0.1040
 6350SOL    HW230684   0.145   0.096   5.489  0.5859 -0.0079  0.0700
 6351SOL     OW30685   2.561   3.464   3.483 -0.0946 -0.2093  0.4636
 6351SOL    HW130686   2.525   3.500   3.564 -0.3001 -0.9600  0.7116
 6351SOL    HW230687   2.504   3.389   3.464 -0.3371 -0.0462  0.5342
 6352SOL     OW30688   2.338   1.839   3.209 -0.1382  0.1749 -0.5508
 6352SOL    HW130689   2.375   1.872   3.291 -0.3725  0.0711 -0.4056
 6352SOL    HW230690   2.247   1.824   3.234 -0.1382 -0.1489 -0.7448
 6353SOL     OW30691   1.318   2.525   9.869 -0.3353  0.4510 -0.5139
 6353SOL    HW130692   1.309   2.465   9.944  0.8773 -0.4619 -1.0957
 6353SOL    HW230693   1.414   2.526   9.864 -0.1841 -1.3523  2.0713
 6354SOL     OW30694   3.589   2.950   2.414  0.1192  0.0616  0.1098
 6354SOL    HW130695   3.657   2.965   2.480 -0.5878 -2.2727  1.3637
 6354SOL    HW230696   3.566   3.041   2.397 -0.4936 -0.1389 -0.1385
 6355SOL     OW30697   3.786   2.066   6.334 -0.1096  0.1765  0.2627
 6355SOL    HW130698   3.874   2.062   6.297  0.9003 -1.0321  2.7440
 6355SOL    HW230699   3.797   2.114   6.416 -1.0649  2.1156 -0.7713
 6356SOL     OW30700   0.663   3.053   8.327  0.1554 -0.1021 -0.4509
 6356SOL    HW130701   0.629   2.965   8.313 -0.0647 -0.2785  1.1409
 6356SOL    HW230702   0.706   3.072   8.244  1.3324 -0.2750  0.1179
 6357SOL     OW30703   4.480   3.438  13.429  0.0543  0.1285  0.2592
 6357SOL    HW130704   4.548   3.501  13.455  0.4517 -0.3774  0.4298
 6357SOL    HW230705   4.523   3.355  13.411 -2.3113 -1.0620  0.0142
 6358SOL     OW30706   3.987   2.416  15.281  0.1730 -0.0290  0.4064
 6358SOL    HW130707   4.063   2.420  15.222  0.0482 -1.5148  0.1372
 6358SOL    HW230708   3.953   2.504  15.266 -1.5432 -0.3178  2.7927
 6359SOL     OW30709   1.298   1.616   7.729  0.1728  0.8482  0.0467
 6359SOL    HW130710   1.241   1.556   7.681  3.1644 -0.6854 -1.5499
 6359SOL    HW230711   1.290   1.695   7.676  1.6527 -1.4344 -3.5358
 6360SOL     OW30712   0.141   0.766   0.786 -0.2194  0.3032 -0.1797
 6360SOL    HW130713   0.060   0.814   0.808 -0.0116  1.2920 -1.6165
 6360SOL    HW230714   0.188   0.808   0.859 -1.1174 -0.9837  1.1557
 6361SOL     OW30715   3.044   0.855   8.125 -0.2040  0.0639  0.0993
 6361SOL    HW130716   3.036   0.843   8.030  1.2202  0.2974 -0.0418
 6361SOL    HW230717   3.121   0.911   8.124  0.2816 -0.6073 -0.4596
 6362SOL     OW30718   0.330   3.814   7.504 -0.4880 -0.1879 -0.2904
 6362SOL    HW130719   0.316   3.869   7.581 -0.0576  0.0320 -0.3654
 6362SOL    HW230720   0.353   3.871   7.431 -0.1052 -0.4782 -0.3942
 6363SOL     OW30721   3.965   2.653   5.824 -0.5333  0.7663  0.0550
 6363SOL    HW130722   4.051   2.695   5.816 -0.7089  1.5781  2.2657
 6363SOL    HW230723   3.952   2.635   5.731  2.8609  0.0582 -0.3021
 6364SOL     OW30724   3.556   3.623  10.460 -0.2464 -0.6253 -0.2040
 6364SOL    HW130725   3.538   3.675  10.538 -1.1622  0.6092 -1.2417
 6364SOL    HW230726   3.571   3.538  10.503 -0.8248 -0.3162  0.6071
 6365SOL     OW30727   2.444   1.548   9.547 -0.8372  0.3574 -0.2836
 6365SOL    HW130728   2.404   1.622   9.593  1.6155  1.3771  0.2318
 6365SOL    HW230729   2.536   1.556   9.572 -1.0764 -0.1188  0.7435
 6366SOL     OW30730   3.966   2.618   3.517 -0.9641 -0.3252  0.2788
 6366SOL    HW130731   3.974   2.711   3.540  0.9144 -0.3954 -0.1253
 6366SOL    HW230732   3.938   2.616   3.425 -1.5730 -1.5896  0.5035
 6367SOL     OW30733   3.462   0.783   5.365  0.4122  0.1529 -0.2325
 6367SOL    HW130734   3.397   0.847   5.338  1.8975  1.3333 -0.9731
 6367SOL    HW230735   3.413   0.713   5.410  1.6873 -0.8060 -0.3315
 6368SOL     OW30736   4.353   1.116   3.010 -0.0459  0.0354  0.1578
 6368SOL    HW130737   4.287   1.159   3.065 -1.3326 -3.9478  1.6985
 6368SOL    HW230738   4.376   1.037   3.058  0.8125 -0.5137 -1.1847
 6369SOL     OW30739   4.485   0.434   5.502 -1.1447 -0.7209 -0.1371
 6369SOL    HW130740   4.430   0.429   5.581  0.8479 -0.4546  1.2764
 6369SOL    HW230741   4.522   0.521   5.515 -0.7504 -1.1787  1.8189
 6370SOL     OW30742   4.005   2.152   1.582  0.5325 -0.3548  0.0734
 6370SOL    HW130743   3.951   2.074   1.567 -0.8795  1.4669 -4.1249
 6370SOL    HW230744   3.992   2.171   1.675  1.3402 -2.2376  0.5905
 6371SOL     OW30745   3.672   3.512   4.402 -0.4239  0.1554  0.3796
 6371SOL    HW130746   3.709   3.582   4.347 -3.4425  0.9053 -0.7006
 6371SOL    HW230747   3.746   3.468   4.444  0.6819  2.2827  0.6632
 6372SOL     OW30748   1.227   3.072   7.421  0.3239 -0.0203  0.9220
 6372SOL    HW130749   1.217   3.036   7.333 -1.2807  0.9551  0.7015
 6372SOL    HW230750   1.136   3.079   7.450  0.0535 -0.9732  0.3000
 6373SOL     OW30751   0.599   0.195   9.028 -0.2244 -0.1779 -0.0071
 6373SOL    HW130752   0.514   0.200   9.072 -1.3493  0.0513 -2.2397
 6373SOL    HW230753   0.580   0.219   8.937 -1.1083  0.5635  0.3734
 6374SOL     OW30754   0.482   0.301   1.758  0.1338 -0.2299 -0.1069
 6374SOL    HW130755   0.558   0.322   1.812  0.1836  0.6514 -0.5210
 6374SOL    HW230756   0.514   0.321   1.671  1.1633 -1.8267 -0.0801
 6375SOL     OW30757   0.435   2.149   2.055  0.2990 -0.2694  0.2456
 6375SOL    HW130758   0.385   2.070   2.036  0.2190 -0.0320 -0.5236
 6375SOL    HW230759   0.525   2.125   2.031  0.1391 -2.3974  1.8006
 6376SOL     OW30760   3.650   1.645  17.644 -0.2372  0.0695  0.0481
 6376SOL    HW130761   3.696   1.620  17.725 -1.1053 -5.0043 -0.9841
 6376SOL    HW230762   3.667   1.566  17.592  3.7803  0.5216  0.6699
 6377SOL     OW30763   2.117   2.777   2.778  0.2427  0.3494 -0.2326
 6377SOL    HW130764   2.114   2.744   2.688  0.3303  2.8813 -1.1796
 6377SOL    HW230765   2.024   2.794   2.790  0.0597 -0.6843 -0.2234
 6378SOL     OW30766   2.617   3.697   6.464 -0.4719  0.6312 -0.3477
 6378SOL    HW130767   2.700   3.700   6.512 -0.7770 -0.6816  0.2731
 6378SOL    HW230768   2.565   3.773   6.489 -0.7340  0.7152 -1.1318
 6379SOL     OW30769   0.022   1.315   6.986  0.4089  0.2198 -0.1450
 6379SOL    HW130770   0.031   1.371   6.909 -0.1209 -0.9526 -1.0471
 6379SOL    HW230771   4.681   1.265   6.966  0.7128  0.0335 -0.8733
 6380SOL     OW30772   0.616   0.838   0.682 -0.2937 -0.1842 -0.0992
 6380SOL    HW130773   0.599   0.909   0.621 -1.6434  0.4919  1.0623
 6380SOL    HW230774   0.655   0.776   0.620  2.7235  2.9806 -1.3545
 6381SOL     OW30775   3.809   1.877   7.182 -0.1893  0.2387  1.2566
 6381SOL    HW130776   3.759   1.939   7.235 -1.7342 -0.3367  0.4663
 6381SOL    HW230777   3.874   1.842   7.243  1.0788  0.9502  0.3113
 6382SOL     OW30778   3.201   1.621   2.150 -0.1041 -0.1927  0.1308
 6382SOL    HW130779   3.199   1.526   2.161 -0.0305  0.0083  1.8635
 6382SOL    HW230780   3.147   1.628   2.072 -1.3524 -0.8920  0.9383
 6383SOL     OW30781   1.376   3.504  15.522  0.5182 -0.1950  0.2331
 6383SOL    HW130782   1.349   3.591  15.493 -0.8867 -0.5958  0.3458
 6383SOL    HW230783   1.290   3.462  15.519 -0.0191  0.8474  0.9516
 6384SOL     OW30784   2.652   2.030  13.400 -0.1674 -0.3039 -0.3624
 6384SOL    HW130785   2.596   2.101  13.429 -0.1872  0.2914 -1.8358
 6384SOL    HW230786   2.653   2.054  13.307 -1.8189  0.0739 -0.2718
 6385SOL     OW30787   3.106   1.584   5.285  0.1919  0.3132  0.1958
 6385SOL    HW130788   3.093   1.667   5.240 -0.7985  0.8309  1.4619
 6385SOL    HW230789   3.151   1.546   5.209 -1.9437 -0.9681 -0.4167
 6386SOL     OW30790   2.093   0.949   4.901 -0.0436  0.2008 -0.2838
 6386SOL    HW130791   2.134   0.978   4.819  0.2354  1.1571  0.1908
 6386SOL    HW230792   2.128   0.860   4.913 -0.6932  0.0278  0.3008
 6387SOL     OW30793   2.891   1.735   6.156  0.3243 -0.8243 -0.4170
 6387SOL    HW130794   2.913   1.655   6.205  0.1097  0.4988  1.8626
 6387SOL    HW230795   2.898   1.807   6.219  0.0412  0.8739 -2.3189
 6388SOL     OW30796   4.235   4.084   9.149  0.1196 -0.1477  0.5115
 6388SOL    HW130797   4.205   3.993   9.143 -0.7673  0.2812 -1.5712
 6388SOL    HW230798   4.304   4.078   9.216 -0.6771 -0.2192  1.3188
 6389SOL     OW30799   1.345   3.201   5.659  0.3459  0.6406  0.1448
 6389SOL    HW130800   1.368   3.271   5.720  0.2020 -0.6938  1.7208
 6389SOL    HW230801   1.389   3.119   5.678 -2.3773 -0.8451  0.0145
 6390SOL     OW30802   2.952   2.910   9.916 -0.3282 -0.1754  0.3790
 6390SOL    HW130803   2.889   2.874   9.978 -0.8571  1.1644  0.6204
 6390SOL    HW230804   2.893   2.902   9.841  0.7822  0.6770 -0.5855
 6391SOL     OW30805   3.259   4.693   4.554 -0.2181  0.1644  0.2622
 6391SOL    HW130806   3.190   4.627   4.554  0.0099 -0.0880 -1.4124
 6391SOL    HW230807   3.230   0.016   4.622  1.1801 -0.4244  1.3884
 6392SOL     OW30808   2.979   3.172   2.205  0.3893 -0.9834 -0.3697
 6392SOL    HW130809   2.905   3.183   2.145  1.8643  0.5678 -1.8924
 6392SOL    HW230810   2.973   3.252   2.258 -3.0254 -2.1587  1.0698
 6393SOL     OW30811   1.068   1.300   7.887 -0.3528  0.5960  0.6288
 6393SOL    HW130812   1.028   1.378   7.849 -1.0184 -0.3997 -0.7268
 6393SOL    HW230813   1.001   1.240   7.919 -0.2030  0.8679  1.4317
 6394SOL     OW30814   3.203   3.553   3.181  0.0385 -0.3954  0.1166
 6394SOL    HW130815   3.171   3.597   3.260 -3.1141 -2.4989  0.0055
 6394SOL    HW230816   3.279   3.606   3.156  0.9541 -0.9341  1.7232
 6395SOL     OW30817   4.435   4.644   1.674  0.2459 -0.0418 -0.0907
 6395SOL    HW130818   4.442   4.599   1.590 -0.5353 -0.4953  0.0831
 6395SOL    HW230819   4.360   4.699   1.647  0.2440  0.3363  0.6789
 6396SOL     OW30820   0.998   4.507   2.715  1.1891 -0.0389  0.3127
 6396SOL    HW130821   1.079   4.468   2.748  1.6153  1.7235  1.3709
 6396SOL    HW230822   1.005   4.599   2.743 -0.6724  0.0242  0.5848
 6397SOL     OW30823   0.679   2.164  15.754 -0.1782  0.3239 -0.3542
 6397SOL    HW130824   0.674   2.133  15.844  2.4720  3.6438  0.9123
 6397SOL    HW230825   0.606   2.225  15.760 -0.2231  0.1572  0.7262
 6398SOL     OW30826   1.722   4.499   0.448  0.4945  0.4665  0.1069
 6398SOL    HW130827   1.718   4.493   0.544  2.4061  1.0986  0.2168
 6398SOL    HW230828   1.691   4.414   0.416  1.6339 -0.9073  2.6844
 6399SOL     OW30829   1.485   0.106   3.032 -0.3415  0.3224  0.0182
 6399SOL    HW130830   1.402   0.144   3.059  0.3715  0.2059  2.3357
 6399SOL    HW230831   1.500   0.059   3.114 -0.5372 -1.5229 -0.9887
 6400SOL     OW30832   3.463   0.128  14.436 -0.6097 -0.1798 -0.3259
 6400SOL    HW130833   3.530   0.062  14.453 -0.1498 -0.4627 -3.3674
 6400SOL    HW230834   3.488   0.203  14.491  2.4831 -0.0960 -1.8742
 6401SOL     OW30835   4.143   1.778   1.640  0.4164  0.5915 -0.3865
 6401SOL    HW130836   4.061   1.733   1.660  0.8912 -0.3111 -0.4956
 6401SOL    HW230837   4.126   1.823   1.556 -3.5155 -0.6960 -0.2660
 6402SOL     OW30838   2.431   3.833   1.470 -0.1632 -0.0072 -0.3204
 6402SOL    HW130839   2.350   3.881   1.488  1.5765  3.0971 -0.9608
 6402SOL    HW230840   2.467   3.837   1.559 -0.4319  1.7513 -0.2896
 6403SOL     OW30841   2.031   0.445   1.784 -0.3148 -0.4439 -0.2190
 6403SOL    HW130842   2.070   0.531   1.771 -3.2367  0.9589  0.1662
 6403SOL    HW230843   2.104   0.384   1.777 -0.7398 -1.0348  0.5020
 6404SOL     OW30844   0.523   4.363   4.606  0.0009  0.8934 -0.3180
 6404SOL    HW130845   0.553   4.357   4.515 -1.0509  0.1107 -0.6151
 6404SOL    HW230846   0.553   4.451   4.624  0.7115  0.4211  0.7432
 6405SOL     OW30847   1.298   0.580  16.848 -0.4979  0.2490 -0.0366
 6405SOL    HW130848   1.241   0.589  16.925 -1.2455  1.2202 -0.7019
 6405SOL    HW230849   1.371   0.535  16.891 -1.2565  0.8515  1.8909
 6406SOL     OW30850   4.510   2.715   4.213 -0.0589  0.0891 -0.1843
 6406SOL    HW130851   4.489   2.624   4.194 -0.9114  0.1726  0.3588
 6406SOL    HW230852   4.544   2.733   4.126 -0.7209 -2.2406 -0.9130
 6407SOL     OW30853   3.640   2.515   9.354  0.2337  0.4562 -0.3950
 6407SOL    HW130854   3.702   2.587   9.345 -0.1789  1.2520  3.0330
 6407SOL    HW230855   3.621   2.498   9.262  0.9215  0.7284 -0.5858
 6408SOL     OW30856   4.141   3.147   4.025 -0.1489 -0.2875  0.3032
 6408SOL    HW130857   4.088   3.191   4.091 -0.6416 -0.0744 -0.2389
 6408SOL    HW230858   4.227   3.165   4.064  0.1868  0.8750 -0.9605
 6409SOL     OW30859   3.277   3.202   5.128  0.1921  0.3177 -1.1018
 6409SOL    HW130860   3.322   3.132   5.174 -0.4315 -0.4451 -1.6544
 6409SOL    HW230861   3.199   3.156   5.097  0.3860 -1.4266  1.0190
 6410SOL     OW30862   2.560   2.718   4.327 -0.4112  0.0728 -0.4163
 6410SOL    HW130863   2.590   2.652   4.265  1.9489  1.4688 -0.7300
 6410SOL    HW230864   2.470   2.690   4.347 -0.3040  0.1136  0.1388
 6411SOL     OW30865   4.574   2.977   7.344  0.3606  0.1975  0.1128
 6411SOL    HW130866   4.572   3.059   7.294  0.8501  0.3632  0.3625
 6411SOL    HW230867   4.639   2.996   7.412  1.6778 -1.7969 -0.5824
 6412SOL     OW30868   2.793   4.368   4.147  0.4885 -0.3089  0.5001
 6412SOL    HW130869   2.753   4.382   4.061 -0.5676  0.5510  1.1348
 6412SOL    HW230870   2.727   4.389   4.213 -0.1805 -1.7317  0.3024
 6413SOL     OW30871   1.479   1.314   6.913 -0.4134 -0.2897  0.4013
 6413SOL    HW130872   1.403   1.262   6.886 -1.2464  0.9555  0.3242
 6413SOL    HW230873   1.542   1.242   6.925 -0.0739  0.4037  2.7206
 6414SOL     OW30874   2.091   3.732   9.560  0.0751 -0.4003 -0.4862
 6414SOL    HW130875   2.176   3.770   9.584 -0.0740  0.4131 -1.2362
 6414SOL    HW230876   2.119   3.646   9.529  3.2504 -0.5480  2.7199
 6415SOL     OW30877   0.307   4.338   8.314 -0.4333  0.2842  0.6795
 6415SOL    HW130878   0.353   4.388   8.247 -0.9400  0.0317  0.1462
 6415SOL    HW230879   0.336   4.387   8.391 -1.0353 -0.5333  1.4327
 6416SOL     OW30880   2.223   0.873   3.638 -0.2482 -0.2025  0.6678
 6416SOL    HW130881   2.137   0.831   3.637  0.1188 -1.0560  4.0781
 6416SOL    HW230882   2.215   0.965   3.665 -2.8428 -0.3093  0.2324
 6417SOL     OW30883   0.589   3.053   7.848  0.0630 -0.4223  0.1504
 6417SOL    HW130884   0.583   3.136   7.893 -1.8287 -0.1871 -0.5525
 6417SOL    HW230885   0.530   2.990   7.890 -1.4148  0.5521 -0.4829
 6418SOL     OW30886   2.168   3.760  12.791 -0.0857 -0.3559  0.1455
 6418SOL    HW130887   2.139   3.824  12.855  2.4224  0.5410  0.3869
 6418SOL    HW230888   2.169   3.684  12.850  1.5482  0.2377  0.8866
 6419SOL     OW30889   0.790   2.437   1.857 -0.0850  0.1178  0.5457
 6419SOL    HW130890   0.709   2.392   1.834  0.7509 -2.2537  2.2740
 6419SOL    HW230891   0.795   2.417   1.951  0.2372  1.3555  0.7887
 6420SOL     OW30892   3.198   1.644   7.808 -0.4212  0.1783 -0.2425
 6420SOL    HW130893   3.212   1.712   7.743  1.4793  0.7572  0.7710
 6420SOL    HW230894   3.119   1.599   7.778  0.6000 -1.6927 -0.1268
 6421SOL     OW30895   0.771   2.241  12.667  0.2307 -0.8362  0.3798
 6421SOL    HW130896   0.736   2.160  12.631  0.7331 -1.6841  1.8240
 6421SOL    HW230897   0.694   2.298  12.664  0.6693 -0.1945  1.2363
 6422SOL     OW30898   3.764   2.906   6.056  0.2528  0.1622  0.0525
 6422SOL    HW130899   3.859   2.913   6.048  0.0808  0.9646 -1.2164
 6422SOL    HW230900   3.741   2.864   5.973  0.4724 -1.4511  0.8083
 6423SOL     OW30901   2.304   4.719   1.726  0.3019 -0.2536 -0.1642
 6423SOL    HW130902   2.364   4.666   1.673 -0.6011 -2.2168  0.7803
 6423SOL    HW230903   2.290   0.052   1.663 -1.6540 -1.3081 -0.9316
 6424SOL     OW30904   2.722   2.988   5.294 -0.1156 -0.1451 -0.1897
 6424SOL    HW130905   2.662   3.031   5.233 -1.6966 -0.1726  1.3668
 6424SOL    HW230906   2.656   2.948   5.350  0.0420  1.6506  1.2944
 6425SOL     OW30907   1.813   3.170   2.365  0.4511  0.4959 -0.0545
 6425SOL    HW130908   1.797   3.109   2.292  1.3839  0.0644  0.0975
 6425SOL    HW230909   1.842   3.249   2.318  2.3504 -0.4881 -0.5640
 6426SOL     OW30910   0.698   2.901  12.710  0.1427 -0.5269 -0.5586
 6426SOL    HW130911   0.621   2.864  12.754  0.7132 -1.0417  0.0101
 6426SOL    HW230912   0.754   2.897  12.787 -0.3927 -0.6221 -0.1701
 6427SOL     OW30913   2.290   4.320  16.530 -0.0704  0.5530  0.1372
 6427SOL    HW130914   2.260   4.404  16.565 -0.2259  0.6332 -0.1849
 6427SOL    HW230915   2.297   4.268  16.610  1.9415  0.9164  0.1946
 6428SOL     OW30916   2.323   2.759   3.271  0.1621  0.3417  0.1577
 6428SOL    HW130917   2.345   2.766   3.364  0.8962  0.8162 -0.0576
 6428SOL    HW230918   2.302   2.852   3.259  1.8498  0.7863  0.6037
 6429SOL     OW30919   3.990   3.040  16.441 -0.1705  0.0237 -0.8156
 6429SOL    HW130920   3.997   3.042  16.346 -0.6457 -0.8989 -0.8744
 6429SOL    HW230921   3.900   3.064  16.462 -0.1419 -1.5643  1.1432
 6430SOL     OW30922   4.285   2.398   6.325 -0.0280  0.5007  0.4214
 6430SOL    HW130923   4.373   2.404   6.363  0.5526 -2.7568 -0.4776
 6430SOL    HW230924   4.303   2.409   6.231  2.1296 -3.7954  0.3610
 6431SOL     OW30925   3.037   0.545   2.831  0.3636  0.2533 -0.2330
 6431SOL    HW130926   3.038   0.568   2.738 -2.0706 -0.0814 -0.3345
 6431SOL    HW230927   2.948   0.511   2.839  0.0038  1.3801  0.7594
 6432SOL     OW30928   3.701   0.973   5.680  0.4257  0.1746 -0.3781
 6432SOL    HW130929   3.650   0.923   5.745 -0.5532  0.3224 -1.0331
 6432SOL    HW230930   3.771   1.016   5.729 -1.5137  1.6626  1.0630
 6433SOL     OW30931   2.059   4.688   9.813 -0.1941 -0.2672 -0.7602
 6433SOL    HW130932   2.121   4.632   9.859 -0.5304 -0.0214  0.0068
 6433SOL    HW230933   2.010   4.718   9.890 -0.9258 -0.4212 -1.1633
 6434SOL     OW30934   0.918   1.870   8.410 -0.2615  0.3820 -0.4394
 6434SOL    HW130935   1.004   1.907   8.389  0.7427 -1.4458  0.5198
 6434SOL    HW230936   0.930   1.776   8.419 -0.3461  0.3241 -0.9380
 6435SOL     OW30937   3.001   2.350   4.334 -0.3913 -0.3083 -0.2893
 6435SOL    HW130938   3.035   2.421   4.280  1.4738  0.4797  1.9453
 6435SOL    HW230939   2.968   2.387   4.416  1.5097  0.6785  0.0062
 6436SOL     OW30940   1.202   1.959  12.022 -0.1646  0.2276  1.0159
 6436SOL    HW130941   1.155   1.993  12.098 -2.4079 -2.7797  1.0138
 6436SOL    HW230942   1.147   1.884  11.999  0.2113  0.6775 -1.3626
 6437SOL     OW30943   3.811   3.301   4.092  0.1412 -0.0760  0.4626
 6437SOL    HW130944   3.798   3.298   3.997  2.3222 -1.1838  0.1782
 6437SOL    HW230945   3.805   3.392   4.121 -0.1514  0.4428 -1.2466
 6438SOL     OW30946   1.092   2.424   9.348 -0.2394  0.1311  0.5019
 6438SOL    HW130947   1.165   2.473   9.311  0.8131 -0.8369  1.3215
 6438SOL    HW230948   1.110   2.433   9.441 -1.3281 -0.9561  0.8214
 6439SOL     OW30949   2.102   2.853  11.531 -0.2419  0.6888 -0.2645
 6439SOL    HW130950   2.080   2.945  11.522 -2.5529  0.1182 -0.3518
 6439SOL    HW230951   2.067   2.815  11.451  0.1303  0.9707 -0.5607
 6440SOL     OW30952   3.681   0.105   2.031  0.2108  0.2490  0.0274
 6440SOL    HW130953   3.592   0.139   2.038  0.1301  0.3154 -1.3013
 6440SOL    HW230954   3.724   0.155   2.100  1.1968 -0.6358  0.0593
 6441SOL     OW30955   3.924   4.314   6.152 -0.6753 -0.6634 -0.4382
 6441SOL    HW130956   3.853   4.368   6.187 -0.3932 -0.6887  0.1900
 6441SOL    HW230957   3.970   4.276   6.227 -1.3798 -0.6573 -0.0044
 6442SOL     OW30958   1.959   2.706   4.058  0.1918 -0.0639 -0.0150
 6442SOL    HW130959   2.019   2.777   4.080  2.1022 -1.5341 -0.5300
 6442SOL    HW230960   1.906   2.699   4.138  0.1448  1.2518  0.0696
 6443SOL     OW30961   0.288   4.048   4.661  0.4427 -0.4339  0.3674
 6443SOL    HW130962   0.360   4.090   4.708  1.3772  1.6198 -2.9680
 6443SOL    HW230963   0.217   4.110   4.679 -1.9182 -1.8292 -4.1206
 6444SOL     OW30964   3.700   2.670   2.364 -0.3216  0.4840 -0.4191
 6444SOL    HW130965   3.676   2.763   2.371 -0.2374  0.4795 -0.0709
 6444SOL    HW230966   3.612   2.633   2.362 -0.7604  1.4681  0.6170
 6445SOL     OW30967   4.065   2.483   7.326  0.2328  1.2085 -0.3744
 6445SOL    HW130968   4.008   2.561   7.326 -0.9359  0.3601  0.0187
 6445SOL    HW230969   4.135   2.518   7.271  1.5658 -2.6602 -1.1483
 6446SOL     OW30970   1.887   1.612   7.884  0.0269  0.7032  0.1762
 6446SOL    HW130971   1.959   1.672   7.905  0.1266  0.5984  0.1376
 6446SOL    HW230972   1.808   1.662   7.905  0.0793  0.8630 -0.0045
 6447SOL     OW30973   0.567   0.716   1.725  0.2054 -0.0020  0.4452
 6447SOL    HW130974   0.615   0.799   1.736 -1.3255  0.7986  1.1877
 6447SOL    HW230975   0.480   0.743   1.697 -0.4137 -2.2603  0.2591
 6448SOL     OW30976   4.352   1.386   8.972  0.2986  0.3281 -0.2613
 6448SOL    HW130977   4.407   1.465   8.968  1.8100 -0.6073  2.1055
 6448SOL    HW230978   4.268   1.417   9.004 -0.1978 -0.1777 -1.0911
 6449SOL     OW30979   1.289   3.543  15.810  0.0901  0.5768 -0.0707
 6449SOL    HW130980   1.283   3.585  15.896 -3.1965 -2.5479  1.2482
 6449SOL    HW230981   1.306   3.616  15.751 -0.4791  0.1614 -0.7517
 6450SOL     OW30982   2.157   4.114   5.199  0.9676  0.2676  0.3962
 6450SOL    HW130983   2.126   4.029   5.230 -2.8078  1.2584 -0.7359
 6450SOL    HW230984   2.076   4.162   5.209  1.5312  1.2534  0.2116
 6451SOL     OW30985   1.672   0.732   3.248  0.3498 -0.4884 -0.0223
 6451SOL    HW130986   1.752   0.784   3.251  0.6237 -0.9432  0.7572
 6451SOL    HW230987   1.711   0.646   3.265  0.5575 -0.5296 -0.7264
 6452SOL     OW30988   1.452   2.068   9.415  0.1294 -0.3915 -0.4720
 6452SOL    HW130989   1.466   2.153   9.373 -2.3992  0.6611  0.8013
 6452SOL    HW230990   1.444   2.010   9.340 -2.2768  0.0151 -0.5375
 6453SOL     OW30991   2.357   1.964  13.387 -0.3013 -0.5003 -0.4901
 6453SOL    HW130992   2.388   2.045  13.427  0.4217 -0.3168 -1.4014
 6453SOL    HW230993   2.398   1.974  13.301  1.5033 -4.0191 -0.0588
 6454SOL     OW30994   3.282   4.348   6.517  0.2123 -0.0998 -0.2448
 6454SOL    HW130995   3.235   4.378   6.594 -2.1066 -2.1834 -0.8273
 6454SOL    HW230996   3.221   4.280   6.488 -1.7027  0.5929  2.2526
 6455SOL     OW30997   3.725   2.267   4.618  0.7286 -0.3845  0.4597
 6455SOL    HW130998   3.785   2.207   4.575 -1.0246 -1.6751 -0.2161
 6455SOL    HW230999   3.693   2.199   4.677  0.6609  0.5485  1.5102
 6456SOL     OW31000   0.398   4.492   8.116 -0.2788  0.0083 -0.2634
 6456SOL    HW131001   0.373   4.515   8.027 -1.7080 -0.4612  0.0183
 6456SOL    HW231002   0.477   4.543   8.135  0.2995 -0.9982  0.1075
 6457SOL     OW31003   2.728   0.501   6.095  0.1310  0.9907  0.1054
 6457SOL    HW131004   2.683   0.552   6.028 -0.5020  2.3172  1.5360
 6457SOL    HW231005   2.658   0.518   6.158  1.1737  2.9129  0.7611
 6458SOL     OW31006   0.354   0.942   2.631  0.1645 -0.2251 -0.0727
 6458SOL    HW131007   0.266   0.920   2.599 -0.1430  0.0718  0.5621
 6458SOL    HW231008   0.334   1.002   2.703 -1.1408 -0.2137 -0.4323
 6459SOL     OW31009   0.448   1.881   3.594  0.4907 -0.1465 -0.6176
 6459SOL    HW131010   0.369   1.826   3.598  0.2420  0.3702  1.3552
 6459SOL    HW231011   0.436   1.938   3.670  2.7282 -1.4677  0.7281
 6460SOL     OW31012   3.491   2.736  16.812 -0.5612  0.0717 -0.2812
 6460SOL    HW131013   3.579   2.713  16.782 -0.2905  2.5253 -1.3563
 6460SOL    HW231014   3.468   2.792  16.738  0.5672 -0.2502 -0.8762
 6461SOL     OW31015   2.564   0.110  11.556  0.1320 -0.0471  0.4010
 6461SOL    HW131016   2.640   0.054  11.570 -0.2319 -0.8639 -0.8484
 6461SOL    HW231017   2.573   0.127  11.462 -0.0020  0.0935  0.4142
 6462SOL     OW31018   1.927   1.484   8.443  0.6507 -0.1696  0.0726
 6462SOL    HW131019   1.920   1.483   8.539  0.7815  2.0119  0.1079
 6462SOL    HW231020   1.867   1.412   8.423  1.2215  0.3632 -3.5458
 6463SOL     OW31021   0.536   4.580  11.825 -0.2755 -0.4928  0.3461
 6463SOL    HW131022   0.544   4.541  11.912  2.5781 -0.0722  0.2809
 6463SOL    HW231023   0.546   4.671  11.854  0.6898  0.0960 -1.8371
 6464SOL     OW31024   3.698   2.095   4.877  0.0142  0.2436 -0.0397
 6464SOL    HW131025   3.775   2.141   4.911 -0.5532 -0.0340  1.6015
 6464SOL    HW231026   3.735   2.006   4.874  0.7118  0.4554  2.2584
 6465SOL     OW31027   0.191   1.809  16.846 -0.1086 -0.0109 -0.2435
 6465SOL    HW131028   0.204   1.883  16.905 -0.3850 -1.0944  1.1905
 6465SOL    HW231029   0.095   1.803  16.849  0.1011 -2.4024  2.3319
 6466SOL     OW31030   4.535   1.307   2.941 -0.1212 -0.7921 -1.0483
 6466SOL    HW131031   4.460   1.251   2.959  0.1397 -0.3840  1.4055
 6466SOL    HW231032   4.499   1.366   2.875 -1.7215 -0.0774  0.4509
 6467SOL     OW31033   1.519   3.146  17.495 -0.2737  0.6391 -0.7993
 6467SOL    HW131034   1.600   3.182  17.460  0.3636  0.5946  0.6064
 6467SOL    HW231035   1.480   3.098  17.422 -0.0393 -2.4800  1.0806
 6468SOL     OW31036   2.617   1.097   8.241  0.1884 -0.0124  0.1015
 6468SOL    HW131037   2.663   1.019   8.273 -0.3728 -0.1350  0.6181
 6468SOL    HW231038   2.626   1.083   8.147 -0.3225 -0.6038  0.1377
 6469SOL     OW31039   4.113   3.070   0.603 -0.3132 -0.2392  0.6234
 6469SOL    HW131040   4.117   3.140   0.668 -2.9105 -0.6970  1.2820
 6469SOL    HW231041   4.064   3.009   0.658 -3.7729 -1.5869 -3.9733
 6470SOL     OW31042   4.155   2.427   2.310 -0.0678  0.0829 -0.0545
 6470SOL    HW131043   4.112   2.511   2.323  1.5153  1.1189 -1.4642
 6470SOL    HW231044   4.086   2.366   2.336  1.0612 -0.5393  1.5085
 6471SOL     OW31045   1.530   0.349  12.801  0.2267  0.0989  0.4225
 6471SOL    HW131046   1.490   0.431  12.772 -0.9795 -1.2736 -1.7841
 6471SOL    HW231047   1.552   0.310  12.717 -3.8008 -2.3688  0.4680
 6472SOL     OW31048   0.100   0.297   6.693 -0.0674  0.0753 -0.0778
 6472SOL    HW131049   0.112   0.388   6.667  0.3431 -0.3785 -1.4818
 6472SOL    HW231050   0.063   0.310   6.780 -0.5674  0.1692 -0.3020
 6473SOL     OW31051   2.225   4.164   2.333 -0.0743  0.0951 -0.8488
 6473SOL    HW131052   2.142   4.211   2.328 -0.1835 -0.0864 -0.7083
 6473SOL    HW231053   2.262   4.200   2.252  0.2558  1.3821 -0.1230
 6474SOL     OW31054   1.278   0.132  11.292  0.5810 -0.4740 -0.6279
 6474SOL    HW131055   1.215   0.063  11.315  1.7298 -1.6111 -0.8982
 6474SOL    HW231056   1.332   0.123  11.370  1.8363 -0.6572 -1.5171
 6475SOL     OW31057   2.905   3.863   2.316 -0.4836 -0.6646 -0.0171
 6475SOL    HW131058   2.836   3.899   2.372 -0.0337  1.9117 -1.1166
 6475SOL    HW231059   2.963   3.806   2.366 -0.0880  1.4046  1.8479
 6476SOL     OW31060   4.219   0.067   6.215  0.3719  0.0591 -0.2227
 6476SOL    HW131061   4.166   0.134   6.259  1.1519 -0.0723  0.9137
 6476SOL    HW231062   4.253   0.118   6.141 -1.8376 -2.8882 -3.2456
 6477SOL     OW31063   3.133   0.517   2.304 -0.6965  0.5261  0.8945
 6477SOL    HW131064   3.186   0.552   2.376 -0.8390 -0.4503  1.4656
 6477SOL    HW231065   3.073   0.584   2.272 -0.5703  0.2977  0.1733
 6478SOL     OW31066   3.766   3.664  11.749 -0.4743  0.1667 -0.1856
 6478SOL    HW131067   3.809   3.581  11.726 -2.6432 -0.5499 -1.6081
 6478SOL    HW231068   3.836   3.695  11.807 -1.6005 -0.2205  1.3660
 6479SOL     OW31069   2.718   2.248   4.207 -0.0020  0.2462 -1.0536
 6479SOL    HW131070   2.770   2.221   4.131  1.0470  0.5585 -0.4294
 6479SOL    HW231071   2.765   2.325   4.237 -0.5073 -0.4913  1.5838
 6480SOL     OW31072   2.449   4.661   6.814  0.0590  0.1487 -0.1963
 6480SOL    HW131073   2.501   4.586   6.843  1.8182  0.9985 -1.1705
 6480SOL    HW231074   2.364   4.632   6.780  0.3792  0.1090 -0.9556
 6481SOL     OW31075   3.568   3.447  12.632 -0.0449  0.0282 -0.2239
 6481SOL    HW131076   3.583   3.383  12.702  1.1097 -0.1118 -0.5974
 6481SOL    HW231077   3.571   3.385  12.560  1.7000  0.2969 -0.3929
 6482SOL     OW31078   1.234   2.964   4.021  0.0848 -0.4566  0.6880
 6482SOL    HW131079   1.195   3.047   4.050  0.4719 -0.2986  0.7583
 6482SOL    HW231080   1.159   2.937   3.969 -0.3695  0.0243  1.1028
 6483SOL     OW31081   1.352   4.518   8.502  0.4893  0.2861 -0.0168
 6483SOL    HW131082   1.366   4.611   8.483 -0.2343 -0.1812 -2.6951
 6483SOL    HW231083   1.412   4.506   8.576 -0.9164 -0.0231  1.0755
 6484SOL     OW31084   3.745   0.965   9.938 -0.1387  0.3755 -0.0559
 6484SOL    HW131085   3.727   1.046   9.986 -2.3462 -1.5032  2.3765
 6484SOL    HW231086   3.839   0.954   9.951 -0.4039 -2.0417 -0.1710
 6485SOL     OW31087   0.905   1.366   0.091 -0.4295 -0.0391  0.0870
 6485SOL    HW131088   0.924   1.370   0.185 -1.2226 -0.3553  0.2566
 6485SOL    HW231089   0.989   1.345   0.050 -0.8390 -0.8120 -0.3409
 6486SOL     OW31090   3.693   0.717  10.040  0.2842  0.3780  0.0919
 6486SOL    HW131091   3.782   0.707  10.073 -0.9758 -1.9339  2.7133
 6486SOL    HW231092   3.699   0.796   9.986  1.7746 -0.2765 -0.6924
 6487SOL     OW31093   3.364   1.068   3.962 -0.7755 -0.4027  0.3006
 6487SOL    HW131094   3.406   0.985   3.983  0.7294 -0.0347 -1.2767
 6487SOL    HW231095   3.443   1.121   3.950 -1.6396  1.0459  0.9657
 6488SOL     OW31096   3.946   1.798   6.811  0.3657  0.5374  0.2582
 6488SOL    HW131097   3.869   1.813   6.866 -1.0714  2.1369 -2.1620
 6488SOL    HW231098   3.948   1.875   6.754 -2.0782  0.9337  0.7024
 6489SOL     OW31099   0.691   1.421  17.658  0.4234  0.7391  0.5915
 6489SOL    HW131100   0.753   1.387  17.723  0.0561 -1.6623 -0.3047
 6489SOL    HW231101   0.753   1.442  17.589  1.4929  0.6548  1.5319
 6490SOL     OW31102   1.739   2.462   5.640 -0.1299 -0.1101  0.1265
 6490SOL    HW131103   1.669   2.489   5.698 -2.6208  0.1262 -3.0217
 6490SOL    HW231104   1.693   2.460   5.556  3.6819 -1.2147 -1.9940
 6491SOL     OW31105   1.731   4.247   4.482  0.1981  0.6087  0.5423
 6491SOL    HW131106   1.686   4.319   4.526 -0.2190  1.4804 -1.2953
 6491SOL    HW231107   1.735   4.276   4.391  0.6010  4.4968  1.7624
 6492SOL     OW31108   1.944   3.491   3.679 -0.1992 -0.0435  0.1404
 6492SOL    HW131109   1.966   3.452   3.594 -1.5694 -0.3265 -0.0929
 6492SOL    HW231110   2.019   3.462   3.730  2.0542  0.9762 -2.5577
 6493SOL     OW31111   2.277   1.836   4.198 -0.6305  0.9734  0.1118
 6493SOL    HW131112   2.303   1.757   4.150  1.1567  1.1427  0.8222
 6493SOL    HW231113   2.221   1.885   4.138 -1.0758  1.9918  1.3607
 6494SOL     OW31114   4.052   2.760  16.432 -0.6521 -0.0876 -0.1813
 6494SOL    HW131115   4.007   2.843  16.416  1.9557  1.4211  0.2399
 6494SOL    HW231116   4.137   2.802  16.442 -1.2204  1.5095 -2.1006
 6495SOL     OW31117   4.174   2.449   9.167 -0.1390  0.4461  0.0906
 6495SOL    HW131118   4.190   2.495   9.085  1.4412  1.3540  0.8963
 6495SOL    HW231119   4.079   2.454   9.170 -0.2163 -0.7162 -0.6934
 6496SOL     OW31120   4.298   1.032   1.012  0.3870  0.1769 -0.6150
 6496SOL    HW131121   4.204   1.047   1.024  0.4200 -1.3771  1.5790
 6496SOL    HW231122   4.305   1.061   0.921 -2.1365  0.2871 -0.7820
 6497SOL     OW31123   3.673   2.543   8.828  0.0817 -0.1472 -0.4781
 6497SOL    HW131124   3.721   2.472   8.785  0.6050 -0.1093  0.0401
 6497SOL    HW231125   3.586   2.525   8.795 -0.5049  1.6745  0.0353
 6498SOL     OW31126   1.114   0.565   6.563  0.5183  0.3697 -0.0091
 6498SOL    HW131127   1.023   0.594   6.565  0.3395 -0.1712 -0.5316
 6498SOL    HW231128   1.113   0.470   6.572 -0.0909  0.3868  0.1006
 6499SOL     OW31129   2.548   4.303   8.393  0.1267  0.3226  0.1061
 6499SOL    HW131130   2.556   4.235   8.459  0.2119 -0.8704 -1.1286
 6499SOL    HW231131   2.638   4.337   8.393  1.1798 -2.4905  0.6258
 6500SOL     OW31132   4.265   0.819   3.120 -0.0322  0.0757  0.4189
 6500SOL    HW131133   4.190   0.809   3.063 -1.2771  0.1050  2.0493
 6500SOL    HW231134   4.281   0.725   3.128 -2.5433 -0.4625 -0.8716
 6501SOL     OW31135   0.356   2.021   3.800 -0.0310 -0.4477  0.1172
 6501SOL    HW131136   0.268   1.997   3.827 -0.7197 -0.8803 -2.5075
 6501SOL    HW231137   0.375   2.098   3.854  2.0285 -1.1153  0.3512
 6502SOL     OW31138   4.152   2.772   7.471  0.6934  0.0345 -0.2525
 6502SOL    HW131139   4.232   2.792   7.421  1.2776 -1.1652  0.1942
 6502SOL    HW231140   4.188   2.725   7.547 -0.6002  0.4192  0.5884
 6503SOL     OW31141   1.024   1.652  15.377  0.2839  0.1850  0.2554
 6503SOL    HW131142   0.998   1.672  15.287 -0.1356  1.3624  0.6420
 6503SOL    HW231143   1.053   1.561  15.372 -1.6760 -0.5294  1.8161
 6504SOL     OW31144   0.682   1.878   8.569 -0.0735 -0.8772 -0.1846
 6504SOL    HW131145   0.761   1.867   8.516  0.1957  1.6552 -0.3138
 6504SOL    HW231146   0.602   1.877   8.515 -0.2282  0.1818  0.0154
 6505SOL     OW31147   4.660   4.415   1.273  0.0960  0.2487 -0.0034
 6505SOL    HW131148   4.734   4.356   1.284 -0.4546 -0.0496  2.1520
 6505SOL    HW231149   4.604   4.343   1.242 -0.7973  0.4906  1.0540
 6506SOL     OW31150   0.325   0.393   4.538  0.6118  0.1516  0.1266
 6506SOL    HW131151   0.286   0.306   4.547 -0.8374  0.6553 -1.2698
 6506SOL    HW231152   0.416   0.375   4.563  0.6203  1.3511  0.9422
 6507SOL     OW31153   2.600   2.380   1.741 -0.0641  0.0477 -0.0421
 6507SOL    HW131154   2.676   2.408   1.691  0.2808 -0.8904 -0.0549
 6507SOL    HW231155   2.616   2.415   1.829 -0.1593 -1.8738  0.7535
 6508SOL     OW31156   1.125   0.278  17.030 -0.6974 -0.7941  0.5585
 6508SOL    HW131157   1.201   0.232  16.994  0.9953  0.4979  2.4300
 6508SOL    HW231158   1.087   0.199  17.069 -0.4447 -1.1193  0.1379
 6509SOL     OW31159   3.382   0.674  16.763 -0.0713 -0.0045 -0.0520
 6509SOL    HW131160   3.412   0.615  16.833 -0.2821 -0.8576 -0.6752
 6509SOL    HW231161   3.294   0.637  16.762  0.1322 -0.5598  1.4901
 6510SOL     OW31162   3.973   2.375  16.719  0.0127 -0.0491 -0.4783
 6510SOL    HW131163   4.055   2.419  16.698  0.1924 -0.7963 -1.3208
 6510SOL    HW231164   3.910   2.417  16.660 -0.0476  0.8385  0.2103
 6511SOL     OW31165   2.087   2.362   0.333 -0.7870 -0.9624 -0.3442
 6511SOL    HW131166   2.154   2.354   0.265  0.4432  4.0281  0.2667
 6511SOL    HW231167   2.148   2.367   0.406 -1.3705  0.0251  0.0825
 6512SOL     OW31168   4.297   3.773   4.813 -0.2875  1.2023  0.4878
 6512SOL    HW131169   4.352   3.696   4.821 -1.0572  0.6467  0.4941
 6512SOL    HW231170   4.245   3.764   4.733  0.2697  0.9113  0.1634
 6513SOL     OW31171   1.311   2.208   2.519 -0.7647 -0.3499  0.6345
 6513SOL    HW131172   1.382   2.250   2.469 -0.4437 -0.0727  1.3306
 6513SOL    HW231173   1.248   2.279   2.504  0.8200  1.0560  0.5946
 6514SOL     OW31174   0.445   1.878   8.385 -0.0292 -0.2852  0.0076
 6514SOL    HW131175   0.475   1.808   8.327  0.8524  2.0150 -2.3133
 6514SOL    HW231176   0.371   1.917   8.339 -0.2688  0.1215  0.7405
 6515SOL     OW31177   0.728   0.822   5.780 -0.2106 -0.4622  0.5383
 6515SOL    HW131178   0.682   0.900   5.749  2.0398  0.0749 -1.4392
 6515SOL    HW231179   0.810   0.850   5.739 -1.5194  0.1920 -1.6612
 6516SOL     OW31180   4.682   0.951   0.882 -0.1556  0.0126  0.2592
 6516SOL    HW131181   4.601   0.911   0.914  0.2735 -0.9118  0.1918
 6516SOL    HW231182   4.695   1.029   0.936  0.4465  1.1184 -1.5136
 6517SOL     OW31183   3.418   1.050   4.405 -0.4960 -0.7003 -0.8585
 6517SOL    HW131184   3.445   1.118   4.343 -0.0222  0.0150  0.1213
 6517SOL    HW231185   3.343   1.017   4.356 -0.4285  0.4916 -1.7621
 6518SOL     OW31186   1.102   4.422  17.324  0.1087  0.2581 -0.9147
 6518SOL    HW131187   1.165   4.351  17.319  2.2467  2.3369 -3.4911
 6518SOL    HW231188   1.163   4.481  17.368  1.4708 -1.2779 -0.7967
 6519SOL     OW31189   3.451   4.593   2.853  0.0534 -0.4786  0.3898
 6519SOL    HW131190   3.395   4.641   2.792  0.5761  1.4789  1.4281
 6519SOL    HW231191   3.421   4.630   2.936 -0.7149 -0.1591 -0.0346
 6520SOL     OW31192   4.407   0.591   7.865 -0.0693 -0.2800  0.5422
 6520SOL    HW131193   4.393   0.500   7.839 -2.0143 -0.2004  1.2921
 6520SOL    HW231194   4.317   0.612   7.889 -0.6769  0.0459 -2.0290
 6521SOL     OW31195   1.388   0.403   4.367  0.0915  0.4124  0.3564
 6521SOL    HW131196   1.333   0.338   4.324  1.0731  0.1457 -0.4810
 6521SOL    HW231197   1.434   0.346   4.429 -0.8739  0.4701  1.1253
 6522SOL     OW31198   4.224   0.757   3.578  0.2583 -0.2036 -0.0496
 6522SOL    HW131199   4.167   0.680   3.589  1.0114 -0.6984  0.4447
 6522SOL    HW231200   4.193   0.788   3.493 -0.9023 -2.8875 -0.6082
 6523SOL     OW31201   1.477   3.226   2.369  0.7729 -0.1906 -0.2944
 6523SOL    HW131202   1.567   3.257   2.385  0.7451 -0.9155  1.2467
 6523SOL    HW231203   1.480   3.215   2.274  2.6640 -0.7660 -0.1668
 6524SOL     OW31204   2.447   2.138   9.566  0.2338  0.0619  0.0633
 6524SOL    HW131205   2.460   2.183   9.482 -2.6533  0.0089 -0.4004
 6524SOL    HW231206   2.478   2.051   9.542 -0.2478 -0.2590  0.6130
 6525SOL     OW31207   2.123   2.691   7.283 -0.8399 -0.4330 -0.1212
 6525SOL    HW131208   2.097   2.725   7.197 -2.5290 -0.0922  0.5299
 6525SOL    HW231209   2.082   2.762   7.332 -1.5994 -1.7250  1.1128
 6526SOL     OW31210   2.333   0.080   3.043 -0.0085  0.3879 -0.0889
 6526SOL    HW131211   2.373   0.017   2.984 -1.1991 -0.8143  0.3769
 6526SOL    HW231212   2.395   0.084   3.116 -0.0349 -2.4812  0.0835
 6527SOL     OW31213   0.560   4.734   2.254 -0.2762 -0.3365  0.4522
 6527SOL    HW131214   0.483   4.687   2.221 -0.7185  0.8537 -0.1947
 6527SOL    HW231215   0.626   4.709   2.189 -1.5989  1.5303 -1.6177
 6528SOL     OW31216   4.118   3.051   7.910  0.5222 -0.0876 -0.0125
 6528SOL    HW131217   4.183   3.119   7.894  0.2729  0.2943  0.5861
 6528SOL    HW231218   4.077   3.093   7.986  1.1483 -0.3434  0.4679
 6529SOL     OW31219   1.298   2.209   3.051  0.1627 -0.2485 -0.3802
 6529SOL    HW131220   1.330   2.121   3.073  1.1726 -0.6856 -3.6542
 6529SOL    HW231221   1.204   2.194   3.049 -0.2191  2.0780  0.1147
 6530SOL     OW31222   2.940   4.210   3.958  0.6462  0.2304  0.0401
 6530SOL    HW131223   2.888   4.257   4.023  0.8254 -2.2914  1.9746
 6530SOL    HW231224   2.903   4.123   3.946  2.5539 -0.6560  0.5620
 6531SOL     OW31225   0.785   2.609   5.947  0.4861 -0.4516  0.0672
 6531SOL    HW131226   0.814   2.560   5.869 -1.4174 -2.9408  0.9221
 6531SOL    HW231227   0.862   2.658   5.975 -2.2628  3.9106 -0.0795
 6532SOL     OW31228   0.984   2.791   5.060  0.0505 -0.3082 -0.2124
 6532SOL    HW131229   1.043   2.863   5.039 -0.6311  0.4085  0.3232
 6532SOL    HW231230   0.983   2.736   4.981  0.0533 -0.6220  0.0056
 6533SOL     OW31231   0.962   4.107   1.568  0.0558 -0.1487  0.1280
 6533SOL    HW131232   0.942   4.142   1.481 -1.2485  3.3295  1.8537
 6533SOL    HW231233   0.948   4.188   1.617 -2.5792 -0.5859  0.0820
 6534SOL     OW31234   3.347   3.685  14.404 -0.8988  0.5223 -0.2375
 6534SOL    HW131235   3.409   3.690  14.331  1.5275 -1.9878  1.6923
 6534SOL    HW231236   3.404   3.676  14.480  1.3901  1.1058 -1.8763
 6535SOL     OW31237   3.418   3.908   5.266 -0.3596 -1.3894  0.1839
 6535SOL    HW131238   3.449   3.892   5.355  0.3211  1.1841  0.4045
 6535SOL    HW231239   3.325   3.888   5.273 -0.8298  1.2356  1.2125
 6536SOL     OW31240   0.065   1.736   7.912  0.4759  0.1458 -0.3248
 6536SOL    HW131241   4.717   1.695   7.898 -0.4750  1.7158  0.9184
 6536SOL    HW231242   0.050   1.828   7.889  2.9102  0.0720 -2.1587
 6537SOL     OW31243   1.930   1.783   5.291  0.4707  0.2878  0.3175
 6537SOL    HW131244   1.919   1.878   5.287 -2.9543 -0.1042  0.1997
 6537SOL    HW231245   2.011   1.791   5.341 -0.6300 -1.3739  2.3540
 6538SOL     OW31246   1.588   1.173   2.949  0.1795 -0.2641  0.2596
 6538SOL    HW131247   1.494   1.175   2.969  0.5764  1.5624  1.9397
 6538SOL    HW231248   1.624   1.129   3.025  2.2242  0.0830 -0.5142
 6539SOL     OW31249   4.517   4.239  14.068 -0.0947  0.1181 -0.5509
 6539SOL    HW131250   4.463   4.180  14.120  1.3307 -0.5697  0.1567
 6539SOL    HW231251   4.599   4.240  14.119 -0.5166 -0.3593  0.1334
 6540SOL     OW31252   0.095   4.654  13.066  0.2131 -0.0049 -0.0629
 6540SOL    HW131253   0.082   0.009  13.084  2.3038 -0.0380  1.6291
 6540SOL    HW231254   0.187   4.638  13.085 -0.2700 -2.0217  0.6905
 6541SOL     OW31255   1.672   0.185   9.374 -0.1185 -0.2547 -0.6722
 6541SOL    HW131256   1.684   0.126   9.301  1.2706 -1.1461  0.2739
 6541SOL    HW231257   1.747   0.243   9.359 -1.1427  2.0940  3.0088
 6542SOL     OW31258   2.367   4.300   3.077 -0.4382 -0.0741 -0.3575
 6542SOL    HW131259   2.357   4.205   3.078 -2.3585  0.1371  0.1818
 6542SOL    HW231260   2.287   4.329   3.035 -0.2316  0.9661 -0.0372
 6543SOL     OW31261   0.792   3.052   6.114  0.0468  0.0824 -0.4543
 6543SOL    HW131262   0.755   3.106   6.045 -0.5541 -2.6062 -2.2329
 6543SOL    HW231263   0.795   2.974   6.059  1.1675  1.7082 -2.6605
 6544SOL     OW31264   3.415   4.733   1.941  0.2411  0.8951 -0.3950
 6544SOL    HW131265   3.363   4.654   1.928  0.8209  0.3318  0.8058
 6544SOL    HW231266   3.496   4.703   1.900 -0.2708  0.2307 -0.9357
 6545SOL     OW31267   3.336   2.503   5.613 -0.1996  0.3207  0.5610
 6545SOL    HW131268   3.267   2.491   5.548  0.2264 -0.4954  0.2561
 6545SOL    HW231269   3.405   2.453   5.569 -1.5249  0.1030 -1.2768
 6546SOL     OW31270   4.084   4.637   0.172  0.1460 -0.0927 -0.4890
 6546SOL    HW131271   4.057   4.658   0.261 -0.5028  0.6016 -0.8512
 6546SOL    HW231272   4.172   4.673   0.172  0.8451 -1.7899  0.9249
 6547SOL     OW31273   1.563   1.290   2.331  0.4140 -0.1382  0.3134
 6547SOL    HW131274   1.565   1.366   2.389 -1.7154 -0.5826  0.9842
 6547SOL    HW231275   1.564   1.219   2.394 -1.4112 -0.9052 -0.4981
 6548SOL     OW31276   0.504   3.798   8.328  0.0925  0.3167 -0.4702
 6548SOL    HW131277   0.442   3.842   8.270  1.2045  0.5178 -1.5083
 6548SOL    HW231278   0.584   3.848   8.309  0.4480 -0.7019 -1.6207
 6549SOL     OW31279   2.805   4.705   4.494  0.1047 -0.4006 -0.5283
 6549SOL    HW131280   2.811   0.013   4.577  0.6016 -0.4652 -0.5285
 6549SOL    HW231281   2.815   4.611   4.511  0.0764 -1.0017 -3.7714
 6550SOL     OW31282   2.716   1.073  14.712  0.3800 -0.0799 -0.1648
 6550SOL    HW131283   2.676   1.138  14.769  0.8264  2.1511 -2.3556
 6550SOL    HW231284   2.746   1.004  14.771 -1.8387  1.1610  2.3732
 6551SOL     OW31285   2.678   2.540   7.767 -0.0876  0.6126 -0.6876
 6551SOL    HW131286   2.753   2.495   7.806  0.1445  1.8928  0.3363
 6551SOL    HW231287   2.611   2.473   7.776 -0.8071  1.3702 -0.3930
 6552SOL     OW31288   1.416   3.487   3.565  0.9161  0.1526 -0.4163
 6552SOL    HW131289   1.409   3.490   3.470 -1.8734  1.1396 -0.1967
 6552SOL    HW231290   1.489   3.547   3.580 -0.6461  1.3157  2.6496
 6553SOL     OW31291   1.253   2.084  16.488 -0.9862  0.3252  0.2606
 6553SOL    HW131292   1.163   2.095  16.456 -1.3075 -2.9809  0.0911
 6553SOL    HW231293   1.305   2.083  16.408 -1.1242 -1.9907  0.2170
 6554SOL     OW31294   0.369   0.547  13.892 -0.2224 -0.0190 -0.5425
 6554SOL    HW131295   0.355   0.564  13.985  0.0043  0.9539 -0.6877
 6554SOL    HW231296   0.427   0.471  13.892  0.3930  0.4794  4.1388
 6555SOL     OW31297   2.562   2.063   7.097  0.1013 -0.4621 -0.1788
 6555SOL    HW131298   2.478   2.108   7.105  0.8868  1.1549 -0.9850
 6555SOL    HW231299   2.561   2.031   7.006 -3.6304  1.2636 -0.7528
 6556SOL     OW31300   3.990   0.504   6.207  0.3843  0.0063 -0.2071
 6556SOL    HW131301   4.051   0.559   6.257 -2.1788  0.9721  1.8293
 6556SOL    HW231302   4.007   0.415   6.238 -2.2016 -0.9790 -1.5859
 6557SOL     OW31303   1.117   0.866  15.231  0.1006  0.3966 -0.5312
 6557SOL    HW131304   1.029   0.860  15.268  1.0949  0.4142  1.8657
 6557SOL    HW231305   1.181   0.832  15.294 -1.6211 -1.1236  0.3851
 6558SOL     OW31306   1.628   0.177   7.586 -0.3866 -0.2362  0.8250
 6558SOL    HW131307   1.696   0.243   7.597 -0.4922 -0.1278  0.8163
 6558SOL    HW231308   1.676   0.095   7.573 -3.5436 -1.6935 -1.7315
 6559SOL     OW31309   3.032   4.238   4.823 -0.1860  0.2753 -0.6925
 6559SOL    HW131310   3.029   4.224   4.918 -0.6425 -0.2166 -0.7732
 6559SOL    HW231311   3.121   4.272   4.817  0.1875 -0.4096  1.0589
 6560SOL     OW31312   2.229   1.995   9.639 -0.1464 -0.1157 -0.4758
 6560SOL    HW131313   2.216   2.034   9.726  4.7468 -2.6959  1.4064
 6560SOL    HW231314   2.298   2.048   9.600 -0.5346  0.9815  0.3138
 6561SOL     OW31315   1.602   2.172   7.762  0.5031 -0.2037 -0.1623
 6561SOL    HW131316   1.668   2.189   7.829  1.1273 -0.3347 -0.7488
 6561SOL    HW231317   1.661   2.139   7.694 -1.9544 -2.4160 -1.2592
 6562SOL     OW31318   3.639   1.574   8.837  0.1543 -0.1891  0.1280
 6562SOL    HW131319   3.626   1.518   8.761  0.4992  2.3321 -1.7763
 6562SOL    HW231320   3.663   1.653   8.790  2.9616 -0.0641  1.7740
 6563SOL     OW31321   2.495   0.722  13.082 -0.0637  0.0596  0.0960
 6563SOL    HW131322   2.468   0.759  12.998  0.2692  1.0313  0.4233
 6563SOL    HW231323   2.495   0.794  13.144  0.1304  0.3302 -0.2177
 6564SOL     OW31324   3.509   4.231   2.237 -0.1484 -0.5974  0.4342
 6564SOL    HW131325   3.443   4.179   2.283 -1.6846 -0.0164 -1.1049
 6564SOL    HW231326   3.570   4.163   2.209 -0.8286 -0.3374 -1.6668
 6565SOL     OW31327   3.632   1.855   7.550 -0.3235  0.0214  0.3118
 6565SOL    HW131328   3.561   1.809   7.596 -0.8226 -1.1411 -1.6084
 6565SOL    HW231329   3.653   1.782   7.491 -0.5457 -0.3344  0.6706
 6566SOL     OW31330   1.961   2.926   3.868 -0.1883 -0.2775 -0.2065
 6566SOL    HW131331   1.870   2.926   3.896  0.1078 -0.8398  0.7568
 6566SOL    HW231332   1.978   2.834   3.889 -0.8655  0.1276  2.0593
 6567SOL     OW31333   3.472   0.109   5.430  0.2893 -0.1614 -0.1379
 6567SOL    HW131334   3.424   0.030   5.453  0.1829 -0.0161  0.1302
 6567SOL    HW231335   3.459   0.165   5.506  2.0721 -0.0691  0.0923
 6568SOL     OW31336   2.526   0.464   5.334  0.0453 -0.2719 -0.0328
 6568SOL    HW131337   2.451   0.501   5.380  0.2206  0.0551 -0.0150
 6568SOL    HW231338   2.598   0.469   5.397  0.7993  1.9796 -1.0786
 6569SOL     OW31339   1.749   3.857  12.038 -0.4184  0.0974 -0.1064
 6569SOL    HW131340   1.710   3.810  12.112  0.4773  0.1973  0.4203
 6569SOL    HW231341   1.842   3.861  12.061 -0.2959 -0.6921 -0.4680
 6570SOL     OW31342   0.419   2.263  17.130  0.3929 -0.0111 -0.1683
 6570SOL    HW131343   0.425   2.272  17.225 -1.0445  1.2739 -0.1991
 6570SOL    HW231344   0.510   2.263  17.103 -0.8097  2.8176 -4.1170
 6571SOL     OW31345   4.337   3.353   7.273  0.1560 -0.1372  0.2936
 6571SOL    HW131346   4.431   3.360   7.291  0.4377 -1.5341 -0.6701
 6571SOL    HW231347   4.337   3.430   7.216 -0.8477  2.0914  3.2623
 6572SOL     OW31348   1.292   4.661   3.590 -0.3175 -1.0130 -0.4435
 6572SOL    HW131349   1.332   4.634   3.672 -1.5694 -0.9711  0.1765
 6572SOL    HW231350   1.266   4.577   3.550 -0.9819 -1.8339  1.7201
 6573SOL     OW31351   3.449   0.875   1.714 -0.0522 -0.4476 -0.9200
 6573SOL    HW131352   3.449   0.923   1.796  2.5298 -3.4024  0.7921
 6573SOL    HW231353   3.541   0.889   1.690  0.1898  0.3110  0.4449
 6574SOL     OW31354   4.516   0.224   4.521  0.3801 -0.2116 -1.0720
 6574SOL    HW131355   4.489   0.312   4.548  1.2135 -0.5317  0.7894
 6574SOL    HW231356   4.545   0.185   4.604  0.5985 -0.7462 -1.4001
 6575SOL     OW31357   2.634   3.335   7.382 -0.5216 -0.0868 -0.2685
 6575SOL    HW131358   2.540   3.329   7.399 -0.5573  0.6964 -0.1627
 6575SOL    HW231359   2.646   3.428   7.402 -1.4067 -0.3492  1.4970
 6576SOL     OW31360   2.396   2.074   6.837 -0.3395  0.6754 -0.2295
 6576SOL    HW131361   2.376   2.000   6.779  0.0113 -0.6459  1.3505
 6576SOL    HW231362   2.492   2.079   6.829 -0.4164  1.0318 -0.9262
 6577SOL     OW31363   1.512   3.820  10.059 -0.4220  0.1252 -0.2116
 6577SOL    HW131364   1.594   3.772  10.053 -0.0036  0.5933  1.8087
 6577SOL    HW231365   1.517   3.880   9.984  0.6472  0.2509 -0.0317
 6578SOL     OW31366   2.244   0.453   5.415  0.2494 -0.1971  0.9167
 6578SOL    HW131367   2.227   0.375   5.363 -0.2423 -0.7388  1.8956
 6578SOL    HW231368   2.162   0.455   5.465  0.4360  0.1641  1.2189
 6579SOL     OW31369   1.141   0.092  10.990  0.0476  0.7670 -0.0425
 6579SOL    HW131370   1.146   0.152  10.916  0.6228  0.0184 -0.5980
 6579SOL    HW231371   1.230   0.058  10.984 -1.0855 -1.9277 -1.4818
 6580SOL     OW31372   3.242   1.930   0.948 -0.0530  0.1068 -0.3262
 6580SOL    HW131373   3.260   1.870   1.020 -1.4417 -1.0171 -0.9204
 6580SOL    HW231374   3.176   1.876   0.905  0.4263  0.0867 -1.0187
 6581SOL     OW31375   0.132   3.742  10.098 -0.3405 -0.0671  0.2558
 6581SOL    HW131376   0.158   3.693  10.176 -2.4187 -0.8365  0.4505
 6581SOL    HW231377   0.084   3.677  10.047  1.4612  0.1697 -1.7981
 6582SOL     OW31378   1.911   2.671   5.028 -0.1529  0.1225  0.1330
 6582SOL    HW131379   1.928   2.577   5.039 -2.2307 -0.2725 -0.0062
 6582SOL    HW231380   1.908   2.708   5.116  0.8841  0.0402  0.1983
 6583SOL     OW31381   3.048   2.533  17.315 -0.1629  0.2764 -0.1763
 6583SOL    HW131382   3.124   2.483  17.285 -0.3091  0.1644 -0.3526
 6583SOL    HW231383   2.983   2.467  17.291 -0.3101 -0.8587  3.2597
 6584SOL     OW31384   3.740   0.107   4.560  0.0550  0.3031  0.3890
 6584SOL    HW131385   3.804   0.036   4.550  1.5685  1.5107  1.4492
 6584SOL    HW231386   3.669   0.069   4.509  3.1139 -1.0574 -2.8645
 6585SOL     OW31387   0.491   3.307   6.092 -0.1289  0.5589  0.1631
 6585SOL    HW131388   0.534   3.232   6.050  1.9038  1.7738  0.0717
 6585SOL    HW231389   0.414   3.268   6.133 -0.1355  0.7749  0.3560
 6586SOL     OW31390   1.569   0.542  17.281  0.6625 -0.2133 -0.0638
 6586SOL    HW131391   1.623   0.609  17.323  0.0722  0.0662  0.2459
 6586SOL    HW231392   1.509   0.596  17.230  1.0754 -1.0969 -1.4955
 6587SOL     OW31393   2.266   3.709   6.667  0.1959  0.5759  0.1234
 6587SOL    HW131394   2.205   3.778   6.694  1.3839  1.1573  1.3639
 6587SOL    HW231395   2.348   3.758   6.663 -0.2513  1.4535  1.9537
 6588SOL     OW31396   4.566   0.219   8.529 -0.4530  0.1151 -0.1383
 6588SOL    HW131397   4.506   0.292   8.545 -1.4957 -1.0822  1.3058
 6588SOL    HW231398   4.531   0.154   8.589 -0.7571  0.5207  0.1304
 6589SOL     OW31399   4.425   1.358   7.940 -0.5252  0.6607  0.5823
 6589SOL    HW131400   4.389   1.278   7.979  0.3130  0.1879  0.3745
 6589SOL    HW231401   4.344   1.408   7.929  0.2816  1.7755 -0.3122
 6590SOL     OW31402   2.004   3.256   8.086 -0.1710 -0.4763  0.1725
 6590SOL    HW131403   2.016   3.349   8.108  1.4966 -0.3980 -1.0255
 6590SOL    HW231404   2.079   3.218   8.131  1.6967  0.3653 -2.1914
 6591SOL     OW31405   3.808   0.184  10.318 -0.8852 -0.0767  0.2305
 6591SOL    HW131406   3.805   0.224  10.405  1.5281  0.5590  0.0182
 6591SOL    HW231407   3.876   0.233  10.272 -0.3910  0.1982  1.2586
 6592SOL     OW31408   1.800   0.623   9.799 -0.2140  0.7134 -0.3048
 6592SOL    HW131409   1.836   0.536   9.814 -1.0817  0.3609 -0.2323
 6592SOL    HW231410   1.827   0.670   9.878 -1.1201  1.9891 -0.7499
 6593SOL     OW31411   2.496   3.000  12.485  0.1700 -0.1090 -0.1012
 6593SOL    HW131412   2.461   3.068  12.542 -2.1430 -0.3442 -1.2525
 6593SOL    HW231413   2.428   2.990  12.418 -0.7012 -0.6701  0.8490
 6594SOL     OW31414   1.813   1.695   2.876 -0.4604  0.1063 -0.1140
 6594SOL    HW131415   1.893   1.747   2.877 -1.4275  1.6271 -1.0788
 6594SOL    HW231416   1.852   1.610   2.856 -0.8954  0.1672 -1.2656
 6595SOL     OW31417   2.797   1.632   3.945 -0.6889 -0.2620 -0.3114
 6595SOL    HW131418   2.864   1.563   3.943  1.1974  1.5619  0.0692
 6595SOL    HW231419   2.718   1.578   3.934  0.7571 -2.5134  0.2888
 6596SOL     OW31420   0.141   1.032   7.240 -0.4343 -0.3498  0.1833
 6596SOL    HW131421   0.190   1.097   7.190  1.3465 -2.6113 -0.9894
 6596SOL    HW231422   0.199   1.022   7.316  0.5402  2.6192 -0.1708
 6597SOL     OW31423   2.722   4.057   9.119  0.0188  0.1028 -0.5133
 6597SOL    HW131424   2.811   4.027   9.104 -0.6881 -0.6987 -3.1822
 6597SOL    HW231425   2.734   4.148   9.143 -0.0970  0.2634 -1.0587
 6598SOL     OW31426   3.107   1.817   3.357 -0.4761  0.6198 -0.0768
 6598SOL    HW131427   3.088   1.805   3.264  1.0496  3.0025 -0.6966
 6598SOL    HW231428   3.137   1.908   3.363  0.2536  0.5205 -2.0210
 6599SOL     OW31429   0.745   1.657   3.174  0.4425  0.0876  0.3974
 6599SOL    HW131430   0.737   1.737   3.226 -3.7575  1.2927 -2.0531
 6599SOL    HW231431   0.809   1.606   3.224  2.2849  0.5904 -1.4547
 6600SOL     OW31432   4.025   1.034  13.758  0.7474 -0.4454 -0.4766
 6600SOL    HW131433   4.066   1.116  13.727 -1.7571  0.2328 -1.9547
 6600SOL    HW231434   3.965   1.015  13.686  0.0887  0.6007 -0.2044
 6601SOL     OW31435   4.589   2.482   2.661  0.2049 -0.1030 -0.1731
 6601SOL    HW131436   4.668   2.429   2.647  0.4015  0.9095 -2.9990
 6601SOL    HW231437   4.534   2.463   2.585  1.4263 -1.3545 -0.7429
 6602SOL     OW31438   1.411   0.793  14.505  0.2355  0.0305  0.0540
 6602SOL    HW131439   1.449   0.736  14.572  2.4079  0.2833 -0.9513
 6602SOL    HW231440   1.321   0.761  14.505  1.1495 -2.6046 -0.6322
 6603SOL     OW31441   1.809   3.909  16.922 -0.1180  0.3924 -0.2111
 6603SOL    HW131442   1.787   3.881  17.010  2.5184 -0.9767  0.0074
 6603SOL    HW231443   1.905   3.912  16.922  0.0047 -3.7200  1.0117
 6604SOL     OW31444   3.901   0.704   3.920 -0.6810  0.2366  0.0956
 6604SOL    HW131445   3.923   0.647   3.847  0.1826  0.6545  0.0292
 6604SOL    HW231446   3.958   0.675   3.991 -2.4083  2.6234  2.4847
 6605SOL     OW31447   0.666   0.264  11.507 -0.0322 -0.0251  0.0801
 6605SOL    HW131448   0.619   0.233  11.584  1.0573 -1.4002  0.1844
 6605SOL    HW231449   0.752   0.274  11.548  0.0503 -0.3447 -0.0147
 6606SOL     OW31450   4.367   4.315   2.547  0.5235 -0.0343 -0.5603
 6606SOL    HW131451   4.339   4.388   2.493 -0.5938  1.4665  2.0663
 6606SOL    HW231452   4.451   4.349   2.578 -0.2498  0.0556  1.4509
 6607SOL     OW31453   1.804   0.659   4.017 -0.4687 -0.1747  0.3080
 6607SOL    HW131454   1.739   0.719   4.053 -0.7032 -0.5912  0.5681
 6607SOL    HW231455   1.883   0.710   3.999  0.4479 -2.3294 -1.8046
 6608SOL     OW31456   0.484   0.217   9.874  0.0908  0.0029 -0.0998
 6608SOL    HW131457   0.539   0.145   9.905  1.7918  1.6721  0.7204
 6608SOL    HW231458   0.518   0.299   9.910 -1.2982  0.3047  0.5235
 6609SOL     OW31459   1.258   4.220  17.089  0.0169 -0.5512  0.1150
 6609SOL    HW131460   1.269   4.208  16.995  0.0197 -0.3605  0.0917
 6609SOL    HW231461   1.303   4.143  17.124 -0.4345 -2.4135 -3.3573
 6610SOL     OW31462   3.890   4.682   1.003 -0.1888 -0.0541  0.4460
 6610SOL    HW131463   3.897   4.587   1.002 -1.9877 -0.1757  0.6928
 6610SOL    HW231464   3.839   4.695   1.083 -2.0060 -2.9571 -0.2707
 6611SOL     OW31465   1.922   4.605   7.247  0.2911  0.5196  0.2831
 6611SOL    HW131466   1.977   4.576   7.174 -1.0060  0.3044 -0.6077
 6611SOL    HW231467   1.911   4.699   7.234 -2.1339  0.7144  3.7842
 6612SOL     OW31468   3.666   4.268   9.996  0.1569 -0.2910 -0.6826
 6612SOL    HW131469   3.679   4.186   9.948  1.4531  0.0537 -0.9047
 6612SOL    HW231470   3.663   4.234  10.085 -2.0767  1.1324 -0.2135
 6613SOL     OW31471   2.538   3.308   2.645  0.0592  0.0459 -0.1801
 6613SOL    HW131472   2.485   3.376   2.605  0.9198  1.0281  0.3611
 6613SOL    HW231473   2.621   3.302   2.598 -1.0200  1.1071 -2.2046
 6614SOL     OW31474   2.100   3.556   7.084 -0.3253 -0.4589  0.2410
 6614SOL    HW131475   2.104   3.460   7.091  0.6800 -0.4790 -0.6038
 6614SOL    HW231476   2.079   3.596   7.168 -0.4719 -1.4637  0.6927
 6615SOL     OW31477   2.392   2.375   5.295 -0.5060 -0.5226  0.0387
 6615SOL    HW131478   2.470   2.427   5.274 -0.0396 -0.8618  0.9548
 6615SOL    HW231479   2.338   2.439   5.340 -0.7334  0.1257 -1.1421
 6616SOL     OW31480   0.903   3.425   5.741 -0.2745 -0.0902  0.0053
 6616SOL    HW131481   0.932   3.350   5.690 -1.0365  0.6970 -1.5820
 6616SOL    HW231482   0.968   3.430   5.811 -1.2011  0.9585  0.7947
 6617SOL     OW31483   1.193   0.386   8.072  0.1997 -0.1151  0.8445
 6617SOL    HW131484   1.272   0.382   8.019 -1.0312  0.9235 -1.0903
 6617SOL    HW231485   1.204   0.462   8.129  0.2500 -0.5169  1.3617
 6618SOL     OW31486   2.584   1.490   7.186 -0.2065 -0.4572 -0.9176
 6618SOL    HW131487   2.566   1.513   7.277  1.4547  0.4685 -0.8106
 6618SOL    HW231488   2.592   1.575   7.141 -1.2520 -0.7749 -1.7146
 6619SOL     OW31489   3.535   0.754   5.086  0.0531 -0.1942 -0.1985
 6619SOL    HW131490   3.522   0.736   5.180 -1.5999  0.3421 -0.3413
 6619SOL    HW231491   3.627   0.781   5.087  0.4737 -1.6359  0.7576
 6620SOL     OW31492   1.045   2.030   3.819  0.0645 -0.0801 -0.0604
 6620SOL    HW131493   1.063   1.937   3.818 -0.0495 -0.1001 -0.2611
 6620SOL    HW231494   1.069   2.049   3.729 -0.1698 -1.5619 -0.4272
 6621SOL     OW31495   2.741   1.292   6.230 -0.3709 -0.2793 -0.2993
 6621SOL    HW131496   2.694   1.357   6.282 -0.5239 -0.8967  0.3324
 6621SOL    HW231497   2.745   1.217   6.290  0.5307  0.0097  0.0002
 6622SOL     OW31498   1.442   1.759  17.485  0.4463  0.1355  0.2201
 6622SOL    HW131499   1.361   1.711  17.471 -0.2058  1.4450 -0.4696
 6622SOL    HW231500   1.451   1.762  17.581  2.7021 -0.0592  0.0066
 6623SOL     OW31501   2.352   2.964   8.595  0.2148  1.1716 -0.3541
 6623SOL    HW131502   2.348   2.951   8.500  1.5665  0.0795 -0.2571
 6623SOL    HW231503   2.260   2.984   8.612  0.5630 -0.2778  3.1987
 6624SOL     OW31504   1.135   1.559  14.398  0.4794  0.7988 -0.0795
 6624SOL    HW131505   1.088   1.509  14.466  1.0919 -2.0403 -1.7167
 6624SOL    HW231506   1.081   1.541  14.321  0.9542  1.6579 -0.6083
 6625SOL     OW31507   2.307   4.544  17.241  0.2507 -0.3428 -0.0265
 6625SOL    HW131508   2.336   4.524  17.330 -1.6156  0.0776  0.6830
 6625SOL    HW231509   2.224   4.496  17.243  0.3064 -0.3421  2.1515
 6626SOL     OW31510   3.658   3.632   4.752  0.5447 -0.8733 -0.2447
 6626SOL    HW131511   3.582   3.646   4.695 -0.4730 -3.1634  0.5573
 6626SOL    HW231512   3.680   3.551   4.708  1.0817 -1.2874  0.7921
 6627SOL     OW31513   0.447   1.583   6.671 -0.2255  0.6869  0.1766
 6627SOL    HW131514   0.489   1.658   6.714  0.9640 -0.1237  0.4331
 6627SOL    HW231515   0.367   1.618   6.633 -2.0944 -1.6906  1.9076
 6628SOL     OW31516   3.498   1.006  10.717  0.1892  0.0873  0.4019
 6628SOL    HW131517   3.469   0.923  10.754 -3.6904  0.0072 -2.7999
 6628SOL    HW231518   3.444   1.077  10.753  0.1854  0.3525 -0.1359
 6629SOL     OW31519   0.522   2.870  15.363 -0.3972 -0.4701  0.4586
 6629SOL    HW131520   0.608   2.838  15.336 -0.7364  0.1359 -1.3319
 6629SOL    HW231521   0.528   2.966  15.358  1.5894 -0.6013  0.1875
 6630SOL     OW31522   3.362   0.470   7.768 -0.1162  0.1108  0.4184
 6630SOL    HW131523   3.356   0.484   7.863  2.0356  1.6803  0.3164
 6630SOL    HW231524   3.356   0.375   7.759  0.2694  0.2077 -0.7567
 6631SOL     OW31525   0.856   4.521  16.675  0.0789  0.4081  0.3354
 6631SOL    HW131526   0.788   4.577  16.637 -0.4912 -1.0878 -0.8283
 6631SOL    HW231527   0.902   4.584  16.730  0.2171 -1.5316  2.4233
 6632SOL     OW31528   2.437   2.051  17.052  0.5227 -0.1117 -0.1748
 6632SOL    HW131529   2.384   2.014  17.123 -0.2515  1.2106 -0.0788
 6632SOL    HW231530   2.525   2.015  17.060  1.9763  3.1493 -1.7090
 6633SOL     OW31531   0.401   1.878  13.966  0.0596 -0.9287  0.2910
 6633SOL    HW131532   0.379   1.898  14.058 -1.5759  1.9559 -0.7160
 6633SOL    HW231533   0.480   1.928  13.949 -0.0070 -1.3238 -1.1754
 6634SOL     OW31534   3.386   2.023   6.096  0.2417  0.0734 -0.4033
 6634SOL    HW131535   3.383   1.986   6.185  0.6869 -2.6338 -1.5184
 6634SOL    HW231536   3.381   1.943   6.044  0.0796 -0.5426  0.5479
 6635SOL     OW31537   4.127   0.246   2.468 -0.4969 -0.0014  0.6063
 6635SOL    HW131538   4.047   0.295   2.490  0.7144  2.8199 -1.2865
 6635SOL    HW231539   4.100   0.190   2.395  0.0198  0.3214  0.1733
 6636SOL     OW31540   2.140   3.435   3.307 -0.2144  0.9695 -0.1662
 6636SOL    HW131541   2.178   3.505   3.254  1.0302 -0.0699 -0.6195
 6636SOL    HW231542   2.135   3.368   3.238  1.8359  3.8276 -3.0856
 6637SOL     OW31543   0.568   0.883  16.439 -0.3617 -0.0998 -0.3010
 6637SOL    HW131544   0.594   0.968  16.476 -0.9648  0.8045 -1.9772
 6637SOL    HW231545   0.473   0.880  16.448 -0.1993 -3.2644  0.6064
 6638SOL     OW31546   4.277   0.800   5.721 -0.0860  0.3090  0.5753
 6638SOL    HW131547   4.282   0.717   5.673  1.6843  1.5905 -1.4443
 6638SOL    HW231548   4.186   0.815   5.696 -0.8808  0.2867  3.4209
 6639SOL     OW31549   1.438   0.413  17.045  0.4554 -0.2048  0.4784
 6639SOL    HW131550   1.470   0.428  17.134  0.7092 -0.9280  0.5091
 6639SOL    HW231551   1.514   0.430  16.989 -0.6230  3.0797  0.0172
 6640SOL     OW31552   3.769   4.156   7.275  0.3764 -0.5164 -0.1108
 6640SOL    HW131553   3.742   4.132   7.187  2.0345  1.4812 -1.1637
 6640SOL    HW231554   3.821   4.234   7.256  1.1801 -0.9505  0.2997
 6641SOL     OW31555   1.970   0.149   2.677 -0.9360 -0.1057 -0.0341
 6641SOL    HW131556   1.926   0.205   2.742 -1.8405  0.4573 -1.1408
 6641SOL    HW231557   2.061   0.176   2.684 -1.0156  0.0149  0.5992
 6642SOL     OW31558   4.044   4.720   0.419 -0.1980 -0.7892  0.2384
 6642SOL    HW131559   3.955   4.709   0.454  0.8400 -1.3143  2.7500
 6642SOL    HW231560   4.065   0.073   0.439 -0.4699 -0.8878  0.9855
 6643SOL     OW31561   3.664   2.602  10.690 -0.1916 -0.0342 -0.3236
 6643SOL    HW131562   3.750   2.561  10.697 -0.8901 -1.8924 -2.5276
 6643SOL    HW231563   3.654   2.640  10.603 -1.2903  1.6353  0.5414
 6644SOL     OW31564   2.449   3.555   2.531  0.2042 -0.0168 -0.9807
 6644SOL    HW131565   2.513   3.561   2.460 -0.4579 -1.4473 -1.6999
 6644SOL    HW231566   2.383   3.623   2.521 -2.9577 -3.0564 -0.8732
 6645SOL     OW31567   3.001   1.208   2.257  0.0010  0.6825 -0.0111
 6645SOL    HW131568   3.075   1.246   2.209  0.6800 -0.6534 -0.0249
 6645SOL    HW231569   3.042   1.227   2.341  0.5174 -1.9526  0.3109
 6646SOL     OW31570   4.611   4.720   3.509 -0.0537 -0.1868  0.5753
 6646SOL    HW131571   4.687   4.688   3.559  0.3259 -2.7985 -1.6558
 6646SOL    HW231572   4.547   4.674   3.563  0.5473  0.1114  1.5473
 6647SOL     OW31573   4.615   0.596  14.982 -0.3319  0.1554 -0.5644
 6647SOL    HW131574   4.662   0.513  14.991 -0.8660 -0.0290  0.6032
 6647SOL    HW231575   4.543   0.565  14.927 -0.4397 -0.2916 -0.1764
 6648SOL     OW31576   2.279   2.389   3.683 -0.0593 -0.1664  0.3376
 6648SOL    HW131577   2.199   2.337   3.693 -0.1018 -0.3904 -1.2209
 6648SOL    HW231578   2.336   2.312   3.682  0.4258  0.2031 -0.2619
 6649SOL     OW31579   4.365   0.395   3.586  0.0460  0.6995  0.8595
 6649SOL    HW131580   4.358   0.489   3.570  0.2552  0.2819 -1.6848
 6649SOL    HW231581   4.274   0.368   3.591  0.1037  0.3463  0.0262
 6650SOL     OW31582   4.323   2.145   4.456  0.7520 -0.6349  0.2592
 6650SOL    HW131583   4.277   2.070   4.419 -1.1058 -0.8425  2.9892
 6650SOL    HW231584   4.258   2.178   4.517 -1.9858 -2.1470 -1.8582
 6651SOL     OW31585   3.974   2.719   2.796 -0.0803 -0.3008 -0.1265
 6651SOL    HW131586   3.968   2.631   2.761 -1.3144  0.1798 -1.1477
 6651SOL    HW231587   4.059   2.716   2.839  0.7539  1.5917 -1.6094
 6652SOL     OW31588   1.364   2.956   8.777 -0.2613 -0.5203 -0.3331
 6652SOL    HW131589   1.279   2.994   8.798  0.2282  0.4431 -0.0685
 6652SOL    HW231590   1.420   3.032   8.795  0.2791 -0.5665 -1.8115
 6653SOL     OW31591   3.691   2.910   8.088  0.2212  0.0276  0.5208
 6653SOL    HW131592   3.682   2.892   8.182 -0.3102  2.1650  0.8691
 6653SOL    HW231593   3.600   2.922   8.063  0.9068 -2.7248 -3.3413
 6654SOL     OW31594   0.876   4.350   4.551 -0.0006 -0.4322  0.3842
 6654SOL    HW131595   0.916   4.268   4.581  0.5191 -0.3232 -0.0140
 6654SOL    HW231596   0.870   4.339   4.456 -0.4412 -0.0848  0.3758
 6655SOL     OW31597   4.662   2.434   2.266  0.4002  0.3076  0.1890
 6655SOL    HW131598   4.588   2.459   2.321 -0.0435 -2.5402  0.9038
 6655SOL    HW231599   4.708   2.517   2.276 -0.4011  0.6751  0.8419
 6656SOL     OW31600   2.972   1.701  17.541 -0.1359  0.0175 -0.1354
 6656SOL    HW131601   2.970   1.617  17.495  2.7583 -0.3800  0.4536
 6656SOL    HW231602   3.021   1.753  17.477 -0.0297 -0.7862 -0.7063
 6657SOL     OW31603   0.503   2.693  12.920 -0.0054  0.0014 -0.1336
 6657SOL    HW131604   0.484   2.627  12.987  0.8097 -1.3290 -1.2219
 6657SOL    HW231605   0.438   2.669  12.853 -0.5518 -0.9584  0.7320
 6658SOL     OW31606   3.697   1.302  17.118 -0.6118  0.1180  0.0351
 6658SOL    HW131607   3.744   1.241  17.061  2.0740  0.4840  1.8875
 6658SOL    HW231608   3.731   1.386  17.088  2.6758 -1.0805  0.3937
 6659SOL     OW31609   4.600   3.088  16.286 -0.7490  0.1232  0.1484
 6659SOL    HW131610   4.564   3.177  16.276  1.1904  1.0857  1.8230
 6659SOL    HW231611   4.551   3.039  16.220 -0.9865 -0.4834  0.7798
 6660SOL     OW31612   3.385   3.173   9.666 -0.3817 -0.3691  0.2635
 6660SOL    HW131613   3.409   3.257   9.706  0.0791 -1.7957  2.9405
 6660SOL    HW231614   3.325   3.210   9.601 -0.0017  0.8545  0.6122
 6661SOL     OW31615   3.039   4.310  17.344 -0.3312 -0.6470  0.2936
 6661SOL    HW131616   2.993   4.241  17.296  0.3656 -2.0007  1.5757
 6661SOL    HW231617   2.959   4.353  17.375  0.6349  0.6580  0.9581
 6662SOL     OW31618   3.705   2.590   5.086  0.5646  0.5430 -0.5282
 6662SOL    HW131619   3.770   2.530   5.049 -0.0325 -1.1445  1.1341
 6662SOL    HW231620   3.631   2.585   5.025 -0.9717 -1.4678  1.4633
 6663SOL     OW31621   3.063   3.126   8.608 -0.7157  0.0586 -0.4053
 6663SOL    HW131622   3.088   3.198   8.550  1.5990 -0.8708 -0.5507
 6663SOL    HW231623   2.971   3.151   8.617 -1.1835 -1.6634 -0.4207
 6664SOL     OW31624   1.845   1.023   4.651 -0.3634 -0.5556  0.0731
 6664SOL    HW131625   1.882   1.108   4.627 -1.5815  0.7057  2.6009
 6664SOL    HW231626   1.752   1.045   4.652 -0.2826 -0.2086 -0.0891
 6665SOL     OW31627   1.840   0.756  13.419 -0.0584 -0.1328 -0.2460
 6665SOL    HW131628   1.767   0.818  13.410  0.3404  0.3948  0.1540
 6665SOL    HW231629   1.835   0.704  13.339  0.5924 -0.0730 -0.3267
 6666SOL     OW31630   0.470   3.445   1.542 -0.2094 -0.2946  0.1974
 6666SOL    HW131631   0.504   3.534   1.556  0.8927 -0.2568 -2.8626
 6666SOL    HW231632   0.537   3.387   1.578  0.6129  0.4159 -0.1757
 6667SOL     OW31633   2.358   4.534   1.920 -0.5181 -0.3008 -0.2725
 6667SOL    HW131634   2.451   4.518   1.906  0.0775  1.7338  1.4400
 6667SOL    HW231635   2.347   4.603   1.855  0.5008  0.0274 -0.0944
 6668SOL     OW31636   2.640   2.821   8.304 -0.1031 -0.1987 -0.1743
 6668SOL    HW131637   2.699   2.792   8.373  0.2459  0.5254 -0.1734
 6668SOL    HW231638   2.577   2.872   8.357 -0.4400  1.1277 -1.8683
 6669SOL     OW31639   1.022   0.056  17.122 -0.5347 -0.0079  0.2853
 6669SOL    HW131640   0.933   0.039  17.153  0.2605 -2.5714  1.2374
 6669SOL    HW231641   1.021   4.735  17.046  0.0451  0.5332 -0.1351
 6670SOL     OW31642   1.916   2.553   8.985  0.0373 -0.2077 -0.0129
 6670SOL    HW131643   1.855   2.481   9.004 -1.4140  0.8922 -0.4829
 6670SOL    HW231644   1.909   2.590   9.073  1.3136 -0.3401  0.1425
 6671SOL     OW31645   1.618   0.934  14.357  0.3773 -0.2614  0.6475
 6671SOL    HW131646   1.580   0.907  14.273 -0.7619 -3.9697  2.3599
 6671SOL    HW231647   1.552   0.916  14.423  0.2232  0.6738  0.7552
 6672SOL     OW31648   0.177   1.559   0.887  0.0092  0.6493 -0.3971
 6672SOL    HW131649   0.176   1.534   0.980 -0.9020 -0.4893 -0.7175
 6672SOL    HW231650   0.120   1.488   0.857  0.6110  1.1000 -2.5978
 6673SOL     OW31651   1.811   3.003   3.092 -0.6067  0.2301  0.2695
 6673SOL    HW131652   1.809   3.028   3.184  1.5226 -1.0097  0.6521
 6673SOL    HW231653   1.725   3.035   3.064  0.3237  3.1186  0.6642
 6674SOL     OW31654   3.160   0.721  13.368 -0.4271  0.2416 -0.7405
 6674SOL    HW131655   3.071   0.689  13.359 -0.4909  0.9711 -2.5878
 6674SOL    HW231656   3.196   0.725  13.279  0.3631  0.9310 -0.3980
 6675SOL     OW31657   3.555   4.374   7.742  0.3603 -0.3336  0.1611
 6675SOL    HW131658   3.616   4.353   7.672 -2.3866 -2.5225 -1.6027
 6675SOL    HW231659   3.558   4.283   7.772 -0.2740  0.3217  2.2433
 6676SOL     OW31660   4.609   3.602   8.319 -0.0899 -0.3179  0.0005
 6676SOL    HW131661   4.644   3.662   8.384 -0.6263  1.0435 -0.9684
 6676SOL    HW231662   4.591   3.522   8.368 -1.3076  0.4806  0.8670
 6677SOL     OW31663   2.943   0.058  14.700  0.2438  0.1215  0.4678
 6677SOL    HW131664   2.901   0.077  14.616 -0.0514  0.7337  0.7574
 6677SOL    HW231665   2.878   0.007  14.748  0.3649  3.1743  3.8863
 6678SOL     OW31666   1.356   2.110   7.812 -0.1717 -0.1858 -0.4788
 6678SOL    HW131667   1.448   2.131   7.797 -0.3844  1.1756  0.1919
 6678SOL    HW231668   1.350   2.125   7.906  1.2365  1.0859 -0.5915
 6679SOL     OW31669   2.635   0.238   5.615 -0.3949  0.1832  0.5669
 6679SOL    HW131670   2.617   0.210   5.526  1.0907 -2.1471  0.9929
 6679SOL    HW231671   2.573   0.186   5.666  1.3133  0.3450  2.8230
 6680SOL     OW31672   2.223   1.154   3.572 -0.8674 -0.4572  0.1829
 6680SOL    HW131673   2.192   1.196   3.491  1.4380  1.2419  0.1793
 6680SOL    HW231674   2.171   1.214   3.626  0.6296  0.7718  0.2718
 6681SOL     OW31675   0.885   2.391   9.882  0.4234  0.1610 -0.0210
 6681SOL    HW131676   0.836   2.312   9.903  1.4572 -0.5467 -0.2944
 6681SOL    HW231677   0.953   2.355   9.825  0.2199 -2.2082  1.2537
 6682SOL     OW31678   0.516   1.117   8.129 -0.2886 -0.6761 -0.3094
 6682SOL    HW131679   0.537   1.075   8.212 -1.9614 -2.2726 -0.6867
 6682SOL    HW231680   0.535   1.207   8.154  0.3263 -1.2056  1.1190
 6683SOL     OW31681   4.328   1.102   6.559  0.8509  0.5678  0.3035
 6683SOL    HW131682   4.295   1.165   6.495  2.2146 -0.2764 -1.2372
 6683SOL    HW231683   4.332   1.158   6.637  0.1547  0.2603  0.5593
 6684SOL     OW31684   2.073   2.533   8.363  0.1184 -0.2202 -0.3768
 6684SOL    HW131685   2.138   2.543   8.432 -1.6581 -2.4033  1.5750
 6684SOL    HW231686   1.992   2.503   8.404  1.1540 -0.4795  1.4408
 6685SOL     OW31687   3.368   3.818   4.675 -0.8593  0.2285 -0.3899
 6685SOL    HW131688   3.418   3.854   4.601 -0.2782  0.2802  0.0243
 6685SOL    HW231689   3.376   3.727   4.647  1.7342 -0.3070  2.0277
 6686SOL     OW31690   0.177   3.136   9.143 -0.4590  0.3314  0.4036
 6686SOL    HW131691   0.236   3.211   9.143  0.0977 -0.0999  0.0918
 6686SOL    HW231692   0.133   3.156   9.225 -1.2467 -2.7607  0.7383
 6687SOL     OW31693   0.643   2.389  16.134 -0.4567 -0.3589  0.0852
 6687SOL    HW131694   0.664   2.481  16.124 -1.0696 -0.2744 -0.3960
 6687SOL    HW231695   0.551   2.382  16.161 -0.0096  0.6781  1.8723
 6688SOL     OW31696   0.827   3.991   3.446 -0.3202 -0.0320  0.6282
 6688SOL    HW131697   0.877   4.059   3.401  0.0635 -0.9288 -0.2774
 6688SOL    HW231698   0.775   3.961   3.372  1.1756  0.7162 -0.7064
 6689SOL     OW31699   2.093   1.071   3.844  0.2841  1.2252  0.3283
 6689SOL    HW131700   2.067   1.159   3.869  1.1602  0.7264  2.9477
 6689SOL    HW231701   2.188   1.074   3.857  0.2033  0.0597  1.1470
 6690SOL     OW31702   0.742   4.052   1.965  0.1488 -0.2224 -0.0184
 6690SOL    HW131703   0.652   4.068   1.993  0.6202 -0.1997  1.5099
 6690SOL    HW231704   0.756   3.957   1.967 -0.6531 -0.3644 -2.0335
 6691SOL     OW31705   2.611   1.398  15.237 -0.2824 -0.4986 -0.2679
 6691SOL    HW131706   2.574   1.460  15.174 -0.4221  0.1140  0.4201
 6691SOL    HW231707   2.696   1.442  15.240 -0.9050  0.8245 -1.8993
 6692SOL     OW31708   1.073   4.721   3.113  0.3540 -0.2567  0.3662
 6692SOL    HW131709   0.989   4.677   3.103  0.1501 -0.1143  1.4816
 6692SOL    HW231710   1.105   4.663   3.182 -1.5210 -1.7421 -0.0122
 6693SOL     OW31711   3.740   2.803   5.233  0.2714  0.2050  0.4906
 6693SOL    HW131712   3.738   2.736   5.165  0.8978  0.1121  0.5660
 6693SOL    HW231713   3.785   2.752   5.301  1.9568 -1.5138 -1.9508
 6694SOL     OW31714   4.512   1.136   3.661 -0.2121  0.1986 -0.0331
 6694SOL    HW131715   4.534   1.099   3.575 -0.5787  1.8527 -0.8370
 6694SOL    HW231716   4.441   1.080   3.692  1.4261 -0.3886  2.6804
 6695SOL     OW31717   1.593   2.366   6.159  0.0107 -0.2183 -0.0226
 6695SOL    HW131718   1.595   2.325   6.245 -4.0436 -0.6796 -0.1698
 6695SOL    HW231719   1.686   2.383   6.143 -0.6718  3.0290 -0.5879
 6696SOL     OW31720   2.185   1.500   4.161  0.8255  0.7730 -0.2563
 6696SOL    HW131721   2.279   1.519   4.170  1.0532 -0.0163 -0.9978
 6696SOL    HW231722   2.162   1.489   4.254  0.2432  0.4481 -0.4395
 6697SOL     OW31723   2.484   0.946  10.183 -0.2127  0.2180 -0.2744
 6697SOL    HW131724   2.465   0.965  10.275  0.3439  1.9448 -0.5170
 6697SOL    HW231725   2.521   1.031  10.160  0.6778 -0.3214 -0.8370
 6698SOL     OW31726   0.019   0.799   7.524 -0.8251 -0.0667  0.4936
 6698SOL    HW131727   4.690   0.784   7.590  0.4845  1.8517  2.2476
 6698SOL    HW231728   0.021   0.894   7.509  1.1606 -0.2079 -0.1566
 6699SOL     OW31729   3.487   2.385   3.255 -0.1505 -0.5036  0.1611
 6699SOL    HW131730   3.534   2.454   3.208 -0.8968  0.1309  0.3325
 6699SOL    HW231731   3.527   2.400   3.341  3.2322  0.2757 -1.5685
 6700SOL     OW31732   3.688   2.549   4.639 -0.0971 -0.2543 -0.2008
 6700SOL    HW131733   3.702   2.455   4.628  3.1506  0.2240 -0.1685
 6700SOL    HW231734   3.603   2.553   4.594  0.1702  3.4475 -0.4109
 6701SOL     OW31735   2.096   4.176   7.461  0.0201  0.3198  0.1091
 6701SOL    HW131736   2.006   4.177   7.429 -0.5653 -0.4668  1.7435
 6701SOL    HW231737   2.082   4.217   7.546 -1.6211  1.4881 -0.7134
 6702SOL     OW31738   0.819   4.510   1.317  0.0420  0.0365 -0.3614
 6702SOL    HW131739   0.781   4.566   1.250  0.8155  0.7312 -0.2221
 6702SOL    HW231740   0.735   4.488   1.357  1.4212 -0.8889  2.0651
 6703SOL     OW31741   4.174   4.544   8.300  0.0722 -0.4559  0.3501
 6703SOL    HW131742   4.092   4.548   8.250  1.1351 -0.3408 -1.3902
 6703SOL    HW231743   4.236   4.597   8.250  0.4147 -0.3051  0.9351
 6704SOL     OW31744   2.953   2.163   2.988 -0.1786  0.0312 -0.0516
 6704SOL    HW131745   2.994   2.246   3.013  0.7884 -0.4327 -0.1199
 6704SOL    HW231746   2.861   2.168   3.015 -0.9677 -0.7577 -2.6685
 6705SOL     OW31747   1.195   4.210   6.483  0.2665 -0.9157 -0.1441
 6705SOL    HW131748   1.128   4.250   6.538 -0.7406 -1.2086 -1.1422
 6705SOL    HW231749   1.151   4.135   6.442  0.6833 -1.0208 -0.3985
 6706SOL     OW31750   2.577   4.363   3.236  0.4275  0.0235 -0.4050
 6706SOL    HW131751   2.623   4.285   3.205  1.6452  0.3994  0.4823
 6706SOL    HW231752   2.507   4.377   3.172  1.6852  2.4028 -1.2539
 6707SOL     OW31753   4.420   3.460   4.100  0.0007  0.4721  0.4797
 6707SOL    HW131754   4.513   3.448   4.120  0.1464  2.0487  0.7859
 6707SOL    HW231755   4.390   3.370   4.103 -0.7760  0.6658 -1.5219
 6708SOL     OW31756   2.350   0.160  16.568 -0.6651 -0.1998 -0.5522
 6708SOL    HW131757   2.375   0.100  16.498  0.4865 -1.9031  1.2969
 6708SOL    HW231758   2.339   0.237  16.513 -3.2610 -0.5263 -0.4931
 6709SOL     OW31759   0.785   2.036   9.602  0.1770 -0.1125 -0.0922
 6709SOL    HW131760   0.712   2.008   9.547 -0.3398 -0.1726  0.6254
 6709SOL    HW231761   0.846   1.967   9.576  2.2815  0.5889  2.9012
 6710SOL     OW31762   0.248   3.657   9.391  0.6048 -0.0402 -0.4794
 6710SOL    HW131763   0.168   3.709   9.404  0.6422  0.3746 -1.8697
 6710SOL    HW231764   0.281   3.664   9.301  1.5242 -1.4073 -0.2488
 6711SOL     OW31765   4.625   1.406   3.672  0.1726 -0.2943 -0.5386
 6711SOL    HW131766   4.649   1.369   3.587  3.2886 -0.3854  0.3655
 6711SOL    HW231767   4.541   1.362   3.687  0.9303 -1.6269 -0.2043
 6712SOL     OW31768   3.441   2.264   2.997 -0.1491  0.1478 -0.3159
 6712SOL    HW131769   3.527   2.225   3.016 -0.8077 -1.7188 -1.2485
 6712SOL    HW231770   3.425   2.301   3.084 -2.2544 -1.8371  0.1264
 6713SOL     OW31771   0.882   2.291   2.407  0.4897  0.5889  0.5837
 6713SOL    HW131772   0.920   2.204   2.415  0.9768  0.6035 -1.3277
 6713SOL    HW231773   0.806   2.289   2.464 -0.5767 -0.6552 -0.8705
 6714SOL     OW31774   1.457   4.735   8.427  0.1087 -0.7165 -0.3855
 6714SOL    HW131775   1.446   0.092   8.414 -0.6742 -0.9962 -1.7016
 6714SOL    HW231776   1.477   4.702   8.340  2.2040 -2.3721  0.7263
 6715SOL     OW31777   3.816   3.859   4.227 -0.7978 -0.5424  0.0487
 6715SOL    HW131778   3.837   3.927   4.291 -0.0333 -1.0735  0.3515
 6715SOL    HW231779   3.746   3.906   4.181  0.9940  1.9218 -0.1703
 6716SOL     OW31780   2.091   3.284  16.925  0.5409  0.0110  0.3162
 6716SOL    HW131781   2.161   3.308  16.864  0.3513 -0.5298 -0.1103
 6716SOL    HW231782   2.087   3.352  16.993  1.5674 -1.4224  1.8271
 6717SOL     OW31783   4.717   1.069   5.167 -0.0182 -0.0661 -0.0047
 6717SOL    HW131784   4.721   1.005   5.096 -2.7572  3.2159 -3.1078
 6717SOL    HW231785   4.623   1.071   5.187 -0.0109  2.6367 -0.3131
 6718SOL     OW31786   1.038   3.860  13.472  0.3298 -0.7239 -0.3575
 6718SOL    HW131787   1.131   3.872  13.454  0.1409  1.7119  0.2282
 6718SOL    HW231788   1.042   3.801  13.547  2.7316 -0.5074 -0.3263
 6719SOL     OW31789   2.941   4.443  14.812 -0.0373 -0.4678 -0.2321
 6719SOL    HW131790   2.879   4.513  14.830 -0.3135 -0.4309 -1.3089
 6719SOL    HW231791   2.894   4.383  14.754  0.3397 -0.9385 -0.0456
 6720SOL     OW31792   0.134   3.733  16.935  0.3542  0.1328  0.4039
 6720SOL    HW131793   0.203   3.762  16.875 -0.3427 -1.1630 -1.0400
 6720SOL    HW231794   0.116   3.654  16.884  0.9354 -1.5794  2.8663
 6721SOL     OW31795   3.277   4.485   1.973 -0.0937 -0.1814  0.0939
 6721SOL    HW131796   3.232   4.401   1.984  1.5125 -1.1911 -0.9821
 6721SOL    HW231797   3.360   4.474   2.020 -1.1295  0.4719  2.0447
 6722SOL     OW31798   3.002   2.271   5.417 -0.1395  0.4122 -0.0390
 6722SOL    HW131799   3.081   2.321   5.436 -0.0262  0.1788  0.1086
 6722SOL    HW231800   2.927   2.326   5.439  1.2378  2.1573  0.2398
 6723SOL     OW31801   4.040   1.373  17.535  0.1019  0.3978  0.8977
 6723SOL    HW131802   4.119   1.417  17.504  1.5091 -1.8316  1.3378
 6723SOL    HW231803   4.077   1.337  17.615 -0.2990 -0.4620  0.6981
 6724SOL     OW31804   1.638   4.135  16.313  0.1090 -0.1511  0.2257
 6724SOL    HW131805   1.557   4.138  16.262  0.2058  0.2656  0.0905
 6724SOL    HW231806   1.619   4.082  16.390  0.2886 -0.2541  0.1984
 6725SOL     OW31807   2.616   2.635   9.257  0.6265  0.2171  0.0501
 6725SOL    HW131808   2.588   2.722   9.285  1.3471  0.3458  0.3538
 6725SOL    HW231809   2.646   2.662   9.170 -1.1262  0.8560 -0.3575
 6726SOL     OW31810   2.952   0.213   8.645  0.8387 -0.5652 -0.0659
 6726SOL    HW131811   3.002   0.218   8.564 -1.0384  0.7903 -1.1468
 6726SOL    HW231812   2.954   0.308   8.659  3.9646 -0.6088 -0.3300
 6727SOL     OW31813   0.435   3.000   6.592 -0.5474 -0.3308  0.1128
 6727SOL    HW131814   0.477   2.983   6.507  0.8086  0.4249  0.6191
 6727SOL    HW231815   0.497   2.962   6.655  0.0790 -0.3413 -0.5064
 6728SOL     OW31816   1.484   1.243  11.321 -0.5480 -0.0483 -0.3164
 6728SOL    HW131817   1.441   1.183  11.259 -0.3605  0.1225 -0.6102
 6728SOL    HW231818   1.575   1.225  11.300 -1.0620 -1.1481 -1.6380
 6729SOL     OW31819   1.979   0.360   6.793 -0.2396  0.3773  0.2788
 6729SOL    HW131820   1.917   0.404   6.734  0.5824 -2.1898 -2.4673
 6729SOL    HW231821   1.926   0.284   6.814 -2.1336  1.0946 -1.9385
 6730SOL     OW31822   2.197   2.888   4.465 -1.3126 -0.5493  0.0953
 6730SOL    HW131823   2.195   2.805   4.418 -0.0144 -1.2987  1.4017
 6730SOL    HW231824   2.104   2.913   4.462 -1.0144  0.7562  1.6420
 6731SOL     OW31825   4.477   0.600   9.271 -0.6239 -0.1613 -0.4647
 6731SOL    HW131826   4.474   0.619   9.177 -1.8817  0.5437 -0.2835
 6731SOL    HW231827   4.386   0.572   9.281 -0.3255  0.7638  4.6305
 6732SOL     OW31828   4.529   1.458  15.997 -0.3132  0.1124 -0.4638
 6732SOL    HW131829   4.453   1.445  16.054  0.7456  0.6880  1.0815
 6732SOL    HW231830   4.545   1.369  15.964 -1.3937 -0.7547  1.3793
 6733SOL     OW31831   0.386   3.547  13.427  0.1677  0.3990  0.5603
 6733SOL    HW131832   0.304   3.551  13.378 -1.1732  1.6602  2.8927
 6733SOL    HW231833   0.441   3.607  13.378  0.0302  1.1925  1.3776
 6734SOL     OW31834   4.579   0.542   3.324 -1.2832  0.0881  0.1740
 6734SOL    HW131835   4.486   0.559   3.312 -1.4036 -0.7644 -0.1056
 6734SOL    HW231836   4.585   0.452   3.293  4.4776  0.4450  0.1369
 6735SOL     OW31837   1.140   2.848   3.607  0.1266  0.2729  0.4459
 6735SOL    HW131838   1.107   2.927   3.563 -0.0108 -2.1961 -3.8901
 6735SOL    HW231839   1.114   2.865   3.698  1.1347  0.5284  0.6829
 6736SOL     OW31840   1.166   4.694  11.444 -0.2079 -0.0954  0.0492
 6736SOL    HW131841   1.071   4.688  11.434 -0.0345 -1.4243 -0.7901
 6736SOL    HW231842   1.197   4.606  11.466 -1.3955 -0.3004  0.9292
 6737SOL     OW31843   2.119   0.877   0.024 -0.2563  0.2733  0.4998
 6737SOL    HW131844   2.062   0.929   0.080  0.3483  1.4126  0.0457
 6737SOL    HW231845   2.207   0.914   0.028  0.5989 -1.8234  1.1759
 6738SOL     OW31846   1.395   0.131   6.152 -0.7011  0.6180  0.1752
 6738SOL    HW131847   1.396   0.087   6.237 -1.9930  1.1159  0.4495
 6738SOL    HW231848   1.384   0.224   6.172  0.7833  1.0357 -0.9639
 6739SOL     OW31849   0.325   4.417   5.686 -0.3255 -0.4777 -0.2186
 6739SOL    HW131850   0.256   4.363   5.724 -0.6008 -1.0859 -1.6035
 6739SOL    HW231851   0.289   4.505   5.682 -0.0571 -0.5794 -4.3709
 6740SOL     OW31852   0.819   0.577   2.472  0.7324  0.3317 -0.4650
 6740SOL    HW131853   0.743   0.519   2.463  0.4456  0.4633  1.2132
 6740SOL    HW231854   0.888   0.525   2.430 -0.8539 -1.6756 -0.5821
 6741SOL     OW31855   3.778   3.164   3.838  0.0395  0.0619 -0.6085
 6741SOL    HW131856   3.775   3.121   3.753  1.6840  2.1062 -1.6811
 6741SOL    HW231857   3.828   3.102   3.891  0.1830  1.0968  0.4781
 6742SOL     OW31858   1.480   1.499   8.585 -0.7494 -0.3979 -0.7197
 6742SOL    HW131859   1.533   1.425   8.615  0.1841 -0.5106 -2.6215
 6742SOL    HW231860   1.404   1.455   8.548  0.4126  0.5489 -4.2756
 6743SOL     OW31861   1.419   0.843   1.882  0.0749  0.3855 -0.0612
 6743SOL    HW131862   1.408   0.785   1.957 -0.0631  1.9507  1.1351
 6743SOL    HW231863   1.494   0.799   1.841 -1.2285  0.2648 -2.3031
 6744SOL     OW31864   1.515   2.434   7.211 -0.5775  0.4907 -0.1535
 6744SOL    HW131865   1.552   2.383   7.139 -2.1219 -2.4301  1.1425
 6744SOL    HW231866   1.572   2.511   7.208 -1.4671  1.2820  3.3670
 6745SOL     OW31867   1.419   1.396  10.103  0.0021  0.3962 -0.0072
 6745SOL    HW131868   1.490   1.344  10.142 -0.2061  1.8821  2.3697
 6745SOL    HW231869   1.466   1.472  10.070 -1.2882  1.1099 -0.1844
 6746SOL     OW31870   2.007   2.394  17.414  0.2330 -0.1025 -0.2946
 6746SOL    HW131871   1.920   2.417  17.381  0.8953 -2.2024 -3.5474
 6746SOL    HW231872   2.018   2.461  17.482 -2.4441 -0.1296  0.1519
 6747SOL     OW31873   2.659   4.191  17.282 -0.6131  0.1560  0.2447
 6747SOL    HW131874   2.575   4.192  17.236 -0.2242  0.6101 -0.4760
 6747SOL    HW231875   2.668   4.276  17.325  0.2155  0.9321 -1.4504
 6748SOL     OW31876   3.425   0.515   3.827  0.3943  0.2603  0.1252
 6748SOL    HW131877   3.511   0.544   3.857  0.4520  2.9177 -2.5896
 6748SOL    HW231878   3.376   0.534   3.908  0.4150  1.4463 -0.1450
 6749SOL     OW31879   0.234   4.172  10.933  0.2268  0.4712 -0.5225
 6749SOL    HW131880   0.309   4.114  10.950  0.3875  1.2070  1.1996
 6749SOL    HW231881   0.252   4.241  10.996  1.9130 -1.0515  0.6862
 6750SOL     OW31882   1.803   0.751  10.501 -0.4736  0.1097 -0.2934
 6750SOL    HW131883   1.842   0.715  10.581 -1.9624 -1.2100 -0.1591
 6750SOL    HW231884   1.734   0.686  10.490  1.0560 -1.7156  0.9828
 6751SOL     OW31885   1.855   4.436   6.421  0.5230  0.4406  0.1830
 6751SOL    HW131886   1.844   4.390   6.504 -1.4933  2.5282  1.0532
 6751SOL    HW231887   1.931   4.388   6.388 -1.0659 -0.7493 -1.7250
 6752SOL     OW31888   1.479   3.668   3.791  0.0663  0.8728  0.3918
 6752SOL    HW131889   1.552   3.610   3.813  0.6017  0.9999 -1.0643
 6752SOL    HW231890   1.409   3.616   3.831 -1.3396  1.7883 -0.8884
 6753SOL     OW31891   4.288   2.874   0.879 -0.2056 -0.2456 -0.4355
 6753SOL    HW131892   4.266   2.954   0.831  2.1509  0.4339 -0.3754
 6753SOL    HW231893   4.215   2.866   0.940 -0.3043  2.3195 -0.2156
 6754SOL     OW31894   2.109   2.922   1.343 -0.2458 -0.1806 -0.2987
 6754SOL    HW131895   2.069   3.008   1.359 -3.2845 -1.7342  0.3181
 6754SOL    HW231896   2.043   2.856   1.362 -0.6629  0.6612  1.1716
 6755SOL     OW31897   4.469   0.094   4.205  0.1975  0.3843  0.1906
 6755SOL    HW131898   4.455   0.028   4.273 -2.8869  1.9936  1.1165
 6755SOL    HW231899   4.433   0.046   4.131  1.5507 -1.1445  0.5391
 6756SOL     OW31900   2.290   3.127   3.847 -0.1025  0.0202 -0.4637
 6756SOL    HW131901   2.325   3.050   3.892 -0.0388  0.7683  0.7557
 6756SOL    HW231902   2.370   3.167   3.815  0.4886  1.3813  2.6994
 6757SOL     OW31903   1.316   1.991   0.902 -0.1981 -0.3672  0.5226
 6757SOL    HW131904   1.275   2.058   0.848 -1.3190 -1.6051 -0.1625
 6757SOL    HW231905   1.402   1.977   0.862  0.0131 -0.5234  1.0344
 6758SOL     OW31906   3.510   2.779  10.070 -0.1669  0.4514  0.1595
 6758SOL    HW131907   3.502   2.736   9.985  0.2847  0.6044  0.0402
 6758SOL    HW231908   3.491   2.869  10.043  1.0139  0.4099 -0.8098
 6759SOL     OW31909   4.131   3.682   7.107  0.0909 -0.1832  0.4227
 6759SOL    HW131910   4.135   3.777   7.123 -1.5739  0.1033 -0.9073
 6759SOL    HW231911   4.077   3.679   7.028  1.2879 -0.8527 -0.3826
 6760SOL     OW31912   3.671   2.609  16.230 -0.3436  0.2219 -0.0265
 6760SOL    HW131913   3.702   2.693  16.197  1.7804 -0.5000  0.1543
 6760SOL    HW231914   3.591   2.631  16.279  2.4940  2.9713  3.4122
 6761SOL     OW31915   3.801   1.543   0.103  0.4371  0.2242 -0.3280
 6761SOL    HW131916   3.857   1.465   0.100 -0.5889 -0.5572  0.5336
 6761SOL    HW231917   3.860   1.596   0.157 -0.8106 -0.0526  1.3263
 6762SOL     OW31918   2.486   3.991   2.666 -0.4638  0.2136  0.1501
 6762SOL    HW131919   2.534   3.910   2.650  0.2585  0.8848 -1.0732
 6762SOL    HW231920   2.505   3.990   2.760 -0.2831 -1.7728  0.0934
 6763SOL     OW31921   3.315   3.383   7.050  0.8519  0.0117 -0.0077
 6763SOL    HW131922   3.314   3.462   7.105  1.1213  0.0911 -0.1131
 6763SOL    HW231923   3.335   3.314   7.112  1.4421  2.0760  2.0858
 6764SOL     OW31924   4.301   1.455  12.287 -0.1474  0.0937 -0.8105
 6764SOL    HW131925   4.306   1.529  12.348  4.2918 -0.9381  0.1076
 6764SOL    HW231926   4.211   1.461  12.256 -0.3014  2.6493  0.1637
 6765SOL     OW31927   4.005   1.342  17.167  0.3522  0.1473  0.0253
 6765SOL    HW131928   3.947   1.372  17.097 -1.7693 -1.1285  1.2353
 6765SOL    HW231929   4.061   1.280  17.121  0.0522  0.5699 -0.9122
 6766SOL     OW31930   3.291   0.616   2.576 -0.3858 -0.3522 -0.4519
 6766SOL    HW131931   3.312   0.523   2.569 -0.9267 -0.5648  0.6444
 6766SOL    HW231932   3.292   0.627   2.671  2.2669 -1.3310 -0.3639
 6767SOL     OW31933   0.767   1.023  11.341 -0.3295  0.0291 -0.8499
 6767SOL    HW131934   0.783   0.939  11.384  1.4448 -1.0936 -3.7365
 6767SOL    HW231935   0.846   1.076  11.348 -1.0542  1.2483 -1.8207
 6768SOL     OW31936   0.222   4.172   3.598 -0.3148  0.1608 -0.4820
 6768SOL    HW131937   0.316   4.162   3.585 -0.2651 -0.1193  0.0789
 6768SOL    HW231938   0.194   4.085   3.626  1.9290 -0.1075  0.9396
 6769SOL     OW31939   2.849   0.720   5.733 -0.1725  0.3580 -0.3232
 6769SOL    HW131940   2.802   0.797   5.765 -1.3133 -1.1705  1.5926
 6769SOL    HW231941   2.789   0.648   5.752  0.7964 -0.7491 -1.4715
 6770SOL     OW31942   0.227   1.628  16.650 -0.4812  0.2127 -0.0365
 6770SOL    HW131943   0.219   1.698  16.714  0.1277 -0.7794  1.1176
 6770SOL    HW231944   0.235   1.673  16.566  0.3639 -1.0708 -0.6569
 6771SOL     OW31945   4.008   2.025   9.849 -0.5449 -0.2553 -0.1422
 6771SOL    HW131946   3.937   2.015   9.786 -0.2424 -1.2555 -0.3290
 6771SOL    HW231947   4.014   1.940   9.892  2.8108  0.2991  0.5092
 6772SOL     OW31948   3.354   2.590   7.820  0.3998 -0.0321  0.4733
 6772SOL    HW131949   3.403   2.658   7.774 -0.8559  0.0422 -0.7467
 6772SOL    HW231950   3.424   2.544   7.868 -1.2342 -0.6015  2.3062
 6773SOL     OW31951   4.148   1.860   0.470  0.4754 -0.3134  0.5191
 6773SOL    HW131952   4.242   1.865   0.484  0.2307  1.4351  1.4532
 6773SOL    HW231953   4.114   1.943   0.503 -2.3933 -1.8394  1.3906
 6774SOL     OW31954   3.971   4.619   6.729  0.2606  0.0137  0.5978
 6774SOL    HW131955   3.933   4.545   6.777 -0.6842 -0.0586 -0.2603
 6774SOL    HW231956   3.903   4.630   6.663  0.2144 -1.0015  0.4703
 6775SOL     OW31957   2.937   2.784   2.083  0.1859  0.0316 -0.1155
 6775SOL    HW131958   2.999   2.853   2.105  0.0437  0.2927 -0.5370
 6775SOL    HW231959   2.914   2.807   1.993 -0.8035 -0.3069  0.0440
 6776SOL     OW31960   4.410   3.924   2.699 -0.7264  0.2221 -0.3220
 6776SOL    HW131961   4.376   3.970   2.776 -1.7043 -0.3016 -0.4397
 6776SOL    HW231962   4.380   3.985   2.631 -1.0469 -0.7372 -1.0500
 6777SOL     OW31963   2.462   1.667   5.942 -0.2685 -0.5645 -0.0223
 6777SOL    HW131964   2.394   1.734   5.933 -1.2477 -1.6757 -0.9232
 6777SOL    HW231965   2.530   1.729   5.968 -0.8165 -0.5344  1.3944
 6778SOL     OW31966   4.229   0.138   5.679 -0.3478  0.2888 -0.4100
 6778SOL    HW131967   4.156   0.087   5.645 -0.5335 -0.3877  1.0225
 6778SOL    HW231968   4.303   0.086   5.650 -1.3978 -1.4164 -0.0025
 6779SOL     OW31969   4.148   3.918   3.315 -0.2251 -0.0662  0.1963
 6779SOL    HW131970   4.094   3.845   3.345 -2.7850  2.0817  0.8682
 6779SOL    HW231971   4.103   3.936   3.232 -2.0245 -1.3672  0.8965
 6780SOL     OW31972   1.401   2.568   6.766 -0.2630  0.6020 -0.0232
 6780SOL    HW131973   1.375   2.611   6.847  0.4833 -3.1794  2.2413
 6780SOL    HW231974   1.321   2.523   6.741 -0.9984  1.3263  1.0581
 6781SOL     OW31975   0.545   4.702   3.052  0.1717 -0.2022  0.3101
 6781SOL    HW131976   0.547   0.039   3.111 -1.9561 -1.2148  1.6638
 6781SOL    HW231977   0.630   4.699   3.007 -0.6237 -0.5759 -1.1716
 6782SOL     OW31978   0.366   3.763  13.097  0.6904  0.5334 -0.7591
 6782SOL    HW131979   0.324   3.790  13.015  1.1196 -0.9288 -1.4456
 6782SOL    HW231980   0.293   3.719  13.141  3.1437  0.8896  3.5853
 6783SOL     OW31981   4.607   0.009   3.886  0.3273  0.0454 -0.0514
 6783SOL    HW131982   4.603   0.104   3.879 -0.4990  0.0146 -0.0211
 6783SOL    HW231983   4.550   4.734   3.810  0.5909 -0.3435 -0.1892
 6784SOL     OW31984   2.027   1.355   3.422  0.0479 -0.0182 -0.0808
 6784SOL    HW131985   1.934   1.378   3.412  0.4859  2.4941  1.4408
 6784SOL    HW231986   2.064   1.433   3.382 -3.2739  0.9973 -1.1840
 6785SOL     OW31987   3.025   0.153   7.116 -0.3044 -0.2871  0.1118
 6785SOL    HW131988   3.068   0.236   7.139 -0.5843 -0.1672  0.2077
 6785SOL    HW231989   3.087   0.107   7.059 -0.9057  0.4420 -1.1359
 6786SOL     OW31990   0.254   0.257   7.265 -0.1017  0.1689 -0.2568
 6786SOL    HW131991   0.268   0.346   7.235 -0.9783  0.8097  1.2431
 6786SOL    HW231992   0.304   0.253   7.346 -0.8465 -0.2105  0.1839
 6787SOL     OW31993   0.022   4.652   1.237 -0.3022 -0.3666  0.0357
 6787SOL    HW131994   4.683   4.709   1.244 -1.0964 -1.3283 -1.0088
 6787SOL    HW231995   4.721   4.565   1.233  1.1001 -0.9889 -0.1597
 6788SOL     OW31996   2.294   1.325   3.973 -0.5878 -0.4106  0.1593
 6788SOL    HW131997   2.242   1.348   3.896 -3.2268 -1.0107  1.7231
 6788SOL    HW231998   2.251   1.373   4.044 -2.3862 -1.0107 -0.5120
 6789SOL     OW31999   1.938   4.188   2.458  0.0809  0.1236  0.0752
 6789SOL    HW132000   1.912   4.279   2.464 -0.3690 -0.0481  0.7143
 6789SOL    HW232001   1.965   4.183   2.366  1.6061 -3.2083  0.6787
 6790SOL     OW32002   4.222   0.046   1.543 -0.5182  0.0640 -0.0522
 6790SOL    HW132003   4.188   4.695   1.543  0.4881 -0.3309  1.5864
 6790SOL    HW232004   4.153   0.097   1.585 -0.1810 -0.0239  0.6027
 6791SOL     OW32005   1.180   1.767   5.794  0.0332  0.4514 -0.0836
 6791SOL    HW132006   1.115   1.837   5.794 -0.5917 -0.1250 -0.9415
 6791SOL    HW232007   1.174   1.721   5.877  1.3563  2.2201  0.9937
 6792SOL     OW32008   3.707   1.728   9.177 -0.1758  0.4057  0.1401
 6792SOL    HW132009   3.756   1.701   9.254  1.3316  0.3809 -0.8261
 6792SOL    HW232010   3.775   1.762   9.119 -0.3009 -1.3113 -1.0097
 6793SOL     OW32011   1.988   2.606  17.580  0.2966 -0.4762 -0.7869
 6793SOL    HW132012   1.937   2.682  17.551 -0.0769 -0.1784  0.6623
 6793SOL    HW232013   2.054   2.651  17.632  2.4489  1.0600 -4.8963
 6794SOL     OW32014   1.895   0.117   1.242  0.1251 -0.0991 -0.0514
 6794SOL    HW132015   1.817   0.112   1.188 -0.7881  0.8239  1.1819
 6794SOL    HW232016   1.931   0.204   1.227  0.5924 -0.3316 -0.3063
 6795SOL     OW32017   1.301   4.333  16.604 -0.0164 -0.3039 -0.2229
 6795SOL    HW132018   1.395   4.333  16.583 -0.0532  0.0235 -0.3980
 6795SOL    HW232019   1.306   4.284  16.686 -0.3855  0.7192  0.4106
 6796SOL     OW32020   3.987   2.064   2.108  0.2377  0.5513 -0.7186
 6796SOL    HW132021   3.907   2.011   2.105 -0.0742  1.0322 -0.8451
 6796SOL    HW232022   4.044   2.008   2.054 -0.9076 -0.5110 -0.8264
 6797SOL     OW32023   3.302   2.238  16.918  0.1611 -0.0643 -0.1105
 6797SOL    HW132024   3.321   2.324  16.881  0.5350 -0.2730 -0.3979
 6797SOL    HW232025   3.393   2.212  16.930 -0.0994 -1.1252 -0.3724
 6798SOL     OW32026   4.283   0.735   7.531  0.2983  0.1261 -0.5041
 6798SOL    HW132027   4.251   0.796   7.465  0.5073  0.3027 -0.4397
 6798SOL    HW232028   4.371   0.728   7.494  0.1999 -1.8091 -0.3703
 6799SOL     OW32029   2.879   0.418   9.491  0.0871  0.2342 -0.1841
 6799SOL    HW132030   2.887   0.442   9.399  0.6941  2.0848  0.3570
 6799SOL    HW232031   2.881   0.501   9.539 -1.6894  0.5182 -0.6053
 6800SOL     OW32032   2.310   0.444   2.293  0.1931  0.3771 -0.0427
 6800SOL    HW132033   2.298   0.361   2.248  1.5024 -0.2700  0.7897
 6800SOL    HW232034   2.406   0.449   2.291  0.3425 -2.1011  1.0604
 6801SOL     OW32035   3.225   0.408  16.508  0.5274  0.0470 -0.2078
 6801SOL    HW132036   3.166   0.447  16.444 -0.9274 -0.0631  1.0694
 6801SOL    HW232037   3.183   0.408  16.594  2.8358 -0.4933  0.9376
 6802SOL     OW32038   2.428   2.570   5.540  0.0444 -0.4312 -0.3148
 6802SOL    HW132039   2.343   2.601   5.572 -0.5265 -0.8975 -1.3704
 6802SOL    HW232040   2.429   2.479   5.570 -0.7241 -0.3656 -0.0907
 6803SOL     OW32041   0.774   2.293   8.201 -0.1879 -0.1556 -0.1494
 6803SOL    HW132042   0.851   2.330   8.159 -0.8370  1.0408 -0.2806
 6803SOL    HW232043   0.731   2.273   8.117 -1.9967 -0.4980  0.8442
 6804SOL     OW32044   0.572   4.292   8.475 -0.2540 -0.3215 -0.4762
 6804SOL    HW132045   0.547   4.384   8.483 -1.7900 -0.7769 -0.0083
 6804SOL    HW232046   0.565   4.276   8.381  1.2030 -0.7747 -0.5037
 6805SOL     OW32047   3.327   2.307   7.044  0.8135 -0.4754  1.1527
 6805SOL    HW132048   3.342   2.214   7.027  0.4912 -0.7817  2.5706
 6805SOL    HW232049   3.353   2.345   6.960 -0.8653  0.1528  0.9209
 6806SOL     OW32050   4.384   2.349   6.045 -0.3486  0.2330  0.0141
 6806SOL    HW132051   4.340   2.389   5.970  0.3741 -0.4964 -0.7887
 6806SOL    HW232052   4.364   2.259   6.019 -0.6515  0.2486  0.1853
 6807SOL     OW32053   0.355   2.550   1.803  0.5510 -0.0528 -0.5216
 6807SOL    HW132054   0.288   2.490   1.772  0.0811 -0.1530  0.6913
 6807SOL    HW232055   0.425   2.486   1.816 -1.1442 -2.0781 -1.4057
 6808SOL     OW32056   2.657   0.778   7.618 -0.1603  0.0589  0.9776
 6808SOL    HW132057   2.634   0.869   7.596 -1.0341 -0.1718  0.9553
 6808SOL    HW232058   2.567   0.746   7.609 -0.5303  1.0383  1.1531
 6809SOL     OW32059   4.097   1.695   8.490 -0.6087  0.1178 -0.1975
 6809SOL    HW132060   4.080   1.640   8.413 -0.9955  0.5193 -0.3975
 6809SOL    HW232061   4.072   1.774   8.442  2.1197 -0.0558 -1.9618
 6810SOL     OW32062   0.050   4.613   3.676 -0.1883  0.4960 -0.0469
 6810SOL    HW132063   0.024   4.523   3.656  1.9278 -0.2423  0.5565
 6810SOL    HW232064   0.097   4.597   3.757  0.1160  0.5847 -0.2053
 6811SOL     OW32065   3.064   3.079   7.455 -0.4674  0.3806  0.7362
 6811SOL    HW132066   3.088   3.128   7.377  1.8033 -0.4191  0.9442
 6811SOL    HW232067   2.969   3.068   7.453 -0.1820 -2.0359  0.3352
 6812SOL     OW32068   1.813   1.448   4.311 -0.3029  0.1648 -0.2388
 6812SOL    HW132069   1.765   1.528   4.334  0.6302  0.4290  0.7914
 6812SOL    HW232070   1.852   1.417   4.393  0.2504  0.2975 -0.4536
 6813SOL     OW32071   0.689   1.293   4.031  0.3774 -0.1477 -0.1632
 6813SOL    HW132072   0.607   1.342   4.029  0.8971  0.7075 -0.7704
 6813SOL    HW232073   0.674   1.241   3.952 -0.9075  1.2069 -0.7962
 6814SOL     OW32074   2.438   1.857   4.827 -0.1255 -0.4914 -0.0104
 6814SOL    HW132075   2.345   1.843   4.807 -0.0674 -1.2569  0.2205
 6814SOL    HW232076   2.445   1.784   4.889  0.4124 -0.3853  0.0496
 6815SOL     OW32077   3.833   4.420   7.220 -0.3993 -0.0909 -0.3590
 6815SOL    HW132078   3.825   4.515   7.209  1.6237 -0.1292 -2.1546
 6815SOL    HW232079   3.760   4.382   7.170  0.1692  2.5786 -3.2286
 6816SOL     OW32080   0.958   3.194   7.499 -0.4056 -0.2531 -0.6561
 6816SOL    HW132081   0.934   3.103   7.515 -2.3634  0.7425  2.1141
 6816SOL    HW232082   0.882   3.236   7.459 -0.2924 -0.1867 -0.7982
 6817SOL     OW32083   2.899   1.404   9.036  0.2780 -0.3989 -0.0080
 6817SOL    HW132084   2.858   1.362   8.961 -0.8795 -1.6471  1.3383
 6817SOL    HW232085   2.966   1.341   9.061  0.0787 -0.6813 -0.1999
 6818SOL     OW32086   0.638   3.593  13.224  0.1871 -0.5506 -0.1542
 6818SOL    HW132087   0.730   3.584  13.248 -0.1766 -0.2398  1.3204
 6818SOL    HW232088   0.639   3.664  13.160  1.7829 -1.0242 -0.6642
 6819SOL     OW32089   2.661   2.009   7.965 -0.1208  0.1647  0.0808
 6819SOL    HW132090   2.676   2.087   8.019  1.9625 -0.2239  0.0452
 6819SOL    HW232091   2.722   2.034   7.896 -1.3670  0.4085 -0.9347
 6820SOL     OW32092   3.913   2.034  16.671  0.6942 -0.4317  0.0336
 6820SOL    HW132093   3.918   2.047  16.766  2.7228  1.0199 -0.2637
 6820SOL    HW232094   3.825   2.065  16.652 -0.1621 -1.1485  2.8545
 6821SOL     OW32095   0.184   3.803  12.572 -0.2003  0.1109  0.5683
 6821SOL    HW132096   0.229   3.721  12.555 -0.4067  0.2774 -0.8145
 6821SOL    HW232097   0.246   3.863  12.530  0.7099 -0.5108  1.0261
 6822SOL     OW32098   1.637   3.862   6.696  0.3939  0.1989  0.3996
 6822SOL    HW132099   1.660   3.778   6.735 -2.8604 -0.6543  0.4588
 6822SOL    HW232100   1.562   3.843   6.640 -0.9315  0.0488  2.2328
 6823SOL     OW32101   2.664   1.360   6.954  0.5666  0.4657 -0.0551
 6823SOL    HW132102   2.589   1.300   6.946 -0.0197  1.1130  0.5774
 6823SOL    HW232103   2.662   1.377   7.048 -3.8650 -0.2044 -0.0240
 6824SOL     OW32104   1.676   3.751   4.097 -0.1012  0.1591  0.1352
 6824SOL    HW132105   1.662   3.840   4.065 -0.9127 -0.3874 -1.0087
 6824SOL    HW232106   1.765   3.738   4.063  0.1155 -0.2862  0.8629
 6825SOL     OW32107   2.586   3.538   0.067  0.5476  0.0288  0.3914
 6825SOL    HW132108   2.673   3.564   0.038 -0.5774  0.9113 -2.2150
 6825SOL    HW232109   2.592   3.481   0.144 -0.0965 -0.1169  0.3326
 6826SOL     OW32110   2.736   3.812   2.688 -0.4021  0.6065 -0.0849
 6826SOL    HW132111   2.802   3.792   2.754 -2.4527 -0.5728  1.6262
 6826SOL    HW232112   2.754   3.747   2.620 -0.4189  1.0529 -0.5145
 6827SOL     OW32113   0.198   3.874  15.526  0.3889  0.0269  0.1178
 6827SOL    HW132114   0.177   3.953  15.476 -1.6158  2.5182  4.7732
 6827SOL    HW232115   0.106   3.858  15.548  0.3897 -0.8441 -0.5362
 6828SOL     OW32116   1.884   2.232  13.610 -0.0669  0.2895 -0.0255
 6828SOL    HW132117   1.827   2.169  13.655  0.6795  0.9487  1.8503
 6828SOL    HW232118   1.849   2.231  13.521 -0.5541 -0.6889  0.1673
 6829SOL     OW32119   2.487   2.179   9.299 -0.3801  0.2272 -0.2673
 6829SOL    HW132120   2.521   2.257   9.257 -1.6397 -1.0406 -3.6711
 6829SOL    HW232121   2.400   2.167   9.261 -0.5934  0.3131  0.1947
 6830SOL     OW32122   0.455   3.031   1.945  0.0194 -0.4423 -0.3110
 6830SOL    HW132123   0.509   2.955   1.923  2.7759  1.2795  0.4685
 6830SOL    HW232124   0.498   3.053   2.028 -2.2924  0.9046  0.5325
 6831SOL     OW32125   2.379   4.236   5.131 -0.5152  0.0062  0.1005
 6831SOL    HW132126   2.297   4.202   5.166  0.4206  0.0236  2.3671
 6831SOL    HW232127   2.384   4.321   5.173 -1.5427  0.4421 -0.6813
 6832SOL     OW32128   2.322   1.911   6.596  0.4086 -0.4539 -0.3774
 6832SOL    HW132129   2.311   1.969   6.520 -0.2644  0.0608  0.1097
 6832SOL    HW232130   2.232   1.915   6.629 -0.6413 -0.7244 -3.1650
 6833SOL     OW32131   2.193   1.706  11.915 -0.4246  0.3488  0.3155
 6833SOL    HW132132   2.229   1.706  12.003 -2.5512 -1.5596  1.1500
 6833SOL    HW232133   2.248   1.775  11.876  1.4296  0.0026  2.2911
 6834SOL     OW32134   2.767   3.384  17.001 -0.1651  0.6453  0.5535
 6834SOL    HW132135   2.706   3.365  16.930  1.5898  1.3669 -1.1496
 6834SOL    HW232136   2.804   3.298  17.020 -0.9823 -0.0960 -1.2065
 6835SOL     OW32137   3.852   2.324   2.926  0.4054 -0.3160  0.0897
 6835SOL    HW132138   3.936   2.313   2.971  0.2111 -1.8988  0.0731
 6835SOL    HW232139   3.816   2.380   2.994 -0.4349 -1.1947  0.3680
 6836SOL     OW32140   0.217   3.481  14.978  0.3014 -0.0575 -0.1669
 6836SOL    HW132141   0.237   3.496  15.071 -0.0882 -1.6638  0.1721
 6836SOL    HW232142   0.255   3.560  14.939 -2.0556  1.6506  0.9039
 6837SOL     OW32143   0.568   2.349   2.965  0.5493  0.3354 -0.1919
 6837SOL    HW132144   0.584   2.425   3.022  0.6741  1.0863 -1.2398
 6837SOL    HW232145   0.631   2.377   2.899 -0.5598 -0.6155 -1.6388
 6838SOL     OW32146   1.595   0.439   4.192  0.0259  0.0282 -0.0679
 6838SOL    HW132147   1.514   0.443   4.242 -1.5506 -1.4571 -2.5088
 6838SOL    HW232148   1.586   0.520   4.141  3.0985  0.6937  0.4420
 6839SOL     OW32149   3.270   4.161   6.145 -0.0485 -1.4007  0.0046
 6839SOL    HW132150   3.284   4.109   6.225  3.2051  1.1119  1.0401
 6839SOL    HW232151   3.359   4.193   6.135 -0.7649  0.3560 -0.6776
 6840SOL     OW32152   0.103   2.357   2.619  0.6963  0.3905  0.1157
 6840SOL    HW132153   0.090   2.364   2.713  0.8545 -2.2544  0.3280
 6840SOL    HW232154   0.198   2.348   2.621  0.7009  1.0767  2.4739
 6841SOL     OW32155   2.842   0.006   1.625 -0.0241 -0.1486 -0.3244
 6841SOL    HW132156   2.925   4.733   1.579  0.1804 -0.6041  0.1509
 6841SOL    HW232157   2.779   4.696   1.572 -1.1484 -0.3569  1.1947
 6842SOL     OW32158   4.279   1.684   2.392 -0.0262  0.4623 -0.1297
 6842SOL    HW132159   4.347   1.661   2.455  0.5227 -0.9828 -1.2274
 6842SOL    HW232160   4.245   1.768   2.422 -0.9596 -0.3300  0.9978
 6843SOL     OW32161   0.284   0.504   5.252 -0.3877 -0.1962 -0.3334
 6843SOL    HW132162   0.312   0.413   5.244  0.4938  0.0549 -0.0923
 6843SOL    HW232163   0.207   0.494   5.196 -0.7237  0.3782  0.0181
 6844SOL     OW32164   3.020   1.253   8.455 -0.2938 -0.5137  0.3429
 6844SOL    HW132165   2.939   1.288   8.419  1.1651  2.0308 -0.4209
 6844SOL    HW232166   2.985   1.207   8.531  0.1872 -1.1669  0.1701
 6845SOL     OW32167   1.506   1.637   8.970  0.0215  0.3426  0.1261
 6845SOL    HW132168   1.465   1.550   8.968  1.7962 -0.5199  2.1320
 6845SOL    HW232169   1.566   1.625   9.043 -0.3256 -0.6315  0.2602
 6846SOL     OW32170   3.097   1.242  13.724  0.2068  0.2883 -0.2019
 6846SOL    HW132171   3.010   1.282  13.734  0.5101  0.6656  0.8828
 6846SOL    HW232172   3.141   1.315  13.682  2.9368 -1.7800 -0.9566
 6847SOL     OW32173   3.477   0.765  15.881 -0.1327 -0.2810  0.5023
 6847SOL    HW132174   3.538   0.831  15.913 -1.3021  1.7045 -1.2745
 6847SOL    HW232175   3.503   0.758  15.789  1.1717 -0.1835  0.8763
 6848SOL     OW32176   2.682   2.959   4.009 -0.7316  1.2256  0.3839
 6848SOL    HW132177   2.598   2.916   4.025 -1.2875  2.0473 -0.3161
 6848SOL    HW232178   2.677   3.014   4.087 -0.6851  1.5267  0.1772
 6849SOL     OW32179   3.043   3.647   4.692  0.7666  0.3653  0.2193
 6849SOL    HW132180   3.121   3.702   4.702  3.4806 -3.4753  0.1129
 6849SOL    HW232181   2.975   3.712   4.677  2.0768  1.6286 -0.2889
 6850SOL     OW32182   0.777   1.918   8.873  0.2651  0.4294 -0.0766
 6850SOL    HW132183   0.726   1.917   8.792  0.5043 -0.1764 -0.2148
 6850SOL    HW232184   0.864   1.895   8.842 -0.8553 -1.1040 -2.0997
 6851SOL     OW32185   2.038   0.970  15.756 -0.7491 -0.2828 -0.5378
 6851SOL    HW132186   2.099   0.949  15.827 -3.0546 -1.0447  1.1968
 6851SOL    HW232187   1.994   1.049  15.789  2.3385  1.5074 -0.6619
 6852SOL     OW32188   4.558   3.696   2.676 -0.0512 -0.2107 -0.4731
 6852SOL    HW132189   4.502   3.769   2.703  2.2692  2.5948 -3.3333
 6852SOL    HW232190   4.567   3.649   2.759 -0.9261  1.4291  0.5568
 6853SOL     OW32191   2.444   4.219   7.597 -0.2096 -0.5091 -0.0364
 6853SOL    HW132192   2.454   4.308   7.631  0.5815 -1.0956  1.2535
 6853SOL    HW232193   2.420   4.179   7.681  1.0917  0.0745  0.6173
 6854SOL     OW32194   0.841   1.187   3.733  0.3613  0.3957  0.1555
 6854SOL    HW132195   0.791   1.106   3.746 -2.8437  2.3348 -0.0745
 6854SOL    HW232196   0.772   1.231   3.684 -0.0929 -0.0880  0.3562
 6855SOL     OW32197   1.245   1.731   0.005  0.1974  0.9625 -0.2621
 6855SOL    HW132198   1.224   1.698  17.667 -0.9693 -0.7574  0.6429
 6855SOL    HW232199   1.257   1.648   0.053  2.1926  0.2701 -1.9742
 6856SOL     OW32200   4.162   3.443   7.711  0.1745  0.3340 -0.3055
 6856SOL    HW132201   4.119   3.373   7.662 -1.7167  1.7775 -0.7138
 6856SOL    HW232202   4.120   3.435   7.797  0.7365  0.9561  0.0270
 6857SOL     OW32203   2.574   1.205  10.147  0.0731  0.3638  0.1429
 6857SOL    HW132204   2.632   1.199  10.071  0.6127 -1.3949  0.7051
 6857SOL    HW232205   2.641   1.224  10.212 -0.6210  0.7387  0.7404
 6858SOL     OW32206   3.643   1.861  15.436 -0.0986 -0.3445 -0.4273
 6858SOL    HW132207   3.568   1.900  15.480  0.1251  0.7446 -1.0001
 6858SOL    HW232208   3.706   1.869  15.508 -0.5338 -1.0855  0.0326
 6859SOL     OW32209   2.464   1.400   8.334  0.3114  0.2291  0.1640
 6859SOL    HW132210   2.537   1.435   8.283 -2.1240  0.2955 -3.2870
 6859SOL    HW232211   2.426   1.479   8.372  0.4526  0.0447  0.6857
 6860SOL     OW32212   1.902   3.711   4.480 -0.0348 -0.1324 -0.0400
 6860SOL    HW132213   1.943   3.762   4.410 -2.9366  0.0654 -1.5782
 6860SOL    HW232214   1.983   3.670   4.511 -0.5196  0.2404  1.7350
 6861SOL     OW32215   1.789   0.391  13.469 -0.0794 -0.3518  0.2232
 6861SOL    HW132216   1.811   0.303  13.439  0.3408 -0.6669  1.4507
 6861SOL    HW232217   1.738   0.417  13.392  2.1323 -3.3238 -2.2506
 6862SOL     OW32218   3.685   2.316  13.671  0.2871 -0.1568 -0.0425
 6862SOL    HW132219   3.597   2.302  13.705 -0.1340  0.5172 -0.8443
 6862SOL    HW232220   3.657   2.342  13.584 -2.3570 -1.2848  0.4683
 6863SOL     OW32221   1.652   1.768   7.884  0.2148 -0.3951  0.3806
 6863SOL    HW132222   1.567   1.766   7.929  0.5058  1.2331  0.9854
 6863SOL    HW232223   1.643   1.734   7.795  0.3953  1.3566 -0.3022
 6864SOL     OW32224   3.626   0.973   3.577  0.7103  0.1004 -0.2136
 6864SOL    HW132225   3.708   0.939   3.542  0.7058 -0.0366 -0.0953
 6864SOL    HW232226   3.643   1.064   3.557 -1.3150  0.3858 -0.6658
 6865SOL     OW32227   0.225   4.518   7.257  0.0864 -0.5738  0.0942
 6865SOL    HW132228   0.171   4.597   7.253  1.4594  0.4887  2.4577
 6865SOL    HW232229   0.264   4.506   7.171 -1.5154 -1.8010 -0.4337
 6866SOL     OW32230   3.822   2.636   8.316  0.7127 -0.0894  0.0010
 6866SOL    HW132231   3.844   2.619   8.408 -0.7525 -1.8575  0.0187
 6866SOL    HW232232   3.871   2.716   8.297 -0.7133  0.9181  0.5756
 6867SOL     OW32233   4.565   3.146   7.117  0.1315 -0.1506 -0.3032
 6867SOL    HW132234   4.502   3.197   7.067 -1.1565 -1.0568  0.4000
 6867SOL    HW232235   4.639   3.133   7.058  0.5148 -0.4996  0.2517
 6868SOL     OW32236   4.129   0.907   1.551 -0.2857 -0.2960 -0.3175
 6868SOL    HW132237   4.196   0.905   1.619 -0.9462  0.3646  0.3541
 6868SOL    HW232238   4.130   0.831   1.493  1.3650 -1.0175  0.6675
 6869SOL     OW32239   1.326   2.807   9.339 -0.6884 -0.3427 -0.4235
 6869SOL    HW132240   1.324   2.788   9.433  3.6207  0.8073 -0.0715
 6869SOL    HW232241   1.397   2.872   9.334  0.8055 -2.0196 -1.0710
 6870SOL     OW32242   0.481   1.902   6.007  0.6824 -0.6976 -0.2220
 6870SOL    HW132243   0.528   1.965   6.061  0.6280  0.5910 -1.6962
 6870SOL    HW232244   0.463   1.838   6.076 -0.9997  3.1334  2.8191
 6871SOL     OW32245   4.720   2.595   1.182 -0.3955 -0.7750 -0.1144
 6871SOL    HW132246   0.036   2.525   1.145  0.2433 -0.4418  0.1811
 6871SOL    HW232247   4.642   2.544   1.204 -1.2947 -0.9250 -3.6488
 6872SOL     OW32248   3.588   0.967   2.836  0.1264 -0.0814 -0.0412
 6872SOL    HW132249   3.625   0.954   2.749 -0.0414  0.6509 -0.2234
 6872SOL    HW232250   3.589   0.878   2.870 -2.7075 -0.1918 -0.2350
 6873SOL     OW32251   4.535   1.907   2.393 -0.0707 -0.5211  0.1781
 6873SOL    HW132252   4.458   1.958   2.420  1.2612  1.0996  0.9147
 6873SOL    HW232253   4.514   1.886   2.302  0.9137  2.7934 -0.8360
 6874SOL     OW32254   0.369   2.149   7.682  0.1137 -0.2511  0.5749
 6874SOL    HW132255   0.369   2.064   7.726  0.5709 -0.5678 -0.0372
 6874SOL    HW232256   0.274   2.160   7.682  0.0731 -0.6755 -1.6444
 6875SOL     OW32257   0.191   3.403  11.306  0.1198  0.5538 -0.5732
 6875SOL    HW132258   0.199   3.463  11.380  0.0072  0.9885 -0.9104
 6875SOL    HW232259   0.279   3.365  11.294  0.2100  0.4283  0.5441
 6876SOL     OW32260   4.122   1.607  16.258  0.1905 -0.5043  0.3738
 6876SOL    HW132261   4.076   1.684  16.292 -0.0356 -0.3333 -0.3077
 6876SOL    HW232262   4.097   1.541  16.322 -2.8899  1.1892  0.9048
 6877SOL     OW32263   2.339   3.985  12.980  0.0037  0.0828 -0.4691
 6877SOL    HW132264   2.288   4.051  12.933  2.0183 -0.0345 -2.8238
 6877SOL    HW232265   2.426   4.025  12.985  0.6828 -1.4306 -0.2429
 6878SOL     OW32266   0.511   4.137   4.785  0.2185  0.6995  0.1853
 6878SOL    HW132267   0.567   4.063   4.762 -0.1494  1.0532 -1.8199
 6878SOL    HW232268   0.541   4.208   4.728 -2.1622 -1.0532 -3.2466
 6879SOL     OW32269   3.907   2.339   7.172 -0.3309  0.2161 -0.4457
 6879SOL    HW132270   3.967   2.264   7.167  4.1716  3.7236  1.1949
 6879SOL    HW232271   3.970   2.400   7.211 -1.1611 -0.1634  1.4874
 6880SOL     OW32272   4.053   1.684  17.487 -0.7683 -0.2523 -0.2272
 6880SOL    HW132273   4.078   1.667  17.578  0.3199  2.4935 -0.0234
 6880SOL    HW232274   4.107   1.759  17.464  0.5203 -0.8045  0.9428
 6881SOL     OW32275   3.985   3.293  16.798 -0.2567  0.5155  0.2852
 6881SOL    HW132276   3.959   3.206  16.766 -1.2051  1.3595 -1.2469
 6881SOL    HW232277   3.907   3.345  16.818 -2.0249 -1.9973  0.0694
 6882SOL     OW32278   0.499   1.980   8.771 -0.2603  0.4150 -0.1476
 6882SOL    HW132279   0.537   1.934   8.847 -0.7753  0.0988 -0.0843
 6882SOL    HW232280   0.519   2.068   8.802 -3.1271  1.0330 -0.0668
 6883SOL     OW32281   0.822   2.024   4.016  0.7883  0.0012  0.5419
 6883SOL    HW132282   0.893   2.058   3.961 -1.1500  2.2498 -0.5468
 6883SOL    HW232283   0.842   1.931   4.011 -0.3792 -0.2028 -0.2568
 6884SOL     OW32284   4.136   1.926   1.397  0.0795 -0.4099 -0.2833
 6884SOL    HW132285   4.210   1.907   1.339  1.3453  4.0923 -0.0851
 6884SOL    HW232286   4.105   2.010   1.364 -0.6183 -0.7789 -0.5651
 6885SOL     OW32287   0.994   4.369  16.480  0.1014 -0.0044 -0.3750
 6885SOL    HW132288   0.942   4.407  16.552 -1.2767  0.3412 -1.5562
 6885SOL    HW232289   0.935   4.395  16.409  3.0758  1.5646 -2.2922
 6886SOL     OW32290   0.675   2.104   4.961  0.5859 -0.3599  0.8431
 6886SOL    HW132291   0.599   2.106   5.019 -0.1772 -0.1981 -0.1626
 6886SOL    HW232292   0.728   2.175   4.996  1.4975  0.2513 -1.7426
 6887SOL     OW32293   3.489   1.252   7.568 -0.1958  0.3096 -0.2318
 6887SOL    HW132294   3.471   1.333   7.616 -2.1982  0.5703 -1.4289
 6887SOL    HW232295   3.471   1.272   7.476 -2.3458  0.6103  0.2379
 6888SOL     OW32296   3.658   2.164   2.740  0.7221 -0.5237  0.2739
 6888SOL    HW132297   3.601   2.241   2.734  1.0473 -0.3713 -0.9990
 6888SOL    HW232298   3.741   2.206   2.761 -0.3879  2.6798 -1.5406
 6889SOL     OW32299   2.200   2.017   5.004 -0.1008 -0.2757 -0.3956
 6889SOL    HW132300   2.186   1.923   5.002  1.7477 -0.6026  1.6912
 6889SOL    HW232301   2.282   2.026   4.956 -0.0530 -0.9515 -0.4405
 6890SOL     OW32302   3.315   0.543   7.184  0.2880  0.1553  0.2339
 6890SOL    HW132303   3.359   0.605   7.126 -0.5672  0.3459 -0.2102
 6890SOL    HW232304   3.226   0.558   7.154  0.9231  0.7730 -1.3099
 6891SOL     OW32305   4.180   0.269   0.591  0.1716 -0.1459  0.0870
 6891SOL    HW132306   4.250   0.317   0.635  0.3504  0.6185 -1.0304
 6891SOL    HW232307   4.155   0.331   0.523  1.8392 -0.9298 -1.2355
 6892SOL     OW32308   1.356   4.435   4.593  0.3366 -0.3124 -0.2346
 6892SOL    HW132309   1.349   4.461   4.502  1.5552  1.6627  0.2450
 6892SOL    HW232310   1.277   4.476   4.628 -0.4129 -0.8395 -1.3086
 6893SOL     OW32311   4.425   0.212   7.944 -0.2163  0.2997 -0.1126
 6893SOL    HW132312   4.513   0.177   7.931 -0.3942 -1.1887  2.7774
 6893SOL    HW232313   4.412   0.272   7.870 -3.3624 -0.5286 -0.2376
 6894SOL     OW32314   4.363   0.353   9.172  0.1074  0.3873  0.0364
 6894SOL    HW132315   4.282   0.370   9.221 -1.0738  0.7407 -2.0212
 6894SOL    HW232316   4.339   0.366   9.080  0.4392  1.4181  0.1043
 6895SOL     OW32317   0.666   2.120   3.473 -0.1170 -0.4016 -0.3737
 6895SOL    HW132318   0.660   2.201   3.522 -1.2253  0.0949 -1.3423
 6895SOL    HW232319   0.654   2.149   3.382  0.2588 -1.4208 -0.7509
 6896SOL     OW32320   3.282   1.424   3.549 -0.1040 -0.0571  0.4359
 6896SOL    HW132321   3.241   1.508   3.530  3.1450  1.5830  0.7940
 6896SOL    HW232322   3.371   1.445   3.576  0.2734 -2.4401  1.0393
 6897SOL     OW32323   4.697   4.151   3.809 -0.2879 -0.0201  0.4435
 6897SOL    HW132324   4.734   4.122   3.893  0.1138  0.5902  0.4838
 6897SOL    HW232325   0.039   4.145   3.756 -0.8336 -2.0743 -0.1489
 6898SOL     OW32326   2.566   3.798   8.450  0.2559  0.5893 -0.2763
 6898SOL    HW132327   2.631   3.837   8.509 -1.8113 -0.1558  2.4853
 6898SOL    HW232328   2.525   3.727   8.499  0.8643  1.5433  1.6092
 6899SOL     OW32329   1.665   0.485   3.854 -0.3450 -0.2917  0.7017
 6899SOL    HW132330   1.648   0.530   3.771  0.9035 -0.2779  0.4452
 6899SOL    HW232331   1.721   0.544   3.905  0.9284 -1.0888  0.2292
 6900SOL     OW32332   3.872   3.392   7.500 -0.0488  0.1433 -0.1111
 6900SOL    HW132333   3.949   3.348   7.535  0.5808  0.6198 -0.9246
 6900SOL    HW232334   3.906   3.445   7.429  1.8004  1.0386  1.4448
 6901SOL     OW32335   0.252   2.031   5.061 -1.1190  0.3490  0.2209
 6901SOL    HW132336   0.178   2.077   5.023  0.2612  1.5011 -1.0316
 6901SOL    HW232337   0.251   1.954   5.004  1.0627  1.7619 -1.6950
 6902SOL     OW32338   4.257   0.738  11.241 -0.1403  0.3461  0.4746
 6902SOL    HW132339   4.199   0.675  11.284  0.4124 -1.7140 -1.7576
 6902SOL    HW232340   4.306   0.684  11.179 -3.3245 -0.3986 -1.3807
 6903SOL     OW32341   3.115   0.028   3.172  0.1818  0.0733  0.1611
 6903SOL    HW132342   3.063   4.695   3.210 -0.5608  0.7921  0.4805
 6903SOL    HW232343   3.042   0.082   3.141 -0.3830 -1.5332 -1.3037
 6904SOL     OW32344   3.324   0.686   8.565  0.5711 -0.1586 -0.0565
 6904SOL    HW132345   3.394   0.750   8.552  0.6429 -0.3571 -0.6279
 6904SOL    HW232346   3.354   0.622   8.630 -0.6822 -1.3592 -0.6548
 6905SOL     OW32347   3.600   4.227   3.172  0.5260  0.0558  0.5857
 6905SOL    HW132348   3.669   4.259   3.230  0.3511 -0.7156  1.2221
 6905SOL    HW232349   3.541   4.302   3.181  0.2053 -0.0655 -0.6100
 6906SOL     OW32350   2.796   2.280  14.540 -0.2712  0.6000 -0.6998
 6906SOL    HW132351   2.735   2.225  14.589  0.0762  1.0996  0.2913
 6906SOL    HW232352   2.753   2.284  14.454 -0.1541 -0.9985 -0.8398
 6907SOL     OW32353   4.611   2.057   3.589  0.6892 -0.4948 -0.0572
 6907SOL    HW132354   4.626   2.147   3.561 -1.8017 -1.0151 -3.0885
 6907SOL    HW232355   4.688   2.062   3.646  0.5992  1.1625 -0.0973
 6908SOL     OW32356   1.553   3.218   0.948  0.4117  0.6386  0.1394
 6908SOL    HW132357   1.483   3.178   0.999  0.2725  0.7750  0.0568
 6908SOL    HW232358   1.611   3.231   1.023  0.3833 -0.0149  0.2753
 6909SOL     OW32359   0.134   1.019   9.846 -0.6909  0.3579 -0.0155
 6909SOL    HW132360   0.092   1.024   9.932  0.4104 -1.4599  0.6460
 6909SOL    HW232361   0.061   0.974   9.804  0.7272 -1.7259 -0.2272
 6910SOL     OW32362   1.004   3.092   9.002  0.3219 -0.2543  0.1414
 6910SOL    HW132363   1.062   3.029   9.045  2.2878  1.0981 -0.5119
 6910SOL    HW232364   0.922   3.046   8.985  0.2937 -0.2793  0.3505
 6911SOL     OW32365   2.175   1.601   5.583  0.2174  0.5372 -0.1205
 6911SOL    HW132366   2.196   1.576   5.493 -0.9139 -0.6901 -0.0560
 6911SOL    HW232367   2.171   1.516   5.628 -0.0818  0.4975 -0.2225
 6912SOL     OW32368   3.986   3.484   7.241 -0.2285 -0.6729  0.1108
 6912SOL    HW132369   3.984   3.391   7.216  1.9620 -1.1772  1.7998
 6912SOL    HW232370   4.056   3.522   7.189 -0.9972  0.2756 -0.2202
 6913SOL     OW32371   0.611   2.534   4.137  0.5909  0.0578 -0.8064
 6913SOL    HW132372   0.580   2.580   4.214 -0.9995  0.0786 -1.4704
 6913SOL    HW232373   0.676   2.474   4.174 -2.6891 -1.2827  2.7834
 6914SOL     OW32374   1.885   1.406   4.585 -0.4666  0.2098 -0.3183
 6914SOL    HW132375   1.796   1.374   4.567 -0.3070 -0.5054  0.1863
 6914SOL    HW232376   1.886   1.435   4.676 -0.4727 -0.2620 -0.1711
 6915SOL     OW32377   1.145   4.307   3.166  0.1738 -0.1869  0.4022
 6915SOL    HW132378   1.159   4.394   3.203 -0.0197  1.2723 -2.9278
 6915SOL    HW232379   1.123   4.321   3.074  0.2479  1.2590  0.6111
 6916SOL     OW32380   1.578   4.227  16.749 -0.6625  0.4222  0.4578
 6916SOL    HW132381   1.667   4.205  16.723 -0.0333  2.9189  0.5262
 6916SOL    HW232382   1.538   4.144  16.773 -1.8349  1.2213  1.2833
 6917SOL     OW32383   2.974   0.920   6.356  0.4310 -0.2297  0.0574
 6917SOL    HW132384   2.937   0.833   6.341 -0.6042  0.3366 -0.6966
 6917SOL    HW232385   3.060   0.896   6.391  0.7990 -0.0126 -0.7042
 6918SOL     OW32386   3.682   2.254   3.403  0.6886 -0.2619 -0.3054
 6918SOL    HW132387   3.722   2.173   3.433 -0.3271  0.1908  2.2621
 6918SOL    HW232388   3.737   2.315   3.452  0.8446  1.5646 -2.7264
 6919SOL     OW32389   0.909   4.239   5.454 -0.1206  0.0437 -0.1616
 6919SOL    HW132390   0.834   4.181   5.441  1.2090 -1.4610 -1.1786
 6919SOL    HW232391   0.980   4.176   5.448  0.2441  0.5216 -0.8996
 6920SOL     OW32392   2.771   0.008   7.053  0.0109 -0.0271 -0.3115
 6920SOL    HW132393   2.835   0.073   7.084 -1.6159  0.8212  1.2625
 6920SOL    HW232394   2.828   4.672   7.033 -0.5166 -0.6254  0.3849
 6921SOL     OW32395   1.851   0.123  13.394  0.4518  0.5184 -0.6019
 6921SOL    HW132396   1.770   0.073  13.396  0.0052  1.2992  0.8042
 6921SOL    HW232397   1.917   0.062  13.362 -0.5730 -1.8552  1.8026
 6922SOL     OW32398   3.693   2.339   9.762  0.5073 -0.0087 -0.5047
 6922SOL    HW132399   3.635   2.301   9.696  0.0358  2.2075 -1.3790
 6922SOL    HW232400   3.621   2.366   9.820 -0.8867 -2.3910 -1.0943
 6923SOL     OW32401   3.790   4.635  13.171 -0.6581 -0.4139 -0.6219
 6923SOL    HW132402   3.823   4.548  13.192 -0.2520 -0.4896 -1.5762
 6923SOL    HW232403   3.708   4.632  13.122 -0.4823  0.0575 -0.9452
 6924SOL     OW32404   0.248   4.525  15.003 -0.5455 -0.2249 -0.2888
 6924SOL    HW132405   0.195   4.537  15.082  1.3862  4.3275  0.3452
 6924SOL    HW232406   0.322   4.481  15.044  0.3678  0.2110 -1.4737
 6925SOL     OW32407   3.053   0.501  12.981  0.2205  0.1465  0.2851
 6925SOL    HW132408   3.017   0.515  13.069  2.5474  0.8140  1.1218
 6925SOL    HW232409   3.106   0.423  12.999 -1.2362 -1.4179 -2.1821
 6926SOL     OW32410   3.441   0.425   1.060 -0.6488  0.0665  0.3160
 6926SOL    HW132411   3.346   0.412   1.062 -0.6242 -0.5306 -1.9229
 6926SOL    HW232412   3.447   0.517   1.084  0.2367  0.2336 -0.5123
 6927SOL     OW32413   0.255   4.116   2.628  1.0375 -0.6665 -0.3130
 6927SOL    HW132414   0.161   4.100   2.615  0.6293  0.8978  0.6476
 6927SOL    HW232415   0.260   4.211   2.615  0.6260 -0.7813 -1.2710
 6928SOL     OW32416   1.835   2.141   6.906 -0.6640  0.5063  0.6915
 6928SOL    HW132417   1.830   2.180   6.819 -0.6839 -0.8977  0.0781
 6928SOL    HW232418   1.768   2.194   6.950 -0.9702 -0.6462  1.6069
 6929SOL     OW32419   2.488   4.465   9.195 -0.2290 -0.0447  0.4494
 6929SOL    HW132420   2.523   4.554   9.185  0.0999 -0.2174  0.0566
 6929SOL    HW232421   2.411   4.477   9.250 -0.8390 -0.2567 -0.3510
 6930SOL     OW32422   0.542   1.797   3.860  0.2964  0.0900 -0.2744
 6930SOL    HW132423   0.509   1.839   3.781  0.1426  2.5937  1.0967
 6930SOL    HW232424   0.636   1.813   3.852  0.6167 -1.8254 -0.3871
 6931SOL     OW32425   3.454   2.327   7.769 -0.4114 -0.3978  0.1008
 6931SOL    HW132426   3.489   2.313   7.681 -0.5129 -1.3185  0.2123
 6931SOL    HW232427   3.392   2.395   7.739 -0.3127  0.5513  2.0611
 6932SOL     OW32428   1.221   3.193   4.842 -0.0501 -0.2262 -0.3004
 6932SOL    HW132429   1.250   3.234   4.924  0.5330 -4.1194  1.4400
 6932SOL    HW232430   1.146   3.144   4.877 -0.1053 -0.6596 -1.0310
 6933SOL     OW32431   2.805   2.027  12.890 -0.1489 -0.0410  0.0427
 6933SOL    HW132432   2.855   1.980  12.957 -2.4185  0.4934  2.1198
 6933SOL    HW232433   2.871   2.069  12.835 -0.1242  0.3099  0.3412
 6934SOL     OW32434   3.818   0.629   5.588 -0.0278 -0.4556  0.1960
 6934SOL    HW132435   3.820   0.534   5.578  0.3529 -0.2101 -1.9403
 6934SOL    HW232436   3.854   0.645   5.501  0.3772 -3.5208 -0.2198
 6935SOL     OW32437   1.580   4.388   2.310 -0.0328 -0.3024  0.1146
 6935SOL    HW132438   1.588   4.464   2.366  0.4874 -0.3624  0.1201
 6935SOL    HW232439   1.520   4.414   2.240 -0.8217  0.8827  1.2565
 6936SOL     OW32440   1.355   1.150  14.616 -0.2898  0.2231  0.2045
 6936SOL    HW132441   1.340   1.122  14.526 -0.3760  1.0335 -0.0298
 6936SOL    HW232442   1.368   1.244  14.602  0.2944 -0.0324 -0.9386
 6937SOL     OW32443   1.231   3.740   2.256  0.2342  0.8974  0.5279
 6937SOL    HW132444   1.164   3.672   2.263  1.2742 -0.0448  1.2821
 6937SOL    HW232445   1.309   3.696   2.225 -1.9963 -2.2456 -0.6721
 6938SOL     OW32446   0.621   1.929   2.829 -0.0430  0.2841 -0.7119
 6938SOL    HW132447   0.625   1.956   2.921  0.1627 -1.3782 -0.2348
 6938SOL    HW232448   0.579   1.845   2.845 -2.5557  1.5311 -0.7845
 6939SOL     OW32449   0.598   1.462   0.872 -0.1102  0.2487 -0.5707
 6939SOL    HW132450   0.570   1.379   0.912 -0.2467  0.5120 -0.1220
 6939SOL    HW232451   0.691   1.443   0.860 -0.4289 -2.3322  1.0101
 6940SOL     OW32452   3.074   0.500   7.931  0.2974  0.4820  0.2321
 6940SOL    HW132453   3.024   0.454   7.998 -1.2262  0.5404 -0.8573
 6940SOL    HW232454   3.164   0.497   7.962 -0.8129  0.3934  3.4281
 6941SOL     OW32455   0.983   2.739   2.753  0.1520  0.0282 -0.0656
 6941SOL    HW132456   0.963   2.784   2.671 -0.9536 -0.2759  0.0401
 6941SOL    HW232457   1.013   2.653   2.722  1.5212  0.5122 -0.0814
 6942SOL     OW32458   0.427   1.920   7.496 -0.1279  0.2153 -0.2619
 6942SOL    HW132459   0.366   1.848   7.480  1.1495 -0.7142 -0.9093
 6942SOL    HW232460   0.494   1.866   7.536 -1.6160 -0.8229  0.8205
 6943SOL     OW32461   0.165   1.510   2.139 -0.0885  0.3884 -0.5634
 6943SOL    HW132462   0.089   1.452   2.151 -0.0186  0.1845 -1.1316
 6943SOL    HW232463   0.155   1.554   2.055  0.8655  0.0103 -0.8703
 6944SOL     OW32464   3.332   3.879   7.947 -0.0629  0.0432 -0.1175
 6944SOL    HW132465   3.270   3.806   7.941  0.5941 -0.4565 -0.7509
 6944SOL    HW232466   3.307   3.927   8.026 -1.6239  0.2204 -0.7061
 6945SOL     OW32467   0.107   1.305  15.550 -0.0495 -0.2100  0.4247
 6945SOL    HW132468   0.185   1.311  15.495  0.5924  3.0648  1.6861
 6945SOL    HW232469   0.090   1.395  15.580 -0.0434  0.2582 -0.9748
 6946SOL     OW32470   1.787   3.320   3.332 -0.1740  0.0150  0.1750
 6946SOL    HW132471   1.719   3.338   3.266 -1.8217 -2.1834  1.2960
 6946SOL    HW232472   1.851   3.387   3.308 -1.9679  1.7185  0.0380
 6947SOL     OW32473   1.221   0.387   3.745  0.2053 -0.4535  0.3377
 6947SOL    HW132474   1.187   0.301   3.722 -0.8855 -0.2543  1.1635
 6947SOL    HW232475   1.279   0.408   3.672  0.8149 -1.7758  0.4564
 6948SOL     OW32476   3.739   0.816   8.396 -0.4120  0.3170 -0.2147
 6948SOL    HW132477   3.760   0.752   8.329 -4.3611  0.6759 -1.8224
 6948SOL    HW232478   3.820   0.868   8.400  0.2119 -0.8114  1.9383
 6949SOL     OW32479   1.522   2.272   6.459  0.2014 -0.2381  0.0879
 6949SOL    HW132480   1.567   2.342   6.506 -0.7563  0.3207  0.1776
 6949SOL    HW232481   1.534   2.211   6.531 -0.0163 -0.0473  0.2863
 6950SOL     OW32482   4.172   1.561   6.513 -0.0611  0.1802  0.0421
 6950SOL    HW132483   4.105   1.534   6.576  2.1137 -1.1229  1.7993
 6950SOL    HW232484   4.194   1.481   6.464  1.5561  0.0761  0.9447
 6951SOL     OW32485   0.513   0.325   2.303 -0.4124  0.0442  0.2133
 6951SOL    HW132486   0.528   0.239   2.342 -1.8167 -0.5906 -0.6524
 6951SOL    HW232487   0.446   0.295   2.242  0.4920 -2.0999  0.2448
 6952SOL     OW32488   2.458   0.751   5.942  0.3986 -0.0183 -0.5434
 6952SOL    HW132489   2.432   0.767   6.032 -3.6599 -0.6179 -1.5796
 6952SOL    HW232490   2.503   0.827   5.906  1.3401 -0.6495 -0.7161
 6953SOL     OW32491   3.804   1.095  11.051 -0.0222  0.0674  0.6788
 6953SOL    HW132492   3.820   1.041  10.974  1.6826  2.3282 -0.5576
 6953SOL    HW232493   3.870   1.059  11.110 -1.4265 -1.4036  1.3352
 6954SOL     OW32494   4.373   0.353   5.735 -0.0071  0.5554 -0.0724
 6954SOL    HW132495   4.461   0.316   5.729 -0.3878 -0.0836 -1.7842
 6954SOL    HW232496   4.313   0.286   5.702 -0.7747  0.3852  1.6602
 6955SOL     OW32497   3.557   1.688   4.539  0.8043  0.4191 -0.5840
 6955SOL    HW132498   3.645   1.700   4.573  1.1301  2.1463 -2.0384
 6955SOL    HW232499   3.502   1.729   4.606  1.6195  2.3157 -1.0696
 6956SOL     OW32500   3.133   4.704  15.701  0.2539 -0.2149 -0.3130
 6956SOL    HW132501   3.199   4.690  15.634 -0.1920 -0.0906 -0.7756
 6956SOL    HW232502   3.097   4.615  15.711 -0.8816  0.1927 -0.7188
 6957SOL     OW32503   4.565   2.784   3.919  0.2564  0.5221 -0.0319
 6957SOL    HW132504   4.657   2.804   3.904  0.5507 -0.6929  0.1382
 6957SOL    HW232505   4.558   2.705   3.865  1.5585 -0.1235  0.7245
 6958SOL     OW32506   4.212   3.439   4.433 -0.0445 -0.2329 -0.4973
 6958SOL    HW132507   4.277   3.470   4.495  1.8297 -1.3888 -1.8622
 6958SOL    HW232508   4.246   3.360   4.391  1.7685  0.1493  0.2596
 6959SOL     OW32509   2.757   2.416  13.455 -0.5013  1.1748 -0.3110
 6959SOL    HW132510   2.816   2.366  13.398 -0.9715 -1.1524  1.2216
 6959SOL    HW232511   2.711   2.467  13.388  0.5327  1.2148 -0.9894
 6960SOL     OW32512   0.508   2.143   2.713 -0.3927  0.0676 -0.8386
 6960SOL    HW132513   0.554   2.069   2.752  3.4090  1.2982 -2.8806
 6960SOL    HW232514   0.447   2.095   2.656 -1.2648  0.7428 -0.4668
 6961SOL     OW32515   2.589   4.423   6.933  0.3144  0.5259  0.5502
 6961SOL    HW132516   2.611   4.424   7.026 -1.0823 -1.7584  0.8999
 6961SOL    HW232517   2.548   4.336   6.936  1.9549 -0.2255  1.3559
 6962SOL     OW32518   3.438   3.355   4.962  0.8420  0.7850 -0.5245
 6962SOL    HW132519   3.379   3.416   4.918  0.5695  0.1190 -1.0837
 6962SOL    HW232520   3.372   3.293   4.995  1.8922 -0.9469 -1.6956
 6963SOL     OW32521   4.563   1.644  12.405 -0.2306 -0.4667  0.8492
 6963SOL    HW132522   4.555   1.732  12.369  2.6596 -1.3468 -1.9806
 6963SOL    HW232523   4.473   1.618  12.424 -0.3897 -0.8806 -0.4781
 6964SOL     OW32524   0.923   3.757   1.754  0.2732 -0.3431  0.1710
 6964SOL    HW132525   0.952   3.667   1.740 -2.0512 -1.1841  0.8176
 6964SOL    HW232526   0.944   3.771   1.847  0.5818  0.3708 -0.0008
 6965SOL     OW32527   1.480   0.892   1.263  0.0636 -0.5183  0.1156
 6965SOL    HW132528   1.496   0.976   1.305  0.6490 -0.9381  0.7498
 6965SOL    HW232529   1.528   0.909   1.181 -1.2349 -1.1402 -0.7689
 6966SOL     OW32530   2.609   2.655   0.003  0.3526 -0.1538  0.3146
 6966SOL    HW132531   2.598   2.566  17.719  0.8617  0.4924 -1.5607
 6966SOL    HW232532   2.606   2.653   0.099 -3.7419  0.1120  0.1862
 6967SOL     OW32533   1.263   4.544   4.888  0.1046  0.6545  0.0603
 6967SOL    HW132534   1.312   4.537   4.970 -1.0581  2.6395  0.9216
 6967SOL    HW232535   1.245   4.451   4.878  2.6564 -0.1340  3.0307
 6968SOL     OW32536   3.502   2.967   9.002  0.0407  0.1339 -0.7148
 6968SOL    HW132537   3.529   2.934   9.087 -1.3749 -0.2194 -0.3968
 6968SOL    HW232538   3.575   2.934   8.950  0.2111  0.0703 -0.4344
 6969SOL     OW32539   1.525   1.900   5.046  0.1891  0.2039 -0.0051
 6969SOL    HW132540   1.479   1.817   5.062 -0.7019  0.7690  0.3594
 6969SOL    HW232541   1.597   1.894   5.108 -0.0403 -1.2656  0.1170
 6970SOL     OW32542   0.308   1.971  10.371 -0.2893 -0.2521  0.5647
 6970SOL    HW132543   0.233   2.030  10.381 -1.6548 -2.1057  1.2187
 6970SOL    HW232544   0.376   2.031  10.402  1.0093 -0.6588 -1.5006
 6971SOL     OW32545   0.148   4.155   7.255 -0.1523  0.1750 -0.5341
 6971SOL    HW132546   0.119   4.187   7.169  2.2138  2.1919 -0.5735
 6971SOL    HW232547   0.064   4.131   7.296  0.1287  0.9928  0.5112
 6972SOL     OW32548   3.047   0.170   7.674  0.0784 -0.3353 -0.7241
 6972SOL    HW132549   3.085   0.088   7.703 -1.0907 -0.1872  1.2490
 6972SOL    HW232550   3.131   0.215   7.673 -0.0797  0.0013  0.9502
 6973SOL     OW32551   4.729   1.404   8.314 -0.5115 -0.3281  0.1645
 6973SOL    HW132552   4.717   1.368   8.403 -0.1590  0.2267  0.4362
 6973SOL    HW232553   0.063   1.346   8.289 -1.1213 -0.5378 -1.0845
 6974SOL     OW32554   4.511   1.777   6.012 -0.0325 -0.4898  0.4400
 6974SOL    HW132555   4.592   1.745   5.974  0.8351  1.0932  0.9383
 6974SOL    HW232556   4.451   1.756   5.941  0.0889  2.4857 -0.5579
 6975SOL     OW32557   1.874   0.159   5.540 -0.4518  0.2244 -0.4338
 6975SOL    HW132558   1.793   0.192   5.499  0.3282 -0.3150 -2.4281
 6975SOL    HW232559   1.829   0.107   5.607 -0.8555  1.5770  0.3406
 6976SOL     OW32560   2.723   2.968   6.060 -0.0785  0.1560  0.1159
 6976SOL    HW132561   2.663   3.032   6.098 -0.0930 -0.1531  0.6064
 6976SOL    HW232562   2.740   2.981   5.966 -3.1611  2.0279 -0.1646
 6977SOL     OW32563   2.956   3.443  10.815 -0.1665 -0.4080  0.7186
 6977SOL    HW132564   2.966   3.380  10.886  0.4342  0.6328  1.5597
 6977SOL    HW232565   3.045   3.476  10.824 -0.5468  0.0951  2.7024
 6978SOL     OW32566   1.911   4.655   0.330 -0.2503  0.3298  0.1664
 6978SOL    HW132567   1.846   4.606   0.380 -1.1186  2.1887  0.8962
 6978SOL    HW232568   1.862   4.738   0.321 -0.8583  0.0937  1.2758
 6979SOL     OW32569   1.694   4.208  13.184  0.4255  0.0818 -0.2308
 6979SOL    HW132570   1.650   4.279  13.230 -2.2913 -1.5450 -0.3385
 6979SOL    HW232571   1.635   4.182  13.114 -2.9251  1.0174  2.2531
 6980SOL     OW32572   4.543   3.889   5.373 -0.2994  0.1488  0.2312
 6980SOL    HW132573   4.569   3.801   5.400 -1.3946  0.1752  1.3481
 6980SOL    HW232574   4.448   3.885   5.368 -0.3074  0.3685  0.1954
 6981SOL     OW32575   4.676   4.119   2.642  0.6048  0.0265 -0.1595
 6981SOL    HW132576   4.613   4.090   2.709  0.6293  0.1895 -0.0662
 6981SOL    HW232577   4.670   4.214   2.634 -2.8277 -0.0618  1.4029
 6982SOL     OW32578   2.728   3.911  11.689  0.6429  0.0565 -0.4889
 6982SOL    HW132579   2.684   3.829  11.710  0.4713  0.0979 -0.6937
 6982SOL    HW232580   2.820   3.895  11.709  0.7928  1.7669  0.2215
 6983SOL     OW32581   2.083   0.041   5.424  0.5671  0.7790 -0.0178
 6983SOL    HW132582   2.019   0.101   5.463 -0.2038  0.5895 -1.0174
 6983SOL    HW232583   2.141   0.030   5.500  1.9718 -0.3161 -1.2598
 6984SOL     OW32584   1.696   3.901   3.037  0.2811 -0.4511 -0.3851
 6984SOL    HW132585   1.667   3.917   2.947 -2.7354  0.9675  0.8517
 6984SOL    HW232586   1.778   3.950   3.043 -0.7240  1.0651  1.0454
 6985SOL     OW32587   0.194   3.768   5.450 -0.2567 -0.6007 -0.2914
 6985SOL    HW132588   0.212   3.711   5.525 -1.2244  0.6229  0.8828
 6985SOL    HW232589   0.157   3.706   5.387  0.7068 -0.6116 -0.8472
 6986SOL     OW32590   0.269   2.713  16.986  0.4222 -0.2378  0.1316
 6986SOL    HW132591   0.174   2.714  16.969 -0.0342  0.1929  2.5773
 6986SOL    HW232592   0.287   2.620  16.999 -0.2272 -0.2169  1.2086
 6987SOL     OW32593   2.569   3.899  14.762 -0.0242  0.3041  0.2357
 6987SOL    HW132594   2.527   3.946  14.690 -1.0869  1.1306  1.4046
 6987SOL    HW232595   2.534   3.811  14.748 -1.2459  1.1365 -2.0031
 6988SOL     OW32596   0.492   1.701  11.406 -0.4301 -0.4605  0.2677
 6988SOL    HW132597   0.508   1.623  11.353  3.4413  1.6220 -1.7115
 6988SOL    HW232598   0.578   1.718  11.446 -0.4901  0.7724 -0.1254
 6989SOL     OW32599   1.386   3.207  16.277 -0.4793 -0.8990 -0.3933
 6989SOL    HW132600   1.419   3.292  16.249 -0.3038 -1.6948 -2.5878
 6989SOL    HW232601   1.428   3.188  16.361  0.6365  0.5424 -0.6212
 6990SOL     OW32602   0.642   0.859   1.172  0.1940  0.0969  0.6310
 6990SOL    HW132603   0.686   0.877   1.089  1.2597  0.9228  1.3699
 6990SOL    HW232604   0.627   0.767   1.151 -1.0251  0.5385 -0.4671
 6991SOL     OW32605   2.206   3.629   3.124 -0.8732 -0.7988 -0.3534
 6991SOL    HW132606   2.261   3.579   3.063 -0.7960  0.9847 -1.7450
 6991SOL    HW232607   2.161   3.689   3.064 -0.9470 -2.8442 -2.3314
 6992SOL     OW32608   2.361   2.236  13.461 -0.1188 -0.1226  0.2202
 6992SOL    HW132609   2.286   2.217  13.518 -1.5428  0.6739 -1.4087
 6992SOL    HW232610   2.435   2.262  13.515  1.8934 -0.0373 -2.5956
 6993SOL     OW32611   3.144   3.406   2.783 -0.3890  0.4655 -0.2296
 6993SOL    HW132612   3.111   3.410   2.872  1.4611 -0.3155  0.5074
 6993SOL    HW232613   3.187   3.491   2.784 -0.1686  0.3410  1.0774
 6994SOL     OW32614   1.544   1.623   8.191  0.1921  0.4826  0.3347
 6994SOL    HW132615   1.528   1.703   8.139 -0.9603  0.5193  0.7425
 6994SOL    HW232616   1.464   1.606   8.240  0.4013 -1.0110  0.1577
 6995SOL     OW32617   1.258   0.185   3.155 -0.1782 -0.0279 -0.0278
 6995SOL    HW132618   1.189   0.122   3.135 -1.6238  1.9881 -1.3629
 6995SOL    HW232619   1.224   0.226   3.234  0.2218 -2.9375  1.6584
 6996SOL     OW32620   4.496   1.717   2.570  0.4680  0.0580  0.0066
 6996SOL    HW132621   4.512   1.766   2.489 -0.5383  0.5883  0.1123
 6996SOL    HW232622   4.579   1.726   2.616  1.6079 -3.0248 -1.4852
 6997SOL     OW32623   3.880   1.059   1.311 -0.3221  0.2729  0.2948
 6997SOL    HW132624   3.875   0.979   1.257  0.4754  0.0624  0.5346
 6997SOL    HW232625   3.811   1.116   1.278 -0.7106  0.3386  1.2275
 6998SOL     OW32626   3.197   3.732  13.913  0.0700 -0.1963 -0.1214
 6998SOL    HW132627   3.267   3.704  13.971  1.3519  2.5984 -0.3484
 6998SOL    HW232628   3.236   3.812  13.878  3.1322 -1.8403 -0.4669
 6999SOL     OW32629   3.444   1.351   2.337 -0.4019 -0.4266 -0.1691
 6999SOL    HW132630   3.519   1.407   2.314 -0.9154  0.6599  0.7496
 6999SOL    HW232631   3.485   1.283   2.390  0.3890  0.8951  0.9518
 7000SOL     OW32632   0.960   2.557   8.974 -0.3365 -0.2695 -0.0548
 7000SOL    HW132633   0.944   2.477   8.925 -0.1480 -0.3862  0.0732
 7000SOL    HW232634   1.052   2.560   9.002 -0.7278  2.4217  0.9085
 7001SOL     OW32635   1.892   1.394   3.789  0.0435  0.0900 -0.4664
 7001SOL    HW132636   1.846   1.359   3.865  1.8737 -0.6900  0.2562
 7001SOL    HW232637   1.931   1.477   3.815 -0.2167  0.0359  0.0942
 7002SOL     OW32638   1.015   2.065   5.306  0.2451  0.0911  0.3815
 7002SOL    HW132639   1.015   2.073   5.401 -1.8386 -1.2768  0.4831
 7002SOL    HW232640   0.944   2.004   5.289  0.9150 -0.4534 -0.4846
 7003SOL     OW32641   2.234   0.068  12.211  0.0002 -0.0098 -0.0079
 7003SOL    HW132642   2.240   4.712  12.223  1.8997 -0.0469 -1.3388
 7003SOL    HW232643   2.271   0.094  12.296  0.8620 -0.1537 -0.3397
 7004SOL     OW32644   3.601   0.270  14.649 -0.0740  0.3198 -0.4827
 7004SOL    HW132645   3.556   0.276  14.734 -0.4840 -1.4621 -0.5616
 7004SOL    HW232646   3.642   0.356  14.643  3.5078 -1.2678  0.6668
 7005SOL     OW32647   0.524   0.279   2.817  0.0282 -0.0805  0.1189
 7005SOL    HW132648   0.460   0.226   2.865 -0.6396  1.8245  1.3308
 7005SOL    HW232649   0.515   0.353   2.877  1.3580 -0.3977  0.7152
 7006SOL     OW32650   2.175   0.195   9.270 -0.4915 -0.5283 -0.0242
 7006SOL    HW132651   2.257   0.146   9.277 -0.5781 -0.5783  0.6321
 7006SOL    HW232652   2.195   0.250   9.195  2.6241 -1.2339  0.3005
 7007SOL     OW32653   4.538   3.042   5.956  0.2447 -0.0176  0.3476
 7007SOL    HW132654   4.518   3.061   6.048  0.6675  0.2743  0.3784
 7007SOL    HW232655   4.542   3.131   5.919  1.4668  0.7914  2.3920
 7008SOL     OW32656   1.966   1.372   6.147 -0.3408 -0.7091  0.6556
 7008SOL    HW132657   2.038   1.326   6.189  1.0455  0.1222 -0.7743
 7008SOL    HW232658   1.950   1.441   6.212 -0.8175 -0.0737 -0.1276
 7009SOL     OW32659   2.219   1.355   7.051  0.0789 -0.6176 -0.5454
 7009SOL    HW132660   2.275   1.362   6.974 -0.1684  2.7598 -0.4285
 7009SOL    HW232661   2.169   1.277   7.027 -1.8304  0.1943  0.7742
 7010SOL     OW32662   3.165   1.180  11.702 -0.4406  0.2794  0.3104
 7010SOL    HW132663   3.079   1.159  11.739 -0.9571  0.5470 -0.7525
 7010SOL    HW232664   3.215   1.098  11.714  0.1346  0.5951  0.0856
 7011SOL     OW32665   2.427   3.751   9.052  0.1328 -0.2731 -0.0118
 7011SOL    HW132666   2.342   3.761   9.096  0.0018  0.4498 -0.4254
 7011SOL    HW232667   2.460   3.839   9.073  2.4007 -1.4124  1.2215
 7012SOL     OW32668   3.329   1.471   3.224  0.7264  0.3688  0.4088
 7012SOL    HW132669   3.245   1.460   3.268  0.0184  1.2233 -0.7166
 7012SOL    HW232670   3.389   1.415   3.275 -0.6492 -0.7296  0.8124
 7013SOL     OW32671   2.204   3.009   3.179  0.2138 -0.1628  0.1544
 7013SOL    HW132672   2.179   3.099   3.158 -0.0598 -1.2954 -4.3282
 7013SOL    HW232673   2.239   2.992   3.092  0.4899 -1.6524  0.5569
 7014SOL     OW32674   3.996   4.678   5.611 -0.2312  0.0973 -0.1152
 7014SOL    HW132675   3.935   0.010   5.635 -0.0887  0.5256 -0.9868
 7014SOL    HW232676   3.945   4.624   5.550 -0.8741 -0.6609  1.1024
 7015SOL     OW32677   3.691   1.878  16.094  0.1472  0.3901 -0.7794
 7015SOL    HW132678   3.680   1.801  16.150 -1.0210  1.5495  0.5658
 7015SOL    HW232679   3.767   1.850  16.043  0.1051  0.0975 -0.6830
 7016SOL     OW32680   1.471   3.798  11.684  0.4452  0.8846 -0.1326
 7016SOL    HW132681   1.521   3.716  11.685 -0.3964  0.3611 -1.2032
 7016SOL    HW232682   1.488   3.832  11.772  0.6498 -0.3341  0.2971
 7017SOL     OW32683   3.268   1.381   3.838 -0.0997  0.1806  0.3165
 7017SOL    HW132684   3.274   1.376   3.742 -2.6458 -0.0020  0.1755
 7017SOL    HW232685   3.222   1.301   3.860  2.4758 -1.2432  0.5216
 7018SOL     OW32686   0.041   3.836  16.347 -0.0516 -0.4096 -0.4561
 7018SOL    HW132687   0.067   3.869  16.433  0.7738 -1.6731 -0.2143
 7018SOL    HW232688   4.703   3.893  16.334  0.1278  0.1688  1.0243
 7019SOL     OW32689   2.927   1.816  10.616  0.6894 -0.3926 -0.3523
 7019SOL    HW132690   2.969   1.857  10.691 -0.7553 -1.8790  1.2437
 7019SOL    HW232691   2.960   1.858  10.536  2.0091  1.5031  1.1669
 7020SOL     OW32692   0.307   3.725   1.755 -0.3303 -0.4773  0.1040
 7020SOL    HW132693   0.327   3.661   1.824  0.2425  0.9028  1.2333
 7020SOL    HW232694   0.396   3.729   1.719  0.1254 -1.8590  1.0654
 7021SOL     OW32695   0.682   3.639   2.495  0.2394  0.4764 -0.3744
 7021SOL    HW132696   0.604   3.649   2.440  0.8674  1.3860 -1.1082
 7021SOL    HW232697   0.685   3.544   2.508  3.1310  0.6108 -0.1141
 7022SOL     OW32698   4.289   4.690   1.218 -0.0071 -0.1042 -0.2930
 7022SOL    HW132699   4.365   0.003   1.189  1.6978 -2.1064  0.6667
 7022SOL    HW232700   4.276   4.729   1.304 -0.6046  1.5818 -1.1388
 7023SOL     OW32701   4.349   1.160  10.692  0.0814  0.2966 -0.0880
 7023SOL    HW132702   4.402   1.230  10.732 -0.6091  1.1036 -0.6031
 7023SOL    HW232703   4.286   1.152  10.764 -2.0231  2.9545 -1.6607
 7024SOL     OW32704   1.719   1.492   8.726  0.1267  0.5237 -0.2239
 7024SOL    HW132705   1.663   1.550   8.675  1.3895  0.7626 -1.3267
 7024SOL    HW232706   1.697   1.510   8.818 -0.6279  4.8009 -1.2439
 7025SOL     OW32707   0.516   2.666   5.248  0.4152  0.3568 -0.1064
 7025SOL    HW132708   0.574   2.742   5.249 -0.6437  1.1703 -0.6566
 7025SOL    HW232709   0.483   2.661   5.338 -0.3851 -3.0367 -0.6044
 7026SOL     OW32710   3.657   1.639   7.381 -0.4402 -0.0869 -0.3084
 7026SOL    HW132711   3.750   1.656   7.365  0.4720 -1.5996  3.5143
 7026SOL    HW232712   3.618   1.663   7.297 -0.8639 -2.2300 -0.7186
 7027SOL     OW32713   1.233   4.007  15.287 -0.1520  0.0769 -0.3317
 7027SOL    HW132714   1.172   4.058  15.340 -1.1899 -0.8234 -0.6364
 7027SOL    HW232715   1.171   3.957  15.234 -0.8050  0.6930 -0.1533
 7028SOL     OW32716   0.114   0.125   2.530  0.1716 -0.4666  0.3861
 7028SOL    HW132717   0.060   0.187   2.578  2.3499  2.2687 -0.6802
 7028SOL    HW232718   0.201   0.163   2.520 -0.5673  0.9764 -0.5001
 7029SOL     OW32719   3.247   0.803   6.408  0.0181  0.0752 -0.1404
 7029SOL    HW132720   3.334   0.821   6.373 -0.0171  1.5228  0.4974
 7029SOL    HW232721   3.244   0.851   6.491  0.2085  1.5873 -1.0091
 7030SOL     OW32722   4.348   1.781   3.707  0.4835  0.3429 -0.5030
 7030SOL    HW132723   4.427   1.833   3.722 -0.2575  1.1639  0.5794
 7030SOL    HW232724   4.283   1.849   3.725 -0.7171 -1.3339  1.5820
 7031SOL     OW32725   2.773   3.078   8.553  0.5552 -0.2962  0.5538
 7031SOL    HW132726   2.712   3.114   8.617  1.5100 -0.1865  1.4101
 7031SOL    HW232727   2.746   2.990   8.577 -1.5445  0.0647 -0.5175
 7032SOL     OW32728   2.429   2.630  13.031 -0.6833  0.5079  0.3277
 7032SOL    HW132729   2.503   2.630  13.092 -0.3026  0.6230 -0.1337
 7032SOL    HW232730   2.382   2.713  13.030 -2.0977 -0.2979  0.3719
 7033SOL     OW32731   3.193   1.140   8.908  0.3662  0.1787 -0.4885
 7033SOL    HW132732   3.219   1.213   8.853  0.7016  0.2478 -0.2389
 7033SOL    HW232733   3.177   1.064   8.852 -2.9847 -0.6591  1.5943
 7034SOL     OW32734   4.590   2.844  10.950 -0.4182  1.0659  0.0817
 7034SOL    HW132735   4.503   2.875  10.926 -0.5764  1.9332  1.8078
 7034SOL    HW232736   4.567   2.794  11.028  1.3582 -0.4872 -0.3813
 7035SOL     OW32737   1.790   1.372   4.033  0.1408  0.6787 -0.0134
 7035SOL    HW132738   1.800   1.378   4.128  1.9212  1.4515 -0.2569
 7035SOL    HW232739   1.769   1.279   4.043  0.9718  0.3387 -1.5033
 7036SOL     OW32740   1.211   3.298   2.459 -0.0430 -0.1790  0.1248
 7036SOL    HW132741   1.170   3.213   2.445  0.0763 -0.1344 -0.4979
 7036SOL    HW232742   1.305   3.279   2.454  0.2372  1.0637  0.5015
 7037SOL     OW32743   0.669   3.275  13.316  0.0407  0.1611  0.4752
 7037SOL    HW132744   0.720   3.293  13.237 -0.2336  0.7187  0.4235
 7037SOL    HW232745   0.675   3.180  13.328  2.5900  0.3601  0.6993
 7038SOL     OW32746   0.242   3.829  13.824  0.1844  0.4530  0.2483
 7038SOL    HW132747   0.201   3.792  13.745  0.4498  0.0292  0.3081
 7038SOL    HW232748   0.258   3.750  13.876 -1.0493  0.8185  1.1652
 7039SOL     OW32749   3.514   3.711   2.303  0.3067  0.2029 -0.3055
 7039SOL    HW132750   3.596   3.705   2.351  0.2906  0.3043 -0.2660
 7039SOL    HW232751   3.456   3.655   2.355 -2.3025  2.6046 -0.6288
 7040SOL     OW32752   3.134   0.854  12.344  0.0405  0.0255 -0.3450
 7040SOL    HW132753   3.180   0.919  12.397 -1.9121  1.7154 -0.7419
 7040SOL    HW232754   3.084   0.806  12.410 -1.0999 -0.6668 -1.7254
 7041SOL     OW32755   1.284   1.632   1.260  0.3162  0.5269  0.4018
 7041SOL    HW132756   1.309   1.610   1.170 -1.2527 -0.0198  0.1114
 7041SOL    HW232757   1.234   1.712   1.243 -0.7839  0.1109  1.7590
 7042SOL     OW32758   3.101   0.197   4.599 -0.0022 -0.5130  0.0964
 7042SOL    HW132759   3.143   0.282   4.611  1.3632 -1.1135 -0.4146
 7042SOL    HW232760   3.066   0.178   4.686 -0.2850 -0.2219  0.0481
 7043SOL     OW32761   4.560   1.658  11.624 -0.0087 -0.6220 -0.0947
 7043SOL    HW132762   4.544   1.564  11.628  1.3046 -0.8924 -0.9891
 7043SOL    HW232763   4.558   1.677  11.718 -0.1736  0.4639 -0.3223
 7044SOL     OW32764   2.313   3.644  17.733 -0.3457 -0.2013  0.4141
 7044SOL    HW132765   2.400   3.610   0.004 -0.0575  0.8665  0.9661
 7044SOL    HW232766   2.321   3.717  17.672 -0.2117  1.1558  2.0703
 7045SOL     OW32767   1.827   2.560   3.674 -0.1045 -0.0567  0.1075
 7045SOL    HW132768   1.748   2.556   3.728  0.8785 -1.9564  1.3929
 7045SOL    HW232769   1.784   2.593   3.594  1.9133  1.4266 -0.3891
 7046SOL     OW32770   0.968   2.546  16.302 -0.5938  0.1986  0.0229
 7046SOL    HW132771   0.977   2.639  16.321 -2.7774 -0.2660  3.2049
 7046SOL    HW232772   1.057   2.531  16.270 -0.0165  0.6805  1.3857
 7047SOL     OW32773   1.361   0.913   7.244  0.1791  0.2212 -0.4167
 7047SOL    HW132774   1.341   0.977   7.176  2.2730  1.1417 -0.1646
 7047SOL    HW232775   1.282   0.907   7.296  0.8443 -0.3911  0.5261
 7048SOL     OW32776   3.819   1.578   8.350  0.1717 -0.3640  0.0959
 7048SOL    HW132777   3.745   1.517   8.353  0.5955 -0.7845  2.0924
 7048SOL    HW232778   3.773   1.658   8.374 -0.1693 -0.0973 -1.4651
 7049SOL     OW32779   2.085   3.662   8.764 -0.4199 -0.1658  0.1434
 7049SOL    HW132780   2.084   3.652   8.860  0.9975 -0.7714  0.1042
 7049SOL    HW232781   2.154   3.601   8.739 -1.4591 -1.0806 -0.4974
 7050SOL     OW32782   3.360   0.952   6.017 -0.1938  0.5473 -0.0046
 7050SOL    HW132783   3.266   0.948   5.999  0.1417 -1.7132 -1.1680
 7050SOL    HW232784   3.389   1.042   6.000  2.2741  0.0383  1.5634
 7051SOL     OW32785   3.393   1.507   5.411 -0.3332 -0.3235 -0.3817
 7051SOL    HW132786   3.374   1.459   5.492  0.6518  0.4458  0.3119
 7051SOL    HW232787   3.392   1.435   5.349 -1.5111 -1.0538  0.4795
 7052SOL     OW32788   1.134   1.329  17.489 -0.0594 -0.4713  0.3298
 7052SOL    HW132789   1.097   1.249  17.452 -0.6101  0.2827 -0.7710
 7052SOL    HW232790   1.059   1.390  17.488  1.3086  1.2125  0.2042
 7053SOL     OW32791   3.579   1.061   1.445 -0.1376  0.2053 -0.3349
 7053SOL    HW132792   3.589   1.130   1.511  0.1765 -1.8541  1.7914
 7053SOL    HW232793   3.557   1.113   1.368 -1.0457 -0.3024 -0.4113
 7054SOL     OW32794   1.302   1.238   2.923 -0.0385  0.5521 -0.3203
 7054SOL    HW132795   1.337   1.263   2.837  0.3816  0.0204 -0.3063
 7054SOL    HW232796   1.213   1.273   2.917 -0.7645 -0.9839  1.7892
 7055SOL     OW32797   4.114   3.806   5.008  0.0239  0.7985 -0.1786
 7055SOL    HW132798   4.189   3.801   4.948  0.4173  0.4850  0.3279
 7055SOL    HW232799   4.097   3.712   5.001  1.6100  0.4758  0.3291
 7056SOL     OW32800   1.224   1.407   2.440  0.1682 -0.2396 -0.2962
 7056SOL    HW132801   1.146   1.425   2.389 -0.6711 -1.0573  0.7163
 7056SOL    HW232802   1.231   1.486   2.495 -0.9479  1.8612 -3.1573
 7057SOL     OW32803   1.153   2.163   8.983  0.2933 -0.2892  0.4889
 7057SOL    HW132804   1.080   2.214   9.018 -0.7168 -0.0603 -1.9478
 7057SOL    HW232805   1.182   2.118   9.062  1.6682  2.7860  1.7209
 7058SOL     OW32806   1.166   2.173   6.172 -0.1861 -0.4676  0.4123
 7058SOL    HW132807   1.234   2.115   6.139  0.5215  1.8650 -2.2090
 7058SOL    HW232808   1.210   2.216   6.245 -1.0873  1.5337 -0.2333
 7059SOL     OW32809   2.992   1.344  15.615 -0.1740 -0.3569  0.1638
 7059SOL    HW132810   3.002   1.436  15.593  1.7986 -0.4869  0.5088
 7059SOL    HW232811   2.906   1.332  15.575  0.4790 -1.0273 -1.0164
 7060SOL     OW32812   3.446   3.859   7.390 -0.4173 -0.8492 -0.4012
 7060SOL    HW132813   3.539   3.836   7.384 -0.0841 -0.2499  2.1298
 7060SOL    HW232814   3.433   3.919   7.317 -0.7899  0.0093  0.3632
 7061SOL     OW32815   3.506   0.678   7.665 -0.3490  0.3362 -0.1248
 7061SOL    HW132816   3.443   0.713   7.601 -2.3590 -1.8190  0.7208
 7061SOL    HW232817   3.446   0.616   7.705  0.0858  0.8415  1.3105
 7062SOL     OW32818   1.706   2.517   6.821  0.2721  0.0605 -0.5557
 7062SOL    HW132819   1.688   2.591   6.880  2.7056 -0.4680  0.8501
 7062SOL    HW232820   1.631   2.519   6.761 -0.6207 -4.4480  0.4422
 7063SOL     OW32821   0.237   4.685   4.996 -0.1422 -0.3082 -0.2061
 7063SOL    HW132822   0.303   4.629   4.955  0.7629  2.5010 -2.6136
 7063SOL    HW232823   0.236   0.030   4.949 -3.6589 -0.7647 -0.8865
 7064SOL     OW32824   0.762   2.731   6.259  0.3670 -0.2451  0.4207
 7064SOL    HW132825   0.820   2.691   6.324  1.7873 -1.3072 -1.4983
 7064SOL    HW232826   0.818   2.786   6.204 -1.3915  0.1932 -0.9043
 7065SOL     OW32827   2.041   4.416   8.382 -0.7437 -0.0911 -0.0612
 7065SOL    HW132828   2.089   4.350   8.433 -1.0200 -1.0841 -1.0799
 7065SOL    HW232829   2.072   4.491   8.433  0.8173 -0.1474 -0.9522
 7066SOL     OW32830   1.720   3.025   8.918 -0.5723  0.5812 -0.1229
 7066SOL    HW132831   1.753   2.944   8.957 -1.6402 -0.2539 -0.9671
 7066SOL    HW232832   1.742   3.085   8.990 -1.3393 -0.3312  0.8692
 7067SOL     OW32833   0.310   1.898   5.496 -0.0344 -0.3533 -0.0425
 7067SOL    HW132834   0.394   1.905   5.450 -0.9414  0.9728 -1.4962
 7067SOL    HW232835   0.335   1.911   5.587  3.3098  0.2176 -1.0186
 7068SOL     OW32836   0.758   2.328   4.272  0.0793 -0.1320 -0.2523
 7068SOL    HW132837   0.785   2.343   4.362  3.9347 -1.4090 -1.1825
 7068SOL    HW232838   0.836   2.276   4.254 -1.0666 -1.3182 -1.8230
 7069SOL     OW32839   0.397   3.693  15.474  0.2991 -0.2369 -0.2726
 7069SOL    HW132840   0.337   3.764  15.498 -0.7388 -1.0916 -0.3232
 7069SOL    HW232841   0.402   3.648  15.558  0.5493 -1.2177 -0.8163
 7070SOL     OW32842   0.733   1.646   9.011  0.2793 -0.4223 -0.9546
 7070SOL    HW132843   0.696   1.684   8.931  2.2512 -1.0265 -2.1562
 7070SOL    HW232844   0.650   1.610   9.043  0.3197 -0.1021 -0.4992
 7071SOL     OW32845   2.887   3.937  11.435 -0.1555 -0.3361 -0.2416
 7071SOL    HW132846   2.932   4.013  11.472 -1.1523 -1.2133  2.7877
 7071SOL    HW232847   2.838   3.918  11.515  1.3941  1.1299  1.0480
 7072SOL     OW32848   0.370   4.497   3.056 -0.4138 -0.8145 -0.3990
 7072SOL    HW132849   0.412   4.460   3.133  0.3180  0.8818  0.0249
 7072SOL    HW232850   0.421   4.577   3.043 -0.5759 -0.9455 -1.8573
 7073SOL     OW32851   0.139   1.788   3.284 -0.1128  0.1419 -0.1840
 7073SOL    HW132852   0.088   1.746   3.215  0.1578 -0.0806 -0.2498
 7073SOL    HW232853   0.079   1.787   3.358  0.8030 -2.3484  0.5505
 7074SOL     OW32854   0.257   0.946   9.222  0.4422 -0.0157 -0.2481
 7074SOL    HW132855   0.183   0.892   9.194 -1.0299  0.5674  2.4994
 7074SOL    HW232856   0.216   1.028   9.248  0.6848  0.2846 -0.8200
 7075SOL     OW32857   1.904   0.065   6.862  0.1452 -0.4236  0.0774
 7075SOL    HW132858   1.944   0.095   6.943  0.3635 -0.3168 -0.0686
 7075SOL    HW232859   1.918   4.709   6.865 -0.6412 -0.6146 -1.7508
 7076SOL     OW32860   3.229   4.343  11.788 -0.4961  0.5167 -0.0626
 7076SOL    HW132861   3.156   4.362  11.847 -2.2161 -1.5858 -1.5205
 7076SOL    HW232862   3.296   4.301  11.841 -0.4148 -1.0371 -1.3958
 7077SOL     OW32863   2.756   0.486  14.418 -0.6426 -0.9496 -0.1888
 7077SOL    HW132864   2.849   0.508  14.414 -0.5460 -0.8713  2.4011
 7077SOL    HW232865   2.734   0.508  14.327 -0.5749 -0.4623 -0.0886
 7078SOL     OW32866   0.108   1.256   3.743  0.0488 -0.0634 -0.4648
 7078SOL    HW132867   0.028   1.307   3.739 -0.2030 -0.5623 -1.8021
 7078SOL    HW232868   0.170   1.315   3.698 -0.6546  0.0830 -1.2333
 7079SOL     OW32869   2.827   4.053   6.054 -0.0258 -0.0468  0.8870
 7079SOL    HW132870   2.853   4.143   6.073 -1.1656  0.6248 -0.7668
 7079SOL    HW232871   2.883   4.024   5.981  2.7368  2.1171  2.1365
 7080SOL     OW32872   4.729   0.442   1.204 -0.0464  1.1419  0.1333
 7080SOL    HW132873   0.050   0.455   1.130 -0.4234  0.9997 -0.1940
 7080SOL    HW232874   4.678   0.522   1.209  0.6165  1.5452  0.3935
 7081SOL     OW32875   0.064   3.142   8.884  0.4182  0.3117  0.1771
 7081SOL    HW132876   0.087   3.168   8.973  0.2915 -3.2643  1.2635
 7081SOL    HW232877   0.026   3.227   8.864 -3.3240 -0.7285  2.8191
 7082SOL     OW32878   3.344   2.219   6.348  0.0285 -0.0880  0.2490
 7082SOL    HW132879   3.395   2.299   6.362  0.7585 -0.2640 -1.3758
 7082SOL    HW232880   3.270   2.241   6.292 -0.5834 -1.6176  0.4594
 7083SOL     OW32881   0.355   2.903   8.087 -0.4371  0.5106  0.0683
 7083SOL    HW132882   0.394   2.865   8.166 -1.0256  1.6507  0.9033
 7083SOL    HW232883   0.385   2.993   8.081 -0.6939  0.4887 -1.5881
 7084SOL     OW32884   0.465   0.994   6.158 -0.1202 -0.0463  0.2596
 7084SOL    HW132885   0.540   1.039   6.118 -0.0453 -2.3027 -2.1150
 7084SOL    HW232886   0.474   0.913   6.106  1.5501 -0.2212  0.8097
 7085SOL     OW32887   0.735   3.281   4.448 -0.5208  0.1511  0.3330
 7085SOL    HW132888   0.693   3.239   4.372  0.5760 -1.3327  0.5350
 7085SOL    HW232889   0.667   3.281   4.515  0.5924 -0.1894  1.4707
 7086SOL     OW32890   1.567   1.586   5.923 -0.5328 -0.3607  0.2608
 7086SOL    HW132891   1.633   1.521   5.947 -1.1762 -0.3360  2.0746
 7086SOL    HW232892   1.508   1.532   5.870 -1.0564 -0.3382  0.8212
 7087SOL     OW32893   2.292   3.352   2.912 -0.2775 -0.7133  0.1795
 7087SOL    HW132894   2.366   3.309   2.957  0.2171  1.7595  1.7619
 7087SOL    HW232895   2.343   3.425   2.876 -0.3181 -0.6473  0.2539
 7088SOL     OW32896   1.309   2.069   8.581 -0.4726  0.4598 -0.3587
 7088SOL    HW132897   1.354   2.096   8.661  1.4297 -0.2175 -1.1933
 7088SOL    HW232898   1.363   2.111   8.514 -0.2889  0.1059 -0.4332
 7089SOL     OW32899   2.743   4.372   1.212 -0.2720  0.1706 -0.1546
 7089SOL    HW132900   2.683   4.311   1.170  1.5570 -1.8199  0.1239
 7089SOL    HW232901   2.823   4.326   1.185  1.2651  1.1482  2.6905
 7090SOL     OW32902   3.712   3.735  15.313 -1.0012  0.0670  0.1053
 7090SOL    HW132903   3.802   3.720  15.343 -1.2392 -2.1024 -0.2331
 7090SOL    HW232904   3.727   3.740  15.219  0.4802  0.6716  0.3774
 7091SOL     OW32905   1.302   0.825  15.402  0.2549 -0.5381  0.1920
 7091SOL    HW132906   1.359   0.887  15.446  0.7618 -1.8388  1.3682
 7091SOL    HW232907   1.363   0.763  15.360  0.8427  0.2404 -0.1088
 7092SOL     OW32908   3.346   2.454   2.517  0.2472  0.6747  0.2120
 7092SOL    HW132909   3.384   2.420   2.597 -2.6023 -0.2466  1.1735
 7092SOL    HW232910   3.321   2.545   2.536 -0.9646  0.1614  1.0941
 7093SOL     OW32911   4.374   3.443  13.735 -0.2260 -0.1998 -0.6405
 7093SOL    HW132912   4.368   3.385  13.659  0.3797  0.7211 -1.3833
 7093SOL    HW232913   4.384   3.530  13.698  3.2110 -0.1715  0.3738
 7094SOL     OW32914   1.562   3.852  13.145  0.6513  0.3139  0.3341
 7094SOL    HW132915   1.593   3.924  13.090  0.2220 -0.7203 -1.2692
 7094SOL    HW232916   1.512   3.903  13.208 -1.2473 -1.7879  0.5423
 7095SOL     OW32917   1.257   4.714   4.391  0.6456 -0.0663 -0.1321
 7095SOL    HW132918   1.326   4.662   4.350 -0.6902 -1.8193 -0.1137
 7095SOL    HW232919   1.192   4.647   4.408  0.8787 -0.3072 -0.1912
 7096SOL     OW32920   2.766   1.231   9.955  0.2832  0.3756 -0.5943
 7096SOL    HW132921   2.832   1.274  10.010 -1.7157 -0.4158  2.4012
 7096SOL    HW232922   2.802   1.262   9.872 -0.5957 -0.9944 -1.4712
 7097SOL     OW32923   3.762   1.786   3.358 -0.4168 -0.0454  0.3652
 7097SOL    HW132924   3.829   1.718   3.356  0.5306  0.8678  0.7000
 7097SOL    HW232925   3.792   1.840   3.285 -0.6035  0.3413  0.5751
 7098SOL     OW32926   1.180   1.391   6.378 -0.0687 -1.1350 -0.5487
 7098SOL    HW132927   1.169   1.472   6.426  1.9593 -1.5651  0.6722
 7098SOL    HW232928   1.110   1.391   6.313 -2.1096 -0.1211  1.6603
 7099SOL     OW32929   1.684   4.583   8.554  0.1355  0.0781  0.2559
 7099SOL    HW132930   1.705   4.510   8.495 -2.3730 -0.4340 -0.0217
 7099SOL    HW232931   1.633   4.647   8.505  0.5431 -1.0102 -1.6000
 7100SOL     OW32932   2.054   3.968  10.928 -0.0551  0.6434  1.2925
 7100SOL    HW132933   2.093   3.899  10.982  0.0583  0.9708  1.6300
 7100SOL    HW232934   2.041   3.924  10.844  2.1323 -0.4129  1.4982
 7101SOL     OW32935   0.808   1.893  11.770  0.1877  0.5044 -0.2087
 7101SOL    HW132936   0.805   1.986  11.793  0.1682  0.4048  0.1898
 7101SOL    HW232937   0.889   1.862  11.810 -0.3395 -1.9030 -0.9675
 7102SOL     OW32938   4.482   0.181  11.480  0.4615 -0.3017 -0.4811
 7102SOL    HW132939   4.551   0.238  11.514  0.0616  0.0872 -0.3205
 7102SOL    HW232940   4.454   0.138  11.562 -1.0628 -0.8706 -1.2994
 7103SOL     OW32941   3.217   4.669   5.791  0.7203  0.0283  0.5061
 7103SOL    HW132942   3.174   4.722   5.858  1.3816 -1.4196  2.0653
 7103SOL    HW232943   3.286   4.624   5.839  0.7929  0.1385  0.5049
 7104SOL     OW32944   2.792   4.320   2.334 -0.3758 -0.7266  0.1803
 7104SOL    HW132945   2.789   4.291   2.243 -5.2783 -1.2904  0.5361
 7104SOL    HW232946   2.746   4.246   2.375  1.4019 -1.5765  0.6539
 7105SOL     OW32947   1.721   3.858  17.235 -0.6180 -0.4083  0.2891
 7105SOL    HW132948   1.740   3.951  17.249 -1.3632  0.1637 -2.4082
 7105SOL    HW232949   1.804   3.810  17.244 -2.3463 -3.6113 -0.9059
 7106SOL     OW32950   4.052   2.968   2.668 -0.2705 -0.0903  0.2353
 7106SOL    HW132951   4.147   2.965   2.676 -0.3110 -0.0532  0.7094
 7106SOL    HW232952   4.026   2.888   2.715 -0.8487  0.0801  0.2156
 7107SOL     OW32953   3.873   1.562   4.855 -0.4946  0.5003 -0.6004
 7107SOL    HW132954   3.960   1.562   4.894 -0.6436 -1.2927 -0.2950
 7107SOL    HW232955   3.827   1.486   4.891 -3.7020  3.6051  1.8922
 7108SOL     OW32956   4.472   1.589   1.382 -0.0206  0.3200 -0.6166
 7108SOL    HW132957   4.379   1.569   1.371 -0.0542  1.3686 -2.4300
 7108SOL    HW232958   4.507   1.510   1.342 -0.1809 -0.6331  1.1377
 7109SOL     OW32959   2.669   2.050   4.423  0.1505  0.6383 -0.6421
 7109SOL    HW132960   2.655   2.118   4.489  0.2409 -2.1143  2.2060
 7109SOL    HW232961   2.734   2.099   4.371  0.6634 -0.5677 -1.1327
 7110SOL     OW32962   4.167   4.316   4.300  0.2934 -0.0750  0.3326
 7110SOL    HW132963   4.186   4.236   4.251 -1.4835  0.1213 -0.6994
 7110SOL    HW232964   4.230   4.316   4.372 -0.8840 -1.8077  1.3498
 7111SOL     OW32965   2.993   4.268   6.174  0.0590  0.6079 -0.5432
 7111SOL    HW132966   3.002   4.330   6.102 -2.9535 -0.6108 -1.9462
 7111SOL    HW232967   3.081   4.232   6.188  1.0426  3.4199  0.4958
 7112SOL     OW32968   3.691   3.149   9.378  0.2513  0.4430 -0.0941
 7112SOL    HW132969   3.705   3.207   9.304 -0.7065  0.3060 -0.3928
 7112SOL    HW232970   3.694   3.069   9.326  0.8903  1.7226 -2.0308
 7113SOL     OW32971   4.631   3.704  16.630 -0.2064 -0.4301 -0.4595
 7113SOL    HW132972   4.584   3.715  16.713  0.5513  0.1702 -0.1165
 7113SOL    HW232973   4.664   3.793  16.624 -0.1480 -0.3512  1.1031
 7114SOL     OW32974   2.634   1.155   2.578 -0.2728  0.9499  0.5266
 7114SOL    HW132975   2.690   1.232   2.565  0.4919 -0.0425 -2.1629
 7114SOL    HW232976   2.563   1.206   2.615 -1.9459  0.0960 -1.4926
 7115SOL     OW32977   4.011   3.467   7.974 -0.0251  0.4068 -0.1842
 7115SOL    HW132978   4.060   3.411   8.035  0.0387 -0.2810 -0.8715
 7115SOL    HW232979   4.012   3.548   8.025  0.7902  2.1469 -3.0240
 7116SOL     OW32980   0.989   2.050  16.346  0.0936  0.4990  0.5045
 7116SOL    HW132981   0.991   2.102  16.265 -1.5645 -1.7584 -0.9749
 7116SOL    HW232982   0.907   2.087  16.379 -1.8114 -3.3490  0.0066
 7117SOL     OW32983   3.420   3.192  14.192  0.0374 -0.1572  0.3975
 7117SOL    HW132984   3.480   3.216  14.262 -0.0095 -1.1393  0.7708
 7117SOL    HW232985   3.334   3.190  14.234  0.6846  0.0237  1.7260
 7118SOL     OW32986   2.465   3.733   9.898 -0.1123  0.3687 -0.1536
 7118SOL    HW132987   2.547   3.737   9.947 -0.1291 -1.2628  0.0123
 7118SOL    HW232988   2.459   3.637   9.903  0.4345  0.4080  1.3246
 7119SOL     OW32989   2.936   3.618   3.658 -0.1006  0.5222 -0.2080
 7119SOL    HW132990   2.922   3.526   3.638 -0.1784 -0.2849  3.6084
 7119SOL    HW232991   2.857   3.642   3.707 -2.2915 -1.5961 -2.6881
 7120SOL     OW32992   0.572   2.476   6.307  0.1097  0.6280  0.0671
 7120SOL    HW132993   0.556   2.418   6.381  1.8424 -1.3839 -1.1463
 7120SOL    HW232994   0.624   2.549   6.339  1.2161 -0.2485  0.2609
 7121SOL     OW32995   0.439   3.062  17.025  0.0607 -0.2270 -0.1018
 7121SOL    HW132996   0.351   3.041  17.057 -0.5966  1.4616 -0.8236
 7121SOL    HW232997   0.421   3.151  16.996 -0.6646 -1.0119 -2.0163
 7122SOL     OW32998   2.691   3.409  10.136 -0.3664 -0.2827  0.0718
 7122SOL    HW132999   2.684   3.323  10.178  2.1452 -0.5865 -0.1094
 7122SOL    HW233000   2.722   3.465  10.207 -0.5971 -1.2766  0.9598
 7123SOL     OW33001   1.289   4.396   1.770  0.0680 -0.1356 -0.1401
 7123SOL    HW133002   1.338   4.376   1.690  0.6257 -0.0998  0.1933
 7123SOL    HW233003   1.245   4.314   1.793  0.5675  0.1703  1.8383
 7124SOL     OW33004   1.096   0.039   7.862  0.1844 -0.4838 -0.2505
 7124SOL    HW133005   1.170   0.025   7.920  1.4297  1.0245 -1.4816
 7124SOL    HW233006   1.076   0.128   7.889  0.3817 -0.8399  1.0515
 7125SOL     OW33007   1.263   0.752   1.217 -0.3159 -0.7664 -0.0475
 7125SOL    HW133008   1.328   0.815   1.248 -0.0979 -2.0051  2.0556
 7125SOL    HW233009   1.280   0.684   1.282 -0.6764 -1.7017 -0.9294
 7126SOL     OW33010   0.825   2.964   2.276 -0.3485 -0.8286  0.0263
 7126SOL    HW133011   0.912   3.005   2.273  0.4510 -2.5037 -0.0286
 7126SOL    HW233012   0.835   2.878   2.234  0.8263 -0.4678 -0.4435
 7127SOL     OW33013   0.074   0.904   8.385 -0.0015 -0.3789  0.6864
 7127SOL    HW133014   0.165   0.889   8.359 -0.5792  0.3254 -1.7226
 7127SOL    HW233015   0.050   0.813   8.403 -0.4702 -0.2351  0.8011
 7128SOL     OW33016   3.876   0.431   2.709  0.3416 -0.8171  0.2168
 7128SOL    HW133017   3.809   0.417   2.776 -1.0688  0.2068 -0.9937
 7128SOL    HW233018   3.939   0.364   2.736  0.9151 -0.2557  0.2779
 7129SOL     OW33019   2.767   1.245  15.451 -0.3376  0.0433 -0.3546
 7129SOL    HW133020   2.732   1.290  15.374 -1.8082 -0.8690 -0.2071
 7129SOL    HW233021   2.813   1.181  15.397  0.0062 -0.9534  1.1252
 7130SOL     OW33022   2.580   0.968  12.172 -0.5652  1.0705  0.2293
 7130SOL    HW133023   2.593   0.877  12.146 -1.8076  0.6279  1.1560
 7130SOL    HW233024   2.487   0.987  12.158 -0.9753 -0.7661  0.4126
 7131SOL     OW33025   2.705   3.866   8.228 -0.0942 -0.4669  0.3653
 7131SOL    HW133026   2.649   3.852   8.304  0.4168  0.5749  0.9323
 7131SOL    HW233027   2.792   3.845   8.263  0.0594  2.1552  1.5732
 7132SOL     OW33028   0.845   1.148   8.687  0.1406  0.2787  0.1889
 7132SOL    HW133029   0.929   1.154   8.732  1.0131 -0.5907 -1.3329
 7132SOL    HW233030   0.806   1.089   8.752 -2.1619  0.9144 -0.6215
 7133SOL     OW33031   4.217   4.413   1.720  0.2325 -0.4743  0.5384
 7133SOL    HW133032   4.184   4.493   1.762  0.3202 -1.0377  1.6748
 7133SOL    HW233033   4.162   4.408   1.641  0.5405 -1.7026  0.4025
 7134SOL     OW33034   1.952   4.341   5.716 -0.4456 -0.0268  0.6009
 7134SOL    HW133035   1.924   4.305   5.632  0.0602 -0.9387  0.8203
 7134SOL    HW233036   1.954   4.435   5.701 -1.8398 -0.1490 -0.3470
 7135SOL     OW33037   2.186   3.773  15.040  0.4274 -0.4663 -0.7645
 7135SOL    HW133038   2.131   3.819  15.103 -0.4896 -1.3104 -0.9561
 7135SOL    HW233039   2.262   3.780  15.098  1.0536 -0.1416 -1.6208
 7136SOL     OW33040   0.183   4.396   9.025  0.1055 -0.1010  0.4758
 7136SOL    HW133041   0.134   4.401   9.107 -1.4435  0.5476 -0.4941
 7136SOL    HW233042   0.267   4.359   9.052  0.1690 -0.2773  0.0349
 7137SOL     OW33043   3.768   0.680   1.495  0.1230 -0.2876 -0.0446
 7137SOL    HW133044   3.676   0.705   1.487  0.0759 -0.4321  0.0341
 7137SOL    HW233045   3.791   0.652   1.407  1.2272 -0.9759  0.4611
 7138SOL     OW33046   0.983   2.726   4.531  0.4373  0.0380  0.2084
 7138SOL    HW133047   0.984   2.637   4.565 -0.0923  0.2446  0.7665
 7138SOL    HW233048   1.050   2.777   4.577 -0.1518  0.3511  0.7310
 7139SOL     OW33049   1.319   3.634   0.783 -0.2713 -0.3748  0.0169
 7139SOL    HW133050   1.225   3.616   0.779 -0.2417 -0.5534  0.1455
 7139SOL    HW233051   1.364   3.550   0.779 -1.9560 -1.3866  1.9412
 7140SOL     OW33052   0.270   3.927   4.378  0.2068  0.7623 -0.3505
 7140SOL    HW133053   0.279   3.938   4.473  1.1511 -0.1362 -0.3352
 7140SOL    HW233054   0.175   3.914   4.379  0.5433 -1.8110  0.2994
 7141SOL     OW33055   1.561   2.163   1.950 -0.0644  0.0247 -0.2079
 7141SOL    HW133056   1.528   2.180   1.861 -0.2532 -0.7667 -0.2841
 7141SOL    HW233057   1.643   2.210   1.933 -0.5080  0.7599 -0.3267
 7142SOL     OW33058   3.680   3.679   8.733 -0.3362  0.4839  0.3701
 7142SOL    HW133059   3.723   3.692   8.648 -0.4442  2.1745  0.5791
 7142SOL    HW233060   3.590   3.683   8.701 -0.9896  0.2085  2.1698
 7143SOL     OW33061   2.830   4.547  13.067  0.3251  0.7198  0.0973
 7143SOL    HW133062   2.820   4.642  13.055 -0.1075  0.6704  0.0942
 7143SOL    HW233063   2.844   4.552  13.162 -2.8409  0.7422  0.5466
 7144SOL     OW33064   4.231   1.780   8.737 -0.0142  0.7517  0.5802
 7144SOL    HW133065   4.195   1.723   8.668 -0.3833  1.4268  0.2140
 7144SOL    HW233066   4.326   1.768   8.735 -0.2661 -1.3315 -0.0130
 7145SOL     OW33067   1.610   1.498   2.505 -0.2719 -0.3590 -0.1571
 7145SOL    HW133068   1.529   1.540   2.476 -0.7131 -0.4782  0.8749
 7145SOL    HW233069   1.618   1.541   2.590  0.2357  1.6027 -1.2110
 7146SOL     OW33070   1.276   4.002   5.017  0.3824  0.2294  0.0263
 7146SOL    HW133071   1.204   3.981   5.076 -1.3448  0.6214 -1.9576
 7146SOL    HW233072   1.341   3.968   5.079  0.9552  1.7052  0.2298
 7147SOL     OW33073   0.342   3.289   8.739 -0.0286  1.0551  0.1629
 7147SOL    HW133074   0.359   3.209   8.788 -2.4533  0.5426  0.1294
 7147SOL    HW233075   0.363   3.364   8.795  0.5083  2.3139 -1.6990
 7148SOL     OW33076   1.926   2.091  15.643  0.0243  0.7901 -0.2394
 7148SOL    HW133077   1.933   2.098  15.738 -3.9427  0.0031  0.1011
 7148SOL    HW233078   1.842   2.136  15.646  0.0207  0.7374  0.4432
 7149SOL     OW33079   0.422   2.910   4.960  0.1169 -0.6104  0.0037
 7149SOL    HW133080   0.505   2.910   5.008  1.1938  0.7325 -1.8979
 7149SOL    HW233081   0.406   2.815   4.963  0.5476 -0.7026 -0.6542
 7150SOL     OW33082   2.956   3.204   4.113 -0.3620  0.9685 -0.5123
 7150SOL    HW133083   2.991   3.189   4.026  2.3226 -1.9694  1.0679
 7150SOL    HW233084   3.035   3.186   4.164 -1.8626 -1.0749  1.1136
 7151SOL     OW33085   0.758   1.399  11.923 -0.6998  0.0209  0.6476
 7151SOL    HW133086   0.709   1.377  12.002  1.6287 -2.7467  1.3104
 7151SOL    HW233087   0.730   1.488  11.901  1.1740  0.7714  1.3297
 7152SOL     OW33088   0.996   2.227   3.069  0.2218  0.0093  0.3941
 7152SOL    HW133089   0.972   2.319   3.056  1.4897 -0.0695 -2.4745
 7152SOL    HW233090   0.958   2.179   2.996  0.8474 -0.6648  0.5157
 7153SOL     OW33091   3.749   1.473   1.360  0.1043 -0.1850  0.7126
 7153SOL    HW133092   3.694   1.445   1.286 -0.3017 -3.4979  2.2418
 7153SOL    HW233093   3.839   1.459   1.330 -0.2066  1.5749 -1.0009
 7154SOL     OW33094   1.211   1.588   2.642 -0.3206 -0.1065  0.0218
 7154SOL    HW133095   1.159   1.539   2.705 -0.2547  0.4592  0.5046
 7154SOL    HW233096   1.288   1.600   2.697 -0.3115 -1.4891  0.3001
 7155SOL     OW33097   3.298   2.160   2.670  0.4048  0.1006 -0.4548
 7155SOL    HW133098   3.222   2.215   2.654 -1.2834 -2.0321  0.3009
 7155SOL    HW233099   3.365   2.221   2.701 -1.5663  1.2269  1.5387
 7156SOL     OW33100   0.712   4.202   6.333 -0.2364  0.3997 -0.1039
 7156SOL    HW133101   0.739   4.257   6.407 -0.9992 -0.1921  0.6147
 7156SOL    HW233102   0.621   4.231   6.331  0.1355  1.5079 -0.4542
 7157SOL     OW33103   4.061   2.267   8.898  0.1696  0.3139  0.0128
 7157SOL    HW133104   4.156   2.252   8.893  0.1364  0.2994 -0.7004
 7157SOL    HW233105   4.064   2.363   8.900 -1.7621  0.3668 -0.0436
 7158SOL     OW33106   3.089   0.817   6.827  0.0662  0.0104  0.1631
 7158SOL    HW133107   3.078   0.724   6.806  1.3621 -0.0401 -0.3474
 7158SOL    HW233108   3.024   0.830   6.896  0.9480  1.8339  0.6619
 7159SOL     OW33109   4.548   1.923   0.345  0.2372 -0.3725  0.4395
 7159SOL    HW133110   4.491   1.968   0.282 -0.9203 -0.0769  1.6837
 7159SOL    HW233111   4.550   1.834   0.310  1.8013  0.0130 -0.4588
 7160SOL     OW33112   1.565   0.151   8.891 -0.1378 -0.5166  0.4159
 7160SOL    HW133113   1.498   0.184   8.831 -0.2477 -1.1453  0.1939
 7160SOL    HW233114   1.646   0.195   8.868 -0.0405  0.8610  3.3384
 7161SOL     OW33115   0.137   0.395   7.963  0.1058 -0.3406 -0.1239
 7161SOL    HW133116   0.191   0.445   7.901  1.1597 -1.8554 -0.4218
 7161SOL    HW233117   0.068   0.462   7.966  1.9669  1.6633 -1.8775
 7162SOL     OW33118   2.490   0.063   6.586 -0.1676 -0.3316  0.1471
 7162SOL    HW133119   2.467   0.018   6.667 -0.0305  1.5811  1.2588
 7162SOL    HW233120   2.447   0.147   6.604 -0.9445 -0.7107  0.0422
 7163SOL     OW33121   4.721   2.807   5.249  0.2437  0.4736 -0.4151
 7163SOL    HW133122   4.701   2.894   5.213  0.7673  1.1061  0.8326
 7163SOL    HW233123   0.001   2.833   5.339 -0.3997 -1.7998  0.3535
 7164SOL     OW33124   1.250   0.882   5.282  0.2568  0.5470  0.5669
 7164SOL    HW133125   1.340   0.910   5.269  0.0406  0.7723 -0.4290
 7164SOL    HW233126   1.218   0.904   5.195 -0.6439  2.0122  1.2675
 7165SOL     OW33127   1.564   2.498  10.873 -0.0316 -0.4802 -0.0083
 7165SOL    HW133128   1.641   2.449  10.843 -0.7186 -1.3990 -0.2724
 7165SOL    HW233129   1.591   2.506  10.964 -3.2619 -0.6174  0.9637
 7166SOL     OW33130   1.791   3.439   0.327 -0.0051 -0.5537  0.2957
 7166SOL    HW133131   1.709   3.456   0.374  1.5622  2.9171  1.7170
 7166SOL    HW233132   1.819   3.523   0.290 -1.2997 -0.0774  0.4019
 7167SOL     OW33133   2.581   2.143  12.790 -0.3019 -0.4203  0.6066
 7167SOL    HW133134   2.661   2.096  12.813 -0.3546 -0.3198  0.9791
 7167SOL    HW233135   2.594   2.224  12.839  3.6025 -0.4989 -0.2957
 7168SOL     OW33136   4.268   4.440   7.744 -0.1944  0.1667 -0.3344
 7168SOL    HW133137   4.256   4.519   7.691 -2.1864 -1.4052 -2.2353
 7168SOL    HW233138   4.280   4.373   7.676  1.3768  1.3452 -1.2181
 7169SOL     OW33139   2.691   4.389   4.431 -0.1317 -0.0406 -0.2870
 7169SOL    HW133140   2.626   4.455   4.454  1.1929  0.8718  0.8342
 7169SOL    HW233141   2.720   4.370   4.520  0.0474 -0.0483 -0.3476
 7170SOL     OW33142   1.090   0.999  14.772  0.4690 -0.4659 -0.4123
 7170SOL    HW133143   1.141   1.075  14.743 -1.1227  0.7149 -0.1599
 7170SOL    HW233144   1.143   0.970  14.846 -1.0735  1.6319  1.5348
 7171SOL     OW33145   1.823   1.613  10.125 -0.0576 -0.0938 -0.5585
 7171SOL    HW133146   1.875   1.551  10.075  0.9229  0.5237 -0.3190
 7171SOL    HW233147   1.733   1.592  10.100 -0.7999  0.3513  1.7317
 7172SOL     OW33148   2.621   4.148   5.034 -0.0759 -0.0846  0.0902
 7172SOL    HW133149   2.578   4.131   4.950 -0.7628 -0.6826  0.5685
 7172SOL    HW233150   2.548   4.172   5.090  0.8749 -0.2055  1.3819
 7173SOL     OW33151   4.205   0.245   4.529  0.6802  0.0330 -0.5391
 7173SOL    HW133152   4.222   0.331   4.490  1.5868 -0.9672 -2.3290
 7173SOL    HW233153   4.224   0.267   4.620 -1.8595 -0.7653  0.1637
 7174SOL     OW33154   0.957   0.763   0.805  0.7105 -0.1290 -0.2817
 7174SOL    HW133155   1.027   0.740   0.866  1.0397  0.9479 -0.2589
 7174SOL    HW233156   0.997   0.753   0.719  1.8231  0.1534  0.2020
 7175SOL     OW33157   1.203   1.088   9.134  0.6362  0.2964 -0.0812
 7175SOL    HW133158   1.109   1.071   9.142  0.6643 -0.8078 -2.0861
 7175SOL    HW233159   1.230   1.064   9.222 -1.1670  0.4043  0.4978
 7176SOL     OW33160   3.929   1.099   1.579  0.4554  0.1197 -0.5022
 7176SOL    HW133161   4.010   1.050   1.591  0.4595 -0.0638 -1.2582
 7176SOL    HW233162   3.904   1.092   1.487 -1.0841 -1.0785  0.0211
 7177SOL     OW33163   2.763   4.132   7.078  0.1302  0.5321  0.1322
 7177SOL    HW133164   2.792   4.108   7.166  0.1595 -0.6366 -0.1948
 7177SOL    HW233165   2.674   4.162   7.098  1.0367  1.9028  2.1480
 7178SOL     OW33166   1.147   2.160   9.283 -0.1137 -0.3175  0.5650
 7178SOL    HW133167   1.120   2.250   9.302  0.0551 -0.2053  0.2869
 7178SOL    HW233168   1.191   2.149   9.367  0.2408 -0.8236  0.3160
 7179SOL     OW33169   2.099   0.456   4.742 -0.4392 -0.2315  0.0488
 7179SOL    HW133170   2.191   0.445   4.716 -0.9240  0.0324 -1.7695
 7179SOL    HW233171   2.066   0.530   4.691 -1.2399 -0.6540 -0.0440
 7180SOL     OW33172   3.315   2.490  16.826 -0.0552  0.1936 -0.6052
 7180SOL    HW133173   3.220   2.477  16.832 -0.3360  2.5490  0.3186
 7180SOL    HW233174   3.315   2.586  16.821 -1.2000  0.1785 -1.0454
 7181SOL     OW33175   0.188   3.039  17.119  0.3306 -0.3667 -0.1326
 7181SOL    HW133176   0.168   2.945  17.122 -0.6923 -0.0845  1.9614
 7181SOL    HW233177   0.101   3.075  17.101  0.6446  0.3360 -0.2389
 7182SOL     OW33178   3.970   2.444   5.591  0.0101 -0.1170 -0.4451
 7182SOL    HW133179   4.048   2.399   5.557  0.9800 -0.2067  1.8864
 7182SOL    HW233180   3.938   2.381   5.655 -0.3509  0.7010  0.1731
 7183SOL     OW33181   3.115   1.029  11.236 -0.2875 -0.3153 -0.0277
 7183SOL    HW133182   3.208   1.029  11.213  0.2008 -1.0796  1.8973
 7183SOL    HW233183   3.129   1.014  11.330  0.3676  2.7523  0.3522
 7184SOL     OW33184   0.550   4.285   1.172 -0.0333  0.0222  0.1185
 7184SOL    HW133185   0.487   4.232   1.122 -0.4587 -0.6235  1.3339
 7184SOL    HW233186   0.620   4.303   1.109  1.6340  0.8208  2.2327
 7185SOL     OW33187   0.951   4.681  11.712  0.2747  0.0646 -0.0448
 7185SOL    HW133188   0.982   4.611  11.653 -0.2682 -2.8340  3.0760
 7185SOL    HW233189   0.921   4.628  11.786 -1.1678  2.1018  0.8114
 7186SOL     OW33190   3.678   1.559   6.493 -0.0968 -0.0411  0.2517
 7186SOL    HW133191   3.611   1.579   6.558 -0.6676  0.1332 -0.3852
 7186SOL    HW233192   3.682   1.646   6.454  2.9973 -1.6461 -3.0549
 7187SOL     OW33193   3.355   1.668   9.157 -0.1320 -0.2765  0.4581
 7187SOL    HW133194   3.389   1.656   9.069 -0.8266 -0.3219  0.1978
 7187SOL    HW233195   3.393   1.593   9.203 -1.7336 -1.5760 -0.3536
 7188SOL     OW33196   0.606   2.363  10.854  0.4594 -0.7425 -0.0326
 7188SOL    HW133197   0.663   2.437  10.876  0.2071 -0.0064 -1.8712
 7188SOL    HW233198   0.631   2.293  10.915  1.9234  0.0445  0.2662
 7189SOL     OW33199   3.625   3.364   6.774 -0.5300 -0.3670 -0.4962
 7189SOL    HW133200   3.667   3.322   6.849 -0.5635 -1.5678 -1.1506
 7189SOL    HW233201   3.563   3.294   6.754  3.3511 -3.0050 -3.1354
 7190SOL     OW33202   1.024   1.218   6.996  0.3513 -0.2126  0.2767
 7190SOL    HW133203   0.991   1.146   6.943 -0.5158  0.1145  0.3687
 7190SOL    HW233204   0.952   1.221   7.060 -1.5227 -2.4213 -1.7145
 7191SOL     OW33205   0.491   1.236   7.365 -0.6726  0.1496  0.5546
 7191SOL    HW133206   0.461   1.323   7.338 -0.0274 -0.3548 -1.8535
 7191SOL    HW233207   0.580   1.261   7.391 -0.0861 -0.8261 -0.4883
 7192SOL     OW33208   2.213   0.390   8.344 -0.4869  0.5517 -0.3837
 7192SOL    HW133209   2.137   0.350   8.386 -0.4057  0.2185 -0.5555
 7192SOL    HW233210   2.209   0.358   8.254 -1.9292  3.4448 -1.3483
 7193SOL     OW33211   0.699   1.508  14.808 -0.0174  0.2234  0.2331
 7193SOL    HW133212   0.742   1.478  14.887 -1.0378  1.9569  1.4465
 7193SOL    HW233213   0.698   1.431  14.750 -2.6506  0.6624 -0.3004
 7194SOL     OW33214   1.860   1.087   2.440 -0.3219 -0.2806 -0.1168
 7194SOL    HW133215   1.770   1.086   2.473 -0.5063 -2.5784 -0.6757
 7194SOL    HW233216   1.872   0.992   2.446 -0.0797 -0.0190  3.4013
 7195SOL     OW33217   1.202   0.133   7.607  0.3557  0.1524  0.1592
 7195SOL    HW133218   1.267   0.140   7.676 -0.2123 -0.3046  0.7404
 7195SOL    HW233219   1.144   0.068   7.646  0.2789 -0.4177 -0.8975
 7196SOL     OW33220   2.644   3.707   5.492 -0.4412  0.5867  0.0265
 7196SOL    HW133221   2.570   3.748   5.537 -1.0380  0.4366 -0.8196
 7196SOL    HW233222   2.641   3.614   5.511 -2.2564  0.6953  0.2897
 7197SOL     OW33223   3.342   4.310   8.258  0.0563 -0.3214 -0.5770
 7197SOL    HW133224   3.385   4.363   8.192  1.6874 -0.3957  0.4444
 7197SOL    HW233225   3.353   4.221   8.223  1.1650  0.0422 -1.1199
 7198SOL     OW33226   0.984   3.463   9.048  0.1973  0.1181  0.5272
 7198SOL    HW133227   1.034   3.431   8.973  1.2468  0.6645  0.9884
 7198SOL    HW233228   0.919   3.517   9.001 -0.0054 -1.4114 -0.9496
 7199SOL     OW33229   2.856   1.839   7.483  0.5043  0.0741  0.2671
 7199SOL    HW133230   2.912   1.791   7.422 -0.9162 -1.4466  0.1372
 7199SOL    HW233231   2.797   1.894   7.431 -1.5657 -1.4310  1.0000
 7200SOL     OW33232   1.115   4.275   4.049 -0.1810 -0.2630 -0.2418
 7200SOL    HW133233   1.132   4.262   4.142 -1.9817 -1.7690 -0.1199
 7200SOL    HW233234   1.202   4.279   4.009 -1.2379  0.8722 -2.4307
 7201SOL     OW33235   1.667   4.470   7.305  0.4998  0.1060 -0.4111
 7201SOL    HW133236   1.735   4.503   7.246 -0.3053 -1.0212 -1.9790
 7201SOL    HW233237   1.704   4.389   7.338 -0.6952  0.4039  1.6084
 7202SOL     OW33238   0.170   2.476  15.167  0.0171  0.4944  0.0056
 7202SOL    HW133239   0.239   2.412  15.183 -1.2226 -1.0235 -0.8067
 7202SOL    HW233240   0.222   2.555  15.149  0.8713  0.0431  0.5008
 7203SOL     OW33241   1.747   2.277   3.741  0.0273 -0.5925 -0.2176
 7203SOL    HW133242   1.786   2.297   3.827  0.5760 -0.4909 -0.4880
 7203SOL    HW233243   1.695   2.356   3.726 -1.3495 -1.5473 -0.4209
 7204SOL     OW33244   1.956   4.082   4.462  0.2776 -0.3555 -0.7586
 7204SOL    HW133245   1.868   4.116   4.480 -0.2222 -0.8331 -2.3548
 7204SOL    HW233246   1.993   4.089   4.550  0.1407  1.3669 -0.8448
 7205SOL     OW33247   0.106   1.955   2.626 -0.5273  0.1486 -0.5592
 7205SOL    HW133248   0.195   1.989   2.613  0.9500 -3.4076  0.0730
 7205SOL    HW233249   0.125   1.893   2.697 -3.6340 -0.2375 -0.0789
 7206SOL     OW33250   1.196   3.639   4.535  0.0335  0.1759 -0.1471
 7206SOL    HW133251   1.105   3.634   4.565 -0.2332  1.0334 -0.7998
 7206SOL    HW233252   1.203   3.561   4.481 -2.2488  0.7755 -1.3473
 7207SOL     OW33253   1.870   0.978   7.092  0.3499  0.1008  0.3645
 7207SOL    HW133254   1.863   1.062   7.135  0.4385 -0.0873  0.7467
 7207SOL    HW233255   1.781   0.943   7.098  0.6536 -0.2423  2.7890
 7208SOL     OW33256   1.741   4.508   5.540 -0.0489  0.5210  0.1474
 7208SOL    HW133257   1.715   4.563   5.614 -2.6239  0.0420 -0.4043
 7208SOL    HW233258   1.691   4.545   5.467 -0.9936  0.1097  0.5889
 7209SOL     OW33259   1.335   1.839   9.019  0.0119 -0.4502 -0.0743
 7209SOL    HW133260   1.250   1.797   9.034 -0.6784  1.4665  1.3555
 7209SOL    HW233261   1.388   1.763   8.995  1.3089  0.9476 -1.6464
 7210SOL     OW33262   1.911   1.220  13.531  0.1139 -0.3056 -0.7532
 7210SOL    HW133263   1.824   1.192  13.504 -0.6146  0.4791  0.7852
 7210SOL    HW233264   1.959   1.137  13.539  1.5773  0.5617 -0.4434
 7211SOL     OW33265   0.846   1.509   4.000 -0.2971  0.8960  0.5111
 7211SOL    HW133266   0.905   1.458   3.944 -1.3599 -0.2578  0.4455
 7211SOL    HW233267   0.803   1.431   4.036  1.7449 -1.2361 -1.6171
 7212SOL     OW33268   1.395   1.866  15.449  0.3896 -0.4078  0.5073
 7212SOL    HW133269   1.304   1.835  15.442  1.1907 -2.0050 -2.6375
 7212SOL    HW233270   1.385   1.961  15.451  1.8042 -0.2574 -0.1215
 7213SOL     OW33271   4.196   0.021   4.787  0.1241 -0.1225 -0.0968
 7213SOL    HW133272   4.285   4.724   4.794 -0.4736 -1.7700 -0.5984
 7213SOL    HW233273   4.162   4.693   4.727  1.3058 -0.4117 -0.4533
 7214SOL     OW33274   0.766   4.243   4.963  0.1041 -0.3029  0.2879
 7214SOL    HW133275   0.788   4.335   4.979 -1.3221  0.1246 -0.1847
 7214SOL    HW233276   0.824   4.215   4.893 -1.6312 -0.4101 -1.1190
 7215SOL     OW33277   0.540   1.840   5.297  0.0542  0.1979  0.2415
 7215SOL    HW133278   0.502   1.792   5.224  1.5933  0.9240 -1.0517
 7215SOL    HW233279   0.631   1.848   5.266  0.4534  0.4111  1.4514
 7216SOL     OW33280   0.458   3.585   8.765 -0.4726  0.2363 -0.0714
 7216SOL    HW133281   0.377   3.613   8.723 -0.7002  0.3303  0.4185
 7216SOL    HW233282   0.525   3.630   8.714 -0.3491 -1.8548 -1.7353
 7217SOL     OW33283   3.636   3.580   7.576 -0.2808  0.3521  0.2372
 7217SOL    HW133284   3.718   3.533   7.559  1.2066  2.7946  0.5150
 7217SOL    HW233285   3.584   3.542   7.646  0.8308  0.4074  1.1001
 7218SOL     OW33286   4.181   1.296   8.168  0.4629 -0.5972  0.1544
 7218SOL    HW133287   4.198   1.210   8.208 -1.2585 -1.4437 -0.9196
 7218SOL    HW233288   4.097   1.282   8.124 -0.0962  2.6536  0.2150
 7219SOL     OW33289   1.487   1.716   0.617  0.1683 -0.8987 -0.0992
 7219SOL    HW133290   1.498   1.622   0.632 -2.7725 -1.0537  1.3205
 7219SOL    HW233291   1.579   1.736   0.632 -0.1463 -0.1308  0.8730
 7220SOL     OW33292   1.075   2.081  12.245  0.0837 -0.8245 -0.2813
 7220SOL    HW133293   1.019   2.157  12.255  0.3906 -0.6069 -0.2241
 7220SOL    HW233294   1.122   2.082  12.328 -1.0202 -0.1441  0.3293
 7221SOL     OW33295   1.744   3.736   8.976 -0.2839  1.0877  0.1228
 7221SOL    HW133296   1.748   3.646   9.007  1.2898  1.1636  0.1700
 7221SOL    HW233297   1.767   3.725   8.884  1.4163 -0.6110  0.7526
 7222SOL     OW33298   0.853   3.554   2.705 -0.2596 -0.2435  0.0505
 7222SOL    HW133299   0.823   3.607   2.631  1.2727  0.7024  0.1118
 7222SOL    HW233300   0.940   3.526   2.677  1.0801  2.2863  1.7360
 7223SOL     OW33301   0.518   0.656   8.194 -0.5764  0.1888  0.1673
 7223SOL    HW133302   0.447   0.592   8.196 -0.4411  0.0170 -0.4780
 7223SOL    HW233303   0.589   0.602   8.227 -1.6671 -0.9461  0.6804
 7224SOL     OW33304   4.623   4.681   3.234 -0.3017 -0.0738  0.1823
 7224SOL    HW133305   4.608   4.686   3.328  3.3173 -0.4143  0.7570
 7224SOL    HW233306   4.702   4.629   3.242 -1.7491 -2.7442 -2.8055
 7225SOL     OW33307   3.827   1.947   3.112  0.1352  0.4762  0.0263
 7225SOL    HW133308   3.747   1.997   3.130 -1.2510 -1.0884 -1.7389
 7225SOL    HW233309   3.858   1.997   3.036 -1.8358  3.4961  1.2092
 7226SOL     OW33310   2.328   4.209  15.494  0.2467  0.2460  0.3294
 7226SOL    HW133311   2.265   4.144  15.523  1.5215 -0.3670  1.7713
 7226SOL    HW233312   2.292   4.293  15.523 -2.1017 -0.7134  0.1278
 7227SOL     OW33313   2.526   0.624  14.953  0.0647 -0.0470 -0.1394
 7227SOL    HW133314   2.568   0.626  14.867  1.2513  0.6266  0.4603
 7227SOL    HW233315   2.464   0.554  14.934 -0.4897  0.1286  1.0852
 7228SOL     OW33316   2.138   0.898   7.513 -0.2266 -0.3428 -0.3397
 7228SOL    HW133317   2.133   0.857   7.427 -3.0274 -0.6114 -0.0637
 7228SOL    HW233318   2.055   0.945   7.524 -0.4837 -1.0456  0.6927
 7229SOL     OW33319   4.641   1.106   6.072 -0.3578 -0.0201  0.1301
 7229SOL    HW133320   4.727   1.065   6.062  1.3146  3.4278  0.2448
 7229SOL    HW233321   4.652   1.189   6.024 -0.4225  0.7529  1.4327
 7230SOL     OW33322   3.432   0.364   6.064 -0.3116  0.3270 -0.5087
 7230SOL    HW133323   3.389   0.396   5.984 -0.1989 -1.9328 -1.4725
 7230SOL    HW233324   3.475   0.285   6.031 -0.7776 -0.0521 -0.2066
 7231SOL     OW33325   2.996   4.205   6.910 -0.3638 -0.0321  0.2437
 7231SOL    HW133326   3.015   4.264   6.983 -2.0129 -0.1572  0.7800
 7231SOL    HW233327   2.912   4.164   6.930 -0.4139  0.8152  1.7857
 7232SOL     OW33328   3.557   1.179   8.464  0.4074 -0.3119 -0.1374
 7232SOL    HW133329   3.648   1.207   8.467  0.0438  0.8802 -0.4085
 7232SOL    HW233330   3.547   1.178   8.368 -0.9589  1.6639 -0.0038
 7233SOL     OW33331   0.938   1.659  15.114  0.0692  0.7164  0.0975
 7233SOL    HW133332   0.970   1.654  15.024  1.2557 -0.6365  0.6076
 7233SOL    HW233333   0.876   1.586  15.115 -0.2861  1.0220  0.4510
 7234SOL     OW33334   3.151   0.419   5.336 -0.0505 -0.4216 -0.1312
 7234SOL    HW133335   3.228   0.389   5.289  0.5872  1.1043 -0.0734
 7234SOL    HW233336   3.199   0.460   5.408 -0.6765  0.4843 -0.2156
 7235SOL     OW33337   4.108   4.559   1.931 -0.3919  0.3323  0.1628
 7235SOL    HW133338   4.037   4.600   1.981 -0.8295 -0.8461  0.4962
 7235SOL    HW233339   4.143   4.507   2.003 -1.3245 -0.6933 -0.1220
 7236SOL     OW33340   3.735   4.108   7.005  0.4559 -0.4988 -0.5506
 7236SOL    HW133341   3.737   4.016   7.031  1.5268  0.2575  2.0302
 7236SOL    HW233342   3.780   4.107   6.921  0.6122 -0.4617 -0.4691
 7237SOL     OW33343   0.060   0.385  14.964  0.2724  0.2555  0.0289
 7237SOL    HW133344   0.131   0.437  14.928 -1.4364  1.4449 -1.6589
 7237SOL    HW233345   0.055   0.319  14.894  0.6361 -2.8786  2.9239
 7238SOL     OW33346   3.500   1.858   1.833 -0.5592 -0.0517  0.3765
 7238SOL    HW133347   3.570   1.878   1.895  2.0201 -0.1884 -2.4765
 7238SOL    HW233348   3.423   1.888   1.881 -1.1292  0.3413 -0.7923
 7239SOL     OW33349   0.773   0.619   3.499 -0.1024 -0.1830 -0.1443
 7239SOL    HW133350   0.754   0.650   3.588  1.5427 -0.3692  0.2767
 7239SOL    HW233351   0.752   0.692   3.442  1.4217  1.6155  1.5915
 7240SOL     OW33352   1.271   2.447   3.192 -0.2163 -0.6200  0.0128
 7240SOL    HW133353   1.229   2.367   3.160 -1.1531 -1.0896  2.4357
 7240SOL    HW233354   1.300   2.492   3.112 -0.7432 -0.7749 -0.2644
 7241SOL     OW33355   0.277   1.801  14.455  0.4283  0.5590  0.3043
 7241SOL    HW133356   0.320   1.720  14.481 -2.7399 -1.0999  0.3439
 7241SOL    HW233357   0.192   1.805  14.499 -0.1116  2.1034 -0.8584
 7242SOL     OW33358   2.820   0.941   4.363  0.1282 -0.2708  0.4962
 7242SOL    HW133359   2.782   0.957   4.276  1.8093  1.5197  0.0878
 7242SOL    HW233360   2.741   0.947   4.416 -0.2653  1.3988 -0.2448
 7243SOL     OW33361   3.004   1.246   1.613  0.2022 -0.9476  0.0565
 7243SOL    HW133362   2.984   1.227   1.705  0.0622 -0.7945  0.0566
 7243SOL    HW233363   2.989   1.340   1.618  1.3613 -0.6381 -2.4203
 7244SOL     OW33364   3.025   2.948  13.117  0.4417 -0.2287  0.8360
 7244SOL    HW133365   3.053   3.003  13.190  1.1130 -0.7664  0.9771
 7244SOL    HW233366   3.083   2.982  13.049 -0.6352 -1.1628 -0.5588
 7245SOL     OW33367   3.570   0.138   3.515  0.2425  0.1713  0.4521
 7245SOL    HW133368   3.571   0.054   3.561  2.7609 -0.6309 -1.0403
 7245SOL    HW233369   3.664   0.154   3.505  0.0048  1.2319 -0.1147
 7246SOL     OW33370   3.148   3.506   7.753  0.1001 -0.3653  0.3405
 7246SOL    HW133371   3.214   3.449   7.714  1.8575  1.6042  0.3862
 7246SOL    HW233372   3.079   3.492   7.688 -0.5281  0.2962  0.8706
 7247SOL     OW33373   0.971   1.938   4.533 -0.5480  0.0889  0.1107
 7247SOL    HW133374   0.876   1.923   4.531 -0.7067  0.9659  0.8980
 7247SOL    HW233375   0.983   1.952   4.439  1.4952 -0.3332  0.3147
 7248SOL     OW33376   2.978   1.596   8.417 -0.2557  0.5308 -0.2745
 7248SOL    HW133377   2.932   1.631   8.493 -1.1268  0.8603 -0.9577
 7248SOL    HW233378   3.045   1.536   8.451 -0.4994 -0.3313 -1.3020
 7249SOL     OW33379   0.613   1.707   5.550  0.0519 -0.7133 -0.0760
 7249SOL    HW133380   0.611   1.775   5.482 -0.6049 -1.7478 -1.0891
 7249SOL    HW233381   0.691   1.722   5.604  1.2579 -1.3413 -1.6463
 7250SOL     OW33382   3.109   2.830   6.214  0.4085 -0.2415  0.2522
 7250SOL    HW133383   3.195   2.871   6.204  0.9051 -1.4999 -0.7171
 7250SOL    HW233384   3.133   2.737   6.207 -2.0729 -1.0765  3.0145
 7251SOL     OW33385   1.707   3.441  14.786  0.8808  0.1910 -0.4418
 7251SOL    HW133386   1.707   3.536  14.782  2.5033  0.2620  1.1880
 7251SOL    HW233387   1.655   3.419  14.709 -0.0672 -2.6169  0.9922
 7252SOL     OW33388   4.468   3.166   8.715  0.3320 -0.8668  0.1337
 7252SOL    HW133389   4.544   3.124   8.676  0.5816 -0.8064  0.5444
 7252SOL    HW233390   4.429   3.103   8.776 -2.0331  0.9124  0.4473
 7253SOL     OW33391   4.268   3.707  12.544 -0.0141  0.0243  0.0645
 7253SOL    HW133392   4.329   3.689  12.473  0.7528  4.0862 -0.3165
 7253SOL    HW233393   4.209   3.631  12.541  1.7314 -1.2788 -1.0330
 7254SOL     OW33394   0.303   4.048  11.221 -0.4509  0.4702  0.3557
 7254SOL    HW133395   0.374   4.073  11.281  0.4145 -0.0572 -0.4610
 7254SOL    HW233396   0.354   4.060  11.141  0.5269 -3.3927  0.4262
 7255SOL     OW33397   0.845   2.442  15.587 -0.0762 -0.2764 -0.5362
 7255SOL    HW133398   0.877   2.353  15.600 -2.4567 -0.7644  1.9795
 7255SOL    HW233399   0.797   2.457  15.668 -1.5441 -2.4559 -0.9816
 7256SOL     OW33400   1.700   1.833  13.030  0.0438  0.9790 -0.4334
 7256SOL    HW133401   1.727   1.769  12.965  1.5621 -0.1462  1.3190
 7256SOL    HW233402   1.699   1.913  12.978 -1.5475  0.5592 -1.0601
 7257SOL     OW33403   3.684   2.975   7.625 -0.5024 -0.7963 -0.7418
 7257SOL    HW133404   3.769   2.990   7.665 -2.3427  1.1198  2.4599
 7257SOL    HW233405   3.693   3.009   7.536  1.1438 -0.1096 -0.3207
 7258SOL     OW33406   4.236   3.646   3.050  0.3870  0.5097 -0.0092
 7258SOL    HW133407   4.172   3.576   3.060  0.1004  1.1128  2.4948
 7258SOL    HW233408   4.257   3.656   3.143 -1.0884 -1.2939  0.5115
 7259SOL     OW33409   4.115   2.223   4.607 -0.1346  0.5680 -0.0223
 7259SOL    HW133410   4.183   2.210   4.673 -1.4480 -0.0715  1.1971
 7259SOL    HW233411   4.066   2.292   4.651  0.3320 -0.3931  2.0195
 7260SOL     OW33412   3.833   1.424   2.276 -0.5735  0.4500  0.2769
 7260SOL    HW133413   3.780   1.410   2.198  0.7417 -0.5134 -0.4334
 7260SOL    HW233414   3.754   1.443   2.328 -1.1044  0.5024 -0.5543
 7261SOL     OW33415   4.322   3.721  13.640  0.2368 -0.3292  0.1687
 7261SOL    HW133416   4.295   3.732  13.732 -1.3510  0.7541 -0.4107
 7261SOL    HW233417   4.244   3.753  13.595  0.1470 -2.3578 -1.1033
 7262SOL     OW33418   4.593   1.101  10.953 -0.1064 -0.6410  0.3970
 7262SOL    HW133419   4.609   1.149  10.872 -0.9176 -1.0338  0.0059
 7262SOL    HW233420   4.643   1.150  11.018 -2.1530  1.3887  0.4536
 7263SOL     OW33421   4.656   3.562   5.740 -0.1112 -0.0494 -0.0702
 7263SOL    HW133422   4.644   3.468   5.755  0.3858 -0.1191 -0.1229
 7263SOL    HW233423   4.600   3.599   5.808 -0.4828  0.5965 -0.7287
 7264SOL     OW33424   1.931   3.183   6.300 -0.0482  0.8067 -0.2083
 7264SOL    HW133425   1.944   3.221   6.213 -1.0408  1.2927 -0.1518
 7264SOL    HW233426   1.991   3.228   6.359 -1.0367  0.4769  1.0617
 7265SOL     OW33427   3.687   2.309   4.252 -0.9787 -0.2192 -0.2287
 7265SOL    HW133428   3.596   2.286   4.270 -1.3327 -0.2881 -2.1038
 7265SOL    HW233429   3.728   2.222   4.255 -1.1542 -0.3338 -1.3265
 7266SOL     OW33430   2.606   2.122   2.802  0.7828  0.3259  0.0897
 7266SOL    HW133431   2.536   2.102   2.864  1.0806  0.4177  0.4570
 7266SOL    HW233432   2.630   2.207   2.839 -1.8602  1.6436 -1.2937
 7267SOL     OW33433   0.733   0.454   5.248 -0.4126  0.0016  0.3863
 7267SOL    HW133434   0.676   0.491   5.181 -0.6286 -1.8803 -0.4882
 7267SOL    HW233435   0.709   0.511   5.321 -0.8477 -0.8451  0.9134
 7268SOL     OW33436   4.049   3.241   7.211  0.2802  0.5993 -0.2778
 7268SOL    HW133437   4.043   3.147   7.228 -1.0114  1.2293  2.8248
 7268SOL    HW233438   4.138   3.260   7.243 -0.5617  3.6012  0.3510
 7269SOL     OW33439   0.360   0.591   8.422  0.0233  0.3348  0.1038
 7269SOL    HW133440   0.434   0.611   8.480  0.1026  1.8348 -0.5071
 7269SOL    HW233441   0.290   0.572   8.484 -0.8213  0.1280 -0.9089
 7270SOL     OW33442   0.836   0.189  11.739 -0.5459  0.4139 -0.5830
 7270SOL    HW133443   0.818   0.174  11.832 -1.1115 -0.8103 -0.8919
 7270SOL    HW233444   0.886   0.109  11.721  0.7380  0.6993  1.6382
 7271SOL     OW33445   2.519   0.118   7.023  0.3551 -0.3652 -0.5201
 7271SOL    HW133446   2.607   0.081   7.032  1.3308  1.6486 -1.9112
 7271SOL    HW233447   2.486   0.049   6.965  0.0937 -0.1626 -0.6138
 7272SOL     OW33448   2.148   2.430  15.578  0.0348  0.3040 -0.0783
 7272SOL    HW133449   2.147   2.526  15.570  0.9232  0.5901  3.5325
 7272SOL    HW233450   2.087   2.412  15.649  1.1914 -1.1945  0.5464
 7273SOL     OW33451   0.616   1.392   5.622 -0.2047  0.3292  0.1935
 7273SOL    HW133452   0.551   1.461   5.638 -0.3772  0.5184 -1.3260
 7273SOL    HW233453   0.701   1.432   5.638  0.5355 -0.7652 -0.9381
 7274SOL     OW33454   2.152   3.975  13.329 -0.6613  0.4358  0.0261
 7274SOL    HW133455   2.063   3.956  13.360 -0.5548 -1.7047 -0.9772
 7274SOL    HW233456   2.184   4.011  13.412  0.2175 -1.4311  0.5013
 7275SOL     OW33457   0.680   2.918   0.918 -0.2120 -0.2341  0.0024
 7275SOL    HW133458   0.736   2.898   0.992 -0.6033  0.1491  0.4018
 7275SOL    HW233459   0.599   2.960   0.946 -0.9110 -0.5184 -1.5576
 7276SOL     OW33460   3.783   1.000   4.157  0.2231  0.6824  0.2022
 7276SOL    HW133461   3.860   0.945   4.145 -1.3948 -1.0426 -2.2754
 7276SOL    HW233462   3.746   0.969   4.240  1.8019 -1.4237  0.1288
 7277SOL     OW33463   2.826   2.377  17.188 -0.1434  0.3913  0.5898
 7277SOL    HW133464   2.786   2.464  17.196 -0.9780  0.2622 -1.9680
 7277SOL    HW233465   2.756   2.335  17.137  0.6929  1.2567 -1.2762
 7278SOL     OW33466   1.257   3.920  10.925  0.3244  0.3412 -0.3218
 7278SOL    HW133467   1.245   3.912  10.831  3.1360  2.3716 -0.8584
 7278SOL    HW233468   1.215   4.004  10.942 -0.7464 -0.2080 -0.2518
 7279SOL     OW33469   4.714   3.175   5.598  0.4480 -0.7909  0.0889
 7279SOL    HW133470   4.737   3.265   5.575  1.3479 -1.6665 -2.4348
 7279SOL    HW233471   0.030   3.137   5.529 -0.9615 -1.4255 -0.6665
 7280SOL     OW33472   2.048   2.734  13.460  0.8396  0.3600  0.1737
 7280SOL    HW133473   2.008   2.764  13.541  1.1406  1.4061 -0.0611
 7280SOL    HW233474   2.106   2.664  13.489 -2.6560 -3.2595 -1.4524
 7281SOL     OW33475   4.228   0.024  11.656 -0.6343 -0.5934  0.2810
 7281SOL    HW133476   4.163   4.728  11.593 -1.0197  1.0717 -0.2055
 7281SOL    HW233477   4.281   4.682  11.664  0.7987 -0.0293 -3.5747
 7282SOL     OW33478   4.392   3.931   6.759  0.5518 -0.0602 -0.7911
 7282SOL    HW133479   4.412   3.995   6.828 -2.6365  0.8013 -0.6626
 7282SOL    HW233480   4.376   3.983   6.679 -0.1994  1.6443  0.4561
 7283SOL     OW33481   0.024   0.484   5.180  0.5249 -0.0824  0.0266
 7283SOL    HW133482   4.689   0.546   5.187  1.3281  0.7697  0.6791
 7283SOL    HW233483   0.001   0.420   5.248  0.3394 -1.2985 -1.1918
 7284SOL     OW33484   1.931   2.828   7.422  0.2106  0.7144 -0.7649
 7284SOL    HW133485   1.950   2.815   7.515 -1.6419  0.0165 -0.4890
 7284SOL    HW233486   1.919   2.922   7.418 -1.5037  0.5066 -0.6013
 7285SOL     OW33487   4.630   2.516   8.492 -0.0213  0.6820 -0.1239
 7285SOL    HW133488   4.713   2.479   8.521 -1.2154 -1.2107  0.8665
 7285SOL    HW233489   4.652   2.610   8.491  1.6056  0.2910 -1.0722
 7286SOL     OW33490   3.829   3.994   6.413 -0.8751  0.3044 -0.2547
 7286SOL    HW133491   3.752   4.004   6.358 -1.3736 -0.4607  0.3046
 7286SOL    HW233492   3.817   3.903   6.442  0.7263 -0.1192 -0.9184
 7287SOL     OW33493   2.011   4.407   0.201 -0.1554  0.5954  0.3800
 7287SOL    HW133494   2.031   4.496   0.229 -0.4754  0.1147  2.1316
 7287SOL    HW233495   1.977   4.367   0.281 -0.7139  1.2840  0.4786
 7288SOL     OW33496   4.224   1.267   7.161 -0.0257 -0.0510  0.1297
 7288SOL    HW133497   4.139   1.249   7.121 -0.5081  1.8503  0.3216
 7288SOL    HW233498   4.188   1.317   7.234 -1.5984 -3.1216  1.4516
 7289SOL     OW33499   1.570   0.845   1.592  0.0249 -0.1446  0.2052
 7289SOL    HW133500   1.626   0.797   1.531 -0.0796 -0.1097  0.0827
 7289SOL    HW233501   1.478   0.837   1.566 -0.3308  0.7631  1.1756
 7290SOL     OW33502   0.173   3.294   4.336  0.2266  0.5153  0.5495
 7290SOL    HW133503   0.136   3.206   4.342  2.0396 -0.4063 -1.7504
 7290SOL    HW233504   0.194   3.308   4.428 -0.3105  0.5744  0.6640
 7291SOL     OW33505   3.812   3.625   4.984  0.4230 -0.7123  0.3765
 7291SOL    HW133506   3.748   3.641   5.053  0.0037 -3.0202  0.5340
 7291SOL    HW233507   3.761   3.622   4.904 -1.2360 -0.1658  1.4057
 7292SOL     OW33508   4.024   0.089   2.286 -0.8330 -0.0952  0.4624
 7292SOL    HW133509   4.045   0.008   2.241 -2.0067 -0.6797  0.9722
 7292SOL    HW233510   3.958   0.137   2.235 -1.9204 -1.6911  0.3721
 7293SOL     OW33511   3.993   2.294  10.189  0.2974  0.1502  0.0038
 7293SOL    HW133512   4.051   2.218  10.195  0.6441  0.3525 -0.7565
 7293SOL    HW233513   3.952   2.284  10.103 -1.1344  1.4068  0.5278
 7294SOL     OW33514   4.519   2.071   7.734 -0.3451  0.3960  0.5792
 7294SOL    HW133515   4.476   2.065   7.649 -0.0294 -0.2480  0.4663
 7294SOL    HW233516   4.443   2.105   7.780 -1.1342 -0.9186  0.2426
 7295SOL     OW33517   0.990   3.034   3.438  0.0593  0.0737 -0.1382
 7295SOL    HW133518   0.903   3.067   3.412 -0.0242  0.4241  0.5883
 7295SOL    HW233519   1.019   2.967   3.376  0.5544 -1.0977  1.3625
 7296SOL     OW33520   0.620   3.117  17.227 -0.1149 -0.1391 -0.2095
 7296SOL    HW133521   0.600   3.210  17.231 -2.5123 -0.6726  0.2196
 7296SOL    HW233522   0.560   3.086  17.159 -0.8125  0.4773  0.1206
 7297SOL     OW33523   2.060   3.191   9.186  0.0119  0.5751  0.9082
 7297SOL    HW133524   2.135   3.244   9.211  3.2330 -2.8597 -1.3685
 7297SOL    HW233525   2.082   3.178   9.094 -3.3226 -0.2641  0.2384
 7298SOL     OW33526   1.058   0.079   1.227  0.2288  0.4914 -0.2947
 7298SOL    HW133527   1.063   0.129   1.308 -1.5749  0.6894 -0.2968
 7298SOL    HW233528   1.103   0.140   1.169  1.0721 -2.3511 -2.6765
 7299SOL     OW33529   3.423   3.782   8.647 -0.4950  0.4671 -0.1636
 7299SOL    HW133530   3.356   3.820   8.704 -0.1853  1.0389 -0.1821
 7299SOL    HW233531   3.373   3.712   8.604 -1.7653  0.5084  1.2492
 7300SOL     OW33532   1.246   2.476   7.154  0.3630  0.3711 -0.4840
 7300SOL    HW133533   1.339   2.476   7.177 -0.4801 -0.0529  2.9862
 7300SOL    HW233534   1.237   2.392   7.110  1.9409 -0.7434  1.3237
 7301SOL     OW33535   2.079   1.876  15.492  0.5255 -0.5185  0.0770
 7301SOL    HW133536   2.012   1.809  15.477 -1.8378  1.3480  2.3167
 7301SOL    HW233537   2.038   1.920  15.567  0.3319  0.7297 -0.7640
 7302SOL     OW33538   2.176   4.301   8.826  0.3787 -0.3481  0.9750
 7302SOL    HW133539   2.085   4.296   8.854 -0.3648  0.1882 -1.3893
 7302SOL    HW233540   2.176   4.395   8.810 -1.5530 -0.1847  2.0086
 7303SOL     OW33541   3.703   2.808   2.784  0.2021 -0.3423 -0.2368
 7303SOL    HW133542   3.736   2.891   2.749  0.5713  0.6302  2.3482
 7303SOL    HW233543   3.778   2.750   2.776 -0.5846 -1.1134 -1.9718
 7304SOL     OW33544   3.102   2.017   4.720  0.7131 -0.1630 -0.1716
 7304SOL    HW133545   3.065   1.932   4.698  0.8678 -0.4471  0.6739
 7304SOL    HW233546   3.035   2.074   4.758  0.3020 -1.2393  0.7179
 7305SOL     OW33547   1.466   4.017   4.802  0.2290  0.0748 -0.9086
 7305SOL    HW133548   1.405   3.985   4.869 -0.1997  1.4490 -0.6540
 7305SOL    HW233549   1.480   3.935   4.755  1.7706  0.4552 -1.1126
 7306SOL     OW33550   2.130   4.490   8.142 -0.0174 -0.3240 -0.2042
 7306SOL    HW133551   2.076   4.569   8.136  1.0023  0.2466 -1.9782
 7306SOL    HW233552   2.090   4.443   8.215  0.7696  0.7367  0.9208
 7307SOL     OW33553   2.110   2.454   7.044 -0.3076  0.0160 -0.4459
 7307SOL    HW133554   2.129   2.538   7.003 -1.5343  1.2162  1.4455
 7307SOL    HW233555   2.167   2.399   6.989 -0.2657 -0.6790  0.2913
 7308SOL     OW33556   0.072   2.663   3.485 -0.1879 -0.0087 -0.2009
 7308SOL    HW133557   0.116   2.745   3.462  1.4770 -0.5274  1.1610
 7308SOL    HW233558   0.080   2.631   3.395  1.2934  1.6592 -0.6676
 7309SOL     OW33559   1.488   0.979  14.789 -0.0890  0.2863  0.1925
 7309SOL    HW133560   1.464   1.020  14.706  0.8354  1.2080  0.3731
 7309SOL    HW233561   1.398   0.965  14.816 -0.2635  0.5466 -0.2571
 7310SOL     OW33562   3.441   0.248   4.450 -0.2602 -0.3125  0.3576
 7310SOL    HW133563   3.499   0.176   4.423  1.2155  1.0923 -0.2127
 7310SOL    HW233564   3.377   0.196   4.499 -1.8846 -0.6971 -2.1649
 7311SOL     OW33565   3.870   3.730  13.265  0.4756 -0.0843 -0.6596
 7311SOL    HW133566   3.857   3.677  13.186  1.3045 -0.3204 -0.6365
 7311SOL    HW233567   3.898   3.814  13.229 -0.8070 -0.6245 -2.9293
 7312SOL     OW33568   3.878   3.594   9.230  0.1495 -0.3079  0.2674
 7312SOL    HW133569   3.921   3.509   9.227  1.7163  0.5384 -1.4519
 7312SOL    HW233570   3.855   3.601   9.137 -1.1287  1.3771  0.7070
 7313SOL     OW33571   0.293   1.057  15.806  0.2324 -0.8139 -0.0509
 7313SOL    HW133572   0.329   1.089  15.889 -0.7355  0.7054 -0.2375
 7313SOL    HW233573   0.238   0.982  15.830 -1.1455  0.3200  0.2856
 7314SOL     OW33574   0.278   4.198   1.680 -0.2133 -0.0619 -0.1745
 7314SOL    HW133575   0.195   4.212   1.634 -0.1564 -0.8236 -0.5166
 7314SOL    HW233576   0.344   4.205   1.611 -1.1594 -0.8054 -1.1587
 7315SOL     OW33577   1.343   4.239   3.914 -0.6218  0.1402 -0.5129
 7315SOL    HW133578   1.367   4.149   3.890 -1.1175 -0.5505  1.5895
 7315SOL    HW233579   1.394   4.287   3.850  1.9678 -2.0115 -0.0693
 7316SOL     OW33580   0.854   2.858   2.532 -0.7711 -0.1701 -0.7089
 7316SOL    HW133581   0.815   2.774   2.509  0.0160 -0.3317 -1.4252
 7316SOL    HW233582   0.846   2.912   2.453 -0.3731 -0.1978 -0.7671
 7317SOL     OW33583   0.367   1.208   8.942  0.0099 -0.0136 -0.5107
 7317SOL    HW133584   0.277   1.229   8.965 -0.2384 -1.1745 -0.4274
 7317SOL    HW233585   0.365   1.114   8.927 -1.1665 -0.2323  1.0184
 7318SOL     OW33586   2.038   0.680   2.627  0.4032  0.5825  0.1594
 7318SOL    HW133587   1.977   0.616   2.665  0.2853  0.5793 -0.0322
 7318SOL    HW233588   2.102   0.615   2.598 -1.8020 -1.7443  0.3977
 7319SOL     OW33589   1.742   3.484   9.051  0.1116  1.0149 -0.3239
 7319SOL    HW133590   1.801   3.410   9.057 -0.5945  0.3759 -1.1789
 7319SOL    HW233591   1.673   3.453   9.109  0.1076  0.8185 -0.4364
 7320SOL     OW33592   3.175   1.514   4.719 -0.2340 -0.2859  0.0721
 7320SOL    HW133593   3.133   1.437   4.759 -0.9358 -0.6363 -1.3278
 7320SOL    HW233594   3.162   1.484   4.629  0.9987 -1.1552  0.1833
 7321SOL     OW33595   1.921   1.668  17.195 -0.5430 -0.4139 -0.1098
 7321SOL    HW133596   1.831   1.696  17.177  0.6282  2.7569 -1.0720
 7321SOL    HW233597   1.950   1.742  17.248  2.3214 -1.7360  0.2231
 7322SOL     OW33598   1.369   1.440  17.224  0.4372  0.2059  0.1143
 7322SOL    HW133599   1.281   1.402  17.228  0.6143 -0.3372 -0.9609
 7322SOL    HW233600   1.335   1.521  17.186 -1.7262 -1.0550 -0.6607
 7323SOL     OW33601   4.070   2.559   8.521 -0.1656 -0.0834 -0.3695
 7323SOL    HW133602   4.081   2.613   8.600 -0.5990  1.1944 -1.1942
 7323SOL    HW233603   3.986   2.513   8.532 -1.1557  2.0966  1.1781
 7324SOL     OW33604   2.783   2.798  13.108 -0.2220 -0.1233 -0.7185
 7324SOL    HW133605   2.786   2.776  13.015 -0.0884 -0.5243 -0.6197
 7324SOL    HW233606   2.865   2.846  13.117 -0.3594 -0.1926  0.8124
 7325SOL     OW33607   1.883   0.884   3.233  0.6608 -0.6476 -0.5248
 7325SOL    HW133608   1.926   0.970   3.233  0.5115 -0.5724 -0.3349
 7325SOL    HW233609   1.891   0.855   3.142  3.1500 -0.7779 -0.2631
 7326SOL     OW33610   2.113   1.103  16.115 -0.1500 -0.0281 -0.1855
 7326SOL    HW133611   2.060   1.028  16.089 -1.8256  1.0374  0.1535
 7326SOL    HW233612   2.039   1.161  16.133 -0.9626 -2.0196  2.7581
 7327SOL     OW33613   1.173   2.905   8.480  0.0107 -0.0430 -0.1221
 7327SOL    HW133614   1.253   2.864   8.445  0.4812 -0.6882  1.6958
 7327SOL    HW233615   1.153   2.859   8.562 -1.5467 -0.4554 -0.7447
 7328SOL     OW33616   1.306   3.446   4.342 -0.2765  0.0033 -0.0855
 7328SOL    HW133617   1.228   3.456   4.287 -1.6015  0.8121  1.9368
 7328SOL    HW233618   1.375   3.417   4.282 -0.3815  0.2300 -0.3154
 7329SOL     OW33619   4.581   3.038   4.042  0.4439 -0.0064 -0.3212
 7329SOL    HW133620   4.640   3.085   3.983  0.0572 -0.1209 -0.7982
 7329SOL    HW233621   4.550   2.966   3.987 -0.8860 -1.1121  1.9100
 7330SOL     OW33622   1.126   2.465   9.618 -0.2250  0.4106 -0.2990
 7330SOL    HW133623   1.115   2.391   9.677  0.1773  1.2273  0.8005
 7330SOL    HW233624   1.198   2.507   9.666 -1.3936  0.4071  1.4756
 7331SOL     OW33625   3.054   2.843   8.597  0.1986  0.2376 -0.5628
 7331SOL    HW133626   3.035   2.937   8.593  1.0662  0.4423  0.1260
 7331SOL    HW233627   2.989   2.808   8.536  1.0085 -1.0812 -0.6623
 7332SOL     OW33628   1.198   2.570   1.884  0.9710  0.0951  0.2457
 7332SOL    HW133629   1.248   2.610   1.955  1.4161 -0.7338  0.3944
 7332SOL    HW233630   1.124   2.556   1.943 -1.0165 -1.7042 -2.6389
 7333SOL     OW33631   0.542   1.770   8.007 -0.0438  0.1654 -0.0231
 7333SOL    HW133632   0.516   1.688   8.050 -0.1003 -0.7124 -1.7154
 7333SOL    HW233633   0.530   1.831   8.079  1.1765  1.2878 -0.7731
 7334SOL     OW33634   4.499   4.550  11.796 -0.0300 -0.2704  0.3979
 7334SOL    HW133635   4.508   4.532  11.702  2.6164 -1.6308  0.9057
 7334SOL    HW233636   4.417   4.502  11.808  0.5279 -1.0598  1.0467
 7335SOL     OW33637   0.688   1.125   7.602  0.1438 -0.1954 -0.0523
 7335SOL    HW133638   0.689   1.183   7.677  2.1994  0.2732 -0.4305
 7335SOL    HW233639   0.668   1.189   7.533  1.9095  2.7436  2.1566
 7336SOL     OW33640   1.245   1.250   1.522  0.4151  0.1123 -0.1079
 7336SOL    HW133641   1.207   1.163   1.526 -1.2016  0.9153  2.2812
 7336SOL    HW233642   1.338   1.231   1.528 -0.0747 -1.2245  3.1779
 7337SOL     OW33643   0.457   2.995   1.655 -0.3081  0.3557  0.0374
 7337SOL    HW133644   0.423   2.992   1.745 -0.4103  1.5035  0.0414
 7337SOL    HW233645   0.409   3.061   1.605 -0.6650 -0.3940 -0.6020
 7338SOL     OW33646   4.522   4.506   3.062 -0.4459 -0.0840 -0.6378
 7338SOL    HW133647   4.437   4.544   3.040  0.4370  1.6493 -1.1251
 7338SOL    HW233648   4.547   4.567   3.131 -1.7642 -1.0804  0.7327
 7339SOL     OW33649   1.815   0.426   5.821 -0.4081 -0.3083 -0.5152
 7339SOL    HW133650   1.772   0.428   5.906 -0.0183 -1.0642 -0.2957
 7339SOL    HW233651   1.901   0.453   5.853  0.1777 -0.6001 -1.8261
 7340SOL     OW33652   0.107   3.342   2.121  0.6398  0.0889  0.3584
 7340SOL    HW133653   0.106   3.375   2.031  2.0203 -1.4632 -0.2234
 7340SOL    HW233654   0.070   3.255   2.111  0.2990  0.2986 -0.2374
 7341SOL     OW33655   2.647   1.834   6.069 -0.5588 -0.5714 -0.0457
 7341SOL    HW133656   2.726   1.790   6.101  0.3410  1.1345  0.1051
 7341SOL    HW233657   2.639   1.908   6.129  1.2490 -1.1118  0.8541
 7342SOL     OW33658   4.503   3.551  12.406 -0.7593  0.7901 -0.3090
 7342SOL    HW133659   4.550   3.540  12.324 -0.1464 -2.0732  0.4342
 7342SOL    HW233660   4.558   3.615  12.450  0.6108 -2.9548  3.4260
 7343SOL     OW33661   4.079   0.201  11.777  0.5930  0.0052 -0.1014
 7343SOL    HW133662   4.126   0.189  11.859  0.4120  1.1774  0.1687
 7343SOL    HW233663   4.128   0.146  11.716 -0.8982 -0.4186 -0.9340
 7344SOL     OW33664   1.110   3.648   6.476  0.0037 -0.0823  0.3962
 7344SOL    HW133665   1.030   3.612   6.438  1.6368 -1.8285 -1.4251
 7344SOL    HW233666   1.175   3.597   6.426 -1.2376 -2.1831  0.9137
 7345SOL     OW33667   2.191   3.921   1.283  0.3998  0.4669  0.4642
 7345SOL    HW133668   2.199   3.854   1.215  1.2895  1.3739 -0.3382
 7345SOL    HW233669   2.098   3.939   1.271  1.1882  2.7375 -2.2356
 7346SOL     OW33670   3.733   2.543   4.025  0.5309 -0.0087  0.0879
 7346SOL    HW133671   3.769   2.590   4.101  2.8872 -1.2821 -0.2322
 7346SOL    HW233672   3.721   2.451   4.049  2.6838 -0.4359 -0.4113
 7347SOL     OW33673   0.279   0.079   3.705  0.4728  0.1935 -0.4676
 7347SOL    HW133674   0.221   0.017   3.751  0.9699  1.5517  1.9909
 7347SOL    HW233675   0.269   0.049   3.615 -0.9559  0.4908 -0.4079
 7348SOL     OW33676   4.132   2.860   2.343 -0.3780  0.5779  0.1369
 7348SOL    HW133677   4.054   2.807   2.355 -0.3499  0.4194 -0.3774
 7348SOL    HW233678   4.191   2.795   2.382  0.6295  1.4340  0.0732
 7349SOL     OW33679   2.606   0.321   4.498  0.0984 -0.2984  0.2074
 7349SOL    HW133680   2.681   0.362   4.542 -2.5733  2.2220  2.3234
 7349SOL    HW233681   2.578   0.265   4.570 -2.3656 -0.2195 -0.7052
 7350SOL     OW33682   4.308   2.133   0.369  0.0056 -0.0832  0.2008
 7350SOL    HW133683   4.240   2.108   0.431  0.3793  0.8744  0.9916
 7350SOL    HW233684   4.286   2.226   0.360  0.0936 -0.2599 -1.9295
 7351SOL     OW33685   2.520   4.020   7.436 -0.3731 -0.3322  0.2292
 7351SOL    HW133686   2.491   4.107   7.462 -1.3834 -0.9992  1.3702
 7351SOL    HW233687   2.523   3.962   7.512  0.3882 -2.7666 -1.6625
 7352SOL     OW33688   3.135   1.622   2.897  0.2703 -0.2385 -0.0541
 7352SOL    HW133689   3.040   1.616   2.908  0.1806  2.2828  0.4389
 7352SOL    HW233690   3.153   1.704   2.942 -1.4387 -0.2623  0.6578
 7353SOL     OW33691   3.060   0.166   8.980 -0.3694  0.0954 -0.2750
 7353SOL    HW133692   3.095   0.248   8.946 -2.6858  1.8058  1.5261
 7353SOL    HW233693   3.008   0.192   9.056 -0.0898  0.3945 -0.1846
 7354SOL     OW33694   0.905   1.700   1.475  0.3141 -0.1707  0.7494
 7354SOL    HW133695   0.882   1.678   1.385  1.1041 -2.0627  1.0124
 7354SOL    HW233696   0.949   1.620   1.502 -1.2380 -1.2120  0.2074
 7355SOL     OW33697   0.823   1.529   3.709  0.0423 -0.4057 -0.0285
 7355SOL    HW133698   0.894   1.572   3.662 -0.0973  0.1099  0.2295
 7355SOL    HW233699   0.807   1.586   3.785  0.6684 -0.8321  0.4256
 7356SOL     OW33700   0.456   1.487  17.560  0.1255  0.2119  0.4377
 7356SOL    HW133701   0.542   1.467  17.595 -0.4174  0.8402  2.1435
 7356SOL    HW233702   0.411   1.404  17.548 -1.2141  1.4410 -2.9454
 7357SOL     OW33703   2.696   1.430   7.767 -0.0232 -0.0338 -0.1010
 7357SOL    HW133704   2.787   1.457   7.758 -0.0330 -0.6111 -1.8691
 7357SOL    HW233705   2.691   1.344   7.725  0.7499  1.0923 -2.5117
 7358SOL     OW33706   3.505   1.027   4.790 -0.5043  0.2893  0.5476
 7358SOL    HW133707   3.437   0.979   4.744  0.9050 -0.4484 -0.7801
 7358SOL    HW233708   3.448   1.070   4.853  1.1098  1.5568  1.1600
 7359SOL     OW33709   4.031   2.779   7.022  0.3527 -0.2412  0.7382
 7359SOL    HW133710   4.100   2.721   7.054  1.0907  0.3880  0.2859
 7359SOL    HW233711   4.049   2.856   7.076 -0.5756 -0.0698  0.8138
 7360SOL     OW33712   4.295   4.533   6.606  0.0914  0.5200  0.9498
 7360SOL    HW133713   4.377   4.486   6.591  1.0212  2.3910  0.2623
 7360SOL    HW233714   4.311   4.624   6.583  0.7778 -0.0793 -0.9149
 7361SOL     OW33715   0.514   2.615  10.711 -0.0859  0.2373  0.5557
 7361SOL    HW133716   0.557   2.599  10.795  1.8136  3.0095  0.1185
 7361SOL    HW233717   0.426   2.622  10.749 -0.8912  1.1049 -1.5011
 7362SOL     OW33718   2.034   4.667   9.269 -0.0646 -0.0749 -0.7398
 7362SOL    HW133719   2.047   4.735   9.335 -0.8762  0.2862 -0.9487
 7362SOL    HW233720   2.118   4.621   9.265 -1.2399 -2.2227 -0.6504
 7363SOL     OW33721   3.486   1.052   7.015  1.0418  0.7658 -0.0566
 7363SOL    HW133722   3.473   0.963   6.982 -1.3496  0.7934  0.8207
 7363SOL    HW233723   3.572   1.066   6.975 -0.4164 -0.4536 -3.6573
 7364SOL     OW33724   2.361   2.718   8.744 -0.2215  0.2609  0.1046
 7364SOL    HW133725   2.360   2.807   8.708  2.2993  1.3001  2.6151
 7364SOL    HW233726   2.342   2.737   8.835  1.8564 -1.9563  1.0103
 7365SOL     OW33727   0.839   4.395   2.537 -0.0198 -0.2625  0.5736
 7365SOL    HW133728   0.857   4.321   2.595  0.8120 -1.5771 -1.3928
 7365SOL    HW233729   0.885   4.453   2.599  3.0520 -1.6655 -0.3805
 7366SOL     OW33730   2.627   2.154   7.554 -0.0604 -0.1972 -0.0830
 7366SOL    HW133731   2.673   2.237   7.545  0.0207 -0.0933  1.4131
 7366SOL    HW233732   2.540   2.176   7.520 -0.2183 -1.5213 -0.5504
 7367SOL     OW33733   2.136   1.260   7.784  0.2471 -0.3111  0.4179
 7367SOL    HW133734   2.225   1.228   7.800 -1.5328 -4.3574  2.0839
 7367SOL    HW233735   2.137   1.246   7.690 -1.1957 -1.6857  0.6066
 7368SOL     OW33736   2.304   3.333   5.378 -0.6283 -0.0181 -0.1065
 7368SOL    HW133737   2.260   3.278   5.313  0.4810 -1.5588  0.4638
 7368SOL    HW233738   2.276   3.415   5.337 -2.6047 -0.0659  1.1067
 7369SOL     OW33739   2.897   4.180   3.216  0.4203  0.4137  0.2549
 7369SOL    HW133740   2.871   4.169   3.125  3.0863 -1.1600 -0.3237
 7369SOL    HW233741   2.966   4.246   3.216  2.2362 -1.4786 -0.2045
 7370SOL     OW33742   1.391   1.634   2.401 -1.2788 -0.3873  0.2578
 7370SOL    HW133743   1.324   1.679   2.453 -0.7804  2.1616 -1.2815
 7370SOL    HW233744   1.380   1.671   2.313  2.6505  0.4106  0.0777
 7371SOL     OW33745   0.733   2.047   6.399 -0.4464 -0.3962  0.4577
 7371SOL    HW133746   0.822   2.073   6.372 -1.0285 -0.9403 -1.9021
 7371SOL    HW233747   0.687   2.069   6.319  2.8035 -0.7286 -1.5074
 7372SOL     OW33748   2.640   4.612   0.562 -0.0457  0.4798  0.0739
 7372SOL    HW133749   2.722   4.578   0.526 -0.3956  2.0007 -2.1336
 7372SOL    HW233750   2.645   4.706   0.550 -0.3249  0.6161  1.0279
 7373SOL     OW33751   1.068   0.698   6.240  0.0976  0.5839 -1.0046
 7373SOL    HW133752   1.036   0.709   6.329  1.3157  1.4337 -0.6780
 7373SOL    HW233753   1.019   0.763   6.190  1.6355 -0.2158 -3.5701
 7374SOL     OW33754   1.677   2.468   6.544  0.2641 -0.1287  0.3554
 7374SOL    HW133755   1.686   2.523   6.466  1.8140 -3.1147 -1.5506
 7374SOL    HW233756   1.692   2.544   6.600  0.2130 -2.3680  3.4302
 7375SOL     OW33757   0.619   1.321   8.351  0.0182  0.0072  0.8714
 7375SOL    HW133758   0.702   1.291   8.316 -0.8204  0.1514 -1.2137
 7375SOL    HW233759   0.650   1.391   8.408  1.8826 -0.0597 -0.0800
 7376SOL     OW33760   4.208   1.707   8.991 -0.5217 -0.2060  0.2695
 7376SOL    HW133761   4.184   1.789   9.033  0.7994 -0.4299  1.4702
 7376SOL    HW233762   4.174   1.729   8.904 -0.3614  1.3822  0.6156
 7377SOL     OW33763   2.077   1.880   3.333 -0.3230  0.0222  0.3373
 7377SOL    HW133764   2.101   1.963   3.375  0.8997  0.0216 -0.3553
 7377SOL    HW233765   1.993   1.902   3.293 -0.1609 -1.8711 -1.0531
 7378SOL     OW33766   1.736   4.225   9.496  0.3955 -0.7522  0.5326
 7378SOL    HW133767   1.673   4.180   9.439 -1.1968 -1.0206  2.5043
 7378SOL    HW233768   1.684   4.301   9.519  1.0686  0.5992 -2.3661
 7379SOL     OW33769   0.497   1.112   3.677 -0.1531 -0.1681  0.5704
 7379SOL    HW133770   0.439   1.038   3.660 -1.4272  0.8501  0.4992
 7379SOL    HW233771   0.552   1.080   3.748  0.3524 -1.2954 -0.3332
 7380SOL     OW33772   1.361   1.273   2.649 -0.3257 -0.2797 -0.7547
 7380SOL    HW133773   1.445   1.319   2.644 -1.1687  1.2799 -0.3563
 7380SOL    HW233774   1.312   1.319   2.582 -0.4201 -0.8361 -1.0701
 7381SOL     OW33775   1.881   1.182   6.709 -0.0687  0.3777  0.0453
 7381SOL    HW133776   1.803   1.208   6.661 -0.5832 -2.1635 -0.4972
 7381SOL    HW233777   1.940   1.248   6.672  0.7718 -1.6821 -2.2626
 7382SOL     OW33778   4.316   4.050   4.670  0.0548 -0.2748  0.1688
 7382SOL    HW133779   4.265   4.010   4.741  3.0151  0.1893  2.5927
 7382SOL    HW233780   4.251   4.037   4.601  2.0256  0.2346 -1.7557
 7383SOL     OW33781   2.695   3.288   5.085 -0.1376  0.1011  0.3978
 7383SOL    HW133782   2.740   3.228   5.026  1.2449 -0.0392  1.6034
 7383SOL    HW233783   2.763   3.328   5.141  0.4964 -2.4237  1.4280
 7384SOL     OW33784   0.805   3.925   5.584 -0.2530 -0.1688  0.1419
 7384SOL    HW133785   0.755   3.941   5.664 -0.5164  0.9094 -0.2342
 7384SOL    HW233786   0.769   3.990   5.523  0.4182 -2.1077 -2.3174
 7385SOL     OW33787   3.425   3.311   2.916  0.0565 -0.3118 -0.5699
 7385SOL    HW133788   3.335   3.341   2.899  0.6047  1.3028 -0.5779
 7385SOL    HW233789   3.454   3.318   2.825 -2.8819 -0.9508 -1.5849
 7386SOL     OW33790   3.856   0.804  11.403 -0.4516 -0.3144  0.4755
 7386SOL    HW133791   3.833   0.759  11.484  0.9111 -0.6701  0.6600
 7386SOL    HW233792   3.811   0.740  11.347 -1.0931 -0.6006  1.3242
 7387SOL     OW33793   4.025   3.763   4.062 -0.7097  0.2788 -0.2249
 7387SOL    HW133794   4.089   3.718   4.118  0.3246  0.9421 -0.8809
 7387SOL    HW233795   3.984   3.817   4.130 -1.2714 -1.2956  0.6719
 7388SOL     OW33796   1.504   3.065   6.269  0.1937 -0.1022  0.1114
 7388SOL    HW133797   1.496   3.144   6.322  1.1444 -0.0784  0.2208
 7388SOL    HW233798   1.424   3.024   6.302 -2.1748  3.3944 -1.3270
 7389SOL     OW33799   4.540   3.323   1.255  0.3444  0.6779  0.5055
 7389SOL    HW133800   4.494   3.242   1.238 -0.8421  1.5348 -0.3747
 7389SOL    HW233801   4.573   3.343   1.167 -0.0176 -0.1421  0.1840
 7390SOL     OW33802   1.124   1.348   1.743 -0.5721 -0.5494  0.3202
 7390SOL    HW133803   1.182   1.309   1.678 -1.7993 -0.6933 -0.6915
 7390SOL    HW233804   1.105   1.438   1.717 -0.7076 -0.2954  1.3258
 7391SOL     OW33805   1.008   4.173   4.845  0.2803 -0.4945 -0.2847
 7391SOL    HW133806   1.087   4.222   4.868 -0.5073  0.9959 -0.7608
 7391SOL    HW233807   1.036   4.114   4.775 -0.9401 -3.5589  1.7686
 7392SOL     OW33808   0.797   0.518   5.856  0.2994 -0.2324  0.8774
 7392SOL    HW133809   0.821   0.500   5.765 -2.5642  1.3170 -0.1762
 7392SOL    HW233810   0.810   0.611   5.874  2.4520 -0.0604 -1.4782
 7393SOL     OW33811   1.782   3.617  14.492 -0.4329 -0.4134  0.2346
 7393SOL    HW133812   1.855   3.641  14.549 -0.8456  0.9615  0.1737
 7393SOL    HW233813   1.825   3.560  14.428  0.3011  0.3035  0.0906
 7394SOL     OW33814   0.027   4.264  11.149 -0.1825  0.1359  0.4863
 7394SOL    HW133815   0.121   4.273  11.134 -0.1118  0.5238  1.1808
 7394SOL    HW233816   0.030   4.169  11.164 -0.4170  0.1184  0.4299
 7395SOL     OW33817   0.351   3.422  17.454 -0.1087  0.0680 -0.1768
 7395SOL    HW133818   0.276   3.475  17.482  0.7248  1.0065  0.2734
 7395SOL    HW233819   0.320   3.335  17.430 -2.4969  0.9901 -0.4978
 7396SOL     OW33820   1.123   2.479   8.514  0.1913 -0.1982 -0.2193
 7396SOL    HW133821   1.032   2.486   8.544  1.0142  0.4286  2.1538
 7396SOL    HW233822   1.163   2.446   8.594  0.7816  0.9571 -0.0433
 7397SOL     OW33823   0.898   1.602   1.182 -0.1294 -0.0965  0.3736
 7397SOL    HW133824   0.901   1.630   1.091  0.6079 -0.6239  0.2327
 7397SOL    HW233825   0.901   1.507   1.186 -1.7111 -0.1106  1.1442
 7398SOL     OW33826   3.913   0.801  11.880  0.3488 -0.4048 -0.0398
 7398SOL    HW133827   3.868   0.884  11.862  0.6666  0.0570  1.2857
 7398SOL    HW233828   3.977   0.806  11.809 -0.2851  0.0196 -0.5835
 7399SOL     OW33829   0.179   0.137   0.819  0.6615  0.1659  0.8122
 7399SOL    HW133830   0.215   0.203   0.760  2.2351  0.1989  1.8000
 7399SOL    HW233831   0.190   0.183   0.902  1.4577 -3.8720  2.9718
 7400SOL     OW33832   4.431   2.599   1.559  0.3054 -0.2129 -0.3381
 7400SOL    HW133833   4.372   2.584   1.633  0.9785  0.6202  0.3692
 7400SOL    HW233834   4.512   2.577   1.604  0.5117 -0.5498 -0.8714
 7401SOL     OW33835   1.718   4.357   9.041 -0.4181 -0.5973 -0.3621
 7401SOL    HW133836   1.662   4.434   9.039  0.5135  0.1289  1.8339
 7401SOL    HW233837   1.650   4.290   9.043  0.5412 -1.4853  1.9966
 7402SOL     OW33838   4.535   1.247   3.222  0.2276  0.2342  0.4507
 7402SOL    HW133839   4.495   1.160   3.233 -3.7511  1.9240 -0.5202
 7402SOL    HW233840   4.551   1.246   3.128  0.0733  0.2667  0.4228
 7403SOL     OW33841   4.459   4.633   6.072  0.2035 -0.3240  0.2035
 7403SOL    HW133842   4.444   4.710   6.126  1.2804  0.1818 -0.2054
 7403SOL    HW233843   4.520   4.578   6.122  0.3540 -0.6951 -0.3764
 7404SOL     OW33844   2.093   2.191   6.671 -0.1763  0.4395 -0.0555
 7404SOL    HW133845   1.998   2.200   6.667 -0.0590  1.8113  0.1888
 7404SOL    HW233846   2.099   2.097   6.687  0.6901  0.6779  1.0385
 7405SOL     OW33847   2.074   2.586   3.450  0.0265 -0.1189  0.1682
 7405SOL    HW133848   2.016   2.604   3.524 -0.2521 -2.7898  0.5828
 7405SOL    HW233849   2.085   2.672   3.408 -1.2040 -0.7771 -1.5148
 7406SOL     OW33850   2.460   0.333   3.202 -0.5700 -0.6878  0.5194
 7406SOL    HW133851   2.490   0.413   3.245  1.1937 -1.1358  0.1011
 7406SOL    HW233852   2.374   0.325   3.243 -2.0620 -3.1423 -3.0875
 7407SOL     OW33853   0.364   4.310  12.046  0.5812  0.1828 -0.0065
 7407SOL    HW133854   0.399   4.398  12.034  0.8812  0.2256  1.2549
 7407SOL    HW233855   0.436   4.271  12.095 -0.3153 -2.1973 -0.5864
 7408SOL     OW33856   1.009   2.750   6.681  0.2847  0.0794  0.3453
 7408SOL    HW133857   1.053   2.729   6.599 -1.6830 -0.3780 -0.5942
 7408SOL    HW233858   0.915   2.739   6.667 -0.0240  1.8551  1.0477
 7409SOL     OW33859   3.906   4.433   0.108 -0.2415 -0.3359 -0.5136
 7409SOL    HW133860   3.962   4.495   0.155  1.1518 -3.0218  1.4533
 7409SOL    HW233861   3.922   4.462   0.019 -3.3975 -2.8233 -1.8797
 7410SOL     OW33862   0.682   3.561   3.855  0.0345 -0.2043  0.0263
 7410SOL    HW133863   0.651   3.636   3.906  1.6999 -0.2630  1.1426
 7410SOL    HW233864   0.657   3.586   3.766 -1.6129 -2.2259 -0.0638
 7411SOL     OW33865   1.056   0.523  13.718  0.6383  0.4116 -0.1548
 7411SOL    HW133866   0.965   0.496  13.709  0.4338  0.6257  1.3017
 7411SOL    HW233867   1.077   0.523  13.811  0.9880  3.3310 -0.2249
 7412SOL     OW33868   3.392   1.220  10.829  0.3650 -0.0063  0.1542
 7412SOL    HW133869   3.389   1.316  10.825  0.9898  0.0688  1.7848
 7412SOL    HW233870   3.441   1.216  10.911  0.1368  1.1843  0.3517
 7413SOL     OW33871   1.514   4.421  11.330  0.0727  0.2841  0.0576
 7413SOL    HW133872   1.468   4.446  11.250 -0.6319  1.3325  0.7834
 7413SOL    HW233873   1.467   4.339  11.342 -0.8705  1.0182  1.4346
 7414SOL     OW33874   4.524   0.269   2.447  0.0899 -0.4164 -0.0169
 7414SOL    HW133875   4.535   0.177   2.471  1.9087 -0.0579  0.5602
 7414SOL    HW233876   4.594   0.305   2.502  1.0106 -2.9252  0.4749
 7415SOL     OW33877   3.332   2.279   5.791  0.0504  0.9252  0.2273
 7415SOL    HW133878   3.374   2.304   5.709  2.6519 -0.8210  1.0035
 7415SOL    HW233879   3.339   2.185   5.775  1.9346  0.3783  4.2284
 7416SOL     OW33880   1.195   2.424   3.453 -0.3680  0.2680  0.1660
 7416SOL    HW133881   1.230   2.414   3.365  1.3967  2.3656  0.6452
 7416SOL    HW233882   1.132   2.493   3.431 -2.3425 -1.3355  0.6820
 7417SOL     OW33883   1.410   4.050   0.379  0.0372  0.4435 -0.0181
 7417SOL    HW133884   1.377   3.979   0.325 -1.4276  0.2847  1.1067
 7417SOL    HW233885   1.458   4.018   0.455 -1.9229 -0.9294  0.6304
 7418SOL     OW33886   2.686   1.691  10.555 -0.9922  0.2921  0.3762
 7418SOL    HW133887   2.753   1.747  10.595 -1.8013  2.3399 -1.1442
 7418SOL    HW233888   2.635   1.756  10.506 -0.9698 -0.8456 -1.1357
 7419SOL     OW33889   4.582   1.759   2.169  0.2536  0.0689  0.2536
 7419SOL    HW133890   4.677   1.760   2.181  0.3300  0.5770 -0.3890
 7419SOL    HW233891   4.575   1.793   2.080  1.0624 -0.8794 -0.1730
 7420SOL     OW33892   0.056   3.014   2.172 -0.6371  0.2867  0.3522
 7420SOL    HW133893   4.717   2.983   2.122 -1.1936  2.9056 -0.4033
 7420SOL    HW233894   0.089   2.939   2.221 -1.5794  1.3699  2.6334
 7421SOL     OW33895   1.566   1.189   9.874 -0.0355 -0.3644 -0.1613
 7421SOL    HW133896   1.535   1.109   9.832  0.1218 -0.4065 -0.1965
 7421SOL    HW233897   1.497   1.201   9.939 -0.4006 -2.2778 -0.1867
 7422SOL     OW33898   4.717   0.186   2.897 -0.0069 -0.5194 -0.2577
 7422SOL    HW133899   4.688   0.096   2.910  2.1304 -1.0420  0.8541
 7422SOL    HW233900   4.684   0.224   2.978  0.4379  0.1969 -0.4196
 7423SOL     OW33901   2.272   4.234  13.245  0.2252  0.0430 -0.0176
 7423SOL    HW133902   2.227   4.153  13.269 -3.4435  2.1479  0.2867
 7423SOL    HW233903   2.360   4.204  13.270  0.2109 -0.2356 -0.3007
 7424SOL     OW33904   4.211   2.754   2.960  0.5288 -0.5144  0.3475
 7424SOL    HW133905   4.269   2.681   2.938  0.6301 -0.2343 -0.3387
 7424SOL    HW233906   4.258   2.808   2.896  0.0996  0.4865  0.8861
 7425SOL     OW33907   2.729   4.336   9.898  0.1858  0.1032 -0.4401
 7425SOL    HW133908   2.676   4.376   9.967  3.2653 -1.0758  2.5933
 7425SOL    HW233909   2.722   4.243   9.919  0.0178 -0.0152 -1.0234
 7426SOL     OW33910   1.550   2.332   9.434 -0.2573  0.3505 -0.6429
 7426SOL    HW133911   1.549   2.415   9.480  2.1807  0.1253 -0.2348
 7426SOL    HW233912   1.604   2.361   9.360 -2.3803  1.6765 -1.6765
 7427SOL     OW33913   4.322   0.875  14.082 -0.3000  0.1477 -0.6059
 7427SOL    HW133914   4.370   0.836  14.156  0.5785  1.2129 -0.6114
 7427SOL    HW233915   4.304   0.808  14.017  0.0808 -1.5464  1.0299
 7428SOL     OW33916   2.420   3.064   6.302  0.0151 -0.1984 -0.1903
 7428SOL    HW133917   2.480   3.036   6.372  0.1030 -0.2521 -0.2865
 7428SOL    HW233918   2.416   3.156   6.330  2.4423  0.3308 -1.5479
 7429SOL     OW33919   3.196   0.017   3.635  0.0265  0.1058  0.4250
 7429SOL    HW133920   3.114   0.009   3.682  1.7471  0.3697  3.4513
 7429SOL    HW233921   3.239   0.072   3.701 -0.1987  0.9880 -0.1563
 7430SOL     OW33922   4.336   2.600  16.619  0.4562 -0.6776  0.3050
 7430SOL    HW133923   4.305   2.540  16.686 -1.2699  1.4056  1.3660
 7430SOL    HW233924   4.316   2.563  16.533  0.7985  0.6307 -0.3377
 7431SOL     OW33925   0.484   0.305   4.075  0.3893  0.1589  0.6285
 7431SOL    HW133926   0.553   0.345   4.021 -0.4881 -2.0910 -2.1703
 7431SOL    HW233927   0.527   0.220   4.077 -0.0216 -0.0644  0.0218
 7432SOL     OW33928   3.704   4.206   2.919 -0.7469  0.2400  0.5807
 7432SOL    HW133929   3.670   4.235   3.004 -1.2669  0.9674  0.1237
 7432SOL    HW233930   3.629   4.227   2.863  1.6892  1.4917 -2.1625
 7433SOL     OW33931   1.308   2.116  11.811 -0.1136 -0.0399  0.9019
 7433SOL    HW133932   1.272   2.071  11.887 -1.3031 -1.5647 -0.5713
 7433SOL    HW233933   1.307   2.204  11.849 -1.5438  2.3807 -4.7976
 7434SOL     OW33934   4.037   2.145   4.264  0.4499  0.4107 -1.0486
 7434SOL    HW133935   4.009   2.221   4.314 -0.8002  0.3851 -1.7118
 7434SOL    HW233936   3.953   2.103   4.250  0.2097  0.8527 -0.9233
 7435SOL     OW33937   3.473   2.461  10.258  0.2619  0.4376 -0.2502
 7435SOL    HW133938   3.558   2.419  10.245  0.4939  0.2245  1.9311
 7435SOL    HW233939   3.405   2.400  10.229 -0.5772  1.7398 -0.9939
 7436SOL     OW33940   2.981   0.997   5.312  0.3065  0.1040  0.0385
 7436SOL    HW133941   2.905   0.969   5.262 -0.8755  0.1798  1.8122
 7436SOL    HW233942   3.025   0.920   5.347 -0.5973  0.1116  1.1873
 7437SOL     OW33943   1.038   1.736   6.202 -0.3784 -0.0192 -0.2493
 7437SOL    HW133944   1.043   1.740   6.298 -0.8508  0.3279 -0.2364
 7437SOL    HW233945   1.123   1.711   6.166 -0.4369 -0.0306 -0.3806
 7438SOL     OW33946   0.048   2.766   7.496 -0.1249  0.1021 -0.0632
 7438SOL    HW133947   0.015   2.729   7.414 -1.1727 -3.1799  1.8592
 7438SOL    HW233948   0.137   2.732   7.500 -0.2513 -0.2579 -0.4050
 7439SOL     OW33949   4.347   1.819  12.332  0.2256 -0.0541 -0.6893
 7439SOL    HW133950   4.259   1.857  12.331  0.6003  0.7462 -2.5819
 7439SOL    HW233951   4.337   1.745  12.392 -0.5641  3.4469  3.5322
 7440SOL     OW33952   3.801   0.476   7.945  0.3444 -0.2218  0.0412
 7440SOL    HW133953   3.798   0.381   7.935  0.1956 -0.1221 -0.8497
 7440SOL    HW233954   3.786   0.510   7.856  2.2774  1.3402  0.3167
 7441SOL     OW33955   4.594   1.098  11.279 -0.2398 -0.2312  0.2868
 7441SOL    HW133956   4.575   1.191  11.290  0.1312 -0.2726  1.3256
 7441SOL    HW233957   4.679   1.120  11.241 -0.2311  1.6955  1.4406
 7442SOL     OW33958   1.510   1.863   8.773 -0.1940  0.2605 -0.3972
 7442SOL    HW133959   1.497   1.798   8.842 -1.8770  0.2398 -0.7262
 7442SOL    HW233960   1.472   1.943   8.810 -1.9519 -1.5156  1.6135
 7443SOL     OW33961   2.670   4.718   2.009 -0.4985  0.4176 -0.1113
 7443SOL    HW133962   2.678   4.655   1.937 -0.3307 -0.0780  0.3373
 7443SOL    HW233963   2.706   4.666   2.081 -0.5627  1.8918  0.9822
 7444SOL     OW33964   3.355   0.191   7.706 -0.4027  0.1234  0.0543
 7444SOL    HW133965   3.381   0.102   7.683 -0.3642  0.0600  0.3539
 7444SOL    HW233966   3.418   0.238   7.650  2.6201 -0.7366  2.7684
 7445SOL     OW33967   1.785   2.898   1.671  0.8204  0.3834  0.0764
 7445SOL    HW133968   1.829   2.816   1.691  1.2632  0.8002  0.8182
 7445SOL    HW233969   1.700   2.856   1.661 -0.2093  2.1687  1.2322
 7446SOL     OW33970   3.018   1.763   4.670 -0.5387  0.0328 -0.1015
 7446SOL    HW133971   3.066   1.681   4.675 -1.1804 -0.3496 -0.1706
 7446SOL    HW233972   2.930   1.726   4.665  0.6322 -2.6034 -1.3380
 7447SOL     OW33973   3.723   4.092  17.330  0.3638  0.3528 -0.5815
 7447SOL    HW133974   3.653   4.136  17.378 -1.0658  0.1964 -2.5080
 7447SOL    HW233975   3.796   4.154  17.338  2.1179 -1.7242 -0.4531
 7448SOL     OW33976   0.708   0.611   4.669 -0.1080  0.4429  0.3253
 7448SOL    HW133977   0.776   0.676   4.684  1.5515 -1.3214  0.3801
 7448SOL    HW233978   0.634   0.672   4.666 -0.7543 -0.2674  1.5755
 7449SOL     OW33979   0.145   4.353   6.045  0.3615 -0.0591 -0.0308
 7449SOL    HW133980   0.176   4.441   6.069  0.0193 -0.0276  0.2944
 7449SOL    HW233981   0.206   4.298   6.094  0.4103 -0.1842 -0.2312
 7450SOL     OW33982   4.722   3.727  13.361 -0.3138 -0.6134 -0.4212
 7450SOL    HW133983   4.727   3.821  13.373  2.4748 -0.6748 -1.0661
 7450SOL    HW233984   4.639   3.707  13.404 -0.7398 -0.1303 -1.0178
 7451SOL     OW33985   1.489   2.086   3.370 -0.2811 -0.3577 -0.1573
 7451SOL    HW133986   1.536   2.094   3.287 -0.7837  3.9806 -0.0080
 7451SOL    HW233987   1.495   2.179   3.389 -0.2842 -0.6194  1.1226
 7452SOL     OW33988   2.438   4.525   5.838 -0.1471 -0.2899  0.0834
 7452SOL    HW133989   2.490   4.484   5.768  1.8276  0.6828  0.9953
 7452SOL    HW233990   2.389   4.452   5.877  1.9157 -0.3218  2.6257
 7453SOL     OW33991   2.516   0.736   6.676 -0.0198  0.5247 -0.0607
 7453SOL    HW133992   2.498   0.645   6.699 -0.0564  0.3263 -0.8749
 7453SOL    HW233993   2.568   0.732   6.596 -2.3148  0.8635 -1.5802
 7454SOL     OW33994   2.390   0.219  14.276  0.0087 -0.0498 -0.0002
 7454SOL    HW133995   2.446   0.272  14.333 -0.7965  0.2098  0.5449
 7454SOL    HW233996   2.331   0.187  14.343 -0.5334  1.8370  0.4113
 7455SOL     OW33997   1.240   2.301   6.392  0.4079  0.0713 -0.0145
 7455SOL    HW133998   1.201   2.348   6.465 -1.2022  1.0881 -1.5495
 7455SOL    HW233999   1.335   2.316   6.395  0.4476  0.1630 -1.8247
 7456SOL     OW34000   1.592   4.644   8.994  0.1896 -0.7472 -0.0535
 7456SOL    HW134001   1.561   4.730   8.963  0.7104 -0.3229  0.6192
 7456SOL    HW234002   1.653   4.681   9.057 -0.9827  0.4166  0.4080
 7457SOL     OW34003   2.669   0.509   5.790 -0.0603 -0.6356  0.4734
 7457SOL    HW134004   2.699   0.420   5.808 -0.2174 -1.1768 -1.8754
 7457SOL    HW234005   2.577   0.489   5.773  0.1261 -0.5162 -0.7333
 7458SOL     OW34006   4.261   3.328  16.316  0.9279  0.7105 -0.0048
 7458SOL    HW134007   4.355   3.345  16.318  0.8186  1.2985  0.2446
 7458SOL    HW234008   4.252   3.261  16.384  2.2030  1.0092  0.4494
 7459SOL     OW34009   1.372   0.110  10.314 -0.4253 -0.1863 -0.2538
 7459SOL    HW134010   1.415   0.186  10.274 -1.3434 -0.4712 -1.7776
 7459SOL    HW234011   1.286   0.116  10.273  0.4944  1.8226 -1.9208
 7460SOL     OW34012   1.737   2.467  17.673  0.3163  0.3038 -0.4270
 7460SOL    HW134013   1.745   2.475  17.578 -0.6593 -2.1782 -0.6964
 7460SOL    HW234014   1.647   2.492  17.693  0.4819  0.4749  0.1288
 7461SOL     OW34015   2.646   1.062   4.629  0.3420  0.9932 -0.8543
 7461SOL    HW134016   2.612   0.975   4.606 -0.6190  0.7677  1.4517
 7461SOL    HW234017   2.620   1.111   4.551 -1.0943  0.2845 -0.8239
 7462SOL     OW34018   1.155   4.520  16.773  0.4057  0.5068 -0.0734
 7462SOL    HW134019   1.117   4.588  16.717  1.6153  0.1114 -1.3564
 7462SOL    HW234020   1.219   4.491  16.709  1.2273 -0.3690  1.1365
 7463SOL     OW34021   1.424   0.919   2.283  0.0026  0.5653 -0.0155
 7463SOL    HW134022   1.388   0.993   2.333 -0.8423 -0.0712  0.3318
 7463SOL    HW234023   1.482   0.963   2.221 -0.0003 -1.8136 -1.6942
 7464SOL     OW34024   3.474   4.372   2.474  0.5385  0.5055  0.3157
 7464SOL    HW134025   3.476   4.339   2.385 -0.2163 -0.4484  0.6474
 7464SOL    HW234026   3.413   4.445   2.464  1.2706  1.1136  0.2591
 7465SOL     OW34027   0.293   3.581   4.398  0.2348 -0.2487  0.1029
 7465SOL    HW134028   0.319   3.513   4.461  1.0109 -0.8904 -0.9042
 7465SOL    HW234029   0.204   3.604   4.425 -0.3344 -0.7646 -1.3532
 7466SOL     OW34030   1.650   4.587   4.209  0.2480  0.2269 -0.1658
 7466SOL    HW134031   1.706   4.533   4.153  0.2952  0.5772 -0.4568
 7466SOL    HW234032   1.615   4.642   4.139 -2.5967  1.5418  2.3195
 7467SOL     OW34033   1.773   4.490  13.427 -0.0051 -0.4412 -0.3309
 7467SOL    HW134034   1.852   4.541  13.407 -1.7448  2.7869  0.9950
 7467SOL    HW234035   1.715   4.566  13.418 -0.7887 -0.7352  2.3289
 7468SOL     OW34036   0.139   1.271   2.608  0.7267 -0.1020  0.0866
 7468SOL    HW134037   0.078   1.343   2.596 -2.3286 -2.7803 -0.3146
 7468SOL    HW234038   0.129   1.229   2.523  1.7360  0.2336 -0.2050
 7469SOL     OW34039   3.387   0.495   8.745 -0.4712 -0.2434 -0.5121
 7469SOL    HW134040   3.402   0.415   8.695  0.0682 -0.5725  0.1789
 7469SOL    HW234041   3.470   0.516   8.789 -1.6240  0.3523  1.3908
 7470SOL     OW34042   4.120   3.384   1.662 -0.4296  0.1631 -0.6545
 7470SOL    HW134043   4.143   3.475   1.644 -0.3841  0.0236 -1.3001
 7470SOL    HW234044   4.165   3.335   1.593  0.7049 -1.7244  1.4296
 7471SOL     OW34045   2.242   4.630   7.327 -0.5295  0.2348 -0.0166
 7471SOL    HW134046   2.213   4.573   7.398 -2.0929  1.2003  0.1199
 7471SOL    HW234047   2.316   4.584   7.287  0.1329  0.7184  0.6363
 7472SOL     OW34048   2.799   3.420   9.882 -0.3724  0.2890 -0.2066
 7472SOL    HW134049   2.747   3.340   9.874  0.0536 -0.1126  0.9844
 7472SOL    HW234050   2.806   3.421   9.977 -5.8122 -0.6144  0.1922
 7473SOL     OW34051   2.618   0.306   0.725  0.0228 -0.7904  0.1269
 7473SOL    HW134052   2.546   0.246   0.748 -1.6624  1.2795  0.2263
 7473SOL    HW234053   2.609   0.304   0.630  0.5351 -0.2157  0.0677
 7474SOL     OW34054   3.178   2.788   7.615 -0.1450  0.2126 -0.3985
 7474SOL    HW134055   3.224   2.773   7.532 -2.3470  1.8755 -1.9060
 7474SOL    HW234056   3.087   2.760   7.602  0.8678 -2.7300 -1.2282
 7475SOL     OW34057   1.531   2.641  12.662 -0.1379 -0.8496  0.2008
 7475SOL    HW134058   1.536   2.546  12.672  2.0428 -0.6156  1.2988
 7475SOL    HW234059   1.547   2.669  12.752 -2.3356 -1.2519  0.7106
 7476SOL     OW34060   1.629   2.509  14.901  0.1558 -0.5805  0.0003
 7476SOL    HW134061   1.586   2.594  14.890  0.0290 -0.6378  0.0531
 7476SOL    HW234062   1.548   2.460  14.920 -1.5196  1.7984 -1.0386
 7477SOL     OW34063   2.527   3.105   5.490  0.0561  0.0443  0.0032
 7477SOL    HW134064   2.458   3.154   5.446 -0.6641 -2.2399 -1.4096
 7477SOL    HW234065   2.477   3.025   5.506  2.4524 -1.2981  0.8401
 7478SOL     OW34066   0.569   2.471   9.059 -0.1090 -0.0950 -0.3607
 7478SOL    HW134067   0.613   2.432   9.134 -4.3637 -0.1824  2.0862
 7478SOL    HW234068   0.632   2.541   9.042 -0.3923  0.7348  1.9949
 7479SOL     OW34069   3.548   3.894   4.478 -0.0012 -0.2202 -0.1306
 7479SOL    HW134070   3.577   3.982   4.452 -0.2967 -0.4613 -1.2947
 7479SOL    HW234071   3.531   3.855   4.392 -1.7394 -1.6982  0.8869
 7480SOL     OW34072   4.399   2.385   2.475 -0.3358  0.2747  0.4895
 7480SOL    HW134073   4.331   2.392   2.541  1.6055 -0.1217  2.5095
 7480SOL    HW234074   4.356   2.419   2.396  0.2272  2.2191  1.0074
 7481SOL     OW34075   2.405   4.576   8.787  0.0099  0.1479  0.2993
 7481SOL    HW134076   2.416   4.571   8.692 -0.1848 -0.1528  0.2922
 7481SOL    HW234077   2.440   4.492   8.817 -2.4268 -0.7511  0.6035
 7482SOL     OW34078   1.608   3.883   5.952  0.7346 -0.7893 -0.3477
 7482SOL    HW134079   1.546   3.955   5.962  0.5292 -0.9806 -0.2420
 7482SOL    HW234080   1.690   3.901   5.998 -0.5179  1.9407  0.7939
 7483SOL     OW34081   0.944   4.073   4.548 -0.2828 -0.0873  0.1295
 7483SOL    HW134082   1.022   4.024   4.523 -0.2483  0.2258 -0.3751
 7483SOL    HW234083   0.876   4.031   4.497  1.4108 -1.6250 -0.8427
 7484SOL     OW34084   1.910   2.666   1.781  0.1854  0.3715 -0.1079
 7484SOL    HW134085   1.836   2.605   1.782  2.0433 -1.8726 -2.4692
 7484SOL    HW234086   1.983   2.609   1.807 -0.2311  0.5755  1.5400
 7485SOL     OW34087   3.636   1.592   1.601  0.0028  0.2720 -0.3286
 7485SOL    HW134088   3.665   1.549   1.520 -0.4495 -1.3366  0.3667
 7485SOL    HW234089   3.555   1.634   1.571 -1.7726 -0.9328  2.7339
 7486SOL     OW34090   0.698   0.001   8.732 -0.1985 -0.2668  0.2908
 7486SOL    HW134091   0.727   4.697   8.651  0.8005  2.3020 -0.6940
 7486SOL    HW234092   0.618   0.044   8.701 -1.0206 -1.2519  1.0593
 7487SOL     OW34093   1.393   2.032   5.546 -0.5954 -0.7097 -0.5290
 7487SOL    HW134094   1.388   1.993   5.458  2.5215 -1.0895 -0.5204
 7487SOL    HW234095   1.412   1.955   5.600  0.2739  1.3037  2.0329
 7488SOL     OW34096   3.169   2.050   2.162 -0.5201 -0.1829  0.3723
 7488SOL    HW134097   3.091   2.026   2.212 -0.4951  1.0484  1.0051
 7488SOL    HW234098   3.124   2.094   2.089  1.3444  1.2032  0.0716
 7489SOL     OW34099   1.028   0.631   2.135 -0.2948  0.6248 -0.1526
 7489SOL    HW134100   1.009   0.588   2.218  0.5854 -1.2362 -0.9211
 7489SOL    HW234101   1.112   0.668   2.161 -1.3201  2.5108  0.4902
 7490SOL     OW34102   0.274   3.668   9.074 -0.2049 -0.2177  0.0377
 7490SOL    HW134103   0.266   3.676   8.979  2.3062  0.9348 -0.0986
 7490SOL    HW234104   0.268   3.763   9.085  1.3849 -0.0634 -0.4187
 7491SOL     OW34105   3.152   2.348  15.251  0.4847 -0.3902 -0.0297
 7491SOL    HW134106   3.238   2.353  15.210  1.0744  2.0465  1.4977
 7491SOL    HW234107   3.128   2.441  15.246 -0.7254 -0.7371 -0.5513
 7492SOL     OW34108   0.437   2.214  13.074  0.0363 -0.4183  0.4278
 7492SOL    HW134109   0.439   2.205  12.978  2.3463  3.5352  0.0894
 7492SOL    HW234110   0.476   2.302  13.076  0.0092 -0.3786 -0.8418
 7493SOL     OW34111   2.429   1.383   5.323 -0.6710  0.2231 -0.0218
 7493SOL    HW134112   2.358   1.337   5.366 -2.3178  0.7539 -2.1583
 7493SOL    HW234113   2.500   1.353   5.380 -0.6029  1.1183  0.3619
 7494SOL     OW34114   1.287   4.559   8.965  0.0513  0.5889  0.2032
 7494SOL    HW134115   1.312   4.543   8.874 -0.3612  0.2038  0.1565
 7494SOL    HW234116   1.371   4.535   9.003 -0.3296  0.6396  1.0721
 7495SOL     OW34117   2.745   3.611  10.866 -0.6218 -0.1905 -0.3219
 7495SOL    HW134118   2.820   3.551  10.856 -0.3547  0.2457 -0.9685
 7495SOL    HW234119   2.763   3.690  10.815  0.2876  0.0642  0.3751
 7496SOL     OW34120   2.885   0.796   3.540 -0.5765 -1.0027 -0.7925
 7496SOL    HW134121   2.864   0.858   3.610 -0.5559 -2.1851  0.2658
 7496SOL    HW234122   2.940   0.734   3.588 -0.0875  0.8116  1.0179
 7497SOL     OW34123   2.792   4.679   3.997  0.3358  0.7197  0.7480
 7497SOL    HW134124   2.711   4.714   4.036 -1.3305 -1.7682 -0.4965
 7497SOL    HW234125   2.784   4.596   3.951 -1.2508  0.4710  1.4533
 7498SOL     OW34126   3.629   0.159   5.839 -0.5364  0.2391  0.3039
 7498SOL    HW134127   3.662   0.123   5.921 -1.1644 -2.6170 -0.7229
 7498SOL    HW234128   3.671   0.245   5.840  0.6511 -0.3400  0.2286
 7499SOL     OW34129   2.229   1.356   3.118 -0.5316 -0.3410  0.1176
 7499SOL    HW134130   2.278   1.336   3.198 -0.4761 -0.9149 -0.0584
 7499SOL    HW234131   2.237   1.271   3.074 -0.0092 -0.3026  0.1358
 7500SOL     OW34132   4.402   4.305   3.691 -0.2442 -0.2237  0.3494
 7500SOL    HW134133   4.446   4.272   3.769 -0.6946 -1.5489  0.0406
 7500SOL    HW234134   4.352   4.239   3.642  0.7735 -1.3473  0.8312
 7501SOL     OW34135   2.175   1.200   7.514 -0.1452  0.6260 -0.1273
 7501SOL    HW134136   2.164   1.112   7.478  0.8920 -0.4865  2.2596
 7501SOL    HW234137   2.146   1.258   7.444  1.6766  0.7682 -0.7525
 7502SOL     OW34138   1.037   3.709  16.284 -0.0165 -0.1211  0.1806
 7502SOL    HW134139   0.987   3.672  16.211  0.5445 -2.6549  1.0807
 7502SOL    HW234140   1.082   3.782  16.242  0.8145 -0.5296  0.3493
 7503SOL     OW34141   1.085   2.925   9.207  0.4803 -0.1111 -0.4186
 7503SOL    HW134142   1.149   2.913   9.276 -0.8896 -1.0919  0.6819
 7503SOL    HW234143   1.009   2.878   9.241  0.2086  0.2576 -0.5123
 7504SOL     OW34144   2.033   0.784   6.614 -0.4936 -0.5106 -0.5666
 7504SOL    HW134145   1.985   0.706   6.585 -1.7821  0.0953 -0.0300
 7504SOL    HW234146   1.981   0.823   6.684 -0.6943 -1.6922 -0.0644
 7505SOL     OW34147   1.944   0.482   1.471 -0.0255 -0.1964  0.6463
 7505SOL    HW134148   1.952   0.397   1.514 -1.4193 -0.0914  1.1130
 7505SOL    HW234149   2.009   0.533   1.519 -0.5108  0.6851  0.3673
 7506SOL     OW34150   1.099   3.409   3.691 -0.1913  0.7311 -0.1059
 7506SOL    HW134151   1.154   3.334   3.669 -0.1570  0.7272 -0.0083
 7506SOL    HW234152   1.027   3.412   3.628 -0.0175 -0.3292 -0.3596
 7507SOL     OW34153   1.403   1.205   4.214  0.0969 -0.4061  0.0029
 7507SOL    HW134154   1.329   1.145   4.221 -0.1640 -0.1869 -0.8961
 7507SOL    HW234155   1.380   1.286   4.260 -0.6821 -0.0982 -0.9200
 7508SOL     OW34156   4.086   3.357   2.186  0.1345  0.2326 -0.1211
 7508SOL    HW134157   4.121   3.309   2.260  1.7350 -2.3858 -2.5622
 7508SOL    HW234158   4.157   3.378   2.125 -0.3364  0.6171 -0.5471
 7509SOL     OW34159   2.935   0.661   0.700 -0.1910  0.6298 -0.7449
 7509SOL    HW134160   2.855   0.636   0.654 -0.5450 -0.5747  0.5440
 7509SOL    HW234161   2.905   0.665   0.790 -1.7014 -0.5225 -1.1974
 7510SOL     OW34162   1.706   1.794  16.463  0.0146 -0.6588  0.5380
 7510SOL    HW134163   1.746   1.731  16.523 -0.1039 -0.2688  1.0202
 7510SOL    HW234164   1.615   1.767  16.451  0.2336 -1.7151  1.2933
 7511SOL     OW34165   1.850   1.150   9.895 -0.2162  0.0126  0.5387
 7511SOL    HW134166   1.756   1.168   9.895 -0.0932  0.6470 -0.8399
 7511SOL    HW234167   1.888   1.232   9.926  1.1028 -0.1706 -0.5929
 7512SOL     OW34168   0.209   0.744   9.651  0.2811 -0.1744  0.1857
 7512SOL    HW134169   0.163   0.665   9.680  0.9686 -0.6984 -0.1507
 7512SOL    HW234170   0.301   0.719   9.660  0.0512 -0.5584  1.6203
 7513SOL     OW34171   1.210   3.239  15.990 -0.3457 -0.5559  0.5067
 7513SOL    HW134172   1.217   3.261  15.897 -0.3621 -1.1737  0.3616
 7513SOL    HW234173   1.303   3.244  16.012 -0.4563  0.3846  0.7848
 7514SOL     OW34174   1.699   3.273   3.607  0.5702 -0.8229 -0.0511
 7514SOL    HW134175   1.741   3.189   3.622 -1.9560 -2.2396 -0.9071
 7514SOL    HW234176   1.734   3.303   3.523 -3.0605  0.8248 -1.0089
 7515SOL     OW34177   4.465   2.312   6.611 -0.4157  0.0394 -0.1416
 7515SOL    HW134178   4.509   2.270   6.685  0.7002  0.7387 -0.4078
 7515SOL    HW234179   4.434   2.232   6.567 -1.3058 -0.5993  1.6322
 7516SOL     OW34180   2.979   0.583   2.571 -0.3729 -0.4938 -0.2405
 7516SOL    HW134181   3.038   0.548   2.504  1.9754 -0.7775  2.0208
 7516SOL    HW234182   2.950   0.660   2.522  1.7055  1.0436  0.9621
 7517SOL     OW34183   3.916   4.691  15.905  0.6200  0.8439 -0.3098
 7517SOL    HW134184   3.840   4.688  15.847 -0.9057  1.7225  1.6210
 7517SOL    HW234185   3.989   4.662  15.851  1.3055  1.3612  0.3310
 7518SOL     OW34186   2.055   2.541   2.285  0.4815  0.5851  0.2406
 7518SOL    HW134187   2.009   2.621   2.259  0.1915  0.9255  1.7886
 7518SOL    HW234188   1.982   2.487   2.316  0.2313 -0.2949 -1.8826
 7519SOL     OW34189   1.899   1.765   8.406 -0.7511 -0.1982 -0.4019
 7519SOL    HW134190   1.812   1.798   8.428 -0.8309 -0.4826 -0.2905
 7519SOL    HW234191   1.885   1.671   8.414  1.0400 -0.3930  0.5167
 7520SOL     OW34192   4.111   0.559   4.128  0.1872  0.1647  0.2313
 7520SOL    HW134193   4.159   0.479   4.150  0.9077  0.9531  1.4713
 7520SOL    HW234194   4.132   0.612   4.205 -1.9612  0.6270  0.5027
 7521SOL     OW34195   2.984   1.962  16.920 -0.2176  0.2033 -0.6137
 7521SOL    HW134196   3.044   1.907  16.970 -0.8736 -1.2219 -1.3629
 7521SOL    HW234197   2.979   2.036  16.980 -0.4877 -0.9114  0.7501
 7522SOL     OW34198   2.824   2.470   0.185  0.1342 -0.0668  0.2108
 7522SOL    HW134199   2.807   2.398   0.125  1.1724 -1.5279  1.6566
 7522SOL    HW234200   2.872   2.537   0.136  1.7071 -3.4961 -2.8934
 7523SOL     OW34201   2.728   2.221   5.120  0.3328 -0.8595  0.0979
 7523SOL    HW134202   2.803   2.280   5.133  0.3162 -0.9502  0.5807
 7523SOL    HW234203   2.777   2.141   5.142 -2.4848 -2.3158  1.0226
 7524SOL     OW34204   3.583   1.359   2.723 -0.0800 -0.1730 -0.0907
 7524SOL    HW134205   3.607   1.314   2.804  0.2763  2.5907  1.3409
 7524SOL    HW234206   3.508   1.415   2.745  0.3366  0.1864  0.4328
 7525SOL     OW34207   3.236   4.012  15.714  0.0413  0.4695  0.0414
 7525SOL    HW134208   3.322   3.993  15.677 -0.1071 -0.1794  0.0427
 7525SOL    HW234209   3.198   4.077  15.654  0.1113  0.6544  0.1983
 7526SOL     OW34210   2.876   0.372   7.760  0.5195 -0.5349 -0.7533
 7526SOL    HW134211   2.948   0.424   7.797  0.0225 -1.1419  1.0522
 7526SOL    HW234212   2.931   0.296   7.739 -0.0590 -0.5964 -1.9930
 7527SOL     OW34213   3.233   3.599  11.253  0.9789 -0.2883  0.3032
 7527SOL    HW134214   3.285   3.671  11.290  1.1011 -1.3748  2.2433
 7527SOL    HW234215   3.298   3.560  11.195  0.7201 -0.1789 -0.0611
 7528SOL     OW34216   3.307   4.292   5.271 -0.2326 -0.2277 -0.1864
 7528SOL    HW134217   3.329   4.240   5.194  0.4468 -0.6307  0.2813
 7528SOL    HW234218   3.233   4.348   5.249  0.0958 -0.1565 -1.0850
 7529SOL     OW34219   3.308   4.036   8.189  0.1293 -0.2970  0.0487
 7529SOL    HW134220   3.361   3.975   8.240  0.0705 -0.1849  0.2413
 7529SOL    HW234221   3.227   3.986   8.192 -0.9642  1.6812  3.2309
 7530SOL     OW34222   4.578   1.575   7.021  0.8320  0.5804  0.5984
 7530SOL    HW134223   4.501   1.533   6.982  2.7048 -1.5447 -0.7919
 7530SOL    HW234224   4.614   1.522   7.092 -1.4160 -0.7709  0.7389
 7531SOL     OW34225   3.587   2.291   8.677 -0.3987 -0.1681  0.2511
 7531SOL    HW134226   3.593   2.260   8.586 -1.3587  1.2985 -0.3020
 7531SOL    HW234227   3.492   2.295   8.686 -0.4011  0.1603  0.0679
 7532SOL     OW34228   4.472   4.487  10.202 -0.0033  0.2438  0.4796
 7532SOL    HW134229   4.519   4.570  10.200  0.7045 -0.1730 -0.2341
 7532SOL    HW234230   4.407   4.520  10.139  0.7056 -0.1943 -0.4741
 7533SOL     OW34231   0.454   3.357   4.256 -0.0245  0.4838  0.1003
 7533SOL    HW134232   0.417   3.396   4.334 -1.0832  1.2998 -0.8050
 7533SOL    HW234233   0.374   3.334   4.208  1.4075 -0.8554 -1.7001
 7534SOL     OW34234   4.735   4.063   5.152 -0.4930  0.7328  0.0419
 7534SOL    HW134235   4.668   4.026   5.209 -0.4346  0.4149 -0.0916
 7534SOL    HW234236   0.052   3.991   5.119 -0.4112  0.6086  0.4421
 7535SOL     OW34237   1.118   2.235   9.756 -0.1482  0.1755  0.1056
 7535SOL    HW134238   1.165   2.176   9.696 -0.2969 -1.0237  1.1800
 7535SOL    HW234239   1.125   2.203   9.846 -0.2634  2.2116  0.8378
 7536SOL     OW34240   3.908   4.282  17.300 -0.0019  0.4139  0.5964
 7536SOL    HW134241   3.936   4.246  17.216 -0.3583 -0.3170  0.7897
 7536SOL    HW234242   3.890   4.371  17.270 -1.0422 -0.2645 -0.7978
 7537SOL     OW34243   4.592   2.988   3.453  0.0057  0.0752  0.0292
 7537SOL    HW134244   4.567   2.905   3.413  1.8629 -0.0988 -0.7721
 7537SOL    HW234245   4.514   3.007   3.504 -0.9510 -4.3562  0.1888
 7538SOL     OW34246   3.138   0.471   8.886  0.3350 -0.3287  0.2983
 7538SOL    HW134247   3.219   0.497   8.841 -0.3844  0.4212 -0.5638
 7538SOL    HW234248   3.169   0.469   8.976  1.6946 -3.5791 -0.2166
 7539SOL     OW34249   1.715   2.144   4.108 -0.2335 -0.0382 -0.2031
 7539SOL    HW134250   1.665   2.128   4.188 -1.1765 -2.2271 -1.2332
 7539SOL    HW234251   1.776   2.070   4.112  0.5012  0.5767 -0.1419
 7540SOL     OW34252   4.572   1.612   4.689  0.4372 -0.0425 -0.6220
 7540SOL    HW134253   4.628   1.546   4.728 -0.4620  0.1043  0.9173
 7540SOL    HW234254   4.545   1.570   4.607 -2.4892 -1.9891  1.3680
 7541SOL     OW34255   3.273   3.473  13.857  0.2138  0.3302 -0.3457
 7541SOL    HW134256   3.217   3.549  13.846  1.6773  1.4289 -0.2098
 7541SOL    HW234257   3.218   3.402  13.823 -1.2596  1.2953  0.0685
 7542SOL     OW34258   3.767   0.049   6.457 -0.5519  0.1756  0.0822
 7542SOL    HW134259   3.715   0.027   6.534 -1.3044  1.1153 -0.1587
 7542SOL    HW234260   3.721   0.126   6.423 -0.1074 -0.4619 -1.9786
 7543SOL     OW34261   4.705   4.074   4.806 -0.1289 -0.4494  0.1452
 7543SOL    HW134262   0.024   4.128   4.860  1.8320  0.0920 -2.4324
 7543SOL    HW234263   4.638   4.059   4.872 -1.9185 -1.4905 -1.9147
 7544SOL     OW34264   1.469   4.352   6.482  0.0139 -0.1427 -0.7440
 7544SOL    HW134265   1.378   4.325   6.486 -0.4551  1.4294 -0.8230
 7544SOL    HW234266   1.497   4.350   6.574  2.2798  2.0692 -1.3832
 7545SOL     OW34267   1.892   3.035  14.692 -0.2005  0.4482 -0.5432
 7545SOL    HW134268   1.872   3.106  14.631  0.4022  1.1491  0.0655
 7545SOL    HW234269   1.812   3.042  14.745 -0.2097 -2.6320 -0.1918
 7546SOL     OW34270   2.240   1.940   7.792  0.3884  0.4424 -0.3512
 7546SOL    HW134271   2.288   1.960   7.872 -2.8846  0.1125  1.6970
 7546SOL    HW234272   2.253   2.015   7.735 -2.8338  2.9571  2.2051
 7547SOL     OW34273   0.737   2.832   4.446  0.3067 -0.3772  0.2570
 7547SOL    HW134274   0.756   2.870   4.361  0.3626 -0.8942  0.0356
 7547SOL    HW234275   0.825   2.799   4.465  0.4363 -1.9447 -3.1521
 7548SOL     OW34276   4.285   2.817   3.209  0.1587  0.1886  0.1836
 7548SOL    HW134277   4.258   2.782   3.125  2.7811 -1.7815  0.1565
 7548SOL    HW234278   4.310   2.906   3.184 -0.8870  0.7127  0.9654
 7549SOL     OW34279   1.728   3.003   4.326 -0.0512 -0.5134  0.6802
 7549SOL    HW134280   1.742   3.083   4.275  0.2175  0.7292  2.6896
 7549SOL    HW234281   1.640   3.018   4.360 -0.5011  1.1770 -1.2459
 7550SOL     OW34282   2.404   3.576   1.730  0.2782  0.1187 -0.7593
 7550SOL    HW134283   2.372   3.511   1.792 -1.2514 -1.3696 -3.1195
 7550SOL    HW234284   2.489   3.606   1.763 -0.5861 -2.4271  3.7632
 7551SOL     OW34285   0.227   1.724   3.635  0.1058  0.1083 -0.1868
 7551SOL    HW134286   0.176   1.800   3.665  1.0438  0.9886 -0.8094
 7551SOL    HW234287   0.157   1.669   3.601  1.5515 -0.9789 -1.3836
 7552SOL     OW34288   1.880   0.303  16.968 -0.3297 -0.0795  0.2820
 7552SOL    HW134289   1.837   0.235  17.020 -0.8666  0.1088  0.0842
 7552SOL    HW234290   1.812   0.369  16.954  1.8382  2.4524  1.6476
 7553SOL     OW34291   4.697   4.606  17.298 -0.3774 -0.9352 -0.1303
 7553SOL    HW134292   4.735   4.542  17.238  1.3901  0.1908 -0.2219
 7553SOL    HW234293   4.703   4.558  17.381 -1.6010 -2.1015 -0.7157
 7554SOL     OW34294   2.252   2.436   3.988 -0.4804  0.3738  0.1701
 7554SOL    HW134295   2.198   2.357   3.987 -0.9456  0.7363 -1.7168
 7554SOL    HW234296   2.265   2.455   3.895  0.2776  1.3262  0.4727
 7555SOL     OW34297   0.867   4.623   3.897  0.2208  0.6760  0.0470
 7555SOL    HW134298   0.825   4.537   3.902  1.3023  0.2026  0.9191
 7555SOL    HW234299   0.812   4.654   3.825 -1.6753 -3.2681 -0.2244
 7556SOL     OW34300   1.895   0.918   6.795 -0.0520  0.2672  0.5075
 7556SOL    HW134301   1.881   1.007   6.761 -2.0628 -0.2053  0.1351
 7556SOL    HW234302   1.887   0.942   6.887  0.8879  1.1385  0.3669
 7557SOL     OW34303   0.269   2.341   1.655  0.1864  0.3660  0.1711
 7557SOL    HW134304   0.225   2.356   1.571  0.3831 -0.1744 -0.0252
 7557SOL    HW234305   0.252   2.247   1.654 -1.3990  0.6319  1.6532
 7558SOL     OW34306   2.895   4.520   9.831 -0.2302  0.3341  0.0797
 7558SOL    HW134307   2.849   4.586   9.884 -3.0826 -2.7922  1.4573
 7558SOL    HW234308   2.836   4.446   9.840  0.9682 -0.6485 -0.2648
 7559SOL     OW34309   4.257   1.216   3.358 -0.1359 -0.4613  0.2769
 7559SOL    HW134310   4.319   1.144   3.359  1.7300  1.0864 -3.3731
 7559SOL    HW234311   4.254   1.242   3.266 -0.3889  2.1812  1.0105
 7560SOL     OW34312   4.435   1.512   3.407 -0.1718 -0.4856 -0.1684
 7560SOL    HW134313   4.523   1.480   3.426 -0.2437 -0.6737 -0.1517
 7560SOL    HW234314   4.384   1.464   3.472 -0.5251  1.5538  1.0554
 7561SOL     OW34315   2.092   0.243   8.793  0.5832 -0.0089  0.8354
 7561SOL    HW134316   2.141   0.322   8.815 -2.1381  2.0583 -0.3837
 7561SOL    HW234317   2.118   0.173   8.852  0.6371 -0.5989  0.1141
 7562SOL     OW34318   3.864   3.750   8.188  0.0339 -0.7800 -0.1397
 7562SOL    HW134319   3.861   3.792   8.102 -0.1692 -0.1010  0.1921
 7562SOL    HW234320   3.951   3.713   8.180  0.0719 -1.2444  2.3995
 7563SOL     OW34321   4.330   2.799   2.035 -0.2678  0.3687  0.4522
 7563SOL    HW134322   4.284   2.871   2.077 -1.6352 -1.0877  1.4689
 7563SOL    HW234323   4.405   2.839   1.991  0.7392  1.7059  3.4045
 7564SOL     OW34324   3.264   1.899   7.713 -0.0380  0.3604  0.1488
 7564SOL    HW134325   3.343   1.949   7.736  0.6474 -0.1959 -0.9659
 7564SOL    HW234326   3.202   1.970   7.721 -0.4254  0.1196 -0.7379
 7565SOL     OW34327   3.067   1.274   4.783  0.4717 -0.1894  0.4080
 7565SOL    HW134328   3.005   1.266   4.710 -0.1130  0.6243  0.8161
 7565SOL    HW234329   3.019   1.231   4.854  1.1375 -1.9610 -0.2084
 7566SOL     OW34330   2.463   4.256   9.018 -0.3024  0.2240  0.1173
 7566SOL    HW134331   2.377   4.289   8.993  0.1421  2.0675  0.9672
 7566SOL    HW234332   2.486   4.317   9.089 -0.8572 -0.4169  0.8474
 7567SOL     OW34333   1.567   3.227   9.840  0.3726  0.5761  0.0717
 7567SOL    HW134334   1.639   3.287   9.817  1.2419 -0.3225  0.4239
 7567SOL    HW234335   1.506   3.295   9.869  0.8987  1.3190 -0.5466
 7568SOL     OW34336   0.728   2.184   6.664  0.2678 -0.0204 -0.9867
 7568SOL    HW134337   0.740   2.111   6.603 -1.2031 -2.6618  1.9064
 7568SOL    HW234338   0.632   2.186   6.663  0.2626 -0.1168 -0.1774
 7569SOL     OW34339   1.524   1.439  17.468  0.3410 -0.1256  0.0177
 7569SOL    HW134340   1.499   1.532  17.469  2.2105  0.3822 -0.7964
 7569SOL    HW234341   1.483   1.426  17.382  1.2352 -0.5502 -0.3452
 7570SOL     OW34342   3.957   2.437   0.251  0.8251 -0.5066  0.0651
 7570SOL    HW134343   3.885   2.459   0.310  1.0269  1.5685 -0.4398
 7570SOL    HW234344   3.927   2.490   0.177 -0.2619  0.9842  1.5542
 7571SOL     OW34345   3.558   1.306  12.776  0.0528  0.0621 -0.9516
 7571SOL    HW134346   3.634   1.358  12.799  1.7615 -2.1196 -1.6630
 7571SOL    HW234347   3.570   1.316  12.681  1.2898  0.3553 -0.7685
 7572SOL     OW34348   2.425   0.460  10.986 -0.0796 -0.0595 -0.2351
 7572SOL    HW134349   2.434   0.497  11.074  0.6046 -1.4100  0.2626
 7572SOL    HW234350   2.396   0.375  11.018  0.7865  0.6906  2.5076
 7573SOL     OW34351   0.017   4.486  13.321 -0.4038 -0.7219  0.1791
 7573SOL    HW134352   4.671   4.439  13.327 -0.3081 -0.9180 -0.0095
 7573SOL    HW234353   0.016   4.511  13.229 -0.8232 -0.8284  0.1509
 7574SOL     OW34354   0.169   2.072   5.321 -0.2295  0.3836 -0.1700
 7574SOL    HW134355   0.192   2.084   5.229  0.5343  1.9937  0.2471
 7574SOL    HW234356   0.223   1.997   5.346 -0.0996  1.3375  2.3843
 7575SOL     OW34357   3.826   3.859   3.194 -0.2814  0.6295 -0.1892
 7575SOL    HW134358   3.854   3.938   3.241  0.0540 -0.6639  1.7809
 7575SOL    HW234359   3.876   3.870   3.113  2.0013  0.0782  1.1475
 7576SOL     OW34360   0.230   2.963   4.280 -0.0752 -0.4834  0.2910
 7576SOL    HW134361   0.165   2.999   4.340  2.1918  2.4920  0.9936
 7576SOL    HW234362   0.204   2.872   4.279 -3.2878  0.4626 -0.4282
 7577SOL     OW34363   0.093   3.547  16.763 -0.2456 -0.4893  0.1214
 7577SOL    HW134364   0.089   3.452  16.753  0.7358 -0.5990  0.8087
 7577SOL    HW234365   0.039   3.576  16.690  1.0095  0.9727 -0.2174
 7578SOL     OW34366   1.265   3.199   3.056  0.4400  0.7662 -0.1269
 7578SOL    HW134367   1.213   3.223   3.133 -0.1684  0.6905 -0.5173
 7578SOL    HW234368   1.315   3.128   3.097 -0.7286 -0.3512 -0.6304
 7579SOL     OW34369   4.091   2.002   7.950  0.0631 -0.9875 -0.0990
 7579SOL    HW134370   4.003   2.034   7.932  0.8503  0.3910 -1.4368
 7579SOL    HW234371   4.096   2.026   8.042  1.9179 -0.9878 -0.1866
 7580SOL     OW34372   1.746   2.948   6.300  0.0802 -0.0223  0.2471
 7580SOL    HW134373   1.813   3.001   6.257  0.6423  0.5485  1.8439
 7580SOL    HW234374   1.671   3.008   6.297  0.3202  0.2756  0.1380
 7581SOL     OW34375   0.556   0.434   2.559  0.3393 -0.2685  0.6149
 7581SOL    HW134376   0.508   0.388   2.628  1.5729 -0.1148  1.5734
 7581SOL    HW234377   0.494   0.431   2.487  0.0182 -1.5938  0.9339
 7582SOL     OW34378   1.083   3.888   5.156 -0.5850 -0.0130  0.0294
 7582SOL    HW134379   1.082   3.796   5.130 -1.6736  0.6900 -2.4404
 7582SOL    HW234380   0.992   3.910   5.178  0.2130  4.4225 -1.1025
 7583SOL     OW34381   0.924   1.659  16.184  0.1095 -0.3221 -0.0376
 7583SOL    HW134382   0.998   1.694  16.135 -0.1584 -1.5533 -1.3459
 7583SOL    HW234383   0.850   1.657  16.123  0.0165  2.1336  0.0288
 7584SOL     OW34384   1.569   2.321  10.306  0.5211  0.1225  0.0790
 7584SOL    HW134385   1.514   2.399  10.301  2.3684  1.4153 -0.2727
 7584SOL    HW234386   1.638   2.358  10.360  1.1804 -1.7424  0.5145
 7585SOL     OW34387   4.420   3.918   3.227  0.4948 -0.1044 -0.1390
 7585SOL    HW134388   4.337   3.892   3.267 -0.0380  3.0188  0.7307
 7585SOL    HW234389   4.412   4.013   3.224 -3.0659 -0.3840  1.0437
 7586SOL     OW34390   1.418   1.903   4.599 -0.0899  0.3559  0.5246
 7586SOL    HW134391   1.440   1.953   4.678 -0.6964  1.3723  0.0571
 7586SOL    HW234392   1.464   1.822   4.618 -0.3194 -0.4332 -2.2577
 7587SOL     OW34393   4.465   3.978   5.840  0.2222  0.2713  0.2216
 7587SOL    HW134394   4.484   3.884   5.846 -1.3339 -0.2592 -3.1720
 7587SOL    HW234395   4.370   3.969   5.840  0.3273 -0.9189 -0.0726
 7588SOL     OW34396   1.910   0.132  13.671 -0.2061 -0.0902  0.6336
 7588SOL    HW134397   1.988   0.188  13.670  0.5167 -1.1082 -0.0301
 7588SOL    HW234398   1.905   0.118  13.576  0.7803 -0.7412  0.6729
 7589SOL     OW34399   2.616   3.630  12.132  0.1256 -0.3047  0.4149
 7589SOL    HW134400   2.670   3.692  12.180 -0.1091  1.1934 -1.2770
 7589SOL    HW234401   2.679   3.570  12.092  2.3426 -0.9297  4.9269
 7590SOL     OW34402   0.169   2.960   5.952  0.0780  1.2160  0.0300
 7590SOL    HW134403   0.215   2.878   5.932 -2.9753 -0.4544 -0.0463
 7590SOL    HW234404   0.225   3.017   5.899  1.6646  0.9209  1.3933
 7591SOL     OW34405   3.341   2.775   2.478  0.6375 -0.3800 -0.2621
 7591SOL    HW134406   3.292   2.809   2.404 -0.7495 -2.9679 -0.5043
 7591SOL    HW234407   3.423   2.818   2.453  1.1090 -1.1022  0.0440
 7592SOL     OW34408   0.707   3.491   6.185 -0.0290 -0.2462 -0.0434
 7592SOL    HW134409   0.640   3.439   6.141  1.8159 -0.2649 -2.7711
 7592SOL    HW234410   0.736   3.557   6.123  0.7979  1.2310  1.8982
 7593SOL     OW34411   4.127   3.536  12.385 -0.0960  0.3550  0.4847
 7593SOL    HW134412   4.160   3.450  12.359  5.2832  2.1511  1.3912
 7593SOL    HW234413   4.041   3.517  12.425  0.2111 -0.7699  0.6087
 7594SOL     OW34414   2.310   0.998   7.306  0.2661  0.1854  0.4465
 7594SOL    HW134415   2.338   0.913   7.340  1.3291  0.2243 -0.3329
 7594SOL    HW234416   2.258   0.973   7.230  3.9478 -2.4275 -1.1731
 7595SOL     OW34417   2.272   1.815  13.632  0.1731 -0.1780  0.0638
 7595SOL    HW134418   2.222   1.753  13.579 -0.8443  1.3589 -0.7856
 7595SOL    HW234419   2.300   1.875  13.563  1.0867  0.2317  0.7925
 7596SOL     OW34420   1.220   2.320  15.621  0.3833  0.3994 -0.1234
 7596SOL    HW134421   1.131   2.285  15.620  1.1945 -1.6222  1.1781
 7596SOL    HW234422   1.212   2.375  15.543  0.4092 -0.2333 -0.5661
 7597SOL     OW34423   1.941   2.767   2.247 -1.2398 -0.0562 -0.8104
 7597SOL    HW134424   1.938   2.823   2.169 -0.1336  1.0145 -0.0755
 7597SOL    HW234425   1.968   2.834   2.310  1.1649 -2.4471  0.6801
 7598SOL     OW34426   2.994   3.518   0.714  0.2346  0.1641 -0.4871
 7598SOL    HW134427   3.068   3.465   0.684  0.0666 -1.0667  1.3180
 7598SOL    HW234428   3.029   3.585   0.772 -1.9642  0.0907  0.9220
 7599SOL     OW34429   0.687   4.702   3.677 -0.2135  0.3361 -0.2782
 7599SOL    HW134430   0.736   0.012   3.611 -0.0445  0.1252 -0.3054
 7599SOL    HW234431   0.630   0.038   3.698 -0.3628 -0.0481  0.6642
 7600SOL     OW34432   1.293   0.721  11.984  0.1851 -0.4820  0.2271
 7600SOL    HW134433   1.336   0.638  12.006 -0.0375  0.0348  2.5316
 7600SOL    HW234434   1.209   0.689  11.950  0.4133  0.1778 -0.9896
 7601SOL     OW34435   2.612   3.189  11.882 -0.3492 -0.2921 -0.2931
 7601SOL    HW134436   2.611   3.178  11.787  2.1510 -1.0208 -0.2163
 7601SOL    HW234437   2.661   3.113  11.912 -1.3405 -0.3376  1.2205
 7602SOL     OW34438   0.138   1.467   7.802 -0.2540  0.3696  0.0149
 7602SOL    HW134439   0.138   1.456   7.707 -1.0521  1.4539 -0.1086
 7602SOL    HW234440   0.170   1.557   7.801  0.9110 -0.0327  0.4972
 7603SOL     OW34441   2.679   3.166   9.956 -0.3182  0.4713  0.3050
 7603SOL    HW134442   2.709   3.147  10.045 -0.3560 -3.1555 -0.4409
 7603SOL    HW234443   2.589   3.192   9.970 -0.3661  0.5341 -0.1478
 7604SOL     OW34444   3.916   4.605   4.795  0.2037 -0.0653  0.2405
 7604SOL    HW134445   3.840   4.548   4.785  0.8079 -0.1729 -4.0614
 7604SOL    HW234446   3.906   4.668   4.723  0.2952 -1.1264 -0.7105
 7605SOL     OW34447   0.949   4.714   1.004  1.2827 -0.0077  0.2156
 7605SOL    HW134448   0.999   4.736   1.083  1.3070 -0.8622  0.4399
 7605SOL    HW234449   1.010   4.656   0.959 -1.3924 -1.1444 -1.9324
 7606SOL     OW34450   2.464   1.629  14.642  1.2211  0.2503  0.2780
 7606SOL    HW134451   2.463   1.546  14.593 -1.6098 -1.0256  2.5342
 7606SOL    HW234452   2.402   1.688  14.600  1.8268  0.1890 -0.6951
 7607SOL     OW34453   3.606   2.088  13.234  0.4354  0.2708  0.1447
 7607SOL    HW134454   3.575   2.112  13.147 -1.5304  3.3131  1.6971
 7607SOL    HW234455   3.683   2.033  13.219  0.4205  0.2133  0.2747
 7608SOL     OW34456   2.648   4.488   1.837 -0.6473 -0.5124 -0.0543
 7608SOL    HW134457   2.740   4.478   1.812  0.0061  1.5015  1.5702
 7608SOL    HW234458   2.605   4.446   1.763 -1.1702 -0.0682 -0.0034
 7609SOL     OW34459   2.939   2.623   5.652  0.0390 -0.2233  0.3646
 7609SOL    HW134460   3.017   2.639   5.706  1.6816 -2.2988 -1.3876
 7609SOL    HW234461   2.951   2.678   5.575 -0.0088  0.0883  0.5770
 7610SOL     OW34462   0.482   0.073   6.293  0.2393  0.3394  0.0870
 7610SOL    HW134463   0.425   0.135   6.247  0.3222  0.0074 -0.4670
 7610SOL    HW234464   0.564   0.074   6.244 -1.3402  2.6805 -2.5124
 7611SOL     OW34465   0.780   3.328   8.147 -0.2088  0.3706  0.2766
 7611SOL    HW134466   0.747   3.242   8.122 -0.4910  0.6342 -0.2487
 7611SOL    HW234467   0.834   3.307   8.224 -2.5178 -2.4065  1.1346
 7612SOL     OW34468   4.258   1.611   1.075  0.7832  0.4858  0.5153
 7612SOL    HW134469   4.178   1.624   1.127  1.7123  0.7992  1.8709
 7612SOL    HW234470   4.224   1.618   0.986 -3.3743  0.6754  2.0937
 7613SOL     OW34471   4.529   1.203  15.863 -0.1660  0.5876 -0.0544
 7613SOL    HW134472   4.441   1.172  15.844 -0.8840  0.6487  3.2406
 7613SOL    HW234473   4.580   1.184  15.784  1.1242  0.2322  0.8738
 7614SOL     OW34474   3.010   2.338   7.120 -0.2757 -0.3931  0.7654
 7614SOL    HW134475   2.947   2.287   7.171 -0.1706 -2.2379 -0.9258
 7614SOL    HW234476   3.086   2.338   7.177  0.7996  0.3871 -0.6816
 7615SOL     OW34477   0.988   2.415  15.942  0.4242 -0.6435  0.0862
 7615SOL    HW134478   0.948   2.368  16.015  1.2117  0.7588  1.4296
 7615SOL    HW234479   1.069   2.441  15.986  1.0505 -1.0014 -0.8546
 7616SOL     OW34480   0.117   1.594   9.056 -0.4204  0.2146  0.2618
 7616SOL    HW134481   0.176   1.664   9.084  0.1042 -0.2544  0.3356
 7616SOL    HW234482   0.031   1.633   9.072  0.1540  1.8399 -0.6233
 7617SOL     OW34483   2.853   3.355   4.477 -0.1939 -0.0409 -0.1130
 7617SOL    HW134484   2.871   3.383   4.566 -2.7498 -0.9336  0.6785
 7617SOL    HW234485   2.901   3.272   4.469 -0.8508 -0.5440  1.1540
 7618SOL     OW34486   3.825   3.096   2.564 -0.3130 -0.4306  0.1747
 7618SOL    HW134487   3.793   3.128   2.648  0.9893  2.0514 -0.2669
 7618SOL    HW234488   3.900   3.044   2.591  2.2557  2.3273 -1.6200
 7619SOL     OW34489   4.107   0.542   7.616  0.0486 -0.3299 -0.0507
 7619SOL    HW134490   4.104   0.603   7.689  0.7556  1.6915 -1.6993
 7619SOL    HW234491   4.192   0.573   7.584  0.2253 -0.8251 -0.0694
 7620SOL     OW34492   0.379   1.013   6.606  0.4914 -1.0071  0.4044
 7620SOL    HW134493   0.400   0.928   6.645  1.7640 -1.4195 -1.1546
 7620SOL    HW234494   0.353   0.979   6.521 -0.5119 -1.7741  1.0208
 7621SOL     OW34495   1.921   1.408  11.851 -0.1455  1.0171 -0.0423
 7621SOL    HW134496   1.925   1.504  11.851 -0.7789  1.0445  1.5215
 7621SOL    HW234497   1.985   1.386  11.783 -0.8126 -1.6356  0.1873
 7622SOL     OW34498   2.942   2.978   4.616  0.8231  0.0052  0.6148
 7622SOL    HW134499   2.888   2.912   4.573  0.5528 -0.6705  1.9910
 7622SOL    HW234500   2.973   3.034   4.545  1.8388  0.3516  1.3230
 7623SOL     OW34501   1.722   4.384   3.536  0.4601 -0.3040  0.0228
 7623SOL    HW134502   1.698   4.425   3.619  0.8887 -2.0791  1.0131
 7623SOL    HW234503   1.793   4.440   3.505 -1.1473  2.8575  2.0133
 7624SOL     OW34504   4.685   4.121  10.903  0.1111 -0.1655  0.3613
 7624SOL    HW134505   4.710   4.199  10.854 -1.1245  0.0459  0.0521
 7624SOL    HW234506   4.696   4.140  10.996  0.1292 -1.1404  0.5545
 7625SOL     OW34507   1.728   1.482  17.742 -0.1875  0.6565 -0.1091
 7625SOL    HW134508   1.744   1.526  17.658 -0.6826  2.8865  0.9848
 7625SOL    HW234509   1.815   1.453   0.020  0.1416  0.1387 -1.6520
 7626SOL     OW34510   3.127   4.048   6.753 -0.2409 -0.7492  0.3326
 7626SOL    HW134511   3.111   4.102   6.676 -2.8376 -2.7180 -0.5070
 7626SOL    HW234512   3.094   4.103   6.824  0.1996 -2.6790  2.0297
 7627SOL     OW34513   4.283   2.684   2.526 -0.4802 -0.3622 -0.5286
 7627SOL    HW134514   4.369   2.713   2.554 -0.3007 -0.4201 -1.0122
 7627SOL    HW234515   4.267   2.595   2.557 -0.3844  0.1715  1.0186
 7628SOL     OW34516   0.761   4.536   4.677 -0.3312 -0.0403  1.2431
 7628SOL    HW134517   0.809   4.601   4.625 -0.8227 -2.5072 -2.3357
 7628SOL    HW234518   0.791   4.457   4.631  2.7040  0.8879  1.5819
 7629SOL     OW34519   4.392   0.607   2.089  0.1664 -0.5191  0.3982
 7629SOL    HW134520   4.399   0.591   2.183  0.7382  4.5576  1.2275
 7629SOL    HW234521   4.397   0.703   2.093  1.5537 -0.6270  1.3056
 7630SOL     OW34522   0.869   1.776   4.049 -0.3076  0.0671 -0.7565
 7630SOL    HW134523   0.778   1.794   4.071 -0.5303 -1.2310 -0.6661
 7630SOL    HW234524   0.867   1.681   4.037  0.7711 -0.4190  2.8370
 7631SOL     OW34525   1.354   3.007   6.891  0.2447  0.7384  0.5088
 7631SOL    HW134526   1.271   3.017   6.844  0.8546  1.0578 -0.4997
 7631SOL    HW234527   1.413   2.986   6.819 -0.8290  0.1662 -0.2023
 7632SOL     OW34528   2.979   0.384   1.828 -0.1054  0.0114  0.7722
 7632SOL    HW134529   2.928   0.303   1.820  1.2527 -0.5056 -2.5531
 7632SOL    HW234530   3.054   0.342   1.870  0.2619 -0.5221 -0.4327
 7633SOL     OW34531   2.312   3.426   1.916 -0.5736  0.0809 -0.0654
 7633SOL    HW134532   2.343   3.484   1.986 -0.7058  1.0038 -0.7738
 7633SOL    HW234533   2.223   3.401   1.942 -0.2073 -0.4850  0.6715
 7634SOL     OW34534   4.705   3.066   8.372 -0.4927  0.3426  0.5024
 7634SOL    HW134535   4.672   3.071   8.462 -1.1202  2.5517  0.1594
 7634SOL    HW234536   4.728   2.974   8.368 -0.5324  0.3708 -0.2886
 7635SOL     OW34537   0.598   0.182   6.497 -0.8246 -0.0968 -0.1586
 7635SOL    HW134538   0.550   0.132   6.430  0.9674 -1.8721 -0.1240
 7635SOL    HW234539   0.532   0.182   6.566 -1.9056 -2.8719 -1.1815
 7636SOL     OW34540   2.623   0.152   0.276  0.0869  0.1023  0.0595
 7636SOL    HW134541   2.704   0.202   0.266 -0.4064  0.4119 -2.3071
 7636SOL    HW234542   2.576   0.210   0.336  2.3843 -0.7188  2.6731
 7637SOL     OW34543   1.322   0.081   7.343 -0.2251 -1.2327 -0.4743
 7637SOL    HW134544   1.229   0.061   7.332 -0.0108 -2.9660  0.9222
 7637SOL    HW234545   1.309   0.098   7.436  0.8433  2.3815 -0.9653
 7638SOL     OW34546   1.571   2.275   9.946 -0.7065 -0.2291 -0.3083
 7638SOL    HW134547   1.504   2.269   9.878  0.0246 -2.1548 -0.8596
 7638SOL    HW234548   1.522   2.302  10.024  1.3202  1.4629  0.3666
 7639SOL     OW34549   1.241   2.037   5.160 -0.2364 -0.1634 -0.5653
 7639SOL    HW134550   1.301   1.996   5.222 -1.0656 -0.1642  0.2282
 7639SOL    HW234551   1.159   2.039   5.209  0.9276  1.7405  1.2961
 7640SOL     OW34552   1.278   4.385   3.519 -0.5432  0.0653  0.2838
 7640SOL    HW134553   1.209   4.329   3.555  1.0317  0.0378  3.1803
 7640SOL    HW234554   1.347   4.320   3.523  0.0624  0.6831 -0.1681
 7641SOL     OW34555   0.071   1.843  11.255  0.1586  0.2178 -0.2213
 7641SOL    HW134556   4.728   1.849  11.306 -1.4300 -0.5449 -2.6634
 7641SOL    HW234557   0.044   1.826  11.165 -0.4103  2.2813 -0.4404
 7642SOL     OW34558   3.838   3.431  12.334  0.1924  0.8760  0.2250
 7642SOL    HW134559   3.830   3.392  12.247 -1.0871  1.3109  0.1494
 7642SOL    HW234560   3.789   3.367  12.386  0.8585  2.2072  2.5206
 7643SOL     OW34561   4.029   4.152   5.282 -0.2651 -0.3402  0.1438
 7643SOL    HW134562   3.959   4.215   5.265  1.3077  1.6641  1.1291
 7643SOL    HW234563   4.100   4.182   5.224 -1.1511  1.6676  0.1156
 7644SOL     OW34564   3.310   4.480   3.897 -0.2706 -0.1156 -0.0706
 7644SOL    HW134565   3.375   4.477   3.966 -1.1592  1.1073  0.8205
 7644SOL    HW234566   3.244   4.431   3.946  1.0151 -1.5350  0.2535
 7645SOL     OW34567   2.895   2.469   8.211 -0.5395 -0.3790  0.1902
 7645SOL    HW134568   2.839   2.402   8.172 -0.7256  0.5370 -1.1040
 7645SOL    HW234569   2.973   2.418   8.231 -0.3270 -0.7440 -1.5890
 7646SOL     OW34570   4.544   2.226   4.833 -0.1364 -0.7725  0.1247
 7646SOL    HW134571   4.569   2.241   4.741  1.1454  2.9054  1.0521
 7646SOL    HW234572   4.598   2.294   4.874  0.7269 -0.1354 -2.0207
 7647SOL     OW34573   0.868   1.424  11.344  0.3611 -0.1905  0.1347
 7647SOL    HW134574   0.776   1.443  11.363  0.1006 -1.4940  0.1417
 7647SOL    HW234575   0.874   1.481  11.267 -0.6411  2.0475  1.7293
 7648SOL     OW34576   4.313   1.758   3.442 -0.5763 -0.0165  0.0043
 7648SOL    HW134577   4.338   1.759   3.535 -2.0814  2.9134  0.3959
 7648SOL    HW234578   4.351   1.672   3.425  0.2989  0.2652  0.5327
 7649SOL     OW34579   3.923   1.361   7.571  0.0469  0.2081  0.3121
 7649SOL    HW134580   3.928   1.447   7.611 -2.8444 -0.5933  2.4253
 7649SOL    HW234581   3.859   1.317   7.627  1.8532 -2.6876  0.1182
 7650SOL     OW34582   3.711   3.719   0.136 -0.0973  0.9568 -0.3270
 7650SOL    HW134583   3.783   3.676   0.183 -1.1806 -0.4265  0.0676
 7650SOL    HW234584   3.758   3.750   0.058  0.8231 -1.1043 -0.5841
 7651SOL     OW34585   3.048   0.684  11.936 -0.0338 -0.1250  0.2080
 7651SOL    HW134586   3.061   0.620  12.006  0.5000 -0.2946 -0.0441
 7651SOL    HW234587   2.978   0.737  11.974  0.8761  1.1738  0.0699
 7652SOL     OW34588   2.247   0.279  15.601 -0.0462 -0.3228  0.2458
 7652SOL    HW134589   2.175   0.330  15.566  2.6975  3.3694  0.0092
 7652SOL    HW234590   2.328   0.324  15.577 -1.0524  2.2270  1.7138
 7653SOL     OW34591   3.229   4.341  17.576 -0.1397 -0.3830  0.4647
 7653SOL    HW134592   3.310   4.314  17.532 -0.8240 -1.2203 -0.3143
 7653SOL    HW234593   3.172   4.301  17.510 -0.3366 -0.2365  0.5478
 7654SOL     OW34594   3.426   3.784  11.306 -0.0049  0.2048 -0.3102
 7654SOL    HW134595   3.368   3.823  11.371  1.5402  0.2365  1.0505
 7654SOL    HW234596   3.454   3.866  11.267 -0.1732  0.4392  0.0536
 7655SOL     OW34597   3.252   3.653   4.370 -0.1763 -0.4763  0.2438
 7655SOL    HW134598   3.172   3.705   4.362 -0.4787 -0.5119  3.0390
 7655SOL    HW234599   3.268   3.626   4.279 -0.2036 -1.2560  0.4755
 7656SOL     OW34600   3.869   3.770   3.589 -0.3557  0.0708  0.2112
 7656SOL    HW134601   3.793   3.824   3.607 -0.9715 -0.9523  0.6996
 7656SOL    HW234602   3.889   3.751   3.681  1.3133  1.0826  0.0693
 7657SOL     OW34603   2.944   4.265   9.179 -0.1421  0.3584  0.5973
 7657SOL    HW134604   2.984   4.311   9.105 -0.0871  0.8693  0.9396
 7657SOL    HW234605   2.960   4.325   9.252  1.7508 -3.0433  2.9785
 7658SOL     OW34606   3.411   2.788  16.336  0.3638 -0.1272 -0.5513
 7658SOL    HW134607   3.365   2.775  16.253 -3.1250  0.3496  1.2943
 7658SOL    HW234608   3.376   2.723  16.396  0.6481  0.3475  0.1291
 7659SOL     OW34609   1.249   3.569   7.140 -0.0266  0.1146  0.4991
 7659SOL    HW134610   1.168   3.581   7.091 -0.7309 -2.6572  0.9999
 7659SOL    HW234611   1.231   3.482   7.177 -0.9421 -0.0790 -0.4134
 7660SOL     OW34612   0.352   1.350   3.651 -0.2208 -0.4838  0.5333
 7660SOL    HW134613   0.421   1.284   3.661 -0.9350 -0.9304  2.5073
 7660SOL    HW234614   0.388   1.431   3.688  0.3208 -0.3089 -0.3768
 7661SOL     OW34615   4.509   3.508   1.468  0.7508  0.2454  0.0793
 7661SOL    HW134616   4.583   3.561   1.438  0.0793  1.1908  0.0655
 7661SOL    HW234617   4.519   3.437   1.405  1.2134 -1.5674  2.2106
 7662SOL     OW34618   2.528   4.128  14.917  0.4726  0.5614  0.3255
 7662SOL    HW134619   2.438   4.111  14.943  0.3064 -0.6843 -1.0318
 7662SOL    HW234620   2.529   4.093  14.828  0.5899  1.2807  0.0450
 7663SOL     OW34621   3.113   2.004   9.649 -0.0279 -0.4564  0.1833
 7663SOL    HW134622   3.166   2.075   9.687  0.4131 -1.2427  1.0427
 7663SOL    HW234623   3.101   2.044   9.563  1.2468 -0.1987  0.1222
 7664SOL     OW34624   1.844   0.812   4.353 -0.0120 -0.2972 -0.0491
 7664SOL    HW134625   1.888   0.893   4.379 -0.2298 -0.0081 -0.5960
 7664SOL    HW234626   1.775   0.851   4.301 -0.5292  0.3873  1.1403
 7665SOL     OW34627   1.398   0.278   4.959 -0.2460 -0.1398 -0.2339
 7665SOL    HW134628   1.442   0.339   4.900  0.5698 -2.9920 -2.5823
 7665SOL    HW234629   1.460   0.206   4.968  0.5539  0.7115  1.0864
 7666SOL     OW34630   1.548   2.943   2.323 -0.0060  0.3546  0.2467
 7666SOL    HW134631   1.520   3.033   2.337 -2.3115 -0.2448 -0.6004
 7666SOL    HW234632   1.474   2.912   2.272  1.5948 -3.7614  0.3760
 7667SOL     OW34633   0.893   2.479   7.011 -0.3717 -0.3057 -0.0210
 7667SOL    HW134634   0.819   2.528   7.045  0.3153  0.2798  0.6345
 7667SOL    HW234635   0.844   2.407   6.970 -2.3624  1.6860 -1.0769
 7668SOL     OW34636   4.244   3.573   3.869 -0.0532 -0.2597 -0.1239
 7668SOL    HW134637   4.193   3.631   3.812  0.5081  1.6244  1.2775
 7668SOL    HW234638   4.198   3.585   3.952  0.4876  0.9954 -0.0054
 7669SOL     OW34639   3.040   2.163  14.578 -0.1297 -0.7879 -0.0365
 7669SOL    HW134640   2.954   2.204  14.586 -0.2109 -1.0575  0.4828
 7669SOL    HW234641   3.010   2.075  14.602 -2.3766 -0.2348 -0.8208
 7670SOL     OW34642   3.497   0.489  16.921 -0.5580  0.8312  0.3800
 7670SOL    HW134643   3.561   0.523  16.982 -0.6991  1.2205  0.3120
 7670SOL    HW234644   3.448   0.433  16.982  2.0571 -0.9927  0.7810
 7671SOL     OW34645   1.336   3.712   7.325  0.2244 -0.2087 -0.2134
 7671SOL    HW134646   1.342   3.657   7.403  1.0009  0.2601  0.0612
 7671SOL    HW234647   1.287   3.662   7.260  0.3559  1.0167 -1.2680
 7672SOL     OW34648   1.650   1.686  14.295 -0.1809 -0.5282 -0.1876
 7672SOL    HW134649   1.581   1.620  14.295 -0.6735 -0.0143  0.8369
 7672SOL    HW234650   1.625   1.746  14.366 -1.9408  0.2468 -1.4611
 7673SOL     OW34651   0.179   4.540   6.386 -0.2415 -0.0824 -0.1093
 7673SOL    HW134652   0.271   4.539   6.411 -0.5762 -1.2133  1.0841
 7673SOL    HW234653   0.177   4.555   6.291 -0.5392  1.3159  0.1263
 7674SOL     OW34654   2.658   0.856   8.328  0.5362  0.5917  0.2968
 7674SOL    HW134655   2.662   0.815   8.414  1.4703  0.9211  0.4029
 7674SOL    HW234656   2.705   0.798   8.269  0.9906 -0.6876  1.9374
 7675SOL     OW34657   1.224   0.286   0.747  0.3635 -0.2207  0.2881
 7675SOL    HW134658   1.157   0.275   0.679 -0.7378  0.0899  1.3148
 7675SOL    HW234659   1.300   0.292   0.690 -0.2961 -3.3861 -0.9234
 7676SOL     OW34660   1.510   2.373  12.713 -0.1222 -0.0433 -0.1623
 7676SOL    HW134661   1.533   2.280  12.715 -1.4230 -0.3513  0.2174
 7676SOL    HW234662   1.423   2.371  12.673 -0.0820 -4.7342 -0.0206
 7677SOL     OW34663   0.026   2.826   1.014 -0.2335 -0.3655 -0.2417
 7677SOL    HW134664   4.722   2.766   1.075 -0.5784 -0.4735 -0.5826
 7677SOL    HW234665   0.112   2.786   1.027 -0.5394 -0.9410 -0.0021
 7678SOL     OW34666   4.244   0.899   5.247  0.0405  0.2162 -0.4284
 7678SOL    HW134667   4.178   0.926   5.310  1.8127  4.8410 -0.5989
 7678SOL    HW234668   4.204   0.818   5.215  0.7073 -0.7593  1.2358
 7679SOL     OW34669   3.142   1.205  12.107 -0.5371  0.6017 -0.2535
 7679SOL    HW134670   3.109   1.158  12.031  1.3241 -0.2665 -0.5290
 7679SOL    HW234671   3.058   1.237  12.140 -0.5240 -1.1013  1.4189
 7680SOL     OW34672   3.365   0.368  11.459  0.0793 -0.0481 -0.5187
 7680SOL    HW134673   3.393   0.364  11.550  2.3834  0.6914 -1.1911
 7680SOL    HW234674   3.285   0.418  11.475  1.2803  0.6861  3.0902
 7681SOL     OW34675   2.332   1.580   8.057  0.4112  0.3291  0.2361
 7681SOL    HW134676   2.290   1.527   8.125 -0.6884  2.2926  1.1112
 7681SOL    HW234677   2.422   1.564   8.083 -0.7801 -1.7974  3.1264
 7682SOL     OW34678   3.388   3.333   6.181  0.0690 -0.2764 -0.3872
 7682SOL    HW134679   3.309   3.366   6.136  0.8831 -0.1453 -1.7239
 7682SOL    HW234680   3.447   3.396   6.140 -0.3577 -0.2668 -0.9985
 7683SOL     OW34681   4.058   2.948   1.080 -0.1005  0.1290  0.1361
 7683SOL    HW134682   4.089   2.902   1.157  0.5991  1.5489  0.6906
 7683SOL    HW234683   4.100   3.032   1.099 -0.6828  0.2005  1.0649
 7684SOL     OW34684   4.370   2.144   8.967  0.5312 -0.6324  0.5753
 7684SOL    HW134685   4.446   2.087   8.960  1.9780  1.5030 -0.9220
 7684SOL    HW234686   4.412   2.211   8.914  1.3194 -1.6700 -0.1137
 7685SOL     OW34687   2.113   0.398  16.928 -0.0345 -0.1191 -0.2387
 7685SOL    HW134688   2.123   0.414  17.022 -0.3749  1.4085 -0.4726
 7685SOL    HW234689   2.028   0.353  16.932 -0.3484  0.3237 -2.0219
 7686SOL     OW34690   3.487   4.507   6.407  0.1714 -0.5453 -0.0351
 7686SOL    HW134691   3.454   4.431   6.455 -0.1189 -1.2203 -1.3110
 7686SOL    HW234692   3.414   4.569   6.419 -0.1383 -1.0933  0.9205
 7687SOL     OW34693   2.207   0.685   4.938  0.0006 -0.0777  0.0612
 7687SOL    HW134694   2.272   0.693   5.008  1.2896 -0.3649 -1.1048
 7687SOL    HW234695   2.146   0.615   4.963  1.5115 -1.6477 -0.6728
 7688SOL     OW34696   0.620   0.528   6.465  0.5390  0.2292 -0.0124
 7688SOL    HW134697   0.638   0.499   6.376 -0.3878 -1.5012  0.3519
 7688SOL    HW234698   0.551   0.471   6.498  1.2461 -0.1027  0.8930
 7689SOL     OW34699   3.224   1.427   8.477 -0.3392  0.0353  0.4285
 7689SOL    HW134700   3.155   1.367   8.449  0.2022 -0.4294  0.0600
 7689SOL    HW234701   3.228   1.414   8.572 -0.1438  0.1432  0.4355
 7690SOL     OW34702   1.718   0.662   1.432 -0.1141  0.6347  0.3152
 7690SOL    HW134703   1.651   0.608   1.473  2.5914 -0.5004  3.2955
 7690SOL    HW234704   1.797   0.610   1.445  0.6474  0.8497 -3.3570
 7691SOL     OW34705   3.671   0.398   6.985 -0.2233  0.1424  0.0555
 7691SOL    HW134706   3.584   0.437   6.979  1.0211  2.8202 -0.3892
 7691SOL    HW234707   3.682   0.352   6.902 -1.4313  0.0747 -0.0631
 7692SOL     OW34708   1.514   3.949  16.949 -0.2913 -0.6112  0.4965
 7692SOL    HW134709   1.442   3.900  16.910 -0.1397  0.1152 -0.7001
 7692SOL    HW234710   1.585   3.899  16.909  1.1817  2.3809 -0.7208
 7693SOL     OW34711   1.200   4.235  16.379 -0.2891  0.3502 -0.0317
 7693SOL    HW134712   1.113   4.260  16.410  1.1313  1.2012  3.2999
 7693SOL    HW234713   1.240   4.254  16.464  0.9936  1.2225 -0.8316
 7694SOL     OW34714   1.187   4.132   8.506 -0.6715  0.1166  0.3721
 7694SOL    HW134715   1.135   4.058   8.537  0.0380 -0.2325  0.7272
 7694SOL    HW234716   1.231   4.161   8.586 -2.0094 -0.7406  1.4129
 7695SOL     OW34717   3.961   0.977   6.190 -0.1456 -0.3050  0.2060
 7695SOL    HW134718   4.040   1.008   6.234 -1.0188  4.0515 -1.2481
 7695SOL    HW234719   3.991   0.893   6.155 -0.3756  0.3153 -1.4496
 7696SOL     OW34720   4.314   2.081   4.878 -0.2044 -0.1859  0.5717
 7696SOL    HW134721   4.404   2.109   4.865  0.2561 -0.5321  2.8846
 7696SOL    HW234722   4.307   1.997   4.832  0.4496 -0.4674  0.9941
 7697SOL     OW34723   2.922   4.694  13.935  0.0064  0.8080  0.1820
 7697SOL    HW134724   2.906   0.047  13.909  1.2023  1.1587  0.6826
 7697SOL    HW234725   2.864   4.659  13.868  2.4557 -0.1213 -1.4594
 7698SOL     OW34726   1.107   2.593  13.680 -0.8685  0.4562 -0.3803
 7698SOL    HW134727   1.154   2.510  13.689 -1.7225 -0.1533 -1.7275
 7698SOL    HW234728   1.178   2.655  13.699  0.1759 -1.1328  0.8906
 7699SOL     OW34729   0.540   1.835  13.626 -0.2125 -0.1635  0.2703
 7699SOL    HW134730   0.531   1.930  13.633  2.6309  0.1104  0.4528
 7699SOL    HW234731   0.518   1.814  13.536 -0.6209 -0.5768  0.4672
 7700SOL     OW34732   3.594   3.822   7.874  0.0387 -0.1039 -0.2987
 7700SOL    HW134733   3.571   3.731   7.855  3.1082 -1.3501  2.1247
 7700SOL    HW234734   3.505   3.839   7.905  0.4022  0.5785  0.3668
 7701SOL     OW34735   1.898   3.650  17.296 -0.0900  0.2754 -0.6970
 7701SOL    HW134736   1.976   3.646  17.351  0.6168  1.3271 -1.6188
 7701SOL    HW234737   1.826   3.648  17.359  0.4664 -1.7060 -0.1249
 7702SOL     OW34738   4.330   1.374   8.467  0.0461  0.0774  0.6741
 7702SOL    HW134739   4.353   1.465   8.488  1.9716 -0.5694  1.3992
 7702SOL    HW234740   4.378   1.359   8.386 -0.2714  0.2995  0.4441
 7703SOL     OW34741   0.655   0.177  17.483  0.0725 -0.0051 -0.7036
 7703SOL    HW134742   0.649   0.159  17.389 -1.0158 -0.0763 -0.6168
 7703SOL    HW234743   0.751   0.171  17.482  0.1473  0.6815  1.5816
 7704SOL     OW34744   2.976   2.557  17.567 -0.0771  0.0408  0.1459
 7704SOL    HW134745   2.944   2.467  17.567 -0.8473  0.3204 -0.1531
 7704SOL    HW234746   2.987   2.569  17.473 -1.6209  0.2350 -0.0109
 7705SOL     OW34747   4.625   0.908   9.786 -0.1833  0.2238  0.3924
 7705SOL    HW134748   4.532   0.930   9.794 -0.2626 -0.3945  1.1336
 7705SOL    HW234749   4.626   0.879   9.694 -1.8715  0.6638  0.2362
 7706SOL     OW34750   3.511   3.935  15.368  0.1215  0.4167  0.5323
 7706SOL    HW134751   3.519   3.951  15.462 -0.4231  1.2100  0.4437
 7706SOL    HW234752   3.565   3.856  15.359 -1.0307  0.0024 -2.6897
 7707SOL     OW34753   0.270   3.363   7.028 -0.3741  0.1278 -0.3216
 7707SOL    HW134754   0.351   3.338   7.074 -1.5717 -0.5816  1.3971
 7707SOL    HW234755   0.238   3.431   7.087  0.6750  0.6409 -0.3392
 7708SOL     OW34756   3.780   1.373   4.619  0.1201  0.2053  0.2633
 7708SOL    HW134757   3.777   1.369   4.714 -1.3216  2.0951  0.2830
 7708SOL    HW234758   3.706   1.315   4.601 -2.7840  3.8337  0.4153
 7709SOL     OW34759   4.233   0.218  16.846  0.0013 -0.3075  0.0377
 7709SOL    HW134760   4.315   0.267  16.837  0.1250 -0.7955 -1.5656
 7709SOL    HW234761   4.167   0.286  16.831  0.9917  0.8381  0.9153
 7710SOL     OW34762   1.910   1.406  17.351 -0.0613 -0.4179 -0.2781
 7710SOL    HW134763   1.865   1.410  17.267 -0.2643  0.0115 -0.1469
 7710SOL    HW234764   1.886   1.316  17.375  1.5054 -1.2446 -1.8072
 7711SOL     OW34765   1.099   4.031   5.417  0.1895  0.0352  0.2514
 7711SOL    HW134766   1.118   3.984   5.498 -0.4899  3.3385  2.3195
 7711SOL    HW234767   1.154   3.979   5.357  0.8405  1.4489 -0.3842
 7712SOL     OW34768   2.285   4.709   6.274 -0.3846  0.2587 -0.1851
 7712SOL    HW134769   2.227   0.042   6.246  0.5524  0.4890 -1.5356
 7712SOL    HW234770   2.359   0.031   6.284 -1.9308  2.1937 -0.3251
 7713SOL     OW34771   0.915   0.348  17.347 -0.0906  0.2053  0.2645
 7713SOL    HW134772   1.000   0.379  17.315 -0.5392 -0.1869 -1.3238
 7713SOL    HW234773   0.939   0.274  17.404 -1.9910 -1.0429 -0.5831
 7714SOL     OW34774   4.242   1.438   4.624  0.2085 -0.1849 -0.3784
 7714SOL    HW134775   4.309   1.418   4.559  2.0354  0.1802  1.3814
 7714SOL    HW234776   4.167   1.386   4.597 -0.0536 -0.0872  0.1560
 7715SOL     OW34777   1.643   0.248   1.356  0.1693  0.1120 -0.5112
 7715SOL    HW134778   1.730   0.241   1.316  0.1987  0.6983 -0.5568
 7715SOL    HW234779   1.592   0.247   1.275 -1.3209  0.1179  0.4383
 7716SOL     OW34780   1.687   1.401   6.084  0.3223  0.1388  0.0590
 7716SOL    HW134781   1.677   1.438   6.172 -0.3349 -0.3867  0.2010
 7716SOL    HW234782   1.778   1.374   6.078 -0.0559 -0.9067 -1.0960
 7717SOL     OW34783   1.959   0.071  16.380  0.4042 -0.1279  0.1270
 7717SOL    HW134784   1.982   0.151  16.428  1.2180  0.5688 -1.3986
 7717SOL    HW234785   1.904   0.120  16.318  1.4906  1.3272  0.2880
 7718SOL     OW34786   3.651   3.014   7.318  0.2073  0.5820  0.8000
 7718SOL    HW134787   3.742   2.991   7.301 -0.0964  0.1259 -0.2139
 7718SOL    HW234788   3.649   3.108   7.299 -3.0074  0.3360 -0.1018
 7719SOL     OW34789   2.557   2.436   4.463  0.0719  0.1365  0.2419
 7719SOL    HW134790   2.482   2.404   4.412  0.2301  0.0355  0.0711
 7719SOL    HW234791   2.594   2.502   4.404  0.0443  1.1737  1.3817
 7720SOL     OW34792   2.287   4.337   7.138 -0.0094  0.4656  0.1073
 7720SOL    HW134793   2.290   4.357   7.044  1.3519 -1.6919 -0.3245
 7720SOL    HW234794   2.202   4.294   7.133  0.2642 -0.0171 -0.4512
 7721SOL     OW34795   3.316   3.232   5.510 -0.4612  0.1783 -0.1323
 7721SOL    HW134796   3.406   3.199   5.517 -1.0920 -1.1974  1.3732
 7721SOL    HW234797   3.314   3.286   5.431 -2.6236 -0.0718 -0.2368
 7722SOL     OW34798   0.888   0.708   6.509  0.0733 -0.2067 -0.1884
 7722SOL    HW134799   0.810   0.661   6.539 -1.8126  1.0847 -3.0227
 7722SOL    HW234800   0.845   0.789   6.481  0.4713  0.8924  2.3942
 7723SOL     OW34801   4.540   0.481   1.894  0.7748 -0.3582  0.2656
 7723SOL    HW134802   4.523   0.535   1.817 -0.6787 -1.9506 -0.5275
 7723SOL    HW234803   4.490   0.529   1.960  0.3634  1.9395 -1.7485
 7724SOL     OW34804   3.128   3.929   5.365  0.6801  0.2380 -0.1956
 7724SOL    HW134805   3.083   3.996   5.418 -0.5969  1.0387 -2.2815
 7724SOL    HW234806   3.121   3.848   5.416  2.0811 -0.3191 -0.9135
 7725SOL     OW34807   1.628   0.447  16.594 -0.0147  0.1333 -0.5778
 7725SOL    HW134808   1.564   0.391  16.549 -0.3993 -0.7046  1.0175
 7725SOL    HW234809   1.646   0.511  16.526 -0.1245  1.5166  0.7081
 7726SOL     OW34810   2.797   2.239   9.200 -0.0333 -0.9515  0.1908
 7726SOL    HW134811   2.857   2.232   9.126  0.9907  0.2589  0.9131
 7726SOL    HW234812   2.768   2.149   9.191 -2.0003 -0.3833  0.8884
 7727SOL     OW34813   0.988   3.968  15.693  0.3913  0.2720 -0.1645
 7727SOL    HW134814   0.906   3.934  15.658  1.4733 -0.7402 -1.7624
 7727SOL    HW234815   1.018   4.012  15.613  0.6323  0.6217  0.1202
 7728SOL     OW34816   4.024   3.477   3.007  0.2322  0.4008 -0.2150
 7728SOL    HW134817   4.063   3.420   2.940  1.5162  0.3390  0.5773
 7728SOL    HW234818   3.934   3.480   2.975 -0.9953 -1.5467  3.1014
 7729SOL     OW34819   1.423   2.851   7.108 -0.0657  0.4445  0.3367
 7729SOL    HW134820   1.334   2.821   7.124  0.4337 -0.3825  1.5851
 7729SOL    HW234821   1.400   2.917   7.043  0.1229 -0.6155 -0.7890
 7730SOL     OW34822   3.457   0.910   6.265  0.4231  0.4195 -0.3881
 7730SOL    HW134823   3.406   0.908   6.184  0.7457  2.1430 -0.6382
 7730SOL    HW234824   3.502   0.993   6.248 -0.2727  1.2682  1.9578
 7731SOL     OW34825   3.218   0.171   1.820  0.3984  0.0474  0.0308
 7731SOL    HW134826   3.163   0.099   1.850 -0.8756  0.9173 -0.2300
 7731SOL    HW234827   3.300   0.144   1.862 -0.5455  0.4566  2.1196
 7732SOL     OW34828   3.055   4.465   7.469 -0.0582 -0.0182 -0.1273
 7732SOL    HW134829   3.055   4.372   7.446 -1.8630  0.1542 -0.8074
 7732SOL    HW234830   2.969   4.469   7.511  0.2245  3.3014  0.0985
 7733SOL     OW34831   0.788   2.380   4.983  0.0076  0.1293 -0.4896
 7733SOL    HW134832   0.776   2.471   4.956 -0.8692  0.1830  0.0734
 7733SOL    HW234833   0.879   2.367   5.011 -0.7405 -1.4215  1.2195
 7734SOL     OW34834   0.784   4.158   1.097 -0.4628  0.3189  0.3102
 7734SOL    HW134835   0.822   4.195   1.176 -3.8560  0.9756  1.6599
 7734SOL    HW234836   0.793   4.065   1.117 -0.6020  0.8201  2.7116
 7735SOL     OW34837   2.371   2.967   6.640 -0.0023 -0.5518 -0.3338
 7735SOL    HW134838   2.301   3.030   6.621  3.0746  1.8668 -3.7198
 7735SOL    HW234839   2.449   3.022   6.637 -1.6162  1.6930 -1.3976
 7736SOL     OW34840   2.486   0.059   5.745  0.3700  0.1008 -0.5883
 7736SOL    HW134841   2.481   0.071   5.840  0.2720 -0.2992 -0.5438
 7736SOL    HW234842   2.458   4.706   5.746 -1.6767  0.7127 -1.1969
 7737SOL     OW34843   4.305   1.418  16.117 -0.2479  0.2478  0.4598
 7737SOL    HW134844   4.257   1.336  16.104 -0.0227  0.3201 -0.7822
 7737SOL    HW234845   4.242   1.479  16.155  0.8015  0.5866  1.6424
 7738SOL     OW34846   3.900   3.405  10.330  0.1472 -0.0810 -0.2123
 7738SOL    HW134847   3.981   3.385  10.284 -0.6049 -0.3919 -1.3963
 7738SOL    HW234848   3.896   3.333  10.393 -1.4296  0.4083  0.2605
 7739SOL     OW34849   3.232   2.086  12.979 -0.2973  0.6146  0.4121
 7739SOL    HW134850   3.200   2.175  12.970  0.2304  0.6865 -0.7898
 7739SOL    HW234851   3.165   2.034  12.935  0.9458  0.1745 -0.9770
 7740SOL     OW34852   4.461   0.761   5.407  0.1432 -0.3971 -0.1492
 7740SOL    HW134853   4.397   0.814   5.359  0.0152 -0.3616  0.0592
 7740SOL    HW234854   4.460   0.683   5.351 -0.6498 -0.6637  0.2330
 7741SOL     OW34855   3.701   1.072  12.457  0.0091 -0.2619  0.0700
 7741SOL    HW134856   3.766   1.113  12.400 -0.4125  0.4085  0.0704
 7741SOL    HW234857   3.650   1.148  12.485 -0.1266 -1.4846  3.1610
 7742SOL     OW34858   0.516   2.667   6.066 -0.2799 -0.2525 -0.3070
 7742SOL    HW134859   0.562   2.632   6.142  1.4902  1.4879 -0.5712
 7742SOL    HW234860   0.586   2.650   6.004  0.2354  1.4312 -0.1866
 7743SOL     OW34861   1.265   0.438   7.476  0.0150 -0.5482  0.2026
 7743SOL    HW134862   1.207   0.501   7.519  2.0726  0.5788  1.3533
 7743SOL    HW234863   1.207   0.363   7.488 -1.0839  0.1308 -0.8402
 7744SOL     OW34864   0.509   0.456   5.662  0.1405 -0.6778 -0.0033
 7744SOL    HW134865   0.461   0.398   5.603 -0.7163 -0.1172  0.1466
 7744SOL    HW234866   0.599   0.423   5.658  1.1639  2.3912 -1.9823
 7745SOL     OW34867   0.089   3.774   9.786 -0.4254 -0.1649 -0.7538
 7745SOL    HW134868   0.118   3.834   9.855  0.2180 -0.3256 -0.8866
 7745SOL    HW234869   0.027   3.724   9.839 -1.7630  2.2854 -0.0121
 7746SOL     OW34870   0.455   0.087  11.458  0.0676 -0.7537 -0.0540
 7746SOL    HW134871   0.523   0.154  11.449  0.6953 -1.1747  1.6159
 7746SOL    HW234872   0.377   0.143  11.454  0.4529 -0.1536  1.1044
 7747SOL     OW34873   3.076   1.109   1.402 -0.3459  0.2583  0.6645
 7747SOL    HW134874   3.170   1.110   1.421 -0.3727 -2.6647  0.9921
 7747SOL    HW234875   3.050   1.154   1.483  0.4234  0.1280  0.9803
 7748SOL     OW34876   1.549   2.261  13.547  0.0817 -0.1738  0.2941
 7748SOL    HW134877   1.622   2.220  13.500  1.6872  1.7891  1.0683
 7748SOL    HW234878   1.485   2.189  13.546  1.0654 -1.0617  1.2309
 7749SOL     OW34879   2.097   0.960   2.644 -1.3854 -0.0950  0.1219
 7749SOL    HW134880   2.073   0.875   2.682  0.9633 -2.4032 -3.4993
 7749SOL    HW234881   2.177   0.938   2.596 -1.8694 -0.5784 -0.4805
 7750SOL     OW34882   4.223   4.450  13.926  0.1900  0.1706 -0.2437
 7750SOL    HW134883   4.164   4.499  13.869  2.6415  2.1068 -1.1139
 7750SOL    HW234884   4.162   4.428  13.996  0.0340 -0.4950 -0.5876
 7751SOL     OW34885   4.728   3.204   1.061 -0.4326 -0.1540  0.3069
 7751SOL    HW134886   4.691   3.135   1.117  0.2204 -0.8974 -0.1716
 7751SOL    HW234887   0.080   3.222   1.088 -0.4870 -0.2040  0.5254
 7752SOL     OW34888   3.326   2.031   7.055 -0.3116 -0.0058 -0.2769
 7752SOL    HW134889   3.407   1.985   7.032 -2.0745 -2.2881 -1.9308
 7752SOL    HW234890   3.256   1.992   7.003 -0.9117  0.2048  0.3757
 7753SOL     OW34891   0.013   1.188   5.637  0.1085 -0.4448 -0.7285
 7753SOL    HW134892   0.044   1.102   5.665  1.1190  0.3077  0.4324
 7753SOL    HW234893   4.672   1.164   5.589 -0.6566  0.6288 -0.0241
 7754SOL     OW34894   3.770   0.401   4.701  0.4413  0.5606 -0.9143
 7754SOL    HW134895   3.796   0.331   4.642  1.0087  1.0388 -1.2327
 7754SOL    HW234896   3.766   0.475   4.641  0.2047 -0.0578 -1.6480
 7755SOL     OW34897   4.651   1.943   1.668 -0.7077 -0.8765 -0.6344
 7755SOL    HW134898   4.583   1.953   1.734 -0.2205  0.6274 -0.3725
 7755SOL    HW234899   4.596   1.936   1.590  0.3475  0.5881 -1.5234
 7756SOL     OW34900   4.183   0.139   3.191  0.6088  0.1589 -0.0222
 7756SOL    HW134901   4.089   0.137   3.170  0.3885 -0.2341  1.0104
 7756SOL    HW234902   4.210   0.049   3.172 -1.4352 -0.1883 -1.3042
 7757SOL     OW34903   0.886   4.265   4.301  0.4913 -0.3696 -0.5829
 7757SOL    HW134904   0.964   4.212   4.282  0.2611 -1.3138  1.1766
 7757SOL    HW234905   0.820   4.220   4.248  0.2909  0.8806 -1.3919
 7758SOL     OW34906   3.592   4.397   2.736  0.0087  0.0687  0.1884
 7758SOL    HW134907   3.558   4.382   2.648  0.5823 -0.0367 -0.0161
 7758SOL    HW234908   3.529   4.458   2.774 -0.9942  1.1783 -3.2357
 7759SOL     OW34909   4.383   3.400   8.724 -0.8094 -0.0142 -0.5267
 7759SOL    HW134910   4.442   3.453   8.670  1.7790 -0.3783  1.9420
 7759SOL    HW234911   4.414   3.310   8.721 -0.0272  0.2950 -1.8832
 7760SOL     OW34912   2.994   2.554   9.154  0.0004  0.1775 -0.2541
 7760SOL    HW134913   3.021   2.581   9.066  2.2980 -1.4645 -0.0390
 7760SOL    HW234914   2.906   2.521   9.135 -0.0692  0.2872 -0.1193
 7761SOL     OW34915   2.659   2.540   3.123 -0.4083  0.0380  0.1211
 7761SOL    HW134916   2.657   2.617   3.067 -1.0994  0.0599  0.1746
 7761SOL    HW234917   2.627   2.480   3.055  0.7229  0.2418 -0.5960
 7762SOL     OW34918   4.093   0.537   3.590 -0.4780 -0.4732 -0.5602
 7762SOL    HW134919   4.004   0.520   3.560 -1.1583  2.2211 -0.0229
 7762SOL    HW234920   4.090   0.477   3.665 -1.0827 -1.1539 -1.1314
 7763SOL     OW34921   0.822   0.025   9.860 -0.3004 -0.1111 -0.1614
 7763SOL    HW134922   0.812   4.669   9.846  1.4255 -0.4964  1.2436
 7763SOL    HW234923   0.770   0.036   9.940 -2.2952 -1.7796 -1.2241
 7764SOL     OW34924   3.282   0.963  14.404 -0.7106 -0.2236  0.2832
 7764SOL    HW134925   3.222   0.894  14.376 -0.6036 -0.1985 -0.0089
 7764SOL    HW234926   3.257   1.032  14.343 -2.1824 -0.0987  1.0346
 7765SOL     OW34927   2.955   3.044   5.376  0.2614  0.4094  0.1758
 7765SOL    HW134928   2.869   3.020   5.341  0.5811 -0.4259 -0.0319
 7765SOL    HW234929   3.012   3.049   5.299 -0.8455  1.4384 -0.5693
 7766SOL     OW34930   2.705   0.635  13.351  0.2106  0.7195  0.0495
 7766SOL    HW134931   2.614   0.605  13.357  0.3236  0.3917  0.1562
 7766SOL    HW234932   2.736   0.663  13.437  4.1179 -0.8981 -0.8383
 7767SOL     OW34933   1.884   1.583  12.157 -0.5605  0.4875  0.2355
 7767SOL    HW134934   1.914   1.569  12.247 -1.0803  1.0365  0.4929
 7767SOL    HW234935   1.790   1.573  12.165 -0.3895 -0.8501  0.4412
 7768SOL     OW34936   2.163   0.815   1.944  0.2761 -0.0269 -0.5679
 7768SOL    HW134937   2.206   0.729   1.947 -2.1701 -1.2254  0.1398
 7768SOL    HW234938   2.070   0.797   1.958 -0.2531  1.3375 -2.2499
 7769SOL     OW34939   0.862   4.262   7.971 -0.1188  0.0232  0.4403
 7769SOL    HW134940   0.922   4.188   7.961 -0.7647 -0.5093  0.4878
 7769SOL    HW234941   0.784   4.229   7.926 -0.1749  0.7318  0.0135
 7770SOL     OW34942   2.551   2.786   2.377  0.1737 -0.1380  0.2173
 7770SOL    HW134943   2.548   2.700   2.336  0.7756 -0.0922  0.0868
 7770SOL    HW234944   2.599   2.839   2.314  0.1861 -0.3473  0.0495
 7771SOL     OW34945   4.290   1.796  15.074 -0.0917  0.4734  0.4842
 7771SOL    HW134946   4.216   1.778  15.131 -2.1524  1.4165 -1.8792
 7771SOL    HW234947   4.366   1.791  15.131 -1.6811 -2.6746  2.2798
 7772SOL     OW34948   1.553   2.821   6.148  0.3291 -0.5354 -0.4405
 7772SOL    HW134949   1.597   2.892   6.101  0.6912 -0.5867 -0.1797
 7772SOL    HW234950   1.617   2.830   6.218 -0.1226  0.2427 -0.1299
 7773SOL     OW34951   1.939   2.648   5.710  0.4163 -0.1004 -0.2506
 7773SOL    HW134952   1.902   2.736   5.722  2.3234  0.6861 -0.1978
 7773SOL    HW234953   1.860   2.595   5.694 -0.4720  1.2875 -0.4610
 7774SOL     OW34954   1.692   2.515   4.203 -0.4780  0.2589  0.0992
 7774SOL    HW134955   1.737   2.595   4.227  2.5320 -0.8992 -1.6615
 7774SOL    HW234956   1.601   2.542   4.219 -0.3679  0.5006  0.3000
 7775SOL     OW34957   2.865   2.534   4.536  0.1303 -0.2470  0.3342
 7775SOL    HW134958   2.904   2.616   4.506 -1.3149 -0.5563 -2.3334
 7775SOL    HW234959   2.848   2.533   4.631 -4.3512 -0.2588 -0.4762
 7776SOL     OW34960   0.010   0.359   6.985  0.1904 -0.0835 -0.1275
 7776SOL    HW134961   4.722   0.336   7.074  2.9592 -2.1013  0.1383
 7776SOL    HW234962   4.695   0.438   6.969  1.2258  0.4985 -0.6643
 7777SOL     OW34963   0.232   4.224  10.650 -0.4998  0.0485 -0.7225
 7777SOL    HW134964   0.137   4.238  10.646 -0.4571 -0.0164 -1.8692
 7777SOL    HW234965   0.254   4.216  10.743 -0.1065 -0.2732 -0.8421
 7778SOL     OW34966   3.115   2.851  17.193  0.3936  1.1929 -0.1551
 7778SOL    HW134967   3.077   2.778  17.145  0.1845  1.8493 -1.0091
 7778SOL    HW234968   3.176   2.887  17.128 -1.4135  0.5888 -2.1855
 7779SOL     OW34969   3.410   0.291   0.828  0.2416  0.2265 -0.3648
 7779SOL    HW134970   3.422   0.359   0.895  0.1244  0.0576 -0.1722
 7779SOL    HW234971   3.398   0.213   0.882 -1.2032 -0.9907 -2.4892
 7780SOL     OW34972   0.592   2.099   6.162  0.3203  0.5161 -0.3503
 7780SOL    HW134973   0.637   2.170   6.115  1.9928  0.0936  0.5979
 7780SOL    HW234974   0.515   2.138   6.203  0.3313  0.3785 -0.2025
 7781SOL     OW34975   2.548   4.667   8.087 -0.1841  0.1126  0.6357
 7781SOL    HW134976   2.592   4.707   8.162  1.3775 -1.1629  0.3909
 7781SOL    HW234977   2.502   4.596   8.131  0.7670 -1.4657 -0.9489
 7782SOL     OW34978   0.644   0.116   1.959 -0.3464 -0.1870  0.3655
 7782SOL    HW134979   0.726   0.082   1.923 -1.0507 -0.7012 -0.7528
 7782SOL    HW234980   0.604   0.030   1.968  0.1810 -0.5505 -0.6885
 7783SOL     OW34981   2.372   3.231   4.863  0.3959  0.1851  0.1461
 7783SOL    HW134982   2.466   3.217   4.855  0.4186 -0.8250  2.2060
 7783SOL    HW234983   2.362   3.279   4.781 -0.9764  0.3245  0.4027
 7784SOL     OW34984   1.550   2.736   7.334 -0.1165  0.3321  0.5986
 7784SOL    HW134985   1.470   2.702   7.373 -0.5403 -0.3017 -0.8188
 7784SOL    HW234986   1.519   2.769   7.250 -3.0205  0.8807  1.9105
 7785SOL     OW34987   3.607   2.466   8.279 -0.1427  0.7227  0.0247
 7785SOL    HW134988   3.675   2.533   8.267  1.4729 -0.4340  2.6383
 7785SOL    HW234989   3.535   2.526   8.301 -0.1564  0.2036  1.3791
 7786SOL     OW34990   2.376   2.033  16.461 -0.3426  0.3605  0.7192
 7786SOL    HW134991   2.386   1.938  16.464  0.8383  0.3754 -1.8915
 7786SOL    HW234992   2.281   2.028  16.449 -0.3366 -1.1803  1.3741
 7787SOL     OW34993   0.118   1.132  10.597  0.0695 -0.4540 -0.4986
 7787SOL    HW134994   0.104   1.186  10.519 -0.7233 -0.3637 -0.2936
 7787SOL    HW234995   0.045   1.165  10.650 -0.7955 -2.9840 -0.1279
 7788SOL     OW34996   2.768   1.307   8.344  0.1394 -0.0096 -0.0294
 7788SOL    HW134997   2.702   1.243   8.316 -2.2865  3.5992 -2.6395
 7788SOL    HW234998   2.746   1.375   8.280  2.4065 -1.4522 -2.2934
 7789SOL     OW34999   2.471   1.745   1.810  0.3209 -0.2552 -0.5402
 7789SOL    HW135000   2.403   1.801   1.848 -0.8034 -1.0176 -1.4642
 7789SOL    HW235001   2.435   1.720   1.726 -3.0031  0.2913  0.7227
 7790SOL     OW35002   4.524   2.648   5.169 -0.5627  0.4307  0.1201
 7790SOL    HW135003   4.599   2.700   5.196  0.5661 -0.2480 -1.7339
 7790SOL    HW235004   4.450   2.709   5.174  0.3989  1.5727  0.2346
 7791SOL     OW35005   0.286   3.448   8.119 -0.1004 -0.9110 -0.7459
 7791SOL    HW135006   0.356   3.461   8.183  0.7457  1.4776 -2.1410
 7791SOL    HW235007   0.206   3.446   8.173  0.4817 -0.8350  0.1147
 7792SOL     OW35008   3.371   0.276   7.092  0.9729 -0.5399  0.0326
 7792SOL    HW135009   3.337   0.362   7.118 -0.4777 -1.5857  1.6149
 7792SOL    HW235010   3.364   0.282   6.997 -0.5307  0.1854  0.1850
 7793SOL     OW35011   3.092   3.689   5.520 -0.1081 -0.1692  0.0949
 7793SOL    HW135012   2.999   3.714   5.523  0.2301  0.8284  2.0079
 7793SOL    HW235013   3.130   3.694   5.607 -0.5476 -1.5458  0.3716
 7794SOL     OW35014   4.068   2.557   5.213  0.0466  0.0726 -0.7794
 7794SOL    HW135015   4.089   2.593   5.127 -0.4104  2.2189  0.0322
 7794SOL    HW235016   4.143   2.499   5.228  1.1442  1.8317  0.4441
 7795SOL     OW35017   1.778   0.643  15.056  0.3805 -0.5283 -0.1751
 7795SOL    HW135018   1.745   0.708  14.995  1.3437 -0.8587 -1.0504
 7795SOL    HW235019   1.703   0.589  15.081 -1.2557  1.4873 -0.6808
 7796SOL     OW35020   1.391   4.000  16.632 -0.0443 -0.0508 -0.2477
 7796SOL    HW135021   1.477   3.985  16.593 -0.5146 -2.5401 -0.2952
 7796SOL    HW235022   1.333   3.975  16.560 -0.7936 -0.9065  0.6732
 7797SOL     OW35023   3.020   2.080   1.590  0.1599  0.1261 -0.0805
 7797SOL    HW135024   3.046   2.095   1.499 -0.0221 -1.2695 -0.3544
 7797SOL    HW235025   3.021   2.172   1.615  0.3167  0.4704 -1.3535
 7798SOL     OW35026   0.176   1.568  12.547 -0.1544 -0.2355 -0.1486
 7798SOL    HW135027   0.134   1.633  12.604 -0.9571 -3.6041  3.1345
 7798SOL    HW235028   0.103   1.528  12.501  0.1919  1.0588 -1.8131
 7799SOL     OW35029   3.698   2.275   0.091 -0.1150 -0.3566  0.4792
 7799SOL    HW135030   3.660   2.356   0.058  0.6297  0.2224  1.0823
 7799SOL    HW235031   3.669   2.218   0.019 -0.9550  1.0033 -0.2620
 7800SOL     OW35032   2.242   1.740   7.606 -0.2993  0.3881 -0.2649
 7800SOL    HW135033   2.259   1.819   7.656  0.3888  0.6160 -0.8525
 7800SOL    HW235034   2.245   1.673   7.674  1.8030 -1.4646 -2.1737
 7801SOL     OW35035   0.572   4.600   6.005 -0.1655 -0.1764 -0.1785
 7801SOL    HW135036   0.667   4.613   6.013 -0.6243  2.2496  1.1301
 7801SOL    HW235037   0.555   4.693   6.012 -1.0351 -0.3370 -0.1323
 7802SOL     OW35038   4.238   1.888  17.448  0.3515 -0.1931 -0.2084
 7802SOL    HW135039   4.322   1.925  17.421  0.5637  0.7302  1.7182
 7802SOL    HW235040   4.214   1.922  17.534  2.2083 -3.5797  1.6434
 7803SOL     OW35041   3.893   1.133  12.690  0.1848 -0.8568  0.5470
 7803SOL    HW135042   3.820   1.155  12.747  1.3397 -0.4497  1.8895
 7803SOL    HW235043   3.851   1.078  12.624 -0.1050 -0.5899  0.5093
 7804SOL     OW35044   4.239   4.515   2.430 -0.2506  0.2536  0.0230
 7804SOL    HW135045   4.269   4.571   2.358 -1.0883  0.2199 -0.3512
 7804SOL    HW235046   4.146   4.520   2.412 -0.3486 -2.2857 -0.1697
 7805SOL     OW35047   3.641   1.217  14.239  0.1524 -0.2337 -0.3686
 7805SOL    HW135048   3.660   1.124  14.254 -1.3195 -0.5120 -0.1315
 7805SOL    HW235049   3.622   1.236  14.331  1.0718  2.3284 -0.7267
 7806SOL     OW35050   3.851   0.103   3.766 -0.0574  0.0604 -0.1566
 7806SOL    HW135051   3.843   0.185   3.815  0.8358  0.0725 -0.0307
 7806SOL    HW235052   3.881   0.043   3.834 -2.5382 -3.2222 -1.9279
 7807SOL     OW35053   2.756   4.663   9.178 -0.2018 -0.6229  0.4955
 7807SOL    HW135054   2.762   4.577   9.219 -2.0893 -0.8909  0.1862
 7807SOL    HW235055   2.724   4.724   9.245  0.3787  1.9669 -1.5414
 7808SOL     OW35056   3.015   3.593   5.263  0.2155  0.2940  0.0948
 7808SOL    HW135057   2.973   3.513   5.296 -2.3650  1.1266 -1.1777
 7808SOL    HW235058   3.040   3.637   5.344 -2.2405 -0.0248  1.0212
 7809SOL     OW35059   2.615   3.688  11.812 -0.7599  0.2569 -0.2712
 7809SOL    HW135060   2.548   3.625  11.789  0.9697 -1.7878  0.2834
 7809SOL    HW235061   2.618   3.691  11.907  0.6440 -1.9443 -0.2468
 7810SOL     OW35062   4.142   4.386   7.964 -0.2570 -0.4338  0.2652
 7810SOL    HW135063   4.202   4.429   7.903  2.3723 -0.2842  2.9587
 7810SOL    HW235064   4.191   4.360   8.042  0.7412  1.1763  0.1856
 7811SOL     OW35065   4.056   3.679   3.418  0.9246 -0.2559  0.3639
 7811SOL    HW135066   4.037   3.590   3.387 -1.2409  0.9431 -1.8265
 7811SOL    HW235067   3.974   3.704   3.460  1.1675  2.9402 -0.9868
 7812SOL     OW35068   2.129   2.331   4.563  0.4005  0.0264  0.6565
 7812SOL    HW135069   2.211   2.281   4.559 -0.8364 -1.9801  0.9141
 7812SOL    HW235070   2.106   2.335   4.656 -0.6124 -0.6566  0.4314
 7813SOL     OW35071   1.483   4.093  17.212  0.6876  0.4090  0.0330
 7813SOL    HW135072   1.525   4.174  17.183  2.2173 -0.1476  0.7280
 7813SOL    HW235073   1.511   4.031  17.145 -0.0187 -0.8609  0.9230
 7814SOL     OW35074   2.600   0.495   6.845 -0.0314 -0.3347  0.3358
 7814SOL    HW135075   2.623   0.464   6.933  0.2564  0.4886  0.5473
 7814SOL    HW235076   2.530   0.431   6.833  0.0888  0.2312 -3.4340
 7815SOL     OW35077   4.657   4.674   7.815  0.6822  0.6045 -0.0465
 7815SOL    HW135078   0.002   4.711   7.845  1.4676 -1.3591  0.1609
 7815SOL    HW235079   4.648   4.732   7.739  0.6419  1.9676  0.9901
 7816SOL     OW35080   2.941   1.020   7.306  0.2840 -0.2707 -0.0050
 7816SOL    HW135081   2.892   1.057   7.233 -0.5009  0.7129  1.0174
 7816SOL    HW235082   2.966   0.932   7.278  2.9577  0.2096  0.9115
 7817SOL     OW35083   0.870   0.368   3.403 -0.4346  0.0331  0.4585
 7817SOL    HW135084   0.846   0.456   3.431 -2.3008 -0.2536 -0.2003
 7817SOL    HW235085   0.837   0.370   3.313 -0.9992 -3.2283  0.6068
 7818SOL     OW35086   3.530   2.906   3.953  0.0861 -0.2982  0.2492
 7818SOL    HW135087   3.569   2.927   3.869 -0.5938  0.9770  0.2498
 7818SOL    HW235088   3.462   2.841   3.934 -1.9456  1.3077  1.9549
 7819SOL     OW35089   0.702   1.883   1.566 -0.2697  0.4576 -0.5654
 7819SOL    HW135090   0.780   1.830   1.551 -0.6060 -0.6146  1.4219
 7819SOL    HW235091   0.727   1.950   1.502  0.2734 -0.2608 -1.0961
 7820SOL     OW35092   2.090   2.263   3.176 -0.0373 -0.6867  0.0986
 7820SOL    HW135093   2.139   2.248   3.095 -0.3351 -1.7886  0.1286
 7820SOL    HW235094   2.127   2.347   3.204 -3.5603  0.6789  0.5865
 7821SOL     OW35095   2.052   3.488  15.734  0.1485  0.1192  0.2062
 7821SOL    HW135096   2.014   3.469  15.820 -0.7117 -0.3873 -0.2800
 7821SOL    HW235097   2.073   3.581  15.738 -2.8753  0.7887  0.9621
 7822SOL     OW35098   4.651   0.645   6.434 -0.2479 -0.4026 -0.5412
 7822SOL    HW135099   4.672   0.569   6.379 -0.1210  0.1446 -1.2529
 7822SOL    HW235100   4.562   0.619   6.458  0.3451 -1.2547  0.7060
 7823SOL     OW35101   2.985   4.285   7.796  0.6645  0.0271  1.0805
 7823SOL    HW135102   2.995   4.192   7.774  0.5043 -0.1114  1.5875
 7823SOL    HW235103   2.966   4.337   7.719  1.2153  1.3270  1.8200
 7824SOL     OW35104   4.247   4.339   2.094  0.2355  0.2301  0.5489
 7824SOL    HW135105   4.259   4.296   2.010 -0.6683  0.3982  0.3266
 7824SOL    HW235106   4.333   4.322   2.132  0.8123  1.8338 -0.0379
 7825SOL     OW35107   4.688   0.468   4.178 -0.0453  0.2732  0.0278
 7825SOL    HW135108   0.010   0.449   4.106  0.4205 -0.7418  0.7001
 7825SOL    HW235109   4.696   0.387   4.227 -2.4226  0.0394  0.0389
 7826SOL     OW35110   1.609   3.097   3.960  0.2163  0.0820  0.1604
 7826SOL    HW135111   1.553   3.075   4.034 -0.1487  2.7230  0.6613
 7826SOL    HW235112   1.612   3.014   3.912  0.0619 -0.9187  1.8966
 7827SOL     OW35113   3.559   4.331   6.758 -0.2901  0.5759  0.4982
 7827SOL    HW135114   3.481   4.386   6.762  0.7184  2.0206  0.4470
 7827SOL    HW235115   3.530   4.253   6.710 -1.3729  1.3625 -0.1412
 7828SOL     OW35116   1.765   0.632   5.536 -0.1574 -0.1741  0.4377
 7828SOL    HW135117   1.855   0.625   5.568 -0.2878  2.1487  1.3755
 7828SOL    HW235118   1.724   0.552   5.569  3.4723 -2.7712 -1.3584
 7829SOL     OW35119   0.822   3.497   1.581  1.0081 -0.3187  0.1642
 7829SOL    HW135120   0.773   3.441   1.522 -0.9689  0.9660  0.5946
 7829SOL    HW235121   0.757   3.519   1.648  0.1422 -2.1162 -0.0842
 7830SOL     OW35122   3.875   2.582  16.533  0.0102 -0.2234 -0.7118
 7830SOL    HW135123   3.857   2.506  16.478  1.9397 -0.4951 -0.9653
 7830SOL    HW235124   3.933   2.630  16.474 -0.1164  0.8944  0.0637
 7831SOL     OW35125   2.490   3.573  15.076  0.0215  0.4346 -0.0814
 7831SOL    HW135126   2.457   3.559  14.988 -3.1440  3.0744  0.6931
 7831SOL    HW235127   2.469   3.666  15.081  0.1788  0.3017  2.9017
 7832SOL     OW35128   1.070   0.763  11.612  0.2245 -0.0601 -0.0604
 7832SOL    HW135129   1.057   0.738  11.704  1.7014 -1.2485 -0.1707
 7832SOL    HW235130   1.162   0.788  11.614  0.7321 -1.6909 -2.0457
 7833SOL     OW35131   2.885   1.480  11.750 -0.1031  0.0134  0.0257
 7833SOL    HW135132   2.956   1.532  11.712  1.1123  0.3978  2.8067
 7833SOL    HW235133   2.842   1.452  11.669 -1.1555 -1.1312  0.9716
 7834SOL     OW35134   1.044   2.204   3.485 -0.1921  0.1590 -0.0221
 7834SOL    HW135135   1.040   2.154   3.403  0.8527  0.2202 -0.1109
 7834SOL    HW235136   1.099   2.281   3.474  2.4264 -1.6676  0.2786
 7835SOL     OW35137   1.231   3.562   3.860  0.3941 -0.1805  0.8425
 7835SOL    HW135138   1.192   3.502   3.796  1.3826 -1.5392  1.5122
 7835SOL    HW235139   1.184   3.539   3.939 -2.6376 -0.1463 -0.9619
 7836SOL     OW35140   0.365   3.076   8.940 -0.2954 -0.1077  0.1240
 7836SOL    HW135141   0.307   3.056   9.014 -1.5590 -1.6956 -1.2862
 7836SOL    HW235142   0.443   3.104   8.987  0.1659 -1.8906  0.4180
 7837SOL     OW35143   0.318   1.277  10.200 -0.2154 -0.1318  0.5685
 7837SOL    HW135144   0.322   1.372  10.189 -0.1461 -0.2219 -0.1534
 7837SOL    HW235145   0.240   1.284  10.255 -0.2403  1.7851  0.2967
 7838SOL     OW35146   2.689   4.243   6.575  0.4730 -0.5103 -0.0351
 7838SOL    HW135147   2.724   4.332   6.583  0.7170 -0.7381  1.5159
 7838SOL    HW235148   2.753   4.212   6.511 -0.1610  1.4539 -1.6280
 7839SOL     OW35149   3.756   0.083   1.234  0.3662  0.1731 -0.2664
 7839SOL    HW135150   3.819   0.128   1.289  1.2708 -1.0525 -0.2986
 7839SOL    HW235151   3.707   0.156   1.194 -0.5733  0.0115  0.5784
 7840SOL     OW35152   2.194   3.845   9.145 -0.6314 -0.1511  0.1677
 7840SOL    HW135153   2.161   3.924   9.103 -0.7858  0.0003  0.5736
 7840SOL    HW235154   2.188   3.869   9.238 -0.0996  0.7528 -0.0323
 7841SOL     OW35155   2.115   3.480   6.755  0.1124 -0.6922  0.0057
 7841SOL    HW135156   2.124   3.496   6.849  1.4451  0.4509 -0.3216
 7841SOL    HW235157   2.187   3.531   6.717 -0.4115 -0.2011 -0.3426
 7842SOL     OW35158   3.649   3.725   2.628 -0.1860  0.1597 -0.2447
 7842SOL    HW135159   3.630   3.688   2.714  2.2797  2.2372  1.1996
 7842SOL    HW235160   3.729   3.675   2.613 -0.2941  0.5687 -2.1675
 7843SOL     OW35161   3.245   4.679  10.593  0.3833  0.1460 -0.0313
 7843SOL    HW135162   3.215   4.663  10.504 -1.1957  2.6484  0.0597
 7843SOL    HW235163   3.173   4.737  10.618  0.3637  0.4534 -0.8257
 7844SOL     OW35164   2.732   2.378   6.827  0.2993  0.0000  0.4034
 7844SOL    HW135165   2.654   2.324   6.840  0.5879 -0.2101  1.2829
 7844SOL    HW235166   2.708   2.426   6.748  2.1446  1.8880  1.0001
 7845SOL     OW35167   3.449   1.838   9.349  0.2025  0.0255  0.2065
 7845SOL    HW135168   3.420   1.774   9.285  0.7086  0.5638 -0.5559
 7845SOL    HW235169   3.544   1.827   9.350  0.1555 -0.3951 -0.3522
 7846SOL     OW35170   0.968   0.516  11.420 -0.1530  0.4314 -0.5873
 7846SOL    HW135171   1.053   0.544  11.452 -0.6919 -1.3830  2.4181
 7846SOL    HW235172   0.987   0.450  11.352  1.8972 -1.0201  1.4071
 7847SOL     OW35173   2.173   2.700  12.794 -0.0704 -0.1643  0.0665
 7847SOL    HW135174   2.254   2.748  12.780  0.2419 -0.2967  1.4141
 7847SOL    HW235175   2.142   2.728  12.880  2.9818  2.9247  0.1192
 7848SOL     OW35176   2.721   0.397   1.953  0.4390  0.5884 -0.1052
 7848SOL    HW135177   2.804   0.443   1.940  1.5336 -1.4389 -0.1968
 7848SOL    HW235178   2.760   0.311   1.962 -1.4971 -0.4767 -1.6711
 7849SOL     OW35179   0.404   1.076  15.556 -0.3221  0.3326  0.0693
 7849SOL    HW135180   0.336   1.066  15.623  1.1752  0.4614  1.6140
 7849SOL    HW235181   0.477   1.078  15.618  0.8740 -1.3334 -1.2727
 7850SOL     OW35182   0.631   3.764   6.487 -0.2699  0.3978 -0.1167
 7850SOL    HW135183   0.611   3.830   6.553  0.0617 -0.0475  0.4327
 7850SOL    HW235184   0.662   3.821   6.416  0.6996 -0.9170 -0.7483
 7851SOL     OW35185   2.154   2.141   3.418  0.0744  0.2900  0.0965
 7851SOL    HW135186   2.135   2.148   3.325  0.3260  0.3470  0.0492
 7851SOL    HW235187   2.191   2.229   3.427  1.8430 -0.6234  1.9281
 7852SOL     OW35188   0.379   1.807   1.262  0.0805  0.1298 -0.1024
 7852SOL    HW135189   0.410   1.865   1.330 -1.0500 -0.3752  0.8545
 7852SOL    HW235190   0.299   1.852   1.235  0.7355  1.3529  0.0177
 7853SOL     OW35191   4.699   0.362   7.307  0.2047 -0.3474 -0.7372
 7853SOL    HW135192   4.735   0.342   7.393 -0.1082  0.6604 -0.3701
 7853SOL    HW235193   0.005   0.446   7.295  0.1140 -0.4640 -1.9224
 7854SOL     OW35194   1.698   3.469   6.079  0.1006  0.1123  0.2401
 7854SOL    HW135195   1.773   3.426   6.118  0.9178 -0.4593 -1.9309
 7854SOL    HW235196   1.681   3.540   6.141  2.7184 -0.4516  1.5502
 7855SOL     OW35197   1.585   3.487   5.390 -0.4668 -0.7501 -0.3724
 7855SOL    HW135198   1.647   3.550   5.352  2.2281 -1.1282  3.4046
 7855SOL    HW235199   1.500   3.520   5.364 -0.7903 -1.0395  0.3229
 7856SOL     OW35200   3.992   0.205   5.961  0.1099  0.1126 -0.1053
 7856SOL    HW135201   3.960   0.275   5.905 -1.2891  1.0403  1.8578
 7856SOL    HW235202   4.087   0.210   5.966  0.2188  0.1632 -2.0992
 7857SOL     OW35203   2.180   1.211   8.408  0.4869 -0.4220 -0.2245
 7857SOL    HW135204   2.175   1.121   8.376 -1.3589 -0.6652  0.7435
 7857SOL    HW235205   2.184   1.190   8.502 -0.6517  0.3657  0.0086
 7858SOL     OW35206   1.556   0.240   3.939  0.2609  0.0728 -0.6860
 7858SOL    HW135207   1.612   0.308   3.901 -1.2885  1.9961  0.4707
 7858SOL    HW235208   1.484   0.291   3.976  0.0204 -0.2409 -0.7194
 7859SOL     OW35209   1.405   2.728  15.940 -0.2270 -0.6847 -0.4226
 7859SOL    HW135210   1.317   2.691  15.943  0.1106 -1.4632 -0.0288
 7859SOL    HW235211   1.465   2.655  15.924  0.0594 -0.3246 -0.9790
 7860SOL     OW35212   0.313   0.487   3.948  0.7962 -0.1823  0.5962
 7860SOL    HW135213   0.373   0.432   3.998  2.0380 -0.3045 -1.0515
 7860SOL    HW235214   0.256   0.423   3.904 -0.4801  1.0570  0.4339
 7861SOL     OW35215   2.159   4.635   7.728  0.1286 -0.3493 -0.1805
 7861SOL    HW135216   2.193   4.614   7.815  2.0822  1.5153 -0.5008
 7861SOL    HW235217   2.229   4.606   7.670  0.1590  0.8648 -0.7399
 7862SOL     OW35218   0.298   1.922  14.230 -0.2957  0.4951  0.4039
 7862SOL    HW135219   0.287   1.896  14.322 -1.0078 -0.3891  0.0684
 7862SOL    HW235220   0.207   1.944  14.214 -0.0326 -0.0738 -1.8345
 7863SOL     OW35221   2.231   3.701  16.457  0.0118  0.0874  0.3622
 7863SOL    HW135222   2.232   3.659  16.542 -1.1689  0.7939  0.7228
 7863SOL    HW235223   2.323   3.715  16.435 -0.6844  1.5169 -1.6979
 7864SOL     OW35224   4.580   1.371  14.197  0.0174 -0.1802 -0.5212
 7864SOL    HW135225   4.534   1.398  14.117 -1.3319 -0.7395  0.0737
 7864SOL    HW235226   4.646   1.439  14.204 -1.9233  1.8043 -1.3692
 7865SOL     OW35227   0.125   4.106  13.166 -0.1947  0.5283 -0.2656
 7865SOL    HW135228   0.065   4.039  13.135  0.9177 -0.2557 -0.7052
 7865SOL    HW235229   0.115   4.084  13.259  0.2648 -1.0364 -0.5888
 7866SOL     OW35230   3.473   1.822  17.735 -0.0358  0.0063 -0.1274
 7866SOL    HW135231   3.528   1.762  17.685  0.7485  0.3104  0.3684
 7866SOL    HW235232   3.437   1.884  17.672 -1.3912  1.8728  2.4637
 7867SOL     OW35233   2.638   0.231   4.066 -0.1681 -0.0990 -0.4186
 7867SOL    HW135234   2.614   0.193   4.151 -0.1923  1.1644  0.1309
 7867SOL    HW235235   2.705   0.293   4.092 -1.1148  0.5737  0.4329
 7868SOL     OW35236   3.515   0.424   3.502 -0.5631 -0.0661  0.4568
 7868SOL    HW135237   3.421   0.432   3.488 -0.4457 -1.8264 -1.3334
 7868SOL    HW235238   3.523   0.329   3.502 -0.4794 -0.0617 -0.3968
 7869SOL     OW35239   3.449   1.435   4.466  0.1405 -0.4450 -0.5344
 7869SOL    HW135240   3.507   1.505   4.495  2.5947 -1.2917 -3.3287
 7869SOL    HW235241   3.487   1.354   4.500 -0.2797 -0.6339 -0.5156
 7870SOL     OW35242   1.988   1.318  12.205 -0.0381 -0.4155 -0.0152
 7870SOL    HW135243   2.011   1.360  12.288  0.8845 -2.2009  0.6442
 7870SOL    HW235244   1.954   1.389  12.150 -1.4910 -0.5697  0.6884
 7871SOL     OW35245   4.699   3.927  16.912 -0.1918  0.2186 -0.2911
 7871SOL    HW135246   0.018   3.861  16.949  0.2077  0.0466 -1.2062
 7871SOL    HW235247   4.707   3.905  16.819  1.6210 -1.1184  0.1799
 7872SOL     OW35248   4.016   4.122  12.557 -0.1385 -0.1614 -0.1760
 7872SOL    HW135249   4.027   4.210  12.519  0.2822 -0.5439 -0.9395
 7872SOL    HW235250   4.043   4.073  12.480  1.4409 -1.5411  1.2573
 7873SOL     OW35251   0.148   2.450   7.649 -0.7602  0.5087 -0.3126
 7873SOL    HW135252   0.060   2.452   7.612 -1.4644 -0.3293  1.3274
 7873SOL    HW235253   0.189   2.502   7.580 -1.0867  0.6755 -0.3809
 7874SOL     OW35254   2.029   4.571   6.996 -0.1449 -0.0522  0.0426
 7874SOL    HW135255   2.084   4.648   7.013  0.6113 -0.5289 -0.2395
 7874SOL    HW235256   2.095   4.508   6.968  1.0349  0.9736  0.5020
 7875SOL     OW35257   2.142   1.789   8.551  0.4516 -0.8541  0.3616
 7875SOL    HW135258   2.049   1.779   8.534  0.6528  0.0772 -1.2891
 7875SOL    HW235259   2.135   1.880   8.580 -0.4441 -1.2350  1.3368
 7876SOL     OW35260   2.940   1.942   6.342 -0.0353  0.1539  0.1855
 7876SOL    HW135261   3.024   1.974   6.374 -1.0639  1.2416  1.7445
 7876SOL    HW235262   2.887   2.020   6.325  3.2812  2.4631  0.3281
 7877SOL     OW35263   0.913   1.967   7.428  0.0689  0.3337 -0.0403
 7877SOL    HW135264   0.860   1.909   7.483 -2.5322  2.1956 -0.5854
 7877SOL    HW235265   0.933   2.037   7.490  0.7966 -2.3976  2.8510
 7878SOL     OW35266   2.703   1.289  15.745 -0.5418 -0.5172 -0.1301
 7878SOL    HW135267   2.785   1.337  15.743 -1.1369  0.5313  1.1212
 7878SOL    HW235268   2.698   1.257  15.655  0.2512 -2.3237  0.4559
 7879SOL     OW35269   2.093   2.788  13.033  0.2903 -0.0624  0.0185
 7879SOL    HW135270   2.090   2.883  13.042 -2.9870 -0.3778  2.5332
 7879SOL    HW235271   2.018   2.763  13.089 -1.6985  0.6709 -2.3335
 7880SOL     OW35272   1.344   3.801   5.663  0.0362  0.0713 -0.0372
 7880SOL    HW135273   1.253   3.813   5.636 -0.3706 -0.6857  1.0464
 7880SOL    HW235274   1.362   3.895   5.671  4.2991 -0.9714  2.6338
 7881SOL     OW35275   1.032   2.036  16.037  0.1020  0.4785  0.0644
 7881SOL    HW135276   0.956   1.984  16.063  0.6200  0.2210  1.0783
 7881SOL    HW235277   0.985   2.118  16.051  1.1285  1.1130 -0.2713
 7882SOL     OW35278   1.758   1.417  16.767  0.3688  0.6990 -0.0174
 7882SOL    HW135279   1.838   1.402  16.819  0.7243 -0.3022 -0.8490
 7882SOL    HW235280   1.686   1.428  16.829 -0.8202  1.2037 -1.4943
 7883SOL     OW35281   3.196   2.020   6.459 -0.4375  0.9163 -0.0732
 7883SOL    HW135282   3.258   2.091   6.444 -0.9555  1.5324  0.6748
 7883SOL    HW235283   3.140   2.041   6.534 -1.1324 -0.8062 -0.1013
 7884SOL     OW35284   0.248   3.764   8.797 -0.4178  0.4751 -0.6783
 7884SOL    HW135285   0.174   3.822   8.779 -0.7057  0.5431  0.7120
 7884SOL    HW235286   0.319   3.823   8.823 -2.1373  1.6239  1.4840
 7885SOL     OW35287   3.029   0.646   1.827  0.4845  0.5444  0.0722
 7885SOL    HW135288   3.000   0.554   1.825 -2.6107  1.5194 -0.5252
 7885SOL    HW235289   3.117   0.632   1.792  0.5754  0.3322  0.3825
 7886SOL     OW35290   0.749   1.370   6.809  0.2644 -0.2435  0.0253
 7886SOL    HW135291   0.724   1.384   6.717 -0.8025  1.0696  0.5256
 7886SOL    HW235292   0.792   1.287   6.788 -0.3355 -0.1219 -1.7049
 7887SOL     OW35293   3.402   1.228   5.967 -0.1779  0.0972  0.6853
 7887SOL    HW135294   3.319   1.274   5.953  0.7422  1.7827  0.8394
 7887SOL    HW235295   3.408   1.248   6.060 -1.4460  1.5305  0.4572
 7888SOL     OW35296   0.470   3.563   6.403  0.4507 -0.0718 -0.5299
 7888SOL    HW135297   0.515   3.643   6.428 -1.3588  0.2009  1.8215
 7888SOL    HW235298   0.533   3.514   6.350  1.8644  0.9939  0.1755
 7889SOL     OW35299   0.441   1.774  11.984 -0.2880 -0.5221  0.2819
 7889SOL    HW135300   0.409   1.850  11.935  0.0400 -1.9125 -2.1013
 7889SOL    HW235301   0.475   1.814  12.064 -0.1736 -1.7216  0.8372
 7890SOL     OW35302   3.435   2.959  13.667 -0.3058  0.2926 -0.0181
 7890SOL    HW135303   3.515   2.937  13.715 -0.3047 -2.2493 -1.2121
 7890SOL    HW235304   3.377   2.986  13.738 -1.4200 -0.9676 -0.4571
 7891SOL     OW35305   2.224   1.091   2.999  0.7853 -0.1783  0.1337
 7891SOL    HW135306   2.319   1.092   2.986  0.5297  1.6681 -1.5751
 7891SOL    HW235307   2.211   0.996   3.004 -0.5774  0.1431  2.6216
 7892SOL     OW35308   2.232   1.263   5.921  0.2873 -0.4042 -0.8459
 7892SOL    HW135309   2.292   1.336   5.937 -0.8887  0.4498 -0.3765
 7892SOL    HW235310   2.223   1.232   6.011 -0.4664 -0.7789 -1.0508
 7893SOL     OW35311   4.493   0.908  11.451 -0.3403 -0.3687  0.3298
 7893SOL    HW135312   4.556   0.934  11.519  0.1263 -0.0462 -0.2233
 7893SOL    HW235313   4.518   0.977  11.390 -1.9805 -1.1212 -1.1809
 7894SOL     OW35314   0.984   3.250  12.103 -0.3502 -0.5388 -0.3516
 7894SOL    HW135315   0.977   3.332  12.151 -2.4676 -1.3540  0.7581
 7894SOL    HW235316   0.930   3.280  12.030 -0.3033  0.4224  0.0097
 7895SOL     OW35317   4.488   1.168   7.194 -0.7077 -0.2262  0.1216
 7895SOL    HW135318   4.523   1.117   7.121  0.9723  2.1660 -0.7767
 7895SOL    HW235319   4.401   1.194   7.164 -0.8558 -0.0016  0.7518
 7896SOL     OW35320   0.264   3.598   5.032  0.1400 -0.0112  0.2032
 7896SOL    HW135321   0.280   3.614   4.939  1.0837 -1.6374  0.0790
 7896SOL    HW235322   0.346   3.548   5.037 -0.2003 -0.4443  1.3800
 7897SOL     OW35323   3.607   3.971   6.259  0.0151  0.3637  0.1155
 7897SOL    HW135324   3.611   3.931   6.173  0.9789  0.3008  0.1953
 7897SOL    HW235325   3.582   4.059   6.231  3.1911  0.8595 -1.0882
 7898SOL     OW35326   0.981   1.096   3.064  0.1024 -0.6375 -0.0398
 7898SOL    HW135327   0.925   1.161   3.108  2.0417 -1.3113  3.4175
 7898SOL    HW235328   1.065   1.097   3.110 -0.7085 -0.6030  1.4290
 7899SOL     OW35329   0.333   1.542  11.994  0.0292  0.1421 -0.9421
 7899SOL    HW135330   0.374   1.629  11.992 -0.6262  0.4433 -1.1567
 7899SOL    HW235331   0.240   1.559  12.002  0.4315  1.6812  0.5825
 7900SOL     OW35332   1.787   1.921   2.542  0.2593 -0.0304  0.5325
 7900SOL    HW135333   1.859   1.979   2.566  0.4505 -0.1558  0.2540
 7900SOL    HW235334   1.838   1.846   2.513 -1.1907 -0.2267 -1.4788
 7901SOL     OW35335   1.985   4.161   0.064 -0.2274 -0.0292  0.2508
 7901SOL    HW135336   2.000   4.245   0.107 -1.9285 -0.2169  1.2117
 7901SOL    HW235337   1.891   4.154   0.081 -0.1376 -2.7221 -0.3542
 7902SOL     OW35338   2.358   2.947   2.490  0.4845 -0.0128  0.2373
 7902SOL    HW135339   2.305   2.896   2.429  0.6689 -0.1133  0.1602
 7902SOL    HW235340   2.443   2.912   2.461  0.3608 -1.0887  1.1821
 7903SOL     OW35341   1.333   0.165   8.725 -0.2621 -0.8241 -0.0881
 7903SOL    HW135342   1.279   0.105   8.672  0.7649  0.4271 -2.5323
 7903SOL    HW235343   1.276   0.242   8.718 -0.1906 -0.6223  1.7548
 7904SOL     OW35344   2.015   0.637   7.797 -0.1639  0.2456  0.1931
 7904SOL    HW135345   2.102   0.596   7.795 -0.8676 -1.3018  1.4672
 7904SOL    HW235346   1.971   0.584   7.730  0.6567 -0.9868  0.6283
 7905SOL     OW35347   1.215   3.109   0.662  0.0647 -0.3116 -0.3344
 7905SOL    HW135348   1.228   3.031   0.716 -0.7624 -0.6976 -0.6777
 7905SOL    HW235349   1.171   3.068   0.587 -0.2212  0.6488 -0.6930
 7906SOL     OW35350   1.834   3.035   1.433  0.0271 -0.1391  0.0172
 7906SOL    HW135351   1.814   2.980   1.509 -2.2711  0.6860  0.0043
 7906SOL    HW235352   1.778   3.009   1.360 -3.5495  1.5391  2.1848
 7907SOL     OW35353   1.343   1.024   1.694  0.4337  0.5260 -0.6522
 7907SOL    HW135354   1.278   0.954   1.683  0.7359  0.6457 -3.0689
 7907SOL    HW235355   1.379   0.995   1.778  1.4655 -1.5071 -1.7740
 7908SOL     OW35356   2.058   0.794   3.983 -0.3742  0.5029 -0.1575
 7908SOL    HW135357   2.067   0.870   3.924  0.6698 -1.0469 -1.9821
 7908SOL    HW235358   2.114   0.826   4.054 -1.8435  2.8893 -0.0347
 7909SOL     OW35359   3.613   4.212   3.586  0.8608 -0.4103 -0.0678
 7909SOL    HW135360   3.526   4.179   3.562  0.8381 -1.1104  0.9912
 7909SOL    HW235361   3.596   4.305   3.597  0.9661 -0.6278  1.9271
 7910SOL     OW35362   4.219   2.397   0.321  0.3001 -0.1164  0.3271
 7910SOL    HW135363   4.138   2.424   0.278 -0.6975 -5.2355 -0.9595
 7910SOL    HW235364   4.196   2.411   0.413  2.5708 -1.7181  1.1473
 7911SOL     OW35365   1.610   0.231   5.404  0.5065  0.5912  0.0433
 7911SOL    HW135366   1.533   0.204   5.455  0.9255  2.3426  1.6156
 7911SOL    HW235367   1.630   0.303   5.464  0.6687  1.3245 -0.8956
 7912SOL     OW35368   2.346   4.351   3.392  0.2174 -0.3317 -0.2045
 7912SOL    HW135369   2.295   4.387   3.320  1.5277  2.8677  0.4400
 7912SOL    HW235370   2.429   4.356   3.345  0.2656 -0.8941 -0.1711
 7913SOL     OW35371   0.822   0.150   3.549  0.1460  0.4238  0.0592
 7913SOL    HW135372   0.872   0.196   3.616 -1.1655  0.6543  0.8868
 7913SOL    HW235373   0.806   0.217   3.483  1.9533  0.3352 -0.4527
 7914SOL     OW35374   1.638   3.852  14.584  0.2388 -0.4500  0.1941
 7914SOL    HW135375   1.688   3.773  14.563  2.8260  1.1198  0.5842
 7914SOL    HW235376   1.608   3.881  14.498 -0.4732  2.1990  1.3305
 7915SOL     OW35377   1.999   2.167   5.965 -0.1126  0.6839 -0.1832
 7915SOL    HW135378   2.057   2.114   6.020 -0.2936 -0.9374 -1.5314
 7915SOL    HW235379   1.958   2.106   5.903 -2.2443 -0.8451  2.7594
 7916SOL     OW35380   2.922   1.778   6.561  0.2187 -0.9786 -0.0362
 7916SOL    HW135381   2.947   1.813   6.475 -2.0691 -1.8177 -1.0699
 7916SOL    HW235382   2.928   1.853   6.620 -1.8956  1.2656 -2.6465
 7917SOL     OW35383   1.345   2.766   5.979 -0.5991  0.6822  0.7349
 7917SOL    HW135384   1.405   2.780   6.052 -0.6784  0.6051  0.8158
 7917SOL    HW235385   1.410   2.766   5.909 -0.4492 -0.6678  0.8786
 7918SOL     OW35386   2.400   3.622   2.084 -0.3099 -0.1485  0.2981
 7918SOL    HW135387   2.466   3.691   2.073  0.6654 -1.4819 -2.3269
 7918SOL    HW235388   2.324   3.681   2.080 -0.3059 -0.0788  1.4734
 7919SOL     OW35389   0.861   4.226   1.333 -0.9066 -0.5256  0.6494
 7919SOL    HW135390   0.786   4.224   1.393 -1.4600 -0.0904 -0.0313
 7919SOL    HW235391   0.892   4.316   1.322  0.4660 -0.7110  2.9073
 7920SOL     OW35392   2.764   2.918   6.952 -0.3412  0.0073  0.1728
 7920SOL    HW135393   2.813   2.905   7.033 -0.5674  3.7158  0.9452
 7920SOL    HW235394   2.818   2.876   6.885 -0.4398 -0.2720  0.2696
 7921SOL     OW35395   0.381   2.307   9.162 -0.2870  0.0797  0.4213
 7921SOL    HW135396   0.437   2.377   9.129 -2.2065  1.1127 -0.6295
 7921SOL    HW235397   0.337   2.347   9.237 -3.0227 -0.9118 -0.6788
 7922SOL     OW35398   0.795   1.606  17.305 -0.2767 -0.1586  0.2925
 7922SOL    HW135399   0.720   1.666  17.305  0.1762  0.3891  1.7928
 7922SOL    HW235400   0.758   1.533  17.255 -0.7840 -0.1044  0.5925
 7923SOL     OW35401   1.075   0.781   4.115 -0.0521 -0.0364 -0.2171
 7923SOL    HW135402   1.002   0.742   4.162 -0.7539 -0.2103 -1.4450
 7923SOL    HW235403   1.121   0.698   4.100  0.1551 -0.0375  0.4186
 7924SOL     OW35404   0.682   3.369   2.284 -0.3455 -0.3141  0.0395
 7924SOL    HW135405   0.648   3.313   2.353  0.4179 -0.1320  0.5695
 7924SOL    HW235406   0.775   3.349   2.292  0.0321  0.7181 -1.6416
 7925SOL     OW35407   1.471   3.038   4.426 -0.0600 -0.2175 -0.0623
 7925SOL    HW135408   1.473   3.036   4.522  1.4438 -2.7722 -0.1505
 7925SOL    HW235409   1.392   3.090   4.410 -1.0723 -1.0080  2.2365
 7926SOL     OW35410   2.865   3.036   8.303 -0.0701 -0.4053  0.3823
 7926SOL    HW135411   2.865   2.940   8.307 -0.2002 -0.3571  1.5951
 7926SOL    HW235412   2.828   3.064   8.387 -2.6620 -0.2410 -0.8290
 7927SOL     OW35413   0.204   1.415   8.743  0.2931 -0.1102 -0.2913
 7927SOL    HW135414   0.248   1.338   8.707 -0.3545 -0.3415 -0.5916
 7927SOL    HW235415   0.197   1.379   8.831 -0.5057  0.5071 -0.1006
 7928SOL     OW35416   2.220   1.504   0.799  0.1913 -0.2133 -0.2671
 7928SOL    HW135417   2.219   1.447   0.722 -1.7691  1.4258 -1.4402
 7928SOL    HW235418   2.161   1.460   0.860 -0.8689  0.7518 -0.6002
 7929SOL     OW35419   0.774   0.684   3.801  0.2554  0.2825 -0.0312
 7929SOL    HW135420   0.853   0.633   3.820  0.4050  0.7196  0.5227
 7929SOL    HW235421   0.817   0.768   3.818  1.4712 -0.1940 -0.7297
 7930SOL     OW35422   1.699   3.732   7.481  0.2925  0.3641  0.2219
 7930SOL    HW135423   1.698   3.637   7.496  4.1629  0.6585  2.3805
 7930SOL    HW235424   1.636   3.770   7.542  1.5359 -1.0690  2.3812
 7931SOL     OW35425   0.430   1.542  14.851  0.6490 -0.3255  0.8010
 7931SOL    HW135426   0.457   1.622  14.806 -1.2144  0.5822  1.2771
 7931SOL    HW235427   0.517   1.507  14.867  0.1250 -2.4666 -1.0797
 7932SOL     OW35428   3.152   2.205   6.082 -1.2309 -0.4292 -0.3591
 7932SOL    HW135429   3.153   2.268   6.009 -2.2149 -0.2589 -0.2228
 7932SOL    HW235430   3.242   2.174   6.078 -0.4586  1.7465  0.4578
 7933SOL     OW35431   4.691   0.353   5.739  0.1575 -0.2493  0.3794
 7933SOL    HW135432   4.715   0.430   5.688 -1.1311 -0.1703 -0.1124
 7933SOL    HW235433   4.708   0.292   5.668 -0.0743  0.3735 -0.2176
 7934SOL     OW35434   2.209   4.558  16.639 -0.3276  0.2534  0.6669
 7934SOL    HW135435   2.152   4.631  16.663 -1.0965 -0.2651  0.3943
 7934SOL    HW235436   2.277   4.565  16.706  1.4311 -0.1934 -1.0716
 7935SOL     OW35437   4.639   2.369  13.254 -0.0449  0.0353 -0.3027
 7935SOL    HW135438   4.592   2.390  13.334 -0.1586 -2.0803  0.1677
 7935SOL    HW235439   4.633   2.274  13.256  1.6725 -0.0564  0.0659
 7936SOL     OW35440   0.324   2.001  11.804 -0.0211 -0.1186  0.9922
 7936SOL    HW135441   0.340   1.976  11.713 -0.3969 -0.9938  1.1674
 7936SOL    HW235442   0.230   1.990  11.818 -0.3197  1.2522  0.0370
 7937SOL     OW35443   1.143   0.818   1.538 -0.2519  0.2210  0.3578
 7937SOL    HW135444   1.164   0.726   1.555 -0.3722  0.3117  0.9988
 7937SOL    HW235445   1.096   0.841   1.618  0.3014 -0.9762  1.0155
 7938SOL     OW35446   3.387   3.213   6.719  0.4545  0.2934 -0.5712
 7938SOL    HW135447   3.348   3.256   6.643 -3.4329  0.3875  1.5223
 7938SOL    HW235448   3.440   3.150   6.670 -1.3805 -2.8534  1.4773
 7939SOL     OW35449   0.904   1.625   1.836  0.4996  0.1767  0.3446
 7939SOL    HW135450   0.850   1.609   1.758  0.3482  2.5681 -0.0450
 7939SOL    HW235451   0.907   1.720   1.824 -0.3289  0.3377  1.5002
 7940SOL     OW35452   0.046   4.654   8.335  0.1144  0.1070  0.2348
 7940SOL    HW135453   0.059   4.600   8.256 -0.6483  0.5802 -0.2135
 7940SOL    HW235454   0.047   4.591   8.407 -1.3725 -1.8042 -1.4021
 7941SOL     OW35455   3.198   0.957   4.272  0.9137 -0.7873 -0.5255
 7941SOL    HW135456   3.154   1.042   4.264 -0.2694 -1.4010 -0.5456
 7941SOL    HW235457   3.147   0.903   4.332  1.0730 -0.1243  0.2083
 7942SOL     OW35458   4.245   1.922   2.505 -0.2197  0.3192  0.1768
 7942SOL    HW135459   4.277   2.006   2.471 -0.4065 -0.5547 -2.1249
 7942SOL    HW235460   4.166   1.958   2.546 -2.5790  0.3183 -4.3003
 7943SOL     OW35461   3.328   2.908   8.285  0.1339 -0.4002  0.2680
 7943SOL    HW135462   3.328   2.994   8.327 -0.4923 -0.7128  0.9021
 7943SOL    HW235463   3.390   2.924   8.214 -0.3828  0.8116  0.0902
 7944SOL     OW35464   1.101   3.361  15.735 -0.0983 -0.3862  0.5977
 7944SOL    HW135465   1.150   3.433  15.775  2.7300 -2.0406  0.1198
 7944SOL    HW235466   1.025   3.413  15.709  0.5094 -1.6104 -3.6867
 7945SOL     OW35467   2.127   1.890   7.016  0.4352 -0.3795 -0.0142
 7945SOL    HW135468   2.156   1.902   7.106 -0.7648  1.1738  0.1497
 7945SOL    HW235469   2.128   1.794   7.015  0.7959 -0.3778  0.5064
 7946SOL     OW35470   0.559   4.449   2.623 -0.3695  0.2397 -0.1376
 7946SOL    HW135471   0.530   4.431   2.712 -0.7567 -4.0862 -1.1766
 7946SOL    HW235472   0.647   4.410   2.624  0.3933  1.9248 -0.7778
 7947SOL     OW35473   1.862   3.219   6.019 -0.0833  0.1054  0.2558
 7947SOL    HW135474   1.953   3.189   6.011  0.5454  2.5020 -1.8356
 7947SOL    HW235475   1.850   3.244   5.927 -0.2659  1.3870  0.6241
 7948SOL     OW35476   4.255   0.970  11.563  0.6675  0.6724 -0.1225
 7948SOL    HW135477   4.297   0.916  11.497 -1.3547  0.5515 -1.2979
 7948SOL    HW235478   4.327   0.998  11.621  0.9378 -0.4974  0.1106
 7949SOL     OW35479   2.929   0.494   8.699 -0.1918  0.4761  0.8488
 7949SOL    HW135480   2.954   0.577   8.659  0.6238 -0.7093 -1.1160
 7949SOL    HW235481   2.999   0.478   8.762  1.7832 -0.3791 -1.5540
 7950SOL     OW35482   3.316   1.986   5.077  0.2047  0.4582 -0.0974
 7950SOL    HW135483   3.331   1.990   5.172  0.8784 -0.4568 -0.1629
 7950SOL    HW235484   3.373   2.054   5.043  2.8092 -2.0951 -0.7772
 7951SOL     OW35485   0.079   4.136   9.067  0.0982  0.3276 -0.4347
 7951SOL    HW135486   0.107   4.056   9.112 -0.2358  1.0550  1.0473
 7951SOL    HW235487   4.734   4.150   9.111 -1.6259 -4.2425 -2.1799
 7952SOL     OW35488   2.928   1.289   3.363  0.1184 -0.1074 -0.7003
 7952SOL    HW135489   2.940   1.223   3.432 -0.3972 -0.7033 -1.1895
 7952SOL    HW235490   3.011   1.281   3.316  1.4984  1.9588  1.3863
 7953SOL     OW35491   2.579   2.997   0.800 -0.0811  0.3158 -0.1604
 7953SOL    HW135492   2.494   3.030   0.772 -1.9135 -1.3335  3.4994
 7953SOL    HW235493   2.569   2.902   0.797 -0.6871  0.4479 -2.0783
 7954SOL     OW35494   0.627   4.098   8.848 -0.2484  0.0496  0.3310
 7954SOL    HW135495   0.616   4.189   8.823  1.8468 -0.0749 -1.0243
 7954SOL    HW235496   0.645   4.102   8.942  2.8884  1.3010 -0.3495
 7955SOL     OW35497   3.192   0.831   3.920 -0.0203 -0.7665  0.2804
 7955SOL    HW135498   3.199   0.896   3.990 -1.0427  0.7161 -0.9939
 7955SOL    HW235499   3.098   0.821   3.907  0.1098 -0.8772 -0.5758
 7956SOL     OW35500   4.190   0.163   3.833  0.5246  0.0508  0.3561
 7956SOL    HW135501   4.230   0.250   3.837  1.0390 -0.2289  1.4315
 7956SOL    HW235502   4.151   0.147   3.919 -1.4866  0.6623 -0.4493
 7957SOL     OW35503   1.020   0.316   4.035 -0.5617  0.5147 -0.2847
 7957SOL    HW135504   1.070   0.237   4.014  1.2360  1.9531 -1.3345
 7957SOL    HW235505   0.955   0.318   3.965 -0.4185 -0.4895 -0.4459
 7958SOL     OW35506   4.584   3.762  12.806 -0.5805  0.5732 -0.0123
 7958SOL    HW135507   4.637   3.841  12.811 -0.3236  0.5434 -2.1197
 7958SOL    HW235508   4.498   3.803  12.818  0.4075  1.7160  3.2098
 7959SOL     OW35509   0.415   2.589   3.957 -0.4513 -0.4752  0.6898
 7959SOL    HW135510   0.420   2.684   3.967  0.3892 -0.2776 -1.8363
 7959SOL    HW235511   0.493   2.560   4.005 -0.7937 -1.4156  0.6690
 7960SOL     OW35512   3.315   1.720   9.717  0.3071  0.2248  0.1282
 7960SOL    HW135513   3.240   1.722   9.658 -1.0935 -2.2167  1.8348
 7960SOL    HW235514   3.331   1.815   9.717  3.1067 -0.2474  1.5528
 7961SOL     OW35515   0.297   4.123   3.282 -0.1604  0.1875  0.1974
 7961SOL    HW135516   0.218   4.175   3.269  2.1008  3.1162 -1.8589
 7961SOL    HW235517   0.283   4.063   3.209 -0.7959 -2.1581  2.2395
 7962SOL     OW35518   3.309   3.931   1.964  0.3492 -0.0455 -0.0374
 7962SOL    HW135519   3.286   3.878   1.887 -1.4083 -1.3925  1.4251
 7962SOL    HW235520   3.322   4.017   1.925  1.6895 -1.1885 -2.1399
 7963SOL     OW35521   3.290   3.370   5.808 -0.0299 -0.3196  0.4366
 7963SOL    HW135522   3.306   3.361   5.714  3.6954  0.7935  0.9535
 7963SOL    HW235523   3.347   3.301   5.842  0.9892 -1.2904 -3.2248
 7964SOL     OW35524   0.376   1.965  10.109  0.2071  0.4752 -0.5045
 7964SOL    HW135525   0.377   2.060  10.121 -1.1786  0.5251 -0.8024
 7964SOL    HW235526   0.366   1.933  10.198  2.5559  1.0044 -0.0443
 7965SOL     OW35527   3.497   0.229  11.247  0.0854  0.1283 -0.0607
 7965SOL    HW135528   3.461   0.148  11.283  1.2088  0.0976  0.9582
 7965SOL    HW235529   3.458   0.289  11.310  0.8923  2.9741 -2.2608
 7966SOL     OW35530   3.324   2.548   3.013 -0.1218  0.4578  0.4337
 7966SOL    HW135531   3.378   2.591   3.079 -0.8207 -0.7969  1.8149
 7966SOL    HW235532   3.365   2.583   2.934  0.8448 -2.8084 -0.5074
 7967SOL     OW35533   3.751   3.452   2.883 -0.1880 -0.4861 -0.3428
 7967SOL    HW135534   3.698   3.529   2.906 -1.2644 -1.8380  1.6630
 7967SOL    HW235535   3.778   3.484   2.797 -2.9497 -0.1285 -1.0625
 7968SOL     OW35536   1.513   3.144   1.500  0.4446  0.2590  0.7276
 7968SOL    HW135537   1.571   3.217   1.477  1.1745 -0.1955  1.1198
 7968SOL    HW235538   1.436   3.198   1.514  0.3883  0.5465 -0.7373
 7969SOL     OW35539   2.717   1.988   9.115 -0.1418 -0.0526 -0.3509
 7969SOL    HW135540   2.783   1.942   9.167 -1.1703 -0.2622  0.7799
 7969SOL    HW235541   2.750   1.989   9.026  1.3781 -1.3646  0.2001
 7970SOL     OW35542   2.810   2.450   3.401 -0.0113  0.0606 -0.4874
 7970SOL    HW135543   2.767   2.460   3.316 -0.4490  1.0043 -0.1567
 7970SOL    HW235544   2.808   2.542   3.428 -0.1295  1.2448 -4.4792
 7971SOL     OW35545   4.266   2.911  16.247 -0.4774 -0.1162 -0.0398
 7971SOL    HW135546   4.269   2.895  16.153 -0.4759  1.2349 -0.2690
 7971SOL    HW235547   4.206   2.985  16.239  0.2251  0.5431  0.7115
 7972SOL     OW35548   4.432   2.820  14.042 -0.7686  0.0339 -0.1287
 7972SOL    HW135549   4.370   2.796  14.111 -0.0699 -1.3375  0.0201
 7972SOL    HW235550   4.385   2.789  13.965  0.4808  0.5743 -1.1187
 7973SOL     OW35551   0.907   4.226   0.887 -0.2464 -0.3966  0.5354
 7973SOL    HW135552   0.863   4.173   0.820 -1.2744  2.0952 -0.7518
 7973SOL    HW235553   0.857   4.201   0.965 -0.1317 -0.8460  0.4683
 7974SOL     OW35554   2.758   3.875  13.537  0.5659 -0.2651 -0.0320
 7974SOL    HW135555   2.691   3.865  13.469 -0.0618 -1.4921  0.7518
 7974SOL    HW235556   2.816   3.800  13.523  2.4896  1.5473 -1.6863
 7975SOL     OW35557   3.505   3.640   9.055 -0.3999  0.7283  0.5254
 7975SOL    HW135558   3.474   3.571   8.997  1.0879 -0.9506  1.7183
 7975SOL    HW235559   3.484   3.604   9.142 -1.4984 -0.3442 -0.1857
 7976SOL     OW35560   0.245   3.828   6.676  0.3686 -0.7442  0.1747
 7976SOL    HW135561   0.322   3.781   6.707  0.1043 -0.0035  1.9240
 7976SOL    HW235562   0.280   3.912   6.645  0.5099 -0.8520  0.0408
 7977SOL     OW35563   0.555   2.488  14.427  0.5094  0.0610  0.3721
 7977SOL    HW135564   0.557   2.404  14.381  0.3152 -0.4074  1.2222
 7977SOL    HW235565   0.510   2.541  14.360 -0.8863 -2.7114 -0.9060
 7978SOL     OW35566   4.085   1.473   9.029 -0.2387 -0.2979  0.0319
 7978SOL    HW135567   4.121   1.561   9.016  0.1570 -0.5575 -0.6368
 7978SOL    HW235568   4.010   1.474   8.970 -0.2850 -0.1673  0.0926
 7979SOL     OW35569   1.046   1.054   5.911  0.2157  0.4664 -0.1735
 7979SOL    HW135570   0.995   1.072   5.832  0.5549 -1.7586 -0.9002
 7979SOL    HW235571   1.020   1.128   5.966 -2.8603 -1.3158  0.7734
 7980SOL     OW35572   2.742   1.305   8.793  0.1313 -0.0520  0.2110
 7980SOL    HW135573   2.692   1.227   8.817 -0.0064 -0.1378 -0.3466
 7980SOL    HW235574   2.813   1.271   8.738  0.1251  2.6231 -1.4481
 7981SOL     OW35575   0.237   2.098   0.890 -0.6180 -0.0032  0.2572
 7981SOL    HW135576   0.301   2.109   0.960 -0.5099  0.1886  0.1273
 7981SOL    HW235577   0.199   2.012   0.910  2.4538 -1.4857 -0.2819
 7982SOL     OW35578   3.661   3.933   5.119  0.1146 -0.1202 -0.3450
 7982SOL    HW135579   3.715   3.944   5.197 -0.7797 -2.1381  0.5489
 7982SOL    HW235580   3.572   3.952   5.148 -0.2626 -1.3073 -0.6934
 7983SOL     OW35581   1.474   2.941   4.149  0.2426 -0.1989  0.1780
 7983SOL    HW135582   1.395   2.947   4.095  0.8741  3.0792 -0.3654
 7983SOL    HW235583   1.441   2.958   4.237  0.4689 -0.5402  0.3309
 7984SOL     OW35584   2.203   1.780   6.184  0.1579  0.2066  0.5986
 7984SOL    HW135585   2.118   1.814   6.155 -0.0087 -0.6994  0.0533
 7984SOL    HW235586   2.250   1.821   6.111 -0.9103  0.4205  0.0262
 7985SOL     OW35587   0.183   3.978   3.062  0.0196 -0.3898  0.4793
 7985SOL    HW135588   0.154   3.914   3.127 -0.1394  0.3092  1.1045
 7985SOL    HW235589   0.238   3.928   3.003  0.1788 -0.5305  0.7468
 7986SOL     OW35590   3.298   0.153  14.720 -0.2954 -0.2273 -0.5572
 7986SOL    HW135591   3.350   0.098  14.662 -0.7253 -1.6249  0.4012
 7986SOL    HW235592   3.270   0.230  14.670 -2.2978  0.4339  1.5598
 7987SOL     OW35593   3.206   1.890   8.360 -0.3236  0.5444  0.6913
 7987SOL    HW135594   3.225   1.796   8.357  2.2748  1.0973 -0.2703
 7987SOL    HW235595   3.233   1.906   8.269 -0.5278  1.4351  0.7837
 7988SOL     OW35596   3.288   3.199   9.149 -0.2714  0.3855 -0.8351
 7988SOL    HW135597   3.215   3.157   9.103 -0.5843  1.0684 -0.9629
 7988SOL    HW235598   3.325   3.119   9.187  2.5318  1.7644 -0.7097
 7989SOL     OW35599   2.008   3.326   4.596  0.2057 -0.1112 -0.0095
 7989SOL    HW135600   2.065   3.277   4.655  0.0631 -2.2521 -1.6523
 7989SOL    HW235601   1.941   3.262   4.571  1.3548 -1.4572  0.3641
 7990SOL     OW35602   3.926   0.228   6.807 -0.2786 -0.0333  0.1633
 7990SOL    HW135603   3.956   0.307   6.851  2.1252 -0.8842  0.0598
 7990SOL    HW235604   3.943   0.159   6.871  2.1959 -0.1628 -0.6533
 7991SOL     OW35605   3.146   4.561  14.691  0.3601  0.2944 -0.3561
 7991SOL    HW135606   3.068   4.615  14.697 -0.0130 -0.3929  0.9609
 7991SOL    HW235607   3.136   4.500  14.764  0.4458  0.8022  0.0794
 7992SOL     OW35608   3.613   3.200   5.299 -0.8340  0.1568  0.0624
 7992SOL    HW135609   3.597   3.134   5.231  0.4982 -0.5524  0.4291
 7992SOL    HW235610   3.605   3.280   5.247 -0.9016  0.0111 -0.1503
 7993SOL     OW35611   2.719   4.048   1.884  0.5283  0.0237 -0.1238
 7993SOL    HW135612   2.784   4.036   1.954 -0.3169 -0.6529  0.5466
 7993SOL    HW235613   2.717   4.142   1.903 -1.7351 -0.1823  0.6801
 7994SOL     OW35614   3.826   3.672   7.295  0.0398 -0.1857  0.3618
 7994SOL    HW135615   3.880   3.686   7.373 -0.3822 -0.4011  0.6922
 7994SOL    HW235616   3.883   3.613   7.246 -1.0252 -1.4289  0.6417
 7995SOL     OW35617   1.098   2.739   2.995 -0.0207 -0.4165  0.2904
 7995SOL    HW135618   1.187   2.761   2.966  0.0416 -0.8902  0.1220
 7995SOL    HW235619   1.047   2.743   2.915  1.7208 -2.5362 -0.9219
 7996SOL     OW35620   0.587   2.498   8.255 -0.3571 -0.4154 -0.0394
 7996SOL    HW135621   0.649   2.426   8.248 -0.3101 -0.4843  1.0483
 7996SOL    HW235622   0.512   2.462   8.207 -0.0563 -1.8151  0.5360
 7997SOL     OW35623   4.341   0.481   2.898  0.0377  0.3582 -0.2468
 7997SOL    HW135624   4.351   0.453   2.807  0.8615 -0.6235  0.1404
 7997SOL    HW235625   4.370   0.399   2.938 -2.1139  0.6928  2.0231
 7998SOL     OW35626   0.532   4.019   4.306 -0.4596 -0.4427 -0.5776
 7998SOL    HW135627   0.539   4.111   4.282  0.0284 -0.3238  0.0121
 7998SOL    HW235628   0.444   4.013   4.343 -0.3890 -1.0793 -0.5120
 7999SOL     OW35629   1.454   1.530   4.834  0.3788  0.1298 -0.6510
 7999SOL    HW135630   1.511   1.581   4.777  1.4712 -1.3912 -0.9047
 7999SOL    HW235631   1.461   1.584   4.913  0.3218 -0.3649 -0.3098
 8000SOL     OW35632   0.041   3.641   4.512 -0.2597 -0.5884  0.1990
 8000SOL    HW135633   0.057   3.722   4.560 -1.1706  0.7784 -1.8168
 8000SOL    HW235634   0.021   3.579   4.582  1.1044  0.1884  1.2789
 8001SOL     OW35635   3.391   1.779   5.284 -0.6461 -0.7079 -0.0846
 8001SOL    HW135636   3.382   1.693   5.326 -1.2309 -0.5079  0.1886
 8001SOL    HW235637   3.448   1.760   5.209  2.0334  0.5826  1.5956
 8002SOL     OW35638   1.068   2.145   1.862  0.4470 -0.0466  0.1341
 8002SOL    HW135639   0.995   2.092   1.830 -2.1364  1.7038  3.2254
 8002SOL    HW235640   1.103   2.174   1.777 -1.8131  3.0888  0.2895
 8003SOL     OW35641   0.150   3.391  16.387 -0.6191  0.0521 -0.3046
 8003SOL    HW135642   0.074   3.449  16.379 -1.0483 -0.2694  1.3159
 8003SOL    HW235643   0.202   3.434  16.319 -2.6466 -0.1771 -1.9979
 8004SOL     OW35644   2.003   2.130   7.159  0.7550 -0.3284  0.0977
 8004SOL    HW135645   1.929   2.183   7.188  2.3144  0.4861  2.5669
 8004SOL    HW235646   1.985   2.108   7.068 -0.5220  0.9994  0.0270
 8005SOL     OW35647   3.623   3.411   6.000 -0.0065 -0.2411 -0.1112
 8005SOL    HW135648   3.627   3.404   5.904  1.9179  1.5236 -0.1736
 8005SOL    HW235649   3.656   3.323   6.019 -0.1235 -0.3634 -0.4816
 8006SOL     OW35650   2.682   2.699  13.864  0.0400 -0.2167 -0.1492
 8006SOL    HW135651   2.723   2.685  13.778 -0.8553  1.4557 -0.8375
 8006SOL    HW235652   2.594   2.724  13.838  0.3046  1.2492  0.3864
 8007SOL     OW35653   0.820   0.316   3.148  0.0605 -0.4072  0.1775
 8007SOL    HW135654   0.872   0.386   3.108 -1.9982  1.4512  0.7630
 8007SOL    HW235655   0.822   0.250   3.078  0.2654 -0.1175 -0.0933
 8008SOL     OW35656   0.796   0.164   7.350  0.2313 -0.4471  0.0171
 8008SOL    HW135657   0.739   0.216   7.407  0.5512 -1.4058  1.2219
 8008SOL    HW235658   0.748   0.167   7.268  0.2171 -2.3639 -0.0414
 8009SOL     OW35659   3.661   1.316   7.950 -0.0051  0.6110 -0.0020
 8009SOL    HW135660   3.570   1.321   7.922 -0.3402  0.4990  1.0591
 8009SOL    HW235661   3.698   1.307   7.862  0.4380  0.0914  0.2368
 8010SOL     OW35662   3.911   2.669   6.296  0.4795 -0.0543 -0.0332
 8010SOL    HW135663   3.908   2.625   6.212 -1.0947 -0.9859  0.5116
 8010SOL    HW235664   3.901   2.594   6.355  1.8081 -0.5266 -0.4042
 8011SOL     OW35665   0.962   4.292   8.955  0.4355 -0.5734  0.2416
 8011SOL    HW135666   0.952   4.282   9.049  0.6145  2.1617  0.5544
 8011SOL    HW235667   0.877   4.324   8.924 -0.2216 -0.8302  1.8152
 8012SOL     OW35668   0.915   1.564   7.472  0.1548 -0.0435  0.4822
 8012SOL    HW135669   0.930   1.523   7.387  2.3913 -1.9924  1.8041
 8012SOL    HW235670   0.989   1.625   7.473 -0.5660  0.8134  2.1877
 8013SOL     OW35671   3.321   1.761  11.472  0.5044  0.2250  0.3525
 8013SOL    HW135672   3.329   1.855  11.487  4.4813 -0.0381 -0.0462
 8013SOL    HW235673   3.318   1.757  11.376  1.0079 -0.9185  0.3916
 8014SOL     OW35674   3.773   0.348   4.405 -0.3663  0.3122  0.1187
 8014SOL    HW135675   3.810   0.274   4.358 -0.0432  0.6059 -0.0851
 8014SOL    HW235676   3.757   0.294   4.483  1.8550  0.2718  0.5571
 8015SOL     OW35677   3.816   4.355   4.413 -0.1463  0.2896 -0.1430
 8015SOL    HW135678   3.837   4.448   4.418  1.4826 -0.0048 -1.8531
 8015SOL    HW235679   3.901   4.320   4.439  0.0250 -0.0215 -1.1535
 8016SOL     OW35680   2.665   4.732   7.496 -0.2450 -0.0069  0.0518
 8016SOL    HW135681   2.750   0.015   7.456  0.6982 -1.4919  1.3095
 8016SOL    HW235682   2.641   4.645   7.466 -1.4971  0.4501 -0.3037
 8017SOL     OW35683   3.653   2.591   7.186 -0.1359  0.1478 -0.3832
 8017SOL    HW135684   3.721   2.654   7.208  0.0217 -1.0203  2.4791
 8017SOL    HW235685   3.591   2.601   7.258  0.6366 -2.6577  0.6452
 8018SOL     OW35686   1.566   4.092   6.891  0.2576 -0.0072 -0.0146
 8018SOL    HW135687   1.593   4.019   6.835  1.4259  0.0645  0.4344
 8018SOL    HW235688   1.481   4.056   6.915 -0.1692  0.2111 -1.2449
 8019SOL     OW35689   2.796   3.202   5.541 -0.4391  0.0473  0.2134
 8019SOL    HW135690   2.850   3.133   5.502 -0.6048 -0.4899  0.9310
 8019SOL    HW235691   2.707   3.168   5.528 -1.0361  1.9563 -0.7371
 8020SOL     OW35692   0.406   1.267   6.459 -0.1673  0.4353 -0.4169
 8020SOL    HW135693   0.384   1.182   6.494  1.4826 -0.6945 -2.0943
 8020SOL    HW235694   0.425   1.302   6.546  2.2258  2.1355 -1.6224
 8021SOL     OW35695   3.943   4.191  15.236  0.4197 -0.1033  0.3198
 8021SOL    HW135696   3.954   4.114  15.292 -0.2385 -0.2648  0.2190
 8021SOL    HW235697   4.008   4.171  15.169 -0.6045  1.3922 -1.1027
 8022SOL     OW35698   2.284   1.710   0.324  0.3975  0.0405 -0.6562
 8022SOL    HW135699   2.312   1.766   0.251  1.0804  0.6637  0.0950
 8022SOL    HW235700   2.280   1.769   0.398  1.1342  0.1260 -0.6849
 8023SOL     OW35701   4.285   0.547   1.171 -0.1121  0.1453 -0.1111
 8023SOL    HW135702   4.347   0.620   1.181  1.3225 -0.7745 -2.3578
 8023SOL    HW235703   4.341   0.477   1.139  1.2179  0.9462  0.4336
 8024SOL     OW35704   2.648   1.594   3.348  0.3520 -0.5937  0.7760
 8024SOL    HW135705   2.704   1.662   3.311 -1.3783  1.0267  1.1287
 8024SOL    HW235706   2.615   1.553   3.268  0.3928  1.7220 -0.4286
 8025SOL     OW35707   2.290   0.787   6.408  0.7764 -0.0942  0.4372
 8025SOL    HW135708   2.196   0.777   6.392  0.6152  1.3107  0.4736
 8025SOL    HW235709   2.289   0.781   6.504  0.4599  0.7476  0.4859
 8026SOL     OW35710   1.963   3.913   2.152 -0.2342 -1.0805  0.2246
 8026SOL    HW135711   1.868   3.910   2.140 -0.3706 -1.4495  1.3931
 8026SOL    HW235712   1.974   4.007   2.169  0.8073 -1.0780 -0.4442
 8027SOL     OW35713   2.838   3.106   4.926  0.2190  0.2987  0.0884
 8027SOL    HW135714   2.906   3.057   4.974 -0.8437 -0.2382  1.0599
 8027SOL    HW235715   2.890   3.136   4.852 -1.3720 -0.0099 -1.1409
 8028SOL     OW35716   2.331   0.315   5.003 -0.6903 -0.0040  0.1285
 8028SOL    HW135717   2.406   0.313   5.063 -1.7192 -1.6615  1.3228
 8028SOL    HW235718   2.299   0.225   4.997  1.3441 -0.8390  1.6627
 8029SOL     OW35719   4.070   1.157   4.208 -0.3178  0.0384 -0.3842
 8029SOL    HW135720   4.070   1.177   4.301  0.5530  2.2416 -0.8622
 8029SOL    HW235721   4.036   1.241   4.177  0.7987 -0.1760 -2.1938
 8030SOL     OW35722   2.073   3.899   6.729  0.3645 -0.0371 -0.1589
 8030SOL    HW135723   1.998   3.911   6.671 -0.0222 -0.2664  0.2970
 8030SOL    HW235724   2.032   3.873   6.811 -0.2656 -0.9468 -0.7619
 8031SOL     OW35725   0.344   1.968   5.752  0.3163  0.0470 -0.1950
 8031SOL    HW135726   0.335   2.063   5.753 -1.2625 -0.1060  0.7272
 8031SOL    HW235727   0.394   1.942   5.829  0.0073  2.3046  0.7624
 8032SOL     OW35728   1.806   1.300  13.812 -0.2407  0.0964  0.5233
 8032SOL    HW135729   1.831   1.224  13.864 -1.6452 -0.0408  1.0053
 8032SOL    HW235730   1.817   1.267  13.723 -0.4236 -1.7610  1.1985
 8033SOL     OW35731   1.600   0.592   3.604  0.5030  0.3112 -0.3582
 8033SOL    HW135732   1.538   0.656   3.570 -1.4718 -0.9948  0.7789
 8033SOL    HW235733   1.687   0.630   3.588  0.7943  0.8752  2.6019
 8034SOL     OW35734   3.511   1.160   8.195  0.2274  0.4516 -0.0828
 8034SOL    HW135735   3.439   1.190   8.140 -0.5660 -1.1261  0.1051
 8034SOL    HW235736   3.569   1.111   8.137 -2.9856 -0.5000 -2.4861
 8035SOL     OW35737   1.163   4.453  10.924 -0.0751 -0.3422  0.1549
 8035SOL    HW135738   1.206   4.378  10.965  1.8478 -0.6007 -2.2904
 8035SOL    HW235739   1.114   4.487  10.999 -1.7373 -1.8518 -0.2520
 8036SOL     OW35740   1.325   1.843   2.966 -0.2294  0.1703 -0.2804
 8036SOL    HW135741   1.230   1.844   2.979 -0.2922  0.6058 -0.7602
 8036SOL    HW235742   1.345   1.764   2.915 -1.0323  0.4285 -1.0081
 8037SOL     OW35743   3.208   1.812   3.102 -0.3102  0.4325  0.2559
 8037SOL    HW135744   3.243   1.887   3.055 -0.9007 -0.0893 -1.0207
 8037SOL    HW235745   3.289   1.762   3.106 -0.5178  0.1668  1.1333
 8038SOL     OW35746   4.332   0.726  17.006 -0.0318 -0.7794  0.2703
 8038SOL    HW135747   4.302   0.726  17.097 -0.2529 -1.5533  0.2005
 8038SOL    HW235748   4.426   0.715  17.023  0.1097  0.2158  0.1088
 8039SOL     OW35749   0.644   3.592   1.822 -0.2842  0.3339 -0.4079
 8039SOL    HW135750   0.612   3.681   1.803 -2.4073 -0.5283 -0.8208
 8039SOL    HW235751   0.566   3.556   1.865 -0.8485  0.1097 -1.6047
 8040SOL     OW35752   1.084   1.283   2.085  0.0164  0.4073  0.1932
 8040SOL    HW135753   1.032   1.270   2.164 -1.5812  1.8382 -0.6410
 8040SOL    HW235754   1.175   1.275   2.115 -0.7252 -0.1337  2.2993
 8041SOL     OW35755   3.017   0.484   7.153  0.3637 -0.5252 -0.3775
 8041SOL    HW135756   2.981   0.446   7.233  1.3385  1.7939  1.1642
 8041SOL    HW235757   2.944   0.466   7.094 -1.1334  1.4242  0.9059
 8042SOL     OW35758   0.141   1.462   7.535  0.3679 -0.7145 -0.1483
 8042SOL    HW135759   0.125   1.371   7.511  1.6585 -1.5486  2.1590
 8042SOL    HW235760   0.127   1.497   7.446  4.1307 -3.0820 -1.7050
 8043SOL     OW35761   1.689   1.435   7.676 -0.4641 -0.1705  0.0008
 8043SOL    HW135762   1.607   1.475   7.705  0.0897  1.9538 -1.3832
 8043SOL    HW235763   1.737   1.420   7.757 -1.4233 -0.1624  0.5784
 8044SOL     OW35764   2.528   3.401   5.662 -0.1963  0.2455 -0.1267
 8044SOL    HW135765   2.452   3.435   5.709  1.8112  3.2265  0.8960
 8044SOL    HW235766   2.570   3.355   5.735 -1.1954  1.2701  1.0793
 8045SOL     OW35767   3.334   0.677   2.068 -0.1042 -0.5218 -0.2470
 8045SOL    HW135768   3.302   0.625   2.142 -2.1863 -0.5535 -1.1555
 8045SOL    HW235769   3.364   0.752   2.119  1.8861 -1.5754  0.1149
 8046SOL     OW35770   0.263   4.545   7.609  0.2143  0.2572  0.0737
 8046SOL    HW135771   0.230   4.462   7.574 -1.0064  0.8543 -0.1756
 8046SOL    HW235772   0.356   4.531   7.627  1.1332  3.5886 -2.1873
 8047SOL     OW35773   4.018   1.340   0.724  0.8637  0.4158 -0.1351
 8047SOL    HW135774   4.091   1.306   0.672  0.7088  0.7324 -0.5613
 8047SOL    HW235775   3.959   1.264   0.725  0.0184  1.1099  1.2029
 8048SOL     OW35776   0.850   0.266  16.111  0.0815 -0.6823  0.2247
 8048SOL    HW135777   0.829   0.337  16.052  1.1193 -0.3280  0.2693
 8048SOL    HW235778   0.882   0.323  16.181  0.3421  0.5053 -0.8552
 8049SOL     OW35779   1.839   1.416   6.531 -0.4838  0.1004  0.1789
 8049SOL    HW135780   1.865   1.498   6.490 -0.4742 -1.2802 -2.5964
 8049SOL    HW235781   1.801   1.447   6.613  0.5608  0.4835  0.5175
 8050SOL     OW35782   3.603   2.946  13.177 -0.1899 -0.1377  0.1919
 8050SOL    HW135783   3.574   2.992  13.098 -4.0612 -3.6333 -0.4624
 8050SOL    HW235784   3.563   2.996  13.248 -0.9149  1.0433 -1.0388
 8051SOL     OW35785   3.897   3.350  16.193  0.5450 -0.4327 -0.2329
 8051SOL    HW135786   3.934   3.393  16.270 -1.4746 -0.3811  0.7103
 8051SOL    HW235787   3.814   3.395  16.178  0.5983  0.7942  3.2551
 8052SOL     OW35788   3.439   2.477   6.855 -0.1609  0.1936 -0.2530
 8052SOL    HW135789   3.488   2.419   6.797  0.7627 -0.3033  1.0232
 8052SOL    HW235790   3.446   2.566   6.820  0.2134  0.5194  0.6394
 8053SOL     OW35791   4.574   4.011  16.365  0.8887  0.3177  0.4942
 8053SOL    HW135792   4.521   4.004  16.444 -0.3180 -1.6367 -0.5045
 8053SOL    HW235793   4.561   4.096  16.322  1.4796  0.3028  0.2907
 8054SOL     OW35794   2.970   2.926   2.348  0.3992  0.0752 -0.1031
 8054SOL    HW135795   2.947   2.968   2.431  0.5012 -2.2070  1.1058
 8054SOL    HW235796   2.972   3.009   2.302  1.1851  0.0687 -0.0769
 8055SOL     OW35797   0.116   3.088   3.512 -0.2972 -0.0780  0.0602
 8055SOL    HW135798   0.040   3.034   3.491 -0.1147 -0.4294  0.2796
 8055SOL    HW235799   0.149   3.111   3.425 -0.9070 -0.9977 -0.4110
 8056SOL     OW35800   3.682   1.239   5.482  0.0819 -0.0148 -0.0636
 8056SOL    HW135801   3.667   1.172   5.549 -0.7375 -0.4328 -0.6616
 8056SOL    HW235802   3.619   1.303   5.514 -0.5725 -0.3457 -0.6900
 8057SOL     OW35803   1.140   4.554   3.960  0.0126  0.1935  0.2807
 8057SOL    HW135804   1.132   4.469   4.005 -1.6435 -0.2178 -0.7842
 8057SOL    HW235805   1.057   4.557   3.913 -0.1300 -0.5341  0.4746
 8058SOL     OW35806   3.751   1.305  11.937 -0.5286  0.4479 -0.5060
 8058SOL    HW135807   3.817   1.335  11.874  1.6850  1.2954  2.2317
 8058SOL    HW235808   3.669   1.320  11.890 -0.7413  1.0918  0.0640
 8059SOL     OW35809   3.747   2.852  10.860 -0.2025  0.3484  0.1659
 8059SOL    HW135810   3.679   2.787  10.842  1.0627 -1.3166  1.4908
 8059SOL    HW235811   3.808   2.843  10.787 -1.6369 -1.2993 -0.8329
 8060SOL     OW35812   0.565   3.178   4.863 -0.5715 -0.4687 -0.1135
 8060SOL    HW135813   0.643   3.209   4.910 -1.1598  2.1502 -0.8987
 8060SOL    HW235814   0.545   3.103   4.919 -0.4831 -0.1082  0.4027
 8061SOL     OW35815   3.815   1.170  12.226 -0.2688 -0.1214 -0.1031
 8061SOL    HW135816   3.752   1.202  12.161 -0.3859  0.6124  0.3753
 8061SOL    HW235817   3.864   1.105  12.174 -0.6034  0.1285 -0.7361
 8062SOL     OW35818   1.524   3.694   9.713  0.6613  0.0078 -0.0814
 8062SOL    HW135819   1.506   3.779   9.754 -1.7779  1.0102 -3.2260
 8062SOL    HW235820   1.556   3.725   9.628  1.4786 -0.3140  0.1059
 8063SOL     OW35821   3.646   1.784   6.362 -0.2222 -0.1791  0.2112
 8063SOL    HW135822   3.553   1.806   6.363 -0.4438 -1.1512  0.2202
 8063SOL    HW235823   3.687   1.871   6.370 -0.0838 -0.2691  0.5010
 8064SOL     OW35824   2.278   4.488   2.334  0.0778 -0.3254  0.3507
 8064SOL    HW135825   2.212   4.534   2.282 -0.7454 -1.0837  0.7303
 8064SOL    HW235826   2.357   4.537   2.310 -1.4423  1.9932  0.0678
 8065SOL     OW35827   2.777   4.088  10.914 -0.0776 -0.3222  0.8584
 8065SOL    HW135828   2.770   4.020  10.847 -0.1202  0.2057  0.3281
 8065SOL    HW235829   2.772   4.035  10.994  0.6318 -0.7403  0.6220
 8066SOL     OW35830   2.035   2.660   3.799 -0.4160 -0.3732 -0.4308
 8066SOL    HW135831   2.001   2.628   3.883  0.6939 -2.2078 -0.6776
 8066SOL    HW235832   1.962   2.632   3.743  1.2624 -0.8580 -2.3626
 8067SOL     OW35833   0.643   3.641   4.272 -0.0401 -1.3483  0.3781
 8067SOL    HW135834   0.645   3.562   4.217 -1.6497 -0.6770 -0.6624
 8067SOL    HW235835   0.550   3.665   4.268 -0.0109 -1.0538  1.7223
 8068SOL     OW35836   4.328   2.355   8.618 -0.1979 -0.2782 -0.0265
 8068SOL    HW135837   4.237   2.378   8.635 -0.0586 -0.2522  0.6513
 8068SOL    HW235838   4.323   2.336   8.524 -0.3794  0.2862 -0.1334
 8069SOL     OW35839   1.184   3.261  13.269  0.5997  0.4653 -0.8545
 8069SOL    HW135840   1.130   3.183  13.255  1.5941 -0.3202 -0.3724
 8069SOL    HW235841   1.260   3.226  13.316  0.6640  1.4925 -0.2042
 8070SOL     OW35842   2.041   3.893   5.266 -0.2406  0.3207  0.2178
 8070SOL    HW135843   2.101   3.833   5.222  0.6621  0.6132  1.0538
 8070SOL    HW235844   2.025   3.837   5.341 -1.1049  0.5703  0.2151
 8071SOL     OW35845   3.545   1.623  16.446  0.0413  0.1861  0.1607
 8071SOL    HW135846   3.517   1.542  16.489  2.3054 -1.2177 -1.0214
 8071SOL    HW235847   3.478   1.633  16.379 -0.6258  0.8247  0.9215
 8072SOL     OW35848   2.672   0.654   3.141  0.0080 -0.1510 -0.6797
 8072SOL    HW135849   2.631   0.605   3.212  0.4205 -0.1207 -0.4211
 8072SOL    HW235850   2.758   0.674   3.179 -0.7187 -0.4151  1.1017
 8073SOL     OW35851   0.052   3.199   9.376  0.1562  0.2409 -0.2578
 8073SOL    HW135852   0.046   3.218   9.469 -2.1115 -0.3040 -0.3041
 8073SOL    HW235853   4.706   3.156   9.358  0.3677  0.2043 -1.1691
 8074SOL     OW35854   1.872   0.129  10.285  0.1664  0.4500 -0.6239
 8074SOL    HW135855   1.959   0.146  10.320  0.3595  1.6510 -1.7284
 8074SOL    HW235856   1.826   0.105  10.366  0.6121  0.9217 -0.2342
 8075SOL     OW35857   2.560   4.179  13.261  0.2303  0.4960 -0.1095
 8075SOL    HW135858   2.625   4.179  13.191  2.0808  1.7551  1.6015
 8075SOL    HW235859   2.619   4.218  13.326  0.5904 -0.9297  0.4033
 8076SOL     OW35860   4.457   4.410   7.096  0.5042  0.2553  0.3652
 8076SOL    HW135861   4.489   4.443   7.180 -1.6804  0.6102  1.0789
 8076SOL    HW235862   4.387   4.474   7.083 -0.5086 -1.2761 -1.7153
 8077SOL     OW35863   1.716   2.142  16.087 -0.8569 -0.2974  0.2294
 8077SOL    HW135864   1.637   2.094  16.063 -1.9550  0.4760  2.2850
 8077SOL    HW235865   1.739   2.095  16.167 -0.6177 -0.2952  0.1628
 8078SOL     OW35866   2.815   3.410  14.885 -0.5289 -0.3023 -0.1755
 8078SOL    HW135867   2.781   3.329  14.923  0.9051 -1.0811 -0.5570
 8078SOL    HW235868   2.907   3.417  14.908 -0.4766  1.0763 -0.7668
 8079SOL     OW35869   4.051   3.176   5.377 -0.1706 -0.2573 -0.6436
 8079SOL    HW135870   3.982   3.176   5.444  0.1788  0.3632 -0.2820
 8079SOL    HW235871   4.124   3.158   5.435 -1.7474 -1.9547  0.8148
 8080SOL     OW35872   4.033   0.630   4.890 -0.1343 -0.8340  0.5026
 8080SOL    HW135873   4.009   0.543   4.860  1.8142 -1.9755  2.2816
 8080SOL    HW235874   4.077   0.658   4.809 -2.0644  1.0612  0.1203
 8081SOL     OW35875   3.995   2.652   3.258 -0.1390  0.4528 -0.4367
 8081SOL    HW135876   4.026   2.737   3.227  0.9387  0.4498  0.6137
 8081SOL    HW235877   4.076   2.601   3.257  1.2969  2.6678  2.1474
 8082SOL     OW35878   3.888   1.934   7.646 -0.2485 -0.0971  0.6204
 8082SOL    HW135879   3.842   1.892   7.574 -0.1806  1.1431 -0.1386
 8082SOL    HW235880   3.847   2.019   7.655  0.5133  0.3988 -0.5702
 8083SOL     OW35881   0.755   3.226   5.926 -0.2265 -0.3213  0.4611
 8083SOL    HW135882   0.820   3.207   5.859  0.2626 -1.6108  1.3104
 8083SOL    HW235883   0.779   3.315   5.952  0.7545 -0.4009 -0.1754
 8084SOL     OW35884   0.962   0.320   0.665 -0.1855  0.1160  0.2942
 8084SOL    HW135885   0.903   0.392   0.688  0.0823  0.7678 -1.0707
 8084SOL    HW235886   0.912   0.245   0.695 -3.3854  1.8163 -0.8011
 8085SOL     OW35887   3.826   1.811  14.405 -0.2168  0.3258 -0.3903
 8085SOL    HW135888   3.751   1.752  14.414 -0.3221  0.2115 -1.9952
 8085SOL    HW235889   3.860   1.791  14.318  0.7041 -1.5500  0.4052
 8086SOL     OW35890   0.977   0.413   2.336  0.8579  0.1577 -0.4263
 8086SOL    HW135891   1.061   0.392   2.295  1.4872  1.7565  0.0084
 8086SOL    HW235892   0.929   0.337   2.303  1.5530 -0.0592 -0.9452
 8087SOL     OW35893   3.757   3.723  17.012 -0.0005  0.3458 -0.1811
 8087SOL    HW135894   3.674   3.676  17.016 -0.1108  0.6357  0.8430
 8087SOL    HW235895   3.763   3.755  17.101 -0.0625 -1.8142  0.5981
 8088SOL     OW35896   1.273   2.419   4.123  0.3590 -0.0447 -0.0281
 8088SOL    HW135897   1.275   2.333   4.166  0.8983  0.9553  1.9849
 8088SOL    HW235898   1.245   2.392   4.036  2.3478  1.4228 -1.1315
 8089SOL     OW35899   2.886   1.864   1.066  0.2269 -0.4423 -0.7120
 8089SOL    HW135900   2.949   1.842   0.998  1.2400  3.8534 -1.1658
 8089SOL    HW235901   2.910   1.810   1.142  1.2449 -0.9609 -1.4003
 8090SOL     OW35902   1.662   2.566   2.805 -0.2042  0.1713 -0.2843
 8090SOL    HW135903   1.621   2.623   2.740 -0.0387  0.8596  0.2219
 8090SOL    HW235904   1.720   2.625   2.852 -1.3533  0.8016  0.3530
 8091SOL     OW35905   1.219   4.554   3.305 -0.1989 -0.2285 -0.2214
 8091SOL    HW135906   1.300   4.605   3.309 -2.0841  2.6960  1.1171
 8091SOL    HW235907   1.226   4.493   3.378 -3.2219  2.8217  2.6620
 8092SOL     OW35908   2.756   3.099   4.277  0.0427  0.2196 -0.1883
 8092SOL    HW135909   2.818   3.155   4.230 -0.6029  1.0711 -0.0285
 8092SOL    HW235910   2.813   3.072   4.349  1.6974  1.0820 -1.1665
 8093SOL     OW35911   1.209   0.562  17.316  0.2972  0.4942 -0.6610
 8093SOL    HW135912   1.291   0.611  17.319 -0.4424  1.7139 -0.6332
 8093SOL    HW235913   1.231   0.494  17.380 -0.7384  0.8049  0.0327
 8094SOL     OW35914   3.863   4.237   7.666  0.2988 -0.4382 -0.4683
 8094SOL    HW135915   3.947   4.195   7.685  0.0614  0.2056  2.0008
 8094SOL    HW235916   3.810   4.159   7.682 -0.6192  0.5137  1.1196
 8095SOL     OW35917   2.149   2.272  13.641  0.0287 -0.1674  0.0281
 8095SOL    HW135918   2.056   2.273  13.621  0.0581 -3.5980 -0.3137
 8095SOL    HW235919   2.145   2.203  13.707  1.3974 -1.2289 -0.9984
 8096SOL     OW35920   2.443   3.571  13.997 -0.0886 -0.0902 -0.7610
 8096SOL    HW135921   2.375   3.618  14.047  1.5378 -0.4615  1.8105
 8096SOL    HW235922   2.512   3.551  14.060 -0.1843 -1.8301 -1.2267
 8097SOL     OW35923   3.759   3.177  16.517  0.0658 -0.5905  0.1719
 8097SOL    HW135924   3.755   3.260  16.565  3.1254 -0.0587 -0.5257
 8097SOL    HW235925   3.733   3.204  16.429  0.4928 -1.1766 -0.1370
 8098SOL     OW35926   3.446   3.760  11.619  0.0667  0.3275  0.0373
 8098SOL    HW135927   3.405   3.673  11.624 -1.7238  1.2958  2.3546
 8098SOL    HW235928   3.464   3.780  11.711  0.0655  0.1169  0.0844
 8099SOL     OW35929   1.456   0.335  10.182  0.1167  0.0258  0.0559
 8099SOL    HW135930   1.432   0.415  10.134 -2.4246 -1.2531 -0.7866
 8099SOL    HW235931   1.524   0.307  10.120 -1.2844  0.3669 -1.6525
 8100SOL     OW35932   0.296   1.222   4.161 -0.2552  0.4404  0.2713
 8100SOL    HW135933   0.251   1.175   4.091 -0.3096 -0.7522  1.1055
 8100SOL    HW235934   0.335   1.301   4.122 -0.3387 -0.2441 -1.1963
 8101SOL     OW35935   4.688   0.893  10.798  0.5112 -0.1512 -0.3179
 8101SOL    HW135936   4.648   0.942  10.870  0.3031  2.0246 -1.9150
 8101SOL    HW235937   4.654   0.945  10.725  2.5048 -0.6284 -1.5640
 8102SOL     OW35938   0.804   2.757  15.289 -0.2502 -0.7496 -0.2777
 8102SOL    HW135939   0.860   2.730  15.362  0.9866 -1.5233 -1.5133
 8102SOL    HW235940   0.777   2.670  15.258 -1.8734 -0.4819  0.3916
 8103SOL     OW35941   0.251   2.317  15.524 -0.4161  0.1779  0.0787
 8103SOL    HW135942   0.310   2.389  15.545 -0.0527 -0.1502  0.1876
 8103SOL    HW235943   0.260   2.300  15.430 -1.1044  0.6792 -0.0762
 8104SOL     OW35944   0.373   1.851   6.472  0.4933 -0.1970 -0.2509
 8104SOL    HW135945   0.331   1.937   6.479  0.8921  0.0752 -1.2615
 8104SOL    HW235946   0.298   1.794   6.488  0.3303  0.3182  0.8482
 8105SOL     OW35947   3.053   0.515   4.756 -0.5905 -0.1654 -0.4852
 8105SOL    HW135948   3.112   0.580   4.717  1.4425 -1.0518  1.1048
 8105SOL    HW235949   3.068   0.528   4.850 -2.7654  2.4491 -0.4793
 8106SOL     OW35950   2.071   0.439   6.194 -0.0253 -0.2214  0.1038
 8106SOL    HW135951   2.029   0.397   6.269  1.1389 -0.8296  0.4208
 8106SOL    HW235952   2.059   0.532   6.215 -0.3872  0.2085 -1.9853
 8107SOL     OW35953   1.708   3.030  17.010  0.3726 -0.1976  0.4547
 8107SOL    HW135954   1.634   3.017  17.069 -0.1330  2.0873  0.3183
 8107SOL    HW235955   1.783   3.001  17.062  1.5977 -0.8016 -1.6614
 8108SOL     OW35956   1.422   2.330  14.978 -0.2103  0.7154  0.0626
 8108SOL    HW135957   1.424   2.237  14.954 -2.9063  1.1563 -1.8557
 8108SOL    HW235958   1.332   2.359  14.986 -0.1844  1.0976 -1.0135
 8109SOL     OW35959   4.565   3.964  12.323 -0.3293 -0.0176 -0.0043
 8109SOL    HW135960   4.601   3.900  12.385 -1.8854  1.3050  2.2409
 8109SOL    HW235961   4.478   3.971  12.361  0.2558  1.3414  1.0677
 8110SOL     OW35962   3.492   2.778   7.686  0.2648 -0.4001  0.0177
 8110SOL    HW135963   3.566   2.838   7.673 -0.0001 -0.3596 -1.2449
 8110SOL    HW235964   3.464   2.783   7.595 -1.9283 -2.8418  0.5844
 8111SOL     OW35965   0.624   1.669   2.617  0.0889 -0.3306 -0.2452
 8111SOL    HW135966   0.645   1.642   2.706 -1.9608  0.5163  0.5029
 8111SOL    HW235967   0.679   1.606   2.572 -0.0477 -0.7705  0.2047
 8112SOL     OW35968   1.322   0.430   9.263  0.1426 -0.1885  0.4634
 8112SOL    HW135969   1.292   0.339   9.256 -0.6724  0.1363 -0.2476
 8112SOL    HW235970   1.376   0.430   9.184 -1.2894 -1.1254 -0.5360
 8113SOL     OW35971   1.390   2.056   8.087 -0.4197  0.1338 -0.2948
 8113SOL    HW135972   1.380   1.961   8.080 -0.3457  0.0546  0.6374
 8113SOL    HW235973   1.428   2.068   8.175  1.4032 -0.9624 -0.9295
 8114SOL     OW35974   0.402   2.784   2.086  0.0829  0.1115  0.4546
 8114SOL    HW135975   0.351   2.704   2.070  2.0963 -1.1442  0.3620
 8114SOL    HW235976   0.376   2.841   2.014  2.1593 -2.1573 -2.0325
 8115SOL     OW35977   0.529   1.516   4.232  0.0601  0.2382  0.1579
 8115SOL    HW135978   0.544   1.431   4.274 -1.2266 -1.0729 -2.0337
 8115SOL    HW235979   0.567   1.568   4.302  1.2175 -2.1057  1.2802
 8116SOL     OW35980   2.168   0.023  17.488  0.2754  0.3542 -0.0008
 8116SOL    HW135981   2.129   0.104  17.518  2.4412  0.8900  1.4005
 8116SOL    HW235982   2.115   4.685  17.513  1.5280 -0.0024  1.5981
 8117SOL     OW35983   1.736   0.843   7.403  0.1590  0.1592  0.5417
 8117SOL    HW135984   1.708   0.763   7.448 -0.9344  2.0960  3.3070
 8117SOL    HW235985   1.819   0.820   7.361 -1.0716 -2.1994 -0.6268
 8118SOL     OW35986   0.030   4.174   2.974 -0.1706 -0.0294  0.2430
 8118SOL    HW135987   0.091   4.101   2.984 -0.6360 -0.4188  0.2455
 8118SOL    HW235988   0.094   4.223   2.923  0.9112 -1.3002  0.3901
 8119SOL     OW35989   3.464   2.433   4.523  0.4583 -0.0404 -0.0580
 8119SOL    HW135990   3.516   2.359   4.492 -0.9332  0.0360 -2.6726
 8119SOL    HW235991   3.406   2.383   4.580  0.9875 -1.3610 -0.6693
 8120SOL     OW35992   3.864   0.761   0.186  0.1427 -0.1205  0.2708
 8120SOL    HW135993   3.829   0.786   0.272  0.8312 -1.3529  0.9105
 8120SOL    HW235994   3.801   0.689   0.182 -0.6784  0.6300 -0.3034
 8121SOL     OW35995   4.520   1.543   7.552 -0.6865  0.6740 -0.7162
 8121SOL    HW135996   4.450   1.593   7.509 -1.1580  1.0366  0.4755
 8121SOL    HW235997   4.565   1.499   7.480  2.9789  2.1108  0.6620
 8122SOL     OW35998   4.121   4.614   5.316  0.3161  0.2896  0.0640
 8122SOL    HW135999   4.029   4.614   5.344  0.6832 -1.0631  1.2789
 8122SOL    HW236000   4.136   4.520   5.305  2.1034  0.6096 -0.2108
 8123SOL     OW36001   0.759   1.347  16.889 -0.7230  0.4975  0.9627
 8123SOL    HW136002   0.731   1.383  16.804 -0.7627  0.7236  1.0728
 8123SOL    HW236003   0.758   1.420  16.951 -2.2027  1.0006  0.3616
 8124SOL     OW36004   2.981   0.119  10.337  0.0773  0.3360 -0.2934
 8124SOL    HW136005   3.028   0.151  10.415 -0.0125 -0.0018 -0.0995
 8124SOL    HW236006   2.900   0.167  10.354  0.6475  1.0874  0.3814
 8125SOL     OW36007   2.820   0.852   1.788 -0.2201  0.0724 -0.0329
 8125SOL    HW136008   2.877   0.907   1.734 -0.6860  1.3707  0.8153
 8125SOL    HW236009   2.879   0.778   1.804 -1.0181 -0.2593  1.3167
 8126SOL     OW36010   2.348   4.669   1.180  0.1729 -0.3541  0.0638
 8126SOL    HW136011   2.385   4.732   1.118 -1.2168  1.2802  0.8851
 8126SOL    HW236012   2.372   4.590   1.132 -0.0194  1.0914 -2.3677
 8127SOL     OW36013   1.833   4.197  16.651  0.0432  0.4073 -0.0693
 8127SOL    HW136014   1.827   4.233  16.563  0.2355 -1.6235 -0.8988
 8127SOL    HW236015   1.875   4.112  16.639 -0.1178  0.1562  1.1096
 8128SOL     OW36016   1.565   2.588   8.407  0.6148  0.5993 -0.6014
 8128SOL    HW136017   1.470   2.591   8.417  0.5114  0.0392 -1.4403
 8128SOL    HW236018   1.584   2.572   8.314 -1.6865  0.4176 -1.0451
 8129SOL     OW36019   3.685   3.948   3.914 -0.0766 -0.1215  0.1754
 8129SOL    HW136020   3.598   3.926   3.880 -0.2809  1.7829 -0.5093
 8129SOL    HW236021   3.730   3.870   3.881 -0.3843 -0.3446  0.2817
 8130SOL     OW36022   1.131   4.597   2.164 -0.5147 -0.1504  0.8568
 8130SOL    HW136023   1.172   4.679   2.192  0.6188 -0.7471  0.9416
 8130SOL    HW236024   1.048   4.615   2.209 -1.0260 -0.5495  0.0725
 8131SOL     OW36025   3.758   1.274   4.144 -0.0050  0.5944 -0.5136
 8131SOL    HW136026   3.668   1.268   4.176  0.6982  0.3357  1.4170
 8131SOL    HW236027   3.773   1.179   4.144 -0.1674  0.5603  1.8444
 8132SOL     OW36028   0.459   4.202   8.034 -0.1614  0.5231  0.1984
 8132SOL    HW136029   0.373   4.226   7.998 -1.5220 -2.5716  1.4213
 8132SOL    HW236030   0.507   4.217   7.952 -4.2926  1.0814 -2.1413
 8133SOL     OW36031   0.973   2.533   3.850  0.1510  0.1912 -0.4221
 8133SOL    HW136032   0.895   2.512   3.798 -0.5139  1.5944  0.0176
 8133SOL    HW236033   0.936   2.601   3.906 -1.0917 -0.8099 -0.0253
 8134SOL     OW36034   3.973   4.311  10.054  0.0892 -0.5575 -0.3002
 8134SOL    HW136035   3.932   4.264  10.126  0.9208 -0.9568 -0.0956
 8134SOL    HW236036   3.943   4.399  10.075  2.5026  0.1113  0.2142
 8135SOL     OW36037   3.364   2.561  15.921 -0.0623 -0.4324  0.7605
 8135SOL    HW136038   3.420   2.495  15.880  1.9872  0.8911  1.4432
 8135SOL    HW236039   3.428   2.631  15.936 -0.1765  0.1046 -1.1660
 8136SOL     OW36040   0.911   1.486  17.523 -0.2254 -0.1781 -0.0543
 8136SOL    HW136041   0.864   1.522  17.448 -0.7558 -1.9711 -0.5814
 8136SOL    HW236042   0.906   1.559  17.584  1.1080  0.3950 -0.6351
 8137SOL     OW36043   3.853   3.866   7.912 -0.2380  0.1427 -0.1374
 8137SOL    HW136044   3.764   3.832   7.900  0.5714 -2.5894  1.5516
 8137SOL    HW236045   3.895   3.845   7.829 -0.5626  4.6922 -1.4566
 8138SOL     OW36046   2.206   0.550   4.400  0.8147  1.0944 -0.1206
 8138SOL    HW136047   2.130   0.598   4.367 -0.1759 -0.9173 -0.7769
 8138SOL    HW236048   2.235   0.602   4.476  1.3704  0.7651 -0.1062
 8139SOL     OW36049   1.891   3.596   6.564 -0.3152 -0.0101  0.3430
 8139SOL    HW136050   1.975   3.582   6.608 -0.3347 -0.5746  0.2100
 8139SOL    HW236051   1.830   3.607   6.637 -1.4882 -1.5001 -0.4127
 8140SOL     OW36052   0.641   2.185   5.390  0.1026 -0.2350  0.5408
 8140SOL    HW136053   0.650   2.273   5.352  1.7091  0.4599  2.4841
 8140SOL    HW236054   0.601   2.148   5.312 -0.4162 -0.2439  0.8115
 8141SOL     OW36055   1.019   4.568  12.291  0.1114 -1.1474 -0.2244
 8141SOL    HW136056   1.081   4.552  12.361 -0.2535  0.2286  0.4059
 8141SOL    HW236057   1.075   4.552  12.215 -0.3806 -2.6124 -0.2827
 8142SOL     OW36058   1.849   3.105   4.677  0.1308  0.2382 -0.2327
 8142SOL    HW136059   1.876   3.075   4.764 -0.7712 -3.3239 -1.1573
 8142SOL    HW236060   1.769   3.153   4.696  1.5463  2.8929 -1.0533
 8143SOL     OW36061   2.948   3.235   7.757  0.3178 -0.2001 -0.2097
 8143SOL    HW136062   2.914   3.167   7.699 -2.8731  1.8482 -0.6900
 8143SOL    HW236063   2.946   3.305   7.692 -1.7278 -0.9607 -0.9668
 8144SOL     OW36064   3.705   3.835   7.094 -0.6635  0.1993 -0.0589
 8144SOL    HW136065   3.758   3.761   7.125  1.1602  1.2951 -0.5814
 8144SOL    HW236066   3.629   3.778   7.082 -0.9938  0.3050  1.5496
 8145SOL     OW36067   1.664   3.633   4.338 -0.5059 -0.2688 -0.0369
 8145SOL    HW136068   1.754   3.650   4.363 -0.7342 -0.1250  0.6892
 8145SOL    HW236069   1.665   3.668   4.249  0.5809  2.0971  0.9129
 8146SOL     OW36070   1.054   4.083   2.950  0.1229 -0.4699  0.3226
 8146SOL    HW136071   1.145   4.066   2.973  0.4590 -0.0592 -0.7301
 8146SOL    HW236072   1.021   4.000   2.916 -1.8283 -0.2833  1.7351
 8147SOL     OW36073   0.326   0.252   5.164 -0.2460 -0.5232  0.3482
 8147SOL    HW136074   0.349   0.238   5.073  0.5758  1.3282  0.2729
 8147SOL    HW236075   0.283   0.170   5.190 -2.7372  1.2341  1.7658
 8148SOL     OW36076   2.509   2.204   3.832  0.2017 -0.0034  0.5871
 8148SOL    HW136077   2.452   2.132   3.804 -0.6402  0.9119 -0.0743
 8148SOL    HW236078   2.514   2.175   3.923 -0.2875 -0.1549  0.5681
 8149SOL     OW36079   3.153   0.678   5.755  0.0205  0.3353 -0.4196
 8149SOL    HW136080   3.178   0.759   5.799 -0.3093  1.5759 -2.5371
 8149SOL    HW236081   3.059   0.695   5.746 -0.0875 -0.9945 -1.8427
 8150SOL     OW36082   0.146   3.294   4.031 -0.2809 -0.3594  0.2233
 8150SOL    HW136083   0.149   3.254   4.118  0.4506 -1.9866 -0.5652
 8150SOL    HW236084   0.101   3.225   3.984 -1.8075  0.1808  0.8739
 8151SOL     OW36085   2.592   3.539   2.299  0.3729  0.3974  0.2167
 8151SOL    HW136086   2.536   3.469   2.266  2.4191 -0.7212 -0.8733
 8151SOL    HW236087   2.622   3.582   2.219 -0.5705  1.5689  0.4855
 8152SOL     OW36088   2.137   0.888   1.645 -0.1658 -0.1402 -0.2850
 8152SOL    HW136089   2.181   0.874   1.729  0.3649  0.7817 -0.4204
 8152SOL    HW236090   2.044   0.884   1.669  0.0204  0.5721  0.5567
 8153SOL     OW36091   0.519   3.205   7.601  0.2655  0.2352  0.3629
 8153SOL    HW136092   0.541   3.135   7.662 -0.8239  0.9962  1.6122
 8153SOL    HW236093   0.439   3.245   7.634 -1.6275 -2.6229 -0.7513
 8154SOL     OW36094   0.423   2.630   3.691  0.0568  0.1635  0.2883
 8154SOL    HW136095   0.434   2.613   3.785 -2.5838 -3.0920  0.0087
 8154SOL    HW236096   0.329   2.616   3.700  0.0544  0.7499  1.2073
 8155SOL     OW36097   1.033   1.400   2.779 -0.2707 -0.4570 -0.6459
 8155SOL    HW136098   0.980   1.341   2.725 -0.9141 -0.5612  0.0844
 8155SOL    HW236099   0.960   1.429   2.835 -0.7724 -4.6199  0.8311
 8156SOL     OW36100   4.490   1.862   1.458  0.0194  0.0025 -0.3684
 8156SOL    HW136101   4.511   1.769   1.445 -0.8466 -0.3734  0.9459
 8156SOL    HW236102   4.443   1.875   1.375  2.1505  1.8707 -1.2796
 8157SOL     OW36103   1.719   4.254   7.054 -0.0140  0.0588 -0.6751
 8157SOL    HW136104   1.663   4.196   7.003  1.5226 -2.0776  0.0547
 8157SOL    HW236105   1.763   4.193   7.113  0.8904  1.0210 -0.3351
 8158SOL     OW36106   4.643   4.440   4.755 -0.5399  0.6786  0.2368
 8158SOL    HW136107   4.586   4.389   4.696 -1.0248 -0.1498  1.4054
 8158SOL    HW236108   4.641   4.404   4.844 -1.0490 -1.1818 -0.5280
 8159SOL     OW36109   0.936   1.202   2.328 -0.2140  0.2060  0.5579
 8159SOL    HW136110   0.856   1.149   2.333  0.3995 -0.8386 -0.6525
 8159SOL    HW236111   0.945   1.221   2.421 -1.6341 -0.6678  0.8755
 8160SOL     OW36112   2.112   0.061  16.761 -0.1112  0.1627 -0.2791
 8160SOL    HW136113   2.145   0.067  16.851 -1.4785  1.1787  0.1570
 8160SOL    HW236114   2.155   0.133  16.715  2.5220 -0.6310  0.9722
 8161SOL     OW36115   0.841   0.400   1.526  0.2914  0.2426  0.1501
 8161SOL    HW136116   0.755   0.412   1.486  1.1820  2.2124 -1.1775
 8161SOL    HW236117   0.890   0.430   1.449  1.3292  1.3728  1.2589
 8162SOL     OW36118   2.470   0.551   4.407 -0.7145  0.1185 -0.3531
 8162SOL    HW136119   2.380   0.522   4.420 -0.4073 -0.7841 -0.2679
 8162SOL    HW236120   2.526   0.474   4.406 -1.2495 -0.2640 -0.6787
 8163SOL     OW36121   3.014   0.194   9.488  0.2899 -0.6979  0.1096
 8163SOL    HW136122   2.982   0.127   9.548  0.2978 -0.4268  0.4184
 8163SOL    HW236123   2.973   0.278   9.512  2.2330  0.2766  0.0553
 8164SOL     OW36124   1.817   3.220  14.514 -0.0218 -0.2657 -0.0209
 8164SOL    HW136125   1.844   3.281  14.446  1.7155 -2.1168 -0.9692
 8164SOL    HW236126   1.768   3.149  14.473 -0.7982  0.6350 -0.6483
 8165SOL     OW36127   0.066   2.653  10.488  0.1919  0.0207  0.5402
 8165SOL    HW136128   0.093   2.743  10.470 -2.2081  0.4540 -0.8770
 8165SOL    HW236129   0.043   2.649  10.581  1.2903 -1.5976  0.7531
 8166SOL     OW36130   4.595   0.891   4.598  0.0859 -0.1772  0.3126
 8166SOL    HW136131   4.627   0.865   4.511 -0.1170  1.3682 -0.2261
 8166SOL    HW236132   4.678   0.883   4.646  0.2743 -2.5156 -0.4098
 8167SOL     OW36133   0.733   3.570   8.427 -0.0060  0.1973  0.4991
 8167SOL    HW136134   0.653   3.527   8.397  0.8651 -1.6973  0.8907
 8167SOL    HW236135   0.748   3.635   8.358  0.4380 -0.2122  0.2082
 8168SOL     OW36136   2.186   4.001   7.260 -0.2514 -0.2926  0.2673
 8168SOL    HW136137   2.163   4.070   7.322 -0.9973 -0.6425  0.3819
 8168SOL    HW236138   2.116   3.937   7.276  0.5034 -1.4833 -1.2103
 8169SOL     OW36139   1.059   1.911   9.126 -0.3498  0.6133 -0.2407
 8169SOL    HW136140   1.089   1.986   9.177  0.8058 -1.1103  1.6172
 8169SOL    HW236141   0.965   1.925   9.134 -0.0657  1.4105  1.8155
 8170SOL     OW36142   0.860   2.544   8.598  0.1375  0.8337  0.2057
 8170SOL    HW136143   0.771   2.558   8.631 -0.7058  1.0544 -2.1155
 8170SOL    HW236144   0.856   2.451   8.576 -0.5152  0.7373  0.7593
 8171SOL     OW36145   2.762   0.414   9.774  0.2202 -1.1274 -0.4978
 8171SOL    HW136146   2.710   0.376   9.702 -0.3469 -1.2109 -0.0469
 8171SOL    HW236147   2.803   0.491   9.735 -0.7216  0.2344  1.2206
 8172SOL     OW36148   0.012   1.118   9.138  0.7460  0.0326 -0.0998
 8172SOL    HW136149   0.006   1.029   9.103 -0.9874 -0.1647  0.7226
 8172SOL    HW236150   4.693   1.099   9.212  0.3686  1.1816 -0.0814
 8173SOL     OW36151   1.440   1.555   7.386  0.2712 -0.2618  0.0618
 8173SOL    HW136152   1.361   1.520   7.343  0.0531  1.4366 -0.9028
 8173SOL    HW236153   1.406   1.643   7.401 -1.1570 -0.7083 -0.5052
 8174SOL     OW36154   1.727   0.244  17.637  0.0416  0.4313 -0.3151
 8174SOL    HW136155   1.761   0.250  17.548  1.5992  1.0506  0.3255
 8174SOL    HW236156   1.732   0.150  17.653  0.1859  0.4216 -0.4163
 8175SOL     OW36157   1.783   2.804   7.184 -0.1734  0.0597 -0.1341
 8175SOL    HW136158   1.732   2.781   7.261 -1.2610 -1.6341 -1.3752
 8175SOL    HW236159   1.865   2.825   7.229 -1.2002  0.5943  1.5086
 8176SOL     OW36160   1.936   1.005  10.224  0.5851 -0.5042  0.4549
 8176SOL    HW136161   1.869   1.004  10.292  0.2685  1.2700  0.1815
 8176SOL    HW236162   1.878   1.000  10.148  2.1705 -2.1943 -0.6343
 8177SOL     OW36163   4.382   1.550  10.923  0.6751  0.7259 -0.2204
 8177SOL    HW136164   4.408   1.497  10.848 -2.0795  2.2249 -2.2474
 8177SOL    HW236165   4.305   1.500  10.949  0.6909 -0.1900 -1.9426
 8178SOL     OW36166   1.112   3.014   0.421 -0.3003 -0.1814 -0.0662
 8178SOL    HW136167   1.183   2.954   0.396 -0.1543  0.3300 -0.8908
 8178SOL    HW236168   1.034   2.979   0.379 -0.8942  2.0956 -0.9141
 8179SOL     OW36169   0.603   1.444   4.911 -0.4511  0.5582  0.5287
 8179SOL    HW136170   0.641   1.415   4.829  0.6123  1.0759  0.8424
 8179SOL    HW236171   0.513   1.469   4.891  0.6174  3.9969  0.0274
 8180SOL     OW36172   4.101   4.085   4.959 -0.0882  0.0993  0.2943
 8180SOL    HW136173   4.008   4.108   4.958 -0.4296 -1.3487 -1.3185
 8180SOL    HW236174   4.095   3.994   4.988  0.6446 -0.1643 -0.3815
 8181SOL     OW36175   1.217   3.934   7.417 -0.4296 -0.2203  0.4702
 8181SOL    HW136176   1.279   3.862   7.417 -0.9017 -0.6225 -0.6718
 8181SOL    HW236177   1.150   3.897   7.475  0.6527  0.9846  2.4995
 8182SOL     OW36178   0.864   0.945  14.917  0.2957 -0.2756 -0.1788
 8182SOL    HW136179   0.932   0.972  14.855  0.8543 -0.4058  0.3720
 8182SOL    HW236180   0.797   1.004  14.883 -0.0557 -0.6013 -0.0419
 8183SOL     OW36181   3.982   1.764   6.235  0.0092 -0.1660 -0.0330
 8183SOL    HW136182   3.941   1.778   6.150 -0.8845  3.1983  0.9699
 8183SOL    HW236183   3.951   1.674   6.249  0.7791 -0.4550 -0.1693
 8184SOL     OW36184   1.288   0.689  13.686 -0.5049  0.2939  0.2931
 8184SOL    HW136185   1.214   0.628  13.689  0.4628 -0.9596 -0.9277
 8184SOL    HW236186   1.235   0.767  13.672  0.1060  0.3738 -1.5117
 8185SOL     OW36187   0.569   4.679   7.745  0.7045  0.1491 -0.1007
 8185SOL    HW136188   0.592   4.592   7.713 -0.4710  0.2201 -1.1671
 8185SOL    HW236189   0.655   4.716   7.764  1.0598 -1.8454  2.1724
 8186SOL     OW36190   4.174   4.063  12.782 -0.5227 -0.8717 -0.1748
 8186SOL    HW136191   4.229   4.130  12.742  1.5395 -1.9757  0.8039
 8186SOL    HW236192   4.099   4.063  12.722 -0.5825  0.0196 -0.0903
 8187SOL     OW36193   2.781   4.481   9.409 -0.7219  0.1284 -0.2104
 8187SOL    HW136194   2.749   4.552   9.463 -2.7139 -1.3506  0.5571
 8187SOL    HW236195   2.876   4.486   9.415 -0.6286 -1.5052 -0.3221
 8188SOL     OW36196   4.402   0.422  10.203  0.4638 -0.1004  0.0254
 8188SOL    HW136197   4.473   0.393  10.146 -2.4531 -2.2993 -2.5020
 8188SOL    HW236198   4.442   0.493  10.254  0.2712 -0.3410  0.5096
 8189SOL     OW36199   2.074   1.786  10.118 -0.0021  0.6764  0.6482
 8189SOL    HW136200   2.031   1.860  10.075 -1.6780 -2.1126 -2.4811
 8189SOL    HW236201   2.045   1.716  10.059  2.8320 -0.4580  0.6050
 8190SOL     OW36202   0.536   2.342   1.806  0.2304 -0.5954 -0.6708
 8190SOL    HW136203   0.541   2.306   1.718  1.4483  1.7046 -1.5348
 8190SOL    HW236204   0.483   2.275   1.850  0.9370 -0.4545  0.3878
 8191SOL     OW36205   0.950   4.190   3.324  0.3261 -0.1861 -0.7272
 8191SOL    HW136206   0.878   4.252   3.312  1.4396  1.2023 -0.2874
 8191SOL    HW236207   1.017   4.231   3.270  2.0178 -0.7521  0.9333
 8192SOL     OW36208   4.189   3.830   3.733 -0.4073 -0.5354  0.4494
 8192SOL    HW136209   4.244   3.797   3.661  0.1626 -0.8218  1.0118
 8192SOL    HW236210   4.122   3.879   3.686 -2.0179 -2.3198  0.8924
 8193SOL     OW36211   0.960   2.886   5.447  0.4432  0.1193 -0.7224
 8193SOL    HW136212   1.010   2.967   5.458 -1.0210  0.6859  1.7668
 8193SOL    HW236213   1.036   2.837   5.415  0.2983 -0.3425 -0.3466
 8194SOL     OW36214   0.872   3.514  12.149 -0.2142 -0.9018 -0.3365
 8194SOL    HW136215   0.869   3.514  12.054 -1.2462  0.8331 -0.3189
 8194SOL    HW236216   0.781   3.501  12.176 -0.1487 -0.2486  0.2078
 8195SOL     OW36217   3.640   0.332   1.194  0.3193  0.3840 -0.1420
 8195SOL    HW136218   3.590   0.355   1.273  0.1297  3.1400 -1.0628
 8195SOL    HW236219   3.568   0.338   1.132  0.6682  1.0175 -0.4798
 8196SOL     OW36220   0.406   0.714   8.741 -0.6461  0.1199 -0.0770
 8196SOL    HW136221   0.345   0.643   8.718 -0.0938 -0.1102 -0.8476
 8196SOL    HW236222   0.454   0.683   8.817  1.2261  0.3755 -1.1450
 8197SOL     OW36223   4.360   1.778   7.440  0.6855 -0.7493  0.6935
 8197SOL    HW136224   4.417   1.786   7.364  0.3161  0.7694  0.5768
 8197SOL    HW236225   4.379   1.864   7.477  0.8138 -0.8170  0.7868
 8198SOL     OW36226   0.547   4.429   4.902  0.2332  0.0674  0.3310
 8198SOL    HW136227   0.605   4.364   4.862  0.2564  1.2060 -1.4898
 8198SOL    HW236228   0.466   4.385   4.926 -0.5044  0.9586 -0.4932
 8199SOL     OW36229   3.488   2.775   5.954  0.0317 -0.0038  0.2177
 8199SOL    HW136230   3.546   2.791   5.879 -1.1870  0.3845 -0.6497
 8199SOL    HW236231   3.403   2.786   5.911  0.9399 -1.1614 -1.9130
 8200SOL     OW36232   1.217   1.696   8.725 -0.3705 -0.4116 -0.2998
 8200SOL    HW136233   1.290   1.744   8.688 -1.4549  0.6479 -1.0766
 8200SOL    HW236234   1.246   1.605   8.720  1.1027  0.0398  0.0777
 8201SOL     OW36235   3.169   0.201   6.435 -0.3607  0.0621  0.0390
 8201SOL    HW136236   3.153   0.286   6.395  1.1453 -1.0608 -2.9209
 8201SOL    HW236237   3.085   0.163   6.409 -1.4617  4.0740 -2.1695
 8202SOL     OW36238   3.143   1.879   9.117 -0.1653  0.3441  0.3752
 8202SOL    HW136239   3.172   1.918   9.034 -0.2335  0.0832  0.2309
 8202SOL    HW236240   3.216   1.824   9.144  0.1973  0.8245  0.3910
 8203SOL     OW36241   1.469   3.076   1.220  0.4302  0.2894 -0.6117
 8203SOL    HW136242   1.457   3.105   1.311  0.6466  1.5380 -0.9754
 8203SOL    HW236243   1.553   3.032   1.235 -0.3333 -0.9544  0.0662
 8204SOL     OW36244   2.250   3.208  11.762  0.4575  0.6847  0.1942
 8204SOL    HW136245   2.328   3.260  11.744 -0.4128  0.7949 -3.3014
 8204SOL    HW236246   2.214   3.196  11.674  0.1666 -0.8889  0.5305
 8205SOL     OW36247   4.252   3.367   5.671  0.5710 -0.2023 -0.2152
 8205SOL    HW136248   4.253   3.272   5.660 -1.6282 -0.2104 -0.2225
 8205SOL    HW236249   4.223   3.381   5.761  0.7518  0.9323 -0.3310
 8206SOL     OW36250   1.845   4.121  17.327  0.0386  0.2433 -0.1073
 8206SOL    HW136251   1.828   4.179  17.253 -0.1406  0.1857 -0.1119
 8206SOL    HW236252   1.828   4.180  17.401 -2.3830 -0.1299 -0.3866
 8207SOL     OW36253   1.871   2.466   4.654  0.5541 -0.1095  0.4494
 8207SOL    HW136254   1.922   2.532   4.607  0.1092 -0.9307 -1.1900
 8207SOL    HW236255   1.949   2.430   4.697  0.8040  1.5707  1.3730
 8208SOL     OW36256   2.139   0.037   3.813  0.0127 -0.1914 -0.4028
 8208SOL    HW136257   2.232   0.048   3.830 -0.2230  2.2928 -0.6915
 8208SOL    HW236258   2.101   0.084   3.888 -0.5526 -0.6268 -0.4136
 8209SOL     OW36259   4.277   0.631  13.010 -0.2475  0.5136 -0.1068
 8209SOL    HW136260   4.206   0.634  12.946  1.4076 -0.9281 -2.0131
 8209SOL    HW236261   4.356   0.654  12.961  1.1799  1.0388  2.3960
 8210SOL     OW36262   3.126   1.823  17.339  0.5679 -0.1250 -0.6810
 8210SOL    HW136263   3.213   1.839  17.374  0.3270  0.7367 -0.4643
 8210SOL    HW236264   3.154   1.785  17.256  1.4259  0.7115 -0.7796
 8211SOL     OW36265   1.168   4.541   6.714  0.0538 -0.5553  0.2024
 8211SOL    HW136266   1.118   4.541   6.632 -1.8137  0.1321  1.3428
 8211SOL    HW236267   1.106   4.580   6.776  1.0744 -1.1167  1.5615
 8212SOL     OW36268   3.468   4.096   6.885 -0.4048 -0.5832  0.6662
 8212SOL    HW136269   3.540   4.118   6.944  0.8509 -2.6015 -0.1245
 8212SOL    HW236270   3.400   4.164   6.896 -0.8284 -0.6028 -1.6579
 8213SOL     OW36271   2.408   3.411   8.275 -0.6362  0.2326  0.4091
 8213SOL    HW136272   2.502   3.418   8.254 -0.7737  2.4906  0.5035
 8213SOL    HW236273   2.423   3.437   8.365  0.0422  2.1310 -0.2472
 8214SOL     OW36274   2.025   0.486   2.073  0.4467  0.9169 -0.1939
 8214SOL    HW136275   1.973   0.560   2.040  0.6683  1.5282  0.8340
 8214SOL    HW236276   2.037   0.452   1.984  1.7849 -0.1553  0.4055
 8215SOL     OW36277   2.434   3.932   7.192  0.3104 -0.7037 -0.3417
 8215SOL    HW136278   2.340   3.949   7.190 -0.0135 -2.7673 -2.0120
 8215SOL    HW236279   2.457   3.940   7.285  0.3728 -3.1157 -0.1518
 8216SOL     OW36280   1.732   1.816   6.668  0.1702  0.4712  0.4154
 8216SOL    HW136281   1.761   1.823   6.759 -0.2001 -0.7563  0.6275
 8216SOL    HW236282   1.682   1.735   6.663  1.5674 -0.3642 -0.1103
 8217SOL     OW36283   0.112   0.206   9.157  0.2631  0.4198  0.4292
 8217SOL    HW136284   0.044   0.141   9.140  1.0163 -0.0781 -0.6912
 8217SOL    HW236285   0.064   0.280   9.194 -0.7298 -0.9133  1.7627
 8218SOL     OW36286   3.649   2.901   9.277  0.3577 -0.0323 -0.8804
 8218SOL    HW136287   3.731   2.853   9.268 -0.8968 -2.6214  1.5883
 8218SOL    HW236288   3.636   2.879   9.369  0.6205  0.4703 -0.7222
 8219SOL     OW36289   1.737   1.819   3.858  0.1660 -0.2447 -0.1413
 8219SOL    HW136290   1.759   1.846   3.947  0.2538  0.1467 -0.2805
 8219SOL    HW236291   1.673   1.752   3.881  1.5931 -1.6902 -0.3700
 8220SOL     OW36292   1.101   2.749  16.066  0.0149 -0.0053 -0.5569
 8220SOL    HW136293   1.092   2.827  16.011  1.5228 -1.1788 -2.4808
 8220SOL    HW236294   1.042   2.762  16.140  3.0917  0.5194  1.8381
 8221SOL     OW36295   2.501   1.719   3.536 -0.2658 -0.6693 -0.4628
 8221SOL    HW136296   2.476   1.804   3.501 -2.6909 -0.8165  0.8518
 8221SOL    HW236297   2.538   1.677   3.458 -0.5137 -1.2869 -0.2527
 8222SOL     OW36298   2.697   0.516   0.876 -0.1506 -0.0105 -0.2740
 8222SOL    HW136299   2.614   0.550   0.843 -0.8379 -0.9315  0.5040
 8222SOL    HW236300   2.693   0.437   0.823 -0.7181 -0.4034  0.3406
 8223SOL     OW36301   2.147   4.092   0.351  0.1432 -0.2359 -0.0725
 8223SOL    HW136302   2.134   4.114   0.259 -0.3714  0.5996  0.1985
 8223SOL    HW236303   2.139   3.997   0.349  2.1520 -0.4124 -0.5080
 8224SOL     OW36304   3.289   1.241   5.112 -0.3222 -0.6810  0.0194
 8224SOL    HW136305   3.384   1.226   5.105 -0.2712 -0.7307  0.7937
 8224SOL    HW236306   3.283   1.336   5.100 -0.1128 -0.3435  2.6871
 8225SOL     OW36307   2.529   1.583   3.803 -0.1700  0.3306  0.6233
 8225SOL    HW136308   2.538   1.637   3.724  2.0825 -0.0950  0.6033
 8225SOL    HW236309   2.535   1.495   3.767 -2.5468 -0.7019  2.7585
 8226SOL     OW36310   2.568   1.271  14.871  0.3883  0.1011  0.1353
 8226SOL    HW136311   2.598   1.352  14.911  0.0393  0.4596 -0.3233
 8226SOL    HW236312   2.473   1.283  14.864  0.2559  0.2761  2.2276
 8227SOL     OW36313   4.152   1.289   3.094  0.6147 -0.3373  0.3327
 8227SOL    HW136314   4.159   1.333   3.009  0.6286 -2.2692 -0.6661
 8227SOL    HW236315   4.069   1.325   3.123  0.1086  0.7124 -2.4344
 8228SOL     OW36316   1.466   0.065  11.475 -0.3011  0.3817  0.2897
 8228SOL    HW136317   1.472   0.110  11.559  1.0535  0.4103  0.1678
 8228SOL    HW236318   1.528   4.732  11.493 -0.2896  0.7524  1.7014
 8229SOL     OW36319   1.124   2.027   8.228 -0.6311 -0.5601  0.0832
 8229SOL    HW136320   1.101   2.042   8.136 -0.2332  1.0356  0.2496
 8229SOL    HW236321   1.170   2.105   8.257  1.8711 -1.7273 -0.7456
 8230SOL     OW36322   1.609   1.267   8.923  0.0545 -0.1761 -0.6271
 8230SOL    HW136323   1.515   1.272   8.943  0.4534 -3.2992  2.0446
 8230SOL    HW236324   1.623   1.189   8.978 -2.3929  0.8641  1.5081
 8231SOL     OW36325   1.561   1.432   3.669  0.1013  0.2204 -0.1143
 8231SOL    HW136326   1.562   1.408   3.761  3.3371  1.8962  0.2746
 8231SOL    HW236327   1.567   1.528   3.668  1.6603  0.0993 -2.3446
 8232SOL     OW36328   0.465   1.422   2.385  0.2198 -0.6086  0.4455
 8232SOL    HW136329   0.408   1.499   2.391 -0.2737 -0.9846  0.6615
 8232SOL    HW236330   0.418   1.378   2.314  0.9225  2.2336 -1.7794
 8233SOL     OW36331   0.554   0.245   0.835  0.7147 -0.0388 -0.0395
 8233SOL    HW136332   0.542   0.161   0.879 -2.3615 -0.6400 -2.0584
 8233SOL    HW236333   0.467   0.264   0.799 -0.1592 -3.7232  0.1844
 8234SOL     OW36334   1.427   4.633   9.271  0.9143  0.1578 -0.7198
 8234SOL    HW136335   1.428   4.541   9.297 -3.8117  0.3353  0.0034
 8234SOL    HW236336   1.467   4.660   9.354 -1.4822  0.8000  0.2021
 8235SOL     OW36337   1.264   4.721  17.235  0.2378 -0.0944 -0.8706
 8235SOL    HW136338   1.182   0.029  17.215  0.4116  0.5966 -0.0114
 8235SOL    HW236339   1.254   4.648  17.175  1.3884 -0.3737 -0.7073
 8236SOL     OW36340   0.808   0.539  10.030  0.3329  0.2453  0.5858
 8236SOL    HW136341   0.719   0.505  10.026  0.8107 -1.0323  0.9093
 8236SOL    HW236342   0.789   0.630  10.054  1.0927  0.0954  1.7606
 8237SOL     OW36343   4.074   1.597   6.986 -0.1865  0.4282  0.3827
 8237SOL    HW136344   3.987   1.559   6.974 -0.7127  1.1044  2.1386
 8237SOL    HW236345   4.071   1.660   6.913 -0.5458 -0.8517 -0.7135
 8238SOL     OW36346   1.442   2.557   5.753 -0.4582 -0.2986 -0.2801
 8238SOL    HW136347   1.411   2.577   5.665  0.5447 -0.0666 -0.5853
 8238SOL    HW236348   1.517   2.616   5.761 -2.1833  1.5940  1.6586
 8239SOL     OW36349   2.218   2.902   1.935  0.6125  0.3225  0.4916
 8239SOL    HW136350   2.254   2.849   1.864  0.0774  1.7328 -0.8359
 8239SOL    HW236351   2.234   2.989   1.897  0.6991  0.1384  0.1077
 8240SOL     OW36352   0.825   3.957  15.207  0.3223 -0.3119 -0.3173
 8240SOL    HW136353   0.911   3.954  15.164  0.5759  0.1035  0.1522
 8240SOL    HW236354   0.775   3.883  15.175 -2.6281  1.3461  0.5016
 8241SOL     OW36355   3.026   3.984   4.216  0.1599  0.4306 -0.2625
 8241SOL    HW136356   3.039   3.903   4.266 -0.5372  1.0825  0.9988
 8241SOL    HW236357   2.979   4.044   4.274 -0.5314 -0.3214 -0.0350
 8242SOL     OW36358   2.366   0.391   4.754 -0.3654  0.6708 -0.6981
 8242SOL    HW136359   2.405   0.308   4.729 -0.4770  0.2821  0.4165
 8242SOL    HW236360   2.353   0.370   4.846 -1.0406 -0.8745 -1.1534
 8243SOL     OW36361   0.416   3.512   2.732  0.1062 -0.0610  0.4998
 8243SOL    HW136362   0.379   3.459   2.661  0.1119 -0.0526  0.4906
 8243SOL    HW236363   0.417   3.596   2.687  1.0520  0.1235  0.8700
 8244SOL     OW36364   0.706   2.513   7.663 -0.1229  0.3545 -0.1997
 8244SOL    HW136365   0.650   2.463   7.723  0.8335  0.0288  0.4337
 8244SOL    HW236366   0.688   2.481   7.575  0.7021 -0.6928  0.0008
 8245SOL     OW36367   1.709   4.148   0.127  0.1529  0.0840 -0.0444
 8245SOL    HW136368   1.628   4.123   0.083  1.1776 -2.3091 -0.5312
 8245SOL    HW236369   1.681   4.150   0.219 -2.0115  0.2774 -0.6930
 8246SOL     OW36370   0.629   0.502  14.154 -0.2969 -0.3632 -0.1707
 8246SOL    HW136371   0.630   0.585  14.203 -0.5961 -0.4521 -0.0175
 8246SOL    HW236372   0.536   0.483  14.150 -0.7145  0.9247  2.9374
 8247SOL     OW36373   0.720   3.094   7.177 -0.0529  0.0503  0.2726
 8247SOL    HW136374   0.735   3.004   7.206 -0.4526 -0.9860 -2.7453
 8247SOL    HW236375   0.643   3.072   7.124 -0.7951  0.5185  1.1558
 8248SOL     OW36376   1.616   2.460   8.161  0.3730  0.1968 -0.4276
 8248SOL    HW136377   1.542   2.405   8.136  1.8686 -1.6807 -0.6331
 8248SOL    HW236378   1.677   2.402   8.206  4.0429  2.1902 -2.8727
 8249SOL     OW36379   1.743   1.123  14.536  0.1567  1.0329  0.0751
 8249SOL    HW136380   1.770   1.192  14.475 -0.2530  0.2900 -0.9437
 8249SOL    HW236381   1.728   1.053  14.473 -2.1073  0.8496  0.7900
 8250SOL     OW36382   2.396   0.137  15.068  0.3819 -0.6042 -0.2794
 8250SOL    HW136383   2.315   0.166  15.025  0.1704  0.0302  0.5638
 8250SOL    HW236384   2.424   0.060  15.018  1.3223 -1.1939  1.1658
 8251SOL     OW36385   1.089   4.217   3.599  0.3083 -0.6101  0.2012
 8251SOL    HW136386   1.023   4.212   3.529 -1.2115 -0.2888  1.5978
 8251SOL    HW236387   1.147   4.145   3.576 -0.8892 -1.7794  0.8378
 8252SOL     OW36388   1.306   3.234   3.612 -0.0900  0.3273  0.6392
 8252SOL    HW136389   1.314   3.170   3.541 -1.0779 -0.1443  0.9530
 8252SOL    HW236390   1.371   3.298   3.582 -0.3624  0.1407 -0.3558
 8253SOL     OW36391   3.095   0.896   5.920  0.3968 -0.4280 -0.0954
 8253SOL    HW136392   3.097   0.816   5.973  0.4288 -0.7845 -0.6426
 8253SOL    HW236393   3.011   0.936   5.942  0.4161 -0.9035  0.8750
 8254SOL     OW36394   4.336   4.281  12.294 -0.0932  0.1583 -0.1277
 8254SOL    HW136395   4.396   4.211  12.269 -0.0888  0.6547 -1.5193
 8254SOL    HW236396   4.390   4.328  12.357  0.2002  0.6362 -0.7258
 8255SOL     OW36397   2.003   0.982   8.273 -0.1732 -0.1418  0.1349
 8255SOL    HW136398   1.927   1.002   8.328  0.3080 -1.3121  1.2387
 8255SOL    HW236399   2.003   1.063   8.222 -1.4317 -0.0503  0.2791
 8256SOL     OW36400   4.130   4.072   5.574 -0.1230  0.4751 -0.3119
 8256SOL    HW136401   4.122   4.108   5.485 -0.4526  2.4009  0.5009
 8256SOL    HW236402   4.203   4.129   5.600 -0.2290 -1.1544  3.4029
 8257SOL     OW36403   2.056   2.240   3.708 -0.6853  0.0348 -0.4936
 8257SOL    HW136404   2.026   2.156   3.675 -1.8904  0.5203 -0.6118
 8257SOL    HW236405   1.982   2.293   3.678 -0.4516  0.6928  0.0958
 8258SOL     OW36406   1.884   1.416   2.468 -0.5697 -0.3167  0.5982
 8258SOL    HW136407   1.793   1.445   2.472  0.1799  2.0041  0.7912
 8258SOL    HW236408   1.875   1.325   2.440  0.6577 -0.1916 -0.2386
 8259SOL     OW36409   1.807   4.079   4.937 -0.0824 -0.1508  0.2713
 8259SOL    HW136410   1.747   4.019   4.980  2.2757 -2.4893  0.3143
 8259SOL    HW236411   1.760   4.157   4.907  0.4970  0.5668  1.2446
 8260SOL     OW36412   1.515   0.168  14.812 -0.0826  0.4636  0.2881
 8260SOL    HW136413   1.436   0.221  14.801 -0.7448 -0.6041 -0.1068
 8260SOL    HW236414   1.487   0.091  14.860  2.2439 -1.0361 -0.7733
 8261SOL     OW36415   3.746   3.900   5.879  0.0902  0.0600 -0.1110
 8261SOL    HW136416   3.752   3.819   5.827 -1.9294  0.2646 -0.6478
 8261SOL    HW236417   3.782   3.965   5.818  3.5667  0.0846  1.9523
 8262SOL     OW36418   2.480   1.225  16.326 -0.1764 -0.3175 -0.0341
 8262SOL    HW136419   2.529   1.303  16.302 -3.2494  1.4188 -0.6641
 8262SOL    HW236420   2.522   1.152  16.281  0.7327  0.3149 -0.1993
 8263SOL     OW36421   2.807   1.528   4.739 -0.0093 -0.1479  0.0249
 8263SOL    HW136422   2.831   1.498   4.827  2.3868  0.6127 -0.3779
 8263SOL    HW236423   2.780   1.450   4.691  0.4788 -1.2615  1.5345
 8264SOL     OW36424   1.124   4.542   9.199 -0.2462  0.3215  0.6105
 8264SOL    HW136425   1.181   4.573   9.129 -0.1095 -2.2169 -0.4258
 8264SOL    HW236426   1.042   4.552   9.149  0.5173 -1.5105 -1.0470
 8265SOL     OW36427   1.831   1.526   5.351 -0.7249 -0.2278 -0.0520
 8265SOL    HW136428   1.852   1.535   5.444  0.6478 -1.9305 -0.1957
 8265SOL    HW236429   1.881   1.604   5.327  0.1934 -0.3277  1.4862
 8266SOL     OW36430   1.215   0.745  10.632 -0.3263 -0.6274  0.3295
 8266SOL    HW136431   1.139   0.784  10.590  1.1627  0.6015 -1.2244
 8266SOL    HW236432   1.288   0.803  10.609 -0.0256 -1.4110 -0.7181
 8267SOL     OW36433   1.278   3.451   8.481  0.0180  0.2711 -0.2643
 8267SOL    HW136434   1.218   3.412   8.544 -0.0299  0.5696 -0.1247
 8267SOL    HW236435   1.352   3.391   8.481 -0.8432 -0.7736 -3.7477
 8268SOL     OW36436   1.337   2.240   4.855 -0.6472  0.1878 -0.4746
 8268SOL    HW136437   1.329   2.152   4.818  1.0951  0.6819 -2.0090
 8268SOL    HW236438   1.383   2.227   4.938  1.8133 -1.8349 -2.1591
 8269SOL     OW36439   3.833   0.378   2.025 -0.0175 -0.0851  0.1536
 8269SOL    HW136440   3.837   0.341   2.113  0.7703 -2.0513 -0.6874
 8269SOL    HW236441   3.826   0.471   2.045  3.7033  0.0282  0.9215
 8270SOL     OW36442   0.604   0.529   6.850 -0.1532 -0.5705  0.7998
 8270SOL    HW136443   0.529   0.519   6.791  0.0136  2.4366  0.0569
 8270SOL    HW236444   0.587   0.611   6.897 -1.0764  0.8438 -1.9916
 8271SOL     OW36445   3.537   1.141   5.185 -0.2712  0.1576 -0.1627
 8271SOL    HW136446   3.589   1.093   5.121  2.1769  0.9632  1.2061
 8271SOL    HW236447   3.521   1.072   5.250  0.8165  0.0420 -0.0233
 8272SOL     OW36448   1.129   0.415   8.609  0.1372  0.1851  0.5080
 8272SOL    HW136449   1.152   0.423   8.702  2.1991  0.7886 -0.0606
 8272SOL    HW236450   1.045   0.373   8.627 -1.4842  3.4643  0.7788
 8273SOL     OW36451   0.193   1.020   5.408  0.0426 -0.1011 -0.4717
 8273SOL    HW136452   0.106   1.015   5.368  0.5859 -2.4199 -1.3420
 8273SOL    HW236453   0.183   0.993   5.499 -1.3362 -3.5544 -1.6281
 8274SOL     OW36454   1.177   1.417   7.583 -0.1107  0.3433  0.0406
 8274SOL    HW136455   1.174   1.327   7.613 -1.1717  0.3654 -0.0219
 8274SOL    HW236456   1.213   1.399   7.496  1.3811  0.2139  0.6852
 8275SOL     OW36457   3.257   1.085   7.539  0.1409  0.3549 -0.1526
 8275SOL    HW136458   3.321   1.092   7.467  0.1739 -4.1522 -0.5390
 8275SOL    HW236459   3.295   1.149   7.599 -2.2178  1.2708  0.3265
 8276SOL     OW36460   0.473   4.084   3.481 -0.0126  0.0265  0.4095
 8276SOL    HW136461   0.399   4.096   3.422  0.2289 -2.2669 -0.3829
 8276SOL    HW236462   0.546   4.077   3.420 -0.9938  1.7315 -0.9561
 8277SOL     OW36463   3.411   1.377   7.849 -0.1137 -0.2439 -0.6367
 8277SOL    HW136464   3.434   1.466   7.821 -0.0399  0.1007  0.5312
 8277SOL    HW236465   3.325   1.370   7.806  0.1587 -1.1371 -1.0437
 8278SOL     OW36466   4.182   1.935   3.874 -0.1389 -0.0591  0.0706
 8278SOL    HW136467   4.190   1.865   3.938  0.5342  1.8825  2.0774
 8278SOL    HW236468   4.188   2.008   3.934  1.2297 -0.0528 -0.0789
 8279SOL     OW36469   4.050   1.296   3.707 -0.0102  0.4519 -0.1115
 8279SOL    HW136470   4.078   1.215   3.750 -1.6392 -0.2283 -0.3122
 8279SOL    HW236471   3.971   1.321   3.756 -1.1840 -1.6855 -0.9086
 8280SOL     OW36472   4.146   2.178   6.291  0.5174  0.3317 -0.0558
 8280SOL    HW136473   4.111   2.202   6.205  0.5346  1.6148  0.2982
 8280SOL    HW236474   4.199   2.254   6.316  0.5053 -0.2122  1.5892
 8281SOL     OW36475   4.051   3.614   6.402 -0.2472 -0.4375 -0.0410
 8281SOL    HW136476   4.042   3.623   6.307  1.5213  1.2716 -0.0516
 8281SOL    HW236477   4.122   3.551   6.412  0.1435  0.1743  1.1357
 8282SOL     OW36478   4.057   1.780   7.791  0.1142 -0.6612  0.2711
 8282SOL    HW136479   4.056   1.845   7.861  1.3927 -1.0583  0.6644
 8282SOL    HW236480   4.014   1.832   7.723  0.3627 -0.7731  0.0258
 8283SOL     OW36481   2.268   1.021  17.534  0.3545 -0.4316 -0.5509
 8283SOL    HW136482   2.202   0.972  17.486  0.0043 -0.4377 -0.0569
 8283SOL    HW236483   2.349   0.971  17.525 -0.1845 -1.3574 -0.2326
 8284SOL     OW36484   0.718   1.904   2.562 -0.1718 -0.0212  0.0380
 8284SOL    HW136485   0.658   1.831   2.574  0.3581 -0.3119  0.9833
 8284SOL    HW236486   0.701   1.947   2.647  2.0198 -0.2553  0.5941
 8285SOL     OW36487   2.438   0.032   0.733  0.3675  0.0509 -0.4578
 8285SOL    HW136488   2.424   4.678   0.710 -1.3287 -0.1394  1.3294
 8285SOL    HW236489   2.489   0.031   0.814  0.8087  1.5929 -0.7074
 8286SOL     OW36490   4.613   3.935   3.680 -0.0213  0.4094  0.2248
 8286SOL    HW136491   4.636   4.020   3.718  0.5032  0.6261 -0.5825
 8286SOL    HW236492   4.605   3.951   3.586  1.3973  3.4954  0.6187
 8287SOL     OW36493   4.544   4.292   4.456  0.1296 -0.1539  0.4138
 8287SOL    HW136494   4.636   4.289   4.485  0.2567 -2.2409 -0.2369
 8287SOL    HW236495   4.557   4.268   4.364 -1.9265 -2.1732  0.6542
 8288SOL     OW36496   2.124   4.325  17.348 -0.2169 -0.2775 -0.6853
 8288SOL    HW136497   2.183   4.264  17.304  2.0490  1.3738  0.0190
 8288SOL    HW236498   2.141   4.291  17.436  0.4861  0.6406 -0.4715
 8289SOL     OW36499   4.647   2.551  15.164  0.2879 -0.1046  0.0335
 8289SOL    HW136500   4.731   2.507  15.179  0.3188 -0.7514 -1.9155
 8289SOL    HW236501   4.625   2.529  15.073 -2.0035 -2.1283  1.0516
 8290SOL     OW36502   4.643   4.177  16.038 -0.3853 -0.2136  0.0518
 8290SOL    HW136503   4.609   4.228  16.111 -0.3288  0.2761 -0.2602
 8290SOL    HW236504   4.680   4.246  15.983  0.3754 -0.9985 -0.4209
 8291SOL     OW36505   1.720   0.205   6.735  0.3246  0.7356 -0.0434
 8291SOL    HW136506   1.771   0.132   6.769  1.4875  1.8605  0.6161
 8291SOL    HW236507   1.631   0.186   6.764  0.2923  1.7467  0.4995
 8292SOL     OW36508   0.814   1.708   8.052 -0.2590 -0.0218  0.2368
 8292SOL    HW136509   0.728   1.742   8.074 -0.5704 -2.0647  2.2100
 8292SOL    HW236510   0.838   1.747   7.968  0.1303  0.7788  0.7071
 8293SOL     OW36511   0.512   3.552  11.611  0.5831  0.8500  0.3138
 8293SOL    HW136512   0.517   3.637  11.567 -0.2273  0.4083 -0.6276
 8293SOL    HW236513   0.428   3.571  11.652 -0.6548 -0.9684 -1.3316
 8294SOL     OW36514   3.847   3.245   4.966 -0.4394 -0.0299 -0.5202
 8294SOL    HW136515   3.870   3.192   5.043  0.8914 -1.0881 -1.6552
 8294SOL    HW236516   3.778   3.299   5.005  1.4534  2.5466 -0.7881
 8295SOL     OW36517   3.943   1.762  16.034 -0.3316 -0.1825  0.1336
 8295SOL    HW136518   4.036   1.764  16.059  0.0807 -1.0529 -1.3142
 8295SOL    HW236519   3.944   1.704  15.958 -0.3446  0.2793 -0.2169
 8296SOL     OW36520   2.268   1.064   1.864  0.5173 -0.2361  0.4617
 8296SOL    HW136521   2.230   0.982   1.896  0.4531  0.4640  2.2191
 8296SOL    HW236522   2.346   1.067   1.920 -0.1758 -0.9396  1.4722
 8297SOL     OW36523   1.615   4.269   1.879 -0.6821 -0.7152  0.4132
 8297SOL    HW136524   1.566   4.344   1.912 -2.2619 -2.0950  1.2001
 8297SOL    HW236525   1.686   4.309   1.828 -2.1016  3.7860  1.9494
 8298SOL     OW36526   0.737   4.598   2.094 -0.3842  0.1268 -0.1204
 8298SOL    HW136527   0.786   4.564   2.019  0.5649  0.7391  0.2245
 8298SOL    HW236528   0.710   4.513   2.129  0.2914  0.2033  0.5733
 8299SOL     OW36529   1.652   4.250   4.795  0.7457  0.3875  0.1453
 8299SOL    HW136530   1.586   4.198   4.750  0.3270 -0.5724  1.8825
 8299SOL    HW236531   1.635   4.323   4.736  0.1123 -0.4100 -0.6526
 8300SOL     OW36532   3.104   2.800   8.151  0.2665  0.3444 -0.4793
 8300SOL    HW136533   3.140   2.826   8.066  1.3183  1.3390  0.2741
 8300SOL    HW236534   3.176   2.826   8.209 -0.7038  2.2488 -0.1545
 8301SOL     OW36535   1.242   2.281   7.616 -0.1233 -0.0250  0.1441
 8301SOL    HW136536   1.284   2.270   7.701 -0.8416 -2.9787  0.0951
 8301SOL    HW236537   1.313   2.289   7.553  0.7495  1.3423  1.3104
 8302SOL     OW36538   1.547   3.337   4.961 -0.4690  0.4232  0.0820
 8302SOL    HW136539   1.598   3.303   4.888  0.2497 -1.1828  1.3414
 8302SOL    HW236540   1.526   3.425   4.928 -2.8515 -0.9881 -2.1272
 8303SOL     OW36541   1.401   0.385   6.269 -0.1125  0.2332  0.0609
 8303SOL    HW136542   1.446   0.459   6.309  1.5408  0.4825 -2.2542
 8303SOL    HW236543   1.348   0.342   6.336  0.2244  1.3156  1.0082
 8304SOL     OW36544   4.405   3.046   7.647 -0.2035 -0.0988 -0.9146
 8304SOL    HW136545   4.407   3.119   7.709 -0.2267 -1.4713  0.7142
 8304SOL    HW236546   4.500   3.035   7.641 -0.2890  0.0954 -2.4615
 8305SOL     OW36547   2.894   1.439   5.358 -0.4977  0.1040  0.3472
 8305SOL    HW136548   2.965   1.496   5.329 -0.2972  0.5590  1.7631
 8305SOL    HW236549   2.939   1.361   5.391 -1.0967 -0.0017  0.9190
 8306SOL     OW36550   1.107   3.812   3.878 -0.4551  0.0200 -0.0218
 8306SOL    HW136551   1.039   3.815   3.811 -0.3013  0.1920 -0.1696
 8306SOL    HW236552   1.152   3.731   3.855  0.7012  1.2922 -2.2445
 8307SOL     OW36553   4.133   3.312   6.493  0.1398  0.2617 -0.0955
 8307SOL    HW136554   4.180   3.230   6.479  1.1187  0.3756  2.4412
 8307SOL    HW236555   4.088   3.293   6.576 -3.1068  0.5765 -1.7853
 8308SOL     OW36556   1.078   0.408   1.143  0.4053 -0.3621 -0.4615
 8308SOL    HW136557   1.117   0.326   1.112 -0.9231 -1.3873  0.5656
 8308SOL    HW236558   0.989   0.390   1.114  0.3686  1.2941 -1.3871
 8309SOL     OW36559   1.476   3.144   3.384 -0.0725 -0.0892  0.0253
 8309SOL    HW136560   1.557   3.160   3.432 -0.3389  0.3125  0.3388
 8309SOL    HW236561   1.460   3.234   3.357  0.5140  0.1004  0.3147
 8310SOL     OW36562   3.993   3.028  14.022 -0.2742 -0.0223  0.6875
 8310SOL    HW136563   4.029   3.109  14.057  0.2620  0.2029 -0.3738
 8310SOL    HW236564   4.048   2.959  14.059  0.3159 -0.2560 -0.6122
 8311SOL     OW36565   4.323   4.057   8.046  0.5709 -0.3364 -0.5591
 8311SOL    HW136566   4.231   4.041   8.029 -0.3443  2.1251  2.2049
 8311SOL    HW236567   4.326   4.142   8.089  1.0145  1.0579 -3.3154
 8312SOL     OW36568   2.970   0.644   3.737 -0.1152  0.9412 -0.0097
 8312SOL    HW136569   2.875   0.630   3.729 -0.0764  0.3433  0.5455
 8312SOL    HW236570   2.993   0.615   3.825 -0.5205 -0.7190 -0.4409
 8313SOL     OW36571   2.344   1.852  17.680 -0.5476  0.0782  0.1434
 8313SOL    HW136572   2.386   1.908  17.745  0.8779 -0.2942 -0.4534
 8313SOL    HW236573   2.410   1.782  17.683 -0.4045  0.2692  1.8016
 8314SOL     OW36574   3.892   3.694   5.471 -0.2055 -0.4616 -0.4806
 8314SOL    HW136575   3.969   3.637   5.476 -0.8629 -1.1851  1.2731
 8314SOL    HW236576   3.922   3.783   5.452  0.0285 -0.4313  0.0243
 8315SOL     OW36577   4.507   4.518   8.010 -0.1519 -0.4042  0.1088
 8315SOL    HW136578   4.588   4.510   8.062  1.2809  0.7986 -1.9344
 8315SOL    HW236579   4.540   4.571   7.938 -2.8818  0.7049 -0.3069
 8316SOL     OW36580   3.915   4.226   9.779  0.3429 -0.1826  0.3770
 8316SOL    HW136581   3.835   4.188   9.815  1.2827 -0.8966  1.6975
 8316SOL    HW236582   3.938   4.286   9.850  0.6284 -0.4620  0.5205
 8317SOL     OW36583   2.565   0.931   3.760 -0.1811 -0.0365  0.1169
 8317SOL    HW136584   2.661   0.936   3.758 -0.2019 -0.5496 -2.5347
 8317SOL    HW236585   2.550   1.025   3.758  0.2351  0.0352  0.3608
 8318SOL     OW36586   1.781   2.798   3.394  0.1902 -0.6040  0.3421
 8318SOL    HW136587   1.870   2.832   3.405  0.2435 -1.2666  1.9380
 8318SOL    HW236588   1.732   2.879   3.386 -1.6507 -1.5779  1.7840
 8319SOL     OW36589   2.165   2.574   2.583 -0.1827 -0.1612  0.1292
 8319SOL    HW136590   2.255   2.540   2.577  0.0874  0.8474 -1.4419
 8319SOL    HW236591   2.124   2.543   2.503 -1.6465 -2.1008  1.6264
 8320SOL     OW36592   3.201   2.548   6.257 -0.3212 -0.0572 -0.4044
 8320SOL    HW136593   3.217   2.503   6.174  1.7266 -2.0547  1.0814
 8320SOL    HW236594   3.110   2.523   6.275  0.1945 -1.4227  0.3185
 8321SOL     OW36595   0.911   2.456   6.213  0.1118  0.5278 -0.0895
 8321SOL    HW136596   0.981   2.516   6.190  1.2102 -0.4036  0.8456
 8321SOL    HW236597   0.889   2.419   6.127 -0.4292 -0.0161  0.2813
 8322SOL     OW36598   2.149   3.959   7.679  0.4160 -0.1629 -0.0442
 8322SOL    HW136599   2.132   3.994   7.591  0.6081  1.1131  0.4209
 8322SOL    HW236600   2.166   4.043   7.722 -0.6868 -0.1863  0.4475
 8323SOL     OW36601   2.128   4.231   7.756  0.1108 -0.2927  0.2445
 8323SOL    HW136602   2.148   4.298   7.822 -1.3354 -1.5433  1.9565
 8323SOL    HW236603   2.037   4.210   7.778  0.0396 -0.7185 -0.4597
 8324SOL     OW36604   0.543   0.225   8.282 -0.7554 -0.2605 -0.0461
 8324SOL    HW136605   0.478   0.237   8.213 -1.1881 -2.0370  0.0409
 8324SOL    HW236606   0.533   0.297   8.343  1.3100  0.7318 -0.8956
 8325SOL     OW36607   2.463   2.540   2.649 -0.5466  0.0601  0.1810
 8325SOL    HW136608   2.543   2.593   2.640 -0.7695  0.6714  1.7324
 8325SOL    HW236609   2.478   2.469   2.587 -1.1159 -0.0869  0.2113
 8326SOL     OW36610   2.647   2.565  13.211 -0.2836  0.6885 -0.1115
 8326SOL    HW136611   2.667   2.658  13.207  2.5032  0.1419  1.2226
 8326SOL    HW236612   2.726   2.520  13.179  0.6445  2.5221 -0.3665
 8327SOL     OW36613   1.021   0.853   7.766  0.1932 -0.6515 -0.2792
 8327SOL    HW136614   1.033   0.801   7.845 -1.1986 -0.6821 -0.0860
 8327SOL    HW236615   1.009   0.784   7.700  0.2275 -0.8032 -0.1276
 8328SOL     OW36616   2.183   1.257  16.339  0.7094  0.4116  0.3406
 8328SOL    HW136617   2.161   1.199  16.266  0.0906  0.9449  0.0975
 8328SOL    HW236618   2.273   1.236  16.363  1.1781  1.6440 -0.2905
 8329SOL     OW36619   0.131   3.576  17.195  0.2221 -0.7350 -0.0526
 8329SOL    HW136620   0.174   3.496  17.164  3.3410  1.0606 -0.3559
 8329SOL    HW236621   0.098   3.626  17.121  0.0794  0.2116  0.6487
 8330SOL     OW36622   4.243   0.546   8.411 -0.0394 -0.0143  0.0210
 8330SOL    HW136623   4.291   0.517   8.489 -0.3660 -1.3158 -0.2557
 8330SOL    HW236624   4.200   0.626   8.441  1.8841  0.0555  2.5626
 8331SOL     OW36625   3.334   4.012   7.706  0.1041 -0.2597  0.0903
 8331SOL    HW136626   3.350   3.933   7.655 -0.3267 -1.1090  1.2711
 8331SOL    HW236627   3.326   3.970   7.792 -0.2395 -1.9190 -0.7563
 8332SOL     OW36628   1.528   3.533   2.142  0.1948  0.5009 -0.1669
 8332SOL    HW136629   1.496   3.574   2.061 -2.2861  0.2192  0.6924
 8332SOL    HW236630   1.551   3.607   2.198 -2.7076  1.6188 -0.4296
 8333SOL     OW36631   3.259   0.616   3.229  0.0954  0.2246  0.3785
 8333SOL    HW136632   3.238   0.655   3.314  0.3128 -0.2289  0.6398
 8333SOL    HW236633   3.187   0.554   3.217 -0.8115  1.3008  0.2089
 8334SOL     OW36634   0.549   0.973   7.908  0.0717 -0.0964  0.0719
 8334SOL    HW136635   0.468   0.996   7.862 -0.5493  1.6451  2.0378
 8334SOL    HW236636   0.544   1.020   7.991  2.5605 -0.1481  0.2612
 8335SOL     OW36637   2.259   0.645  17.642  0.6187  0.3077 -0.1502
 8335SOL    HW136638   2.224   0.717  17.694 -2.0532 -0.3914 -0.9715
 8335SOL    HW236639   2.229   0.565  17.685 -1.4883  1.3188  0.2641
 8336SOL     OW36640   1.461   2.456   4.727 -0.5582 -0.0759 -0.5939
 8336SOL    HW136641   1.388   2.473   4.668 -0.3042  1.0211 -0.5894
 8336SOL    HW236642   1.418   2.425   4.807  0.0504 -3.1693 -1.4423
 8337SOL     OW36643   1.969   4.538   4.116  0.1352  0.1922  0.2501
 8337SOL    HW136644   1.977   4.457   4.166  1.3601 -1.0265 -1.9541
 8337SOL    HW236645   1.945   4.499   4.033  0.7337  1.8207 -0.6866
 8338SOL     OW36646   4.399   2.084   7.489  0.0831 -0.3566  0.8171
 8338SOL    HW136647   4.452   2.130   7.425 -1.4389  0.0428 -0.1514
 8338SOL    HW236648   4.322   2.141   7.482  1.0908  0.8750 -0.2209
 8339SOL     OW36649   1.316   1.972   6.083  0.2661  0.4432  0.1384
 8339SOL    HW136650   1.406   2.004   6.089  0.6761 -0.9130  1.1945
 8339SOL    HW236651   1.326   1.907   6.013  1.7730  0.3113  0.4694
 8340SOL     OW36652   2.419   1.767  16.477  0.1079  0.1007 -0.1311
 8340SOL    HW136653   2.502   1.778  16.524  0.2898  0.5008 -0.5465
 8340SOL    HW236654   2.446   1.692  16.423 -0.0241  0.0051 -0.0635
 8341SOL     OW36655   1.123   3.789   7.635  0.6275 -0.0228 -0.4882
 8341SOL    HW136656   1.078   3.825   7.712  3.9640  2.1642  0.4304
 8341SOL    HW236657   1.170   3.715   7.673 -0.4172  0.5628  1.9453
 8342SOL     OW36658   2.020   3.060   5.668 -0.0825 -0.1476 -0.5425
 8342SOL    HW136659   2.049   2.987   5.614  0.6757 -0.5210  0.3601
 8342SOL    HW236660   2.102   3.110   5.675  0.0194 -0.8591  3.6256
 8343SOL     OW36661   1.919   0.945   5.123 -0.8872 -0.6749 -0.3011
 8343SOL    HW136662   1.977   0.963   5.050 -1.6001 -1.3775 -1.0292
 8343SOL    HW236663   1.900   0.853   5.106  1.9354 -1.1213 -1.0030
 8344SOL     OW36664   0.941   1.462   7.198 -0.0934 -0.0356 -0.2922
 8344SOL    HW136665   0.847   1.444   7.200 -0.0772 -0.0442  0.3654
 8344SOL    HW236666   0.944   1.509   7.115 -3.0145 -1.1612 -1.0286
 8345SOL     OW36667   4.595   0.833   2.602 -0.0385 -0.5049 -0.5148
 8345SOL    HW136668   4.627   0.852   2.690 -2.0191 -2.2917  0.6245
 8345SOL    HW236669   4.511   0.878   2.614  0.4240  0.0073  0.7695
 8346SOL     OW36670   1.716   1.720   6.115  0.7268  0.4713  0.0883
 8346SOL    HW136671   1.669   1.693   6.036 -0.3250 -0.4129  1.0154
 8346SOL    HW236672   1.650   1.729   6.184  1.5800  1.1349  0.8213
 8347SOL     OW36673   2.863   2.085   2.728 -0.0425  0.0467  0.2905
 8347SOL    HW136674   2.903   2.090   2.815 -0.5241  0.0797  0.5117
 8347SOL    HW236675   2.769   2.083   2.748 -0.0538  1.8159  0.3827
 8348SOL     OW36676   0.182   0.329   3.399  0.5387 -0.2829  0.0242
 8348SOL    HW136677   0.234   0.258   3.361 -1.8236 -1.8092 -0.3694
 8348SOL    HW236678   0.131   0.355   3.323  1.0307 -1.1456 -0.6116
 8349SOL     OW36679   1.237   1.022   3.457 -0.0429 -0.2263  0.3941
 8349SOL    HW136680   1.311   1.078   3.434 -0.5054  0.4695  0.5912
 8349SOL    HW236681   1.199   1.015   3.369 -1.6884 -0.8809  1.1579
 8350SOL     OW36682   3.568   4.403   3.989  0.4404  0.0221  0.1100
 8350SOL    HW136683   3.521   4.331   3.947 -0.0185  0.3128  0.1318
 8350SOL    HW236684   3.646   4.352   4.012  0.2965 -0.3126 -0.1395
 8351SOL     OW36685   4.483   0.291  13.578 -0.1071 -0.1048 -0.3599
 8351SOL    HW136686   4.517   0.282  13.489 -2.6699 -1.1676 -1.2344
 8351SOL    HW236687   4.535   0.367  13.605  0.3124 -0.1024 -1.1923
 8352SOL     OW36688   1.941   1.025   1.924  0.2122  0.0405 -0.3682
 8352SOL    HW136689   1.959   1.029   2.017 -0.2287 -1.0093 -0.2380
 8352SOL    HW236690   1.873   1.089   1.905 -2.3067 -1.6326  3.0679
 8353SOL     OW36691   0.705   3.275   7.378 -0.3778 -0.7549 -0.3122
 8353SOL    HW136692   0.708   3.219   7.301  0.6480 -0.0310 -0.8131
 8353SOL    HW236693   0.630   3.245   7.429 -0.8304 -0.5055 -0.8293
 8354SOL     OW36694   1.895   0.752  10.032 -0.2707  0.4883  0.1174
 8354SOL    HW136695   1.965   0.711  10.081  1.0284 -0.7959 -2.8154
 8354SOL    HW236696   1.937   0.815   9.974 -1.2715  0.9186 -0.1568
 8355SOL     OW36697   4.543   1.652   9.605  0.3391  0.7617  0.2702
 8355SOL    HW136698   4.635   1.669   9.621  0.1707  1.4531  0.5225
 8355SOL    HW236699   4.544   1.642   9.510 -2.4072 -1.0092  0.4144
 8356SOL     OW36700   2.290   2.110  11.563 -0.3194  0.0187  0.1584
 8356SOL    HW136701   2.212   2.055  11.575  0.7679 -1.5886 -0.1942
 8356SOL    HW236702   2.351   2.048  11.525  3.1083  2.3960  1.8486
 8357SOL     OW36703   1.842   2.364   2.385 -0.3165 -0.3176 -0.3807
 8357SOL    HW136704   1.785   2.287   2.384  1.3625 -1.5669  0.4022
 8357SOL    HW236705   1.828   2.404   2.471 -0.0560 -0.7327 -0.1478
 8358SOL     OW36706   3.161   1.331   1.857 -0.0684  0.2290  0.2471
 8358SOL    HW136707   3.228   1.392   1.825  1.0318 -1.6263 -0.9433
 8358SOL    HW236708   3.079   1.378   1.843 -0.0954 -0.1158 -0.7564
 8359SOL     OW36709   1.095   4.686  16.573 -0.1610 -0.8420 -0.2335
 8359SOL    HW136710   1.063   0.032  16.539 -1.0926 -0.6550  1.0803
 8359SOL    HW236711   1.181   4.678  16.531  0.9443  0.8044  1.7405
 8360SOL     OW36712   1.848   2.455   8.545  0.1193 -0.1650  0.0755
 8360SOL    HW136713   1.827   2.361   8.539 -1.8309  0.4366 -2.5807
 8360SOL    HW236714   1.766   2.486   8.507  1.3474  0.7531 -1.8134
 8361SOL     OW36715   0.401   1.057   0.448  0.0135 -0.2495 -0.5063
 8361SOL    HW136716   0.391   1.149   0.473 -4.1822 -0.5263 -1.2491
 8361SOL    HW236717   0.314   1.026   0.474 -0.6255 -0.6436 -3.0975
 8362SOL     OW36718   3.038   0.244   4.860  0.0545 -0.0762 -0.4607
 8362SOL    HW136719   3.099   0.200   4.919 -0.4356  0.3834  0.3865
 8362SOL    HW236720   3.074   0.332   4.851  2.2843 -0.8881  0.6658
 8363SOL     OW36721   3.263   3.855   9.210  0.0531 -0.6711  0.6239
 8363SOL    HW136722   3.254   3.809   9.293 -1.2646  1.4252  1.6297
 8363SOL    HW236723   3.227   3.937   9.242 -1.5487 -0.7896 -0.8559
 8364SOL     OW36724   1.097   2.432   6.619 -0.0678  0.2673  0.3424
 8364SOL    HW136725   1.017   2.467   6.580  0.4526  0.5688 -0.4726
 8364SOL    HW236726   1.076   2.339   6.628  1.5890 -0.0989  0.4933
 8365SOL     OW36727   3.076   1.190   4.286 -0.3837 -0.0194 -0.3999
 8365SOL    HW136728   3.099   1.272   4.330  1.3032 -0.9009  0.3564
 8365SOL    HW236729   2.980   1.193   4.292 -0.4794 -1.5539 -1.3489
 8366SOL     OW36730   4.127   1.059   2.828 -0.1945  0.0215 -0.2560
 8366SOL    HW136731   4.097   1.148   2.813  0.9790  0.6352  1.0211
 8366SOL    HW236732   4.213   1.067   2.870  0.5229  1.6410 -2.0610
 8367SOL     OW36733   4.557   2.461  13.512 -0.2687  0.5214 -0.8390
 8367SOL    HW136734   4.478   2.504  13.546  0.1618  0.4155  0.2828
 8367SOL    HW236735   4.610   2.470  13.590 -1.6845  2.5119 -0.1004
 8368SOL     OW36736   0.130   3.630   6.962  0.2286 -0.3748 -0.5459
 8368SOL    HW136737   0.038   3.619   6.985  0.1663  0.7858 -0.2233
 8368SOL    HW236738   0.125   3.572   6.886  1.3540 -1.4555  0.2111
 8369SOL     OW36739   2.201   0.480   6.553  0.1031 -0.1171  0.4417
 8369SOL    HW136740   2.170   0.510   6.639  1.3608  2.5607 -0.0325
 8369SOL    HW236741   2.126   0.444   6.506  0.0226  1.5271 -0.6644
 8370SOL     OW36742   0.006   3.129   3.815 -0.4252  0.4345 -0.1354
 8370SOL    HW136743   4.667   3.171   3.778  0.0544  0.4449 -1.1171
 8370SOL    HW236744   0.062   3.130   3.737 -1.1442 -1.7030 -0.6901
 8371SOL     OW36745   4.188   0.713  12.600 -0.2289 -0.1110  0.3912
 8371SOL    HW136746   4.264   0.726  12.544 -0.8224 -0.9570 -0.6034
 8371SOL    HW236747   4.178   0.619  12.585 -2.0896  0.6971 -3.3225
 8372SOL     OW36748   4.536   0.045   5.821  0.2940 -0.2232 -0.4190
 8372SOL    HW136749   4.537   0.006   5.909 -1.5227  1.1015  0.1992
 8372SOL    HW236750   4.629   0.037   5.802  0.2044  1.8237 -1.6678
 8373SOL     OW36751   4.426   3.526   3.683  1.1183  0.2109  0.0143
 8373SOL    HW136752   4.383   3.587   3.624  1.4192 -0.8940 -1.3365
 8373SOL    HW236753   4.362   3.549   3.750 -0.8332  2.0251 -2.5038
 8374SOL     OW36754   1.127   4.392   8.732  0.3882 -0.2092 -0.0427
 8374SOL    HW136755   1.081   4.377   8.815  0.7136  1.2022  0.3971
 8374SOL    HW236756   1.073   4.458   8.688  2.5445  1.2445 -0.4976
 8375SOL     OW36757   2.269   0.638   7.186  0.1587  0.6678 -0.4830
 8375SOL    HW136758   2.328   0.642   7.261 -1.6000  0.8289  0.9070
 8375SOL    HW236759   2.204   0.706   7.207 -0.4013 -0.0289  0.0142
 8376SOL     OW36760   2.410   2.738  10.689 -0.2510 -0.2500  0.1105
 8376SOL    HW136761   2.412   2.687  10.609 -0.8143  0.1148 -0.1352
 8376SOL    HW236762   2.500   2.773  10.684 -0.6848  0.9744  0.7633
 8377SOL     OW36763   4.684   0.221   4.301 -0.2530  0.5083  0.0240
 8377SOL    HW136764   4.629   0.171   4.240 -1.6390 -0.2910  1.9471
 8377SOL    HW236765   4.621   0.225   4.373  0.3727 -0.0337  0.6056
 8378SOL     OW36766   0.718   2.952   1.593  0.1653 -0.3406  0.1553
 8378SOL    HW136767   0.629   2.970   1.623  1.2364 -0.4632  3.3567
 8378SOL    HW236768   0.720   2.861   1.622  0.2598 -0.7011 -0.9669
 8379SOL     OW36769   3.180   2.234   1.761 -0.3321  0.3680 -0.0814
 8379SOL    HW136770   3.267   2.199   1.743 -0.5139 -0.5910  0.8523
 8379SOL    HW236771   3.150   2.180   1.835  2.5533  2.1776  2.4005
 8380SOL     OW36772   1.590   2.097   6.639 -1.0986  0.0194 -0.1728
 8380SOL    HW136773   1.639   2.015   6.631 -0.8070 -0.1191  3.2714
 8380SOL    HW236774   1.532   2.071   6.710 -1.0176  0.3145  0.0009
 8381SOL     OW36775   0.538   1.389   5.296  0.0360  0.4929  0.2358
 8381SOL    HW136776   0.600   1.446   5.340  2.8162 -1.1892 -1.5144
 8381SOL    HW236777   0.522   1.320   5.360 -0.1927  2.5476  2.3692
 8382SOL     OW36778   2.203   2.661   8.177 -0.2962 -0.3106 -0.1693
 8382SOL    HW136779   2.149   2.637   8.253 -0.5938  3.1625  0.7351
 8382SOL    HW236780   2.180   2.583   8.127 -2.0891  0.5401 -0.6595
 8383SOL     OW36781   2.277   0.230   2.174  0.3252 -0.3472  0.4899
 8383SOL    HW136782   2.200   0.187   2.137 -1.7280  4.3477 -0.7449
 8383SOL    HW236783   2.350   0.189   2.128 -1.3332 -1.7395 -0.9054
 8384SOL     OW36784   2.026   1.532  16.128  0.1868  0.6857 -0.0069
 8384SOL    HW136785   2.044   1.626  16.135  0.8020  0.7511 -2.5989
 8384SOL    HW236786   1.941   1.521  16.170  0.2896  1.0198  0.2967
 8385SOL     OW36787   0.788   4.670   8.486 -0.3737 -0.2702 -0.0674
 8385SOL    HW136788   0.869   4.619   8.479 -0.9474 -1.2530  0.5070
 8385SOL    HW236789   0.786   4.710   8.399 -1.0195 -0.4494 -0.1287
 8386SOL     OW36790   0.614   3.289   3.570  0.3952 -0.0777 -0.1014
 8386SOL    HW136791   0.576   3.359   3.623  0.9936  1.2495 -1.4062
 8386SOL    HW236792   0.620   3.218   3.633 -1.7285 -1.3413 -1.3187
 8387SOL     OW36793   1.678   1.177  14.811 -0.2797  0.1022 -0.0545
 8387SOL    HW136794   1.602   1.119  14.819  0.4415 -0.8295  0.0026
 8387SOL    HW236795   1.728   1.147  14.736  0.0944 -1.9059  1.0146
 8388SOL     OW36796   0.012   2.458   0.924  0.0892  0.2171  0.2718
 8388SOL    HW136797   0.062   2.528   0.882  1.1582 -0.3896  0.5416
 8388SOL    HW236798   4.689   2.444   0.851 -0.2546  2.3257  0.1498
 8389SOL     OW36799   3.617   3.638  11.429 -0.4080 -0.0765  0.2928
 8389SOL    HW136800   3.569   3.681  11.500 -1.6037  0.1361 -0.6447
 8389SOL    HW236801   3.580   3.698  11.363 -1.5144  0.2826  1.2425
 8390SOL     OW36802   1.130   3.249   3.318  0.0624  0.3516  0.1958
 8390SOL    HW136803   1.112   3.163   3.357  1.2318  0.4038  0.8578
 8390SOL    HW236804   1.069   3.304   3.368 -2.0532 -1.6676 -0.1730
 8391SOL     OW36805   0.752   2.273   7.229 -0.0154  0.3116 -0.4292
 8391SOL    HW136806   0.837   2.263   7.271 -0.3171 -1.6261 -0.3060
 8391SOL    HW236807   0.782   2.301   7.143 -0.5054  1.5410 -0.2042
 8392SOL     OW36808   4.285   1.650   5.182 -0.2777 -0.2018  0.4301
 8392SOL    HW136809   4.368   1.674   5.140 -1.8290  0.3635 -2.2662
 8392SOL    HW236810   4.324   1.626   5.266  0.2935  1.3418  0.6213
 8393SOL     OW36811   2.978   4.687   3.773 -0.0178 -0.0643 -0.3306
 8393SOL    HW136812   2.929   4.615   3.812  0.1712  0.2937  0.5859
 8393SOL    HW236813   2.934   0.027   3.810 -1.1584 -2.9280  4.4116
 8394SOL     OW36814   2.558   3.542   6.031 -0.1718 -0.1811 -0.0015
 8394SOL    HW136815   2.509   3.620   6.007  2.7659  0.9946 -2.1603
 8394SOL    HW236816   2.554   3.542   6.127  0.9822  1.1271  0.0568
 8395SOL     OW36817   0.818   2.440   6.484 -0.5623 -0.0332  0.1472
 8395SOL    HW136818   0.836   2.431   6.390  2.2701  3.7251  0.2825
 8395SOL    HW236819   0.788   2.355   6.515 -0.8495  0.1449  0.3544
 8396SOL     OW36820   2.574   1.824   2.514  0.4208 -0.3753  0.3490
 8396SOL    HW136821   2.543   1.913   2.532  0.6341 -0.1022 -0.6267
 8396SOL    HW236822   2.519   1.800   2.439  0.1523 -0.9852  0.7417
 8397SOL     OW36823   0.886   0.842   7.139  0.1880 -0.1992  0.0141
 8397SOL    HW136824   0.953   0.808   7.197 -1.2772  0.5542  2.1531
 8397SOL    HW236825   0.831   0.763   7.139 -0.3026  0.1443 -1.2714
 8398SOL     OW36826   0.956   4.190  17.068 -0.4849 -0.7866 -0.3357
 8398SOL    HW136827   1.028   4.147  17.113  1.7551  2.3996 -0.8870
 8398SOL    HW236828   0.992   4.193  16.980  1.0121 -1.3721  0.2722
 8399SOL     OW36829   1.850   0.360   9.081  0.4508  0.3236  0.2497
 8399SOL    HW136830   1.883   0.356   9.171 -1.7229  1.1618  1.0954
 8399SOL    HW236831   1.759   0.332   9.096  1.3127 -2.0120  1.1835
 8400SOL     OW36832   2.132   4.192  17.598 -0.4293 -0.3561 -0.3810
 8400SOL    HW136833   2.070   4.175  17.669  0.1682  0.2601  0.2853
 8400SOL    HW236834   2.137   4.099  17.573  3.8177  0.0029 -0.7494
 8401SOL     OW36835   3.375   1.740   4.968  0.2029 -0.6601  0.2089
 8401SOL    HW136836   3.348   1.826   5.002 -0.5746 -0.5800 -0.6060
 8401SOL    HW236837   3.456   1.720   5.016  1.2714 -0.1884 -1.4039
 8402SOL     OW36838   4.321   3.523   6.442  0.3661  0.1910  0.2879
 8402SOL    HW136839   4.286   3.439   6.469  0.1818 -0.2167 -1.2620
 8402SOL    HW236840   4.372   3.561   6.514 -2.6989  1.1110  1.9767
 8403SOL     OW36841   2.709   4.533   7.853  0.4087 -0.6015  0.6939
 8403SOL    HW136842   2.662   4.611   7.883  0.8895  0.7353 -2.1031
 8403SOL    HW236843   2.732   4.492   7.937  1.4911 -1.6320 -0.1232
 8404SOL     OW36844   0.419   1.752   5.057  0.0956  0.3929  0.0354
 8404SOL    HW136845   0.511   1.752   5.034  0.5627 -0.4421  1.9132
 8404SOL    HW236846   0.376   1.748   4.971 -0.5484  1.1683  0.3253
 8405SOL     OW36847   3.863   3.053   5.159 -0.0041 -0.4081 -0.6609
 8405SOL    HW136848   3.805   2.994   5.207  0.4806 -0.0907  0.3078
 8405SOL    HW236849   3.934   3.074   5.218 -2.4062  0.4920  1.9201
 8406SOL     OW36850   1.618   4.315   5.107  0.4474  0.6722 -0.1937
 8406SOL    HW136851   1.692   4.376   5.099  0.7016  0.3468 -0.3148
 8406SOL    HW236852   1.602   4.308   5.013  2.0530 -1.1723 -0.3229
 8407SOL     OW36853   3.506   4.080   4.146  0.2403  0.2279  0.4270
 8407SOL    HW136854   3.541   3.994   4.170 -2.9335 -1.1284  0.3128
 8407SOL    HW236855   3.423   4.084   4.194  0.3208 -3.3793  0.9091
 8408SOL     OW36856   3.407   0.642  12.405  0.3908 -0.2214 -0.1635
 8408SOL    HW136857   3.365   0.574  12.458  0.4391  0.1500  0.3571
 8408SOL    HW236858   3.495   0.617  12.432  0.2510 -3.1637 -2.4204
 8409SOL     OW36859   0.094   2.563   3.201 -0.0734  0.3819 -0.3150
 8409SOL    HW136860   0.111   2.552   3.107 -0.0896 -0.7577 -0.1893
 8409SOL    HW236861   0.117   2.476   3.234 -0.7679 -0.0482 -0.9563
 8410SOL     OW36862   4.459   4.043   8.654 -0.1492 -0.1905  0.0632
 8410SOL    HW136863   4.436   3.996   8.734 -0.2749 -1.4977 -0.7306
 8410SOL    HW236864   4.396   4.115   8.656  0.1361  0.0766 -0.6200
 8411SOL     OW36865   0.415   0.934  17.014 -0.6203  0.3614 -0.1237
 8411SOL    HW136866   0.400   0.979  17.097 -0.7036  0.7184 -0.3300
 8411SOL    HW236867   0.398   1.008  16.956 -2.4034 -0.0188 -0.0825
 8412SOL     OW36868   3.435   3.708   7.098  0.6839 -0.0569  0.2558
 8412SOL    HW136869   3.378   3.731   7.025  1.9168 -1.7327 -1.2412
 8412SOL    HW236870   3.391   3.757   7.168 -0.1096  0.7634 -0.8249
 8413SOL     OW36871   3.362   3.988  15.153 -0.2589  0.2343 -0.3981
 8413SOL    HW136872   3.399   3.979  15.241  3.2017  2.1952 -1.6492
 8413SOL    HW236873   3.388   4.077  15.130 -0.2853 -0.0563 -1.5209
 8414SOL     OW36874   2.474   1.621   3.116 -0.0564 -0.3125  0.3198
 8414SOL    HW136875   2.435   1.697   3.159  0.8367 -0.2505  1.0151
 8414SOL    HW236876   2.465   1.647   3.024  0.1052 -1.8141 -0.1131
 8415SOL     OW36877   2.236   1.862   2.443  0.2639 -0.1323 -0.0602
 8415SOL    HW136878   2.319   1.875   2.397 -0.2358 -2.9034 -1.7764
 8415SOL    HW236879   2.186   1.812   2.378  0.0551  0.7218 -0.5573
 8416SOL     OW36880   1.654   3.067   7.490  0.1602 -0.5426 -0.0239
 8416SOL    HW136881   1.742   3.102   7.478 -0.4653  0.7961 -0.6512
 8416SOL    HW236882   1.673   2.975   7.512  1.1416 -0.4855 -0.5959
 8417SOL     OW36883   0.301   1.179   2.996 -0.4114 -0.3549 -0.1910
 8417SOL    HW136884   0.243   1.243   3.038 -1.3838 -1.1517 -0.3214
 8417SOL    HW236885   0.264   1.094   3.022  0.5788 -0.0986  2.0884
 8418SOL     OW36886   0.744   3.355  12.541 -0.0132 -0.0671  0.0021
 8418SOL    HW136887   0.776   3.266  12.554 -0.6397 -0.2160  0.5262
 8418SOL    HW236888   0.693   3.341  12.462  0.0935  0.2861 -0.1301
 8419SOL     OW36889   3.480   2.873  16.581  0.4128  0.3233  0.2944
 8419SOL    HW136890   3.539   2.908  16.515 -0.3363 -0.6840 -0.9201
 8419SOL    HW236891   3.423   2.816  16.529  0.1674  1.5032 -0.7215
 8420SOL     OW36892   0.680   0.623  14.743  0.2455  0.0797 -0.0443
 8420SOL    HW136893   0.703   0.653  14.832  1.3306 -2.8353  0.6661
 8420SOL    HW236894   0.664   0.706  14.699 -0.2069  0.3960  0.7138
 8421SOL     OW36895   3.452   0.202  16.779  0.6383  0.3963 -0.3454
 8421SOL    HW136896   3.436   0.277  16.836  0.5134  0.5750 -0.6144
 8421SOL    HW236897   3.453   0.234  16.688 -1.5102  0.3418 -0.3922
 8422SOL     OW36898   2.229   3.676   5.219 -0.3713  0.0095  0.3281
 8422SOL    HW136899   2.308   3.688   5.165  0.8604 -2.4575  1.5908
 8422SOL    HW236900   2.263   3.651   5.305 -1.3131 -1.0014  0.4043
 8423SOL     OW36901   3.276   0.196  15.457  0.1329 -0.2666  0.5850
 8423SOL    HW136902   3.197   0.146  15.479  0.7594 -1.8123 -0.7114
 8423SOL    HW236903   3.319   0.211  15.542  1.9914  0.7507 -0.5452
 8424SOL     OW36904   3.963   2.648   7.720  0.1162  0.6173 -0.5465
 8424SOL    HW136905   3.941   2.719   7.782 -2.3681 -0.2654 -0.4322
 8424SOL    HW236906   3.905   2.656   7.644  0.8643 -0.1083 -1.1892
 8425SOL     OW36907   3.877   3.379   1.842 -0.2012 -0.1056  0.4517
 8425SOL    HW136908   3.927   3.378   1.761  1.0003 -0.6861  1.2028
 8425SOL    HW236909   3.874   3.284   1.854  1.3279  0.0085  1.8095
 8426SOL     OW36910   2.019   4.197   3.246  0.5289 -0.3081  0.2048
 8426SOL    HW136911   1.947   4.178   3.307 -0.5996  1.5957 -0.5255
 8426SOL    HW236912   2.051   4.286   3.259 -0.2947 -0.1003  0.8283
 8427SOL     OW36913   3.386   2.774   6.753  0.1929  0.6564  0.7572
 8427SOL    HW136914   3.451   2.797   6.686 -0.0674  1.9267  0.9402
 8427SOL    HW236915   3.311   2.743   6.702 -0.9387  0.9818  2.2366
 8428SOL     OW36916   2.831   3.171   7.186 -0.3665 -0.8116  0.0299
 8428SOL    HW136917   2.754   3.179   7.242 -0.4375  0.9800 -0.3142
 8428SOL    HW236918   2.814   3.224   7.107 -0.3654 -0.4843  0.2484
 8429SOL     OW36919   0.831   1.915   1.812  0.1921  0.0982  0.1039
 8429SOL    HW136920   0.778   1.849   1.768  2.1687 -0.9148 -0.7517
 8429SOL    HW236921   0.849   1.981   1.745  0.3925 -0.2674 -0.1943
 8430SOL     OW36922   3.406   2.775  10.562  0.1598 -0.2494  0.5818
 8430SOL    HW136923   3.412   2.740  10.473 -6.0580  0.7095 -0.2491
 8430SOL    HW236924   3.329   2.733  10.602  0.9132 -1.8433  0.3741
 8431SOL     OW36925   1.604   2.500   5.387 -0.1874 -0.0407  0.3412
 8431SOL    HW136926   1.614   2.438   5.314 -1.2778 -0.2685  0.3873
 8431SOL    HW236927   1.661   2.567   5.350  0.1324  0.7215  2.2433
 8432SOL     OW36928   2.089   0.276   0.321 -0.2958  0.7159 -0.2590
 8432SOL    HW136929   2.099   0.194   0.370 -2.1499  0.9950  0.5997
 8432SOL    HW236930   2.119   0.248   0.235  1.8835 -0.3294  0.8387
 8433SOL     OW36931   4.616   0.220   2.185  0.9463  0.2435  0.1003
 8433SOL    HW136932   4.534   0.195   2.144  0.3113 -0.3951  1.7902
 8433SOL    HW236933   4.583   0.247   2.271 -0.0235  1.0146 -0.5223
 8434SOL     OW36934   4.490   4.050  13.071 -0.0142 -0.2160  0.1467
 8434SOL    HW136935   4.524   4.117  13.011  1.3446 -0.7471  0.3265
 8434SOL    HW236936   4.567   3.994  13.084 -1.7078 -2.6619 -0.4269
 8435SOL     OW36937   4.212   1.313   6.381  0.5587  0.4590  0.1369
 8435SOL    HW136938   4.252   1.333   6.296  0.5489  0.2381  0.0804
 8435SOL    HW236939   4.170   1.229   6.364  0.4837  0.4821  0.2084
 8436SOL     OW36940   0.289   0.725   1.647  0.3746  0.3953 -0.1308
 8436SOL    HW136941   0.291   0.787   1.719  0.9415 -1.3087  1.3148
 8436SOL    HW236942   0.247   0.650   1.689  1.0844 -0.2774 -0.5986
 8437SOL     OW36943   2.998   0.329  16.146  0.1338  0.0801  0.1378
 8437SOL    HW136944   2.949   0.250  16.123  1.0449 -1.0829  2.2262
 8437SOL    HW236945   3.084   0.291  16.133 -0.2287 -1.0789  1.2118
 8438SOL     OW36946   3.182   0.675  11.713 -0.2082 -0.4753  0.8382
 8438SOL    HW136947   3.144   0.681  11.800  2.1014 -1.6491  1.9207
 8438SOL    HW236948   3.272   0.672  11.745 -0.7212  0.8339  2.4018
 8439SOL     OW36949   1.966   3.005  17.299 -0.3605  0.1094 -0.2878
 8439SOL    HW136950   1.970   2.975  17.209 -1.4525  2.8701 -1.2697
 8439SOL    HW236951   1.916   3.084  17.277 -3.1172 -1.7284 -0.6382
 8440SOL     OW36952   2.917   1.542  14.753  0.3418  0.7335 -0.0636
 8440SOL    HW136953   2.939   1.459  14.711  0.2358  1.3976 -1.4500
 8440SOL    HW236954   2.843   1.575  14.702 -0.7619 -0.5316  0.7210
 8441SOL     OW36955   2.888   0.758   3.279  0.5846  0.1009  0.3647
 8441SOL    HW136956   2.866   0.750   3.372 -0.8780  0.3439  0.0280
 8441SOL    HW236957   2.969   0.809   3.285 -0.0975  0.8602  3.1730
 8442SOL     OW36958   2.540   2.776   7.687 -0.5708 -0.1141  0.4126
 8442SOL    HW136959   2.597   2.719   7.738  1.3984  2.9031  1.5648
 8442SOL    HW236960   2.505   2.710   7.628 -0.0174 -1.0615  1.1599
 8443SOL     OW36961   4.550   2.996   2.049 -0.1566  0.5531 -0.4656
 8443SOL    HW136962   4.598   3.079   2.049 -0.6164  0.8173 -0.3584
 8443SOL    HW236963   4.520   2.985   1.959 -0.8754  1.4187 -0.3314
 8444SOL     OW36964   0.871   3.932   7.797 -0.1567  0.2493  0.5160
 8444SOL    HW136965   0.825   3.877   7.861 -2.1180  0.5839 -0.6088
 8444SOL    HW236966   0.946   3.958   7.851  1.9463  0.7918 -2.6406
 8445SOL     OW36967   3.727   0.882   5.424  0.0573 -0.1351 -0.2526
 8445SOL    HW136968   3.652   0.825   5.414  2.1782 -3.0621  0.6349
 8445SOL    HW236969   3.708   0.932   5.503  0.3478  0.0544 -0.2986
 8446SOL     OW36970   4.147   4.362  10.323  1.0895 -0.1714 -0.1260
 8446SOL    HW136971   4.063   4.373  10.280 -0.5648 -1.4229  2.7541
 8446SOL    HW236972   4.183   4.303  10.258 -0.5932  0.0867 -1.2930
 8447SOL     OW36973   2.625   2.534   4.130 -0.0665  0.2392 -0.7635
 8447SOL    HW136974   2.613   2.575   4.044 -2.0884 -0.5186 -0.8607
 8447SOL    HW236975   2.552   2.472   4.140  0.8947 -0.6144  0.8813
 8448SOL     OW36976   3.752   3.989  13.477  0.9381 -0.1423  0.0392
 8448SOL    HW136977   3.722   4.002  13.387  2.1850  0.9443 -0.2146
 8448SOL    HW236978   3.843   4.012  13.461  1.0830 -3.7626 -4.1848
 8449SOL     OW36979   2.377   2.470   1.615  0.1360 -0.0632  0.5277
 8449SOL    HW136980   2.328   2.426   1.545  0.6551  0.0690  0.0834
 8449SOL    HW236981   2.440   2.405   1.645  0.2125 -0.0880  0.3126
 8450SOL     OW36982   0.686   1.378   7.065  0.4140  0.3157 -0.5565
 8450SOL    HW136983   0.700   1.356   6.973  0.2625  1.8255 -0.9392
 8450SOL    HW236984   0.727   1.305   7.110  0.0468 -1.2860 -2.8058
 8451SOL     OW36985   0.658   2.880  11.928 -0.5298 -0.2851 -0.9963
 8451SOL    HW136986   0.628   2.789  11.930 -1.9442  0.1992 -0.7532
 8451SOL    HW236987   0.594   2.911  11.864  1.3426  0.9427 -2.2630
 8452SOL     OW36988   3.829   4.193   3.777 -0.1260  0.2811 -0.3380
 8452SOL    HW136989   3.805   4.125   3.841  0.6662 -1.0252 -1.4319
 8452SOL    HW236990   3.745   4.193   3.731 -1.1903  2.0484  1.5839
 8453SOL     OW36991   3.601   4.171   4.449 -0.1957  0.9252 -0.6784
 8453SOL    HW136992   3.665   4.243   4.452 -1.5689  2.0995  0.4964
 8453SOL    HW236993   3.516   4.208   4.473 -0.6973  0.4245 -1.6750
 8454SOL     OW36994   0.177   2.391   8.203 -0.0601 -0.2028 -0.3098
 8454SOL    HW136995   0.125   2.311   8.191 -1.1039  0.7534 -2.0993
 8454SOL    HW236996   0.265   2.376   8.167 -0.9725 -0.8704 -2.2383
 8455SOL     OW36997   3.255   3.907  16.490 -0.4708 -0.4076 -0.0227
 8455SOL    HW136998   3.320   3.916  16.560  1.7391  0.2989 -2.1818
 8455SOL    HW236999   3.323   3.890  16.425  0.2081 -1.2225  0.9162
 8456SOL     OW37000   4.222   4.040   3.899  1.0855 -0.2234  0.0177
 8456SOL    HW137001   4.165   4.108   3.864  1.7656  0.2118 -0.2365
 8456SOL    HW237002   4.211   3.971   3.834  0.4903 -0.7030  0.6302
 8457SOL     OW37003   1.680   0.712  10.211  0.0462 -0.1318  0.6199
 8457SOL    HW137004   1.703   0.619  10.220  2.6059  0.4780  0.5021
 8457SOL    HW237005   1.748   0.738  10.148  1.0346  2.2718  2.7246
 8458SOL     OW37006   3.367   2.281   8.098 -0.2081  0.3573 -0.3723
 8458SOL    HW137007   3.456   2.315   8.102 -0.2272  0.4136 -0.4199
 8458SOL    HW237008   3.384   2.225   8.022  1.5817  2.1991 -1.3354
 8459SOL     OW37009   0.712   1.085  17.055 -0.0987  0.4394  0.3168
 8459SOL    HW137010   0.755   1.169  17.038  0.9102  0.1892  1.6481
 8459SOL    HW237011   0.618   1.105  17.063 -0.2427  0.3557 -1.2172
 8460SOL     OW37012   2.735   2.384   3.794 -0.1390 -0.2494  0.3215
 8460SOL    HW137013   2.683   2.307   3.816  1.3098 -2.1688 -2.9899
 8460SOL    HW237014   2.677   2.435   3.737 -0.9208 -0.9033  0.5295
 8461SOL     OW37015   4.277   3.543   2.419  0.8897 -0.4318 -0.3114
 8461SOL    HW137016   4.250   3.549   2.328 -1.5024  4.9041  0.7913
 8461SOL    HW237017   4.256   3.633   2.444  0.3280 -0.5046 -0.5296
 8462SOL     OW37018   3.486   4.587   9.152  0.2178 -0.3734 -0.5854
 8462SOL    HW137019   3.434   4.507   9.166  1.5525 -0.9438  1.1683
 8462SOL    HW237020   3.414   4.643   9.124  0.0769 -0.4198 -0.3175
 8463SOL     OW37021   2.551   3.969  15.631 -0.6172  0.4556  0.1734
 8463SOL    HW137022   2.551   4.021  15.711 -1.3992 -0.1508  0.5543
 8463SOL    HW237023   2.618   3.901  15.641 -1.5282 -0.7050 -1.4579
 8464SOL     OW37024   3.180   0.454   1.401 -0.6376 -0.3554  0.0464
 8464SOL    HW137025   3.168   0.545   1.429 -1.2917 -0.5843  0.4994
 8464SOL    HW237026   3.219   0.414   1.478  1.5479  0.5578 -0.5677
 8465SOL     OW37027   4.724   0.463   2.116 -0.1686 -0.0594 -0.2415
 8465SOL    HW137028   4.700   0.373   2.137 -2.1733  0.3485 -0.7607
 8465SOL    HW237029   4.663   0.480   2.045 -0.2592  4.3707  0.9111
 8466SOL     OW37030   0.078   1.617   1.888 -0.4558 -0.4521 -0.5825
 8466SOL    HW137031   0.072   1.687   1.823  0.1370 -1.3398 -1.5752
 8466SOL    HW237032   0.056   1.541   1.836  0.3839 -1.0029 -0.1330
 8467SOL     OW37033   4.287   3.318  14.231  0.4457 -0.9084 -0.1490
 8467SOL    HW137034   4.335   3.237  14.250  0.9226 -1.2537 -2.7935
 8467SOL    HW237035   4.329   3.383  14.287  0.3702 -0.9031 -0.0993
 8468SOL     OW37036   1.188   0.728   3.525  0.4159 -0.0467  0.4982
 8468SOL    HW137037   1.253   0.777   3.475  0.7639 -2.1133 -1.1264
 8468SOL    HW237038   1.228   0.641   3.536  0.1200 -0.3984 -1.1959
 8469SOL     OW37039   3.181   4.686   7.394 -0.0001 -0.2250  0.2496
 8469SOL    HW137040   3.237   4.653   7.323 -0.3064 -1.9916  0.8218
 8469SOL    HW237041   3.144   4.602   7.422  0.3463 -0.6733 -0.6425
 8470SOL     OW37042   3.030   2.856   3.614 -0.3592 -0.6386  0.4945
 8470SOL    HW137043   2.993   2.790   3.556 -1.3522  1.1410 -0.9164
 8470SOL    HW237044   3.011   2.819   3.700  2.5683  0.7342  1.7313
 8471SOL     OW37045   3.769   1.702   9.463  0.2837  0.0928  0.1146
 8471SOL    HW137046   3.849   1.655   9.482  0.5855  1.0595  1.2422
 8471SOL    HW237047   3.704   1.657   9.517  0.2870  2.8513  2.4096
 8472SOL     OW37048   0.659   2.131   5.860  0.4124 -0.0840  0.2994
 8472SOL    HW137049   0.674   2.100   5.771 -1.4269  1.3092 -0.4897
 8472SOL    HW237050   0.686   2.057   5.915 -1.6808 -2.8376 -2.3632
 8473SOL     OW37051   1.632   1.541  11.312 -0.0902 -0.0206 -0.1691
 8473SOL    HW137052   1.702   1.528  11.248  1.5403  0.7954  1.4754
 8473SOL    HW237053   1.674   1.604  11.370 -0.2523 -1.3920  1.4428
 8474SOL     OW37054   1.170   0.530   4.103  0.9121 -0.6241 -0.3209
 8474SOL    HW137055   1.147   0.438   4.111 -0.6994 -0.3558 -1.9549
 8474SOL    HW237056   1.255   0.528   4.059  0.8755  2.2952 -0.5507
 8475SOL     OW37057   0.588   0.261  10.376  0.1947 -0.1854 -0.2186
 8475SOL    HW137058   0.672   0.219  10.360  0.8278  0.1004  2.2820
 8475SOL    HW237059   0.602   0.353  10.356 -0.8659  0.3976  1.6671
 8476SOL     OW37060   0.037   1.478  16.979  0.0101 -0.1095  0.6863
 8476SOL    HW137061   0.086   1.526  17.045  1.3542 -1.2546  0.5321
 8476SOL    HW237062   4.686   1.510  16.990 -0.8521 -2.0345 -0.5929
 8477SOL     OW37063   3.019   1.395   6.194  0.4187 -0.1650 -0.2661
 8477SOL    HW137064   2.939   1.422   6.241  1.7290  0.7799  1.4198
 8477SOL    HW237065   3.025   1.300   6.203 -0.6488 -0.3410 -1.4246
 8478SOL     OW37066   2.177   1.405   6.489  0.1186  0.1610  0.4267
 8478SOL    HW137067   2.227   1.326   6.471  0.1938  0.4108 -0.4581
 8478SOL    HW237068   2.192   1.461   6.413 -0.7442  0.5655  0.5547
 8479SOL     OW37069   0.246   1.377  15.962  0.1397  0.2808 -0.2020
 8479SOL    HW137070   0.206   1.290  15.961  0.3619  0.1898 -0.6952
 8479SOL    HW237071   0.159   1.417  15.953  0.3744  0.7466 -0.3870
 8480SOL     OW37072   1.013   0.197   9.987  0.2488  0.6594 -0.5243
 8480SOL    HW137073   0.967   0.121   9.951  2.3040 -1.0188  0.3441
 8480SOL    HW237074   1.062   0.210   9.906  0.2682  0.5993 -0.5223
 8481SOL     OW37075   2.487   1.590   6.923 -0.4422 -0.0718 -0.8812
 8481SOL    HW137076   2.425   1.546   6.865 -1.3592 -1.2164  1.0031
 8481SOL    HW237077   2.550   1.522   6.945  1.0594  2.0221  1.2554
 8482SOL     OW37078   1.124   2.723   9.817  0.7200  0.3134 -0.6390
 8482SOL    HW137079   1.213   2.687   9.816 -0.1003 -1.7572 -0.8632
 8482SOL    HW237080   1.084   2.668   9.885  1.5364  1.3993  0.7101
 8483SOL     OW37081   2.434   4.528   5.270  0.2399  0.2011 -0.6450
 8483SOL    HW137082   2.364   4.562   5.214 -0.6394 -1.4774 -0.5532
 8483SOL    HW237083   2.380   4.483   5.335  1.1293  0.0626  0.0023
 8484SOL     OW37084   0.071   2.905   9.007 -0.1729  0.3161  0.1618
 8484SOL    HW137085   0.105   2.939   9.089 -1.0209  3.3149 -0.7381
 8484SOL    HW237086   0.069   2.982   8.950  0.7170  1.4669  1.6923
 8485SOL     OW37087   3.662   3.459  16.138  0.5139 -0.3722 -0.8901
 8485SOL    HW137088   3.621   3.393  16.193  0.4037  1.0833  0.7705
 8485SOL    HW237089   3.642   3.439  16.046  0.7212 -0.7819 -0.8448
 8486SOL     OW37090   2.967   3.057   6.168 -0.2290 -0.1555 -0.1437
 8486SOL    HW137091   2.901   3.000   6.128  2.0389 -0.7991 -2.9935
 8486SOL    HW237092   3.029   2.994   6.206  1.7645  1.7040 -0.3473
 8487SOL     OW37093   3.332   1.908   2.716  0.1123  0.1979 -0.9440
 8487SOL    HW137094   3.327   1.910   2.811 -1.7264 -0.0285 -1.0283
 8487SOL    HW237095   3.309   1.994   2.680 -0.5877  1.3435  2.2251
 8488SOL     OW37096   2.505   3.059   8.989 -0.4148 -0.6324  0.0846
 8488SOL    HW137097   2.530   3.115   9.062 -0.2961 -0.7732  0.1521
 8488SOL    HW237098   2.516   3.127   8.923  0.3020 -1.0024 -0.1732
 8489SOL     OW37099   1.641   2.743   5.743 -0.0241 -0.3264 -1.0310
 8489SOL    HW137100   1.694   2.793   5.805  0.1293 -1.4452 -0.2566
 8489SOL    HW237101   1.663   2.780   5.657 -1.4993 -2.6066 -2.4053
 8490SOL     OW37102   2.155   4.407   9.218  0.3853 -0.2241  0.4316
 8490SOL    HW137103   2.171   4.349   9.293  0.1065  0.8225  1.3021
 8490SOL    HW237104   2.059   4.409   9.218  0.4197  1.1252  0.9957
 8491SOL     OW37105   2.155   3.507   7.662  0.5085  0.1728 -0.2655
 8491SOL    HW137106   2.072   3.516   7.708  1.8901  1.9102  1.8256
 8491SOL    HW237107   2.199   3.441   7.716  2.0979 -0.4918 -2.3632
 8492SOL     OW37108   4.127   1.912  14.348  0.2839 -0.4795 -0.1941
 8492SOL    HW137109   4.190   1.929  14.418 -0.0105  1.4652 -0.4030
 8492SOL    HW237110   4.145   1.820  14.328  0.1648 -0.4099 -0.6230
 8493SOL     OW37111   2.375   3.181   6.868 -0.1709  0.2384  0.1905
 8493SOL    HW137112   2.469   3.160   6.871 -0.0518  0.4519 -2.1246
 8493SOL    HW237113   2.327   3.100   6.849 -0.1248  0.0878  0.7288
 8494SOL     OW37114   3.415   2.627   8.355 -0.2862 -0.0939  0.3095
 8494SOL    HW137115   3.390   2.718   8.343  0.5082 -0.0170 -0.7497
 8494SOL    HW237116   3.327   2.590   8.369 -0.2302 -0.3862 -0.1112
 8495SOL     OW37117   0.112   1.321   8.971  0.1803  0.4221  0.5377
 8495SOL    HW137118   0.073   1.262   9.035 -1.1266  1.3653  0.5995
 8495SOL    HW237119   0.100   1.410   9.004 -1.9524  0.7053 -1.0225
 8496SOL     OW37120   3.029   3.961   4.776 -0.0898 -0.1919  0.7887
 8496SOL    HW137121   2.952   3.942   4.723 -0.4772 -0.9939  1.6274
 8496SOL    HW237122   3.023   4.055   4.791 -2.8338 -0.1398 -0.6893
 8497SOL     OW37123   4.347   4.714   2.241  0.0491  0.1533  0.1748
 8497SOL    HW137124   4.309   0.064   2.229  1.1807  0.0144 -4.5945
 8497SOL    HW237125   4.382   4.702   2.152 -2.2194  0.7484 -0.8012
 8498SOL     OW37126   2.373   0.055   3.954 -0.7040  0.1200  0.3309
 8498SOL    HW137127   2.378   4.709   4.000 -0.9016 -0.6364 -1.0293
 8498SOL    HW237128   2.428   0.106   4.014  1.6083  0.6957 -2.2982
 8499SOL     OW37129   4.125   2.949   8.634 -0.2789  0.1403 -0.0129
 8499SOL    HW137130   4.149   2.922   8.545 -2.8065  1.0927 -0.9805
 8499SOL    HW237131   4.081   3.032   8.616  2.0226  1.3486 -0.0394
 8500SOL     OW37132   4.648   3.392   6.350  0.3949 -0.3412 -0.1096
 8500SOL    HW137133   4.737   3.420   6.327  0.4847  1.0142  1.9072
 8500SOL    HW237134   4.647   3.442   6.431  2.3034  1.7741 -1.3801
 8501SOL     OW37135   1.364   2.296   5.513 -0.3257 -0.4783 -0.0939
 8501SOL    HW137136   1.385   2.205   5.534 -0.4606 -0.4795  0.0323
 8501SOL    HW237137   1.335   2.322   5.600 -1.8094  1.4560 -1.1570
 8502SOL     OW37138   3.768   2.535   3.120 -0.3821  0.1809  0.1769
 8502SOL    HW137139   3.849   2.574   3.152 -0.1370 -1.1216  1.1556
 8502SOL    HW237140   3.709   2.604   3.150 -1.3601 -0.4861 -0.2159
 8503SOL     OW37141   4.572   0.087   6.275 -0.4338  0.3085  0.2251
 8503SOL    HW137142   4.661   0.111   6.301  0.2703 -2.3753  0.3493
 8503SOL    HW237143   4.585   0.086   6.180 -1.1278 -0.9972  0.1500
 8504SOL     OW37144   0.523   0.794   5.968 -0.3532  0.0970  0.2710
 8504SOL    HW137145   0.577   0.749   6.034 -0.6917 -0.3316  0.2567
 8504SOL    HW237146   0.587   0.796   5.897  0.8996 -1.3294  1.3576
 8505SOL     OW37147   1.328   0.641   2.454 -0.4950  0.2840  0.2556
 8505SOL    HW137148   1.282   0.693   2.519 -1.5595  0.0025 -0.2666
 8505SOL    HW237149   1.357   0.572   2.515  1.4139  0.4405 -0.4605
 8506SOL     OW37150   0.575   4.506   4.345  0.7732 -0.0760 -0.4314
 8506SOL    HW137151   0.636   4.517   4.272  0.4679 -1.8976 -0.9520
 8506SOL    HW237152   0.502   4.454   4.311  0.1672  0.0429  0.7076
 8507SOL     OW37153   3.329   3.970   6.348 -0.2191  0.0401  0.4690
 8507SOL    HW137154   3.425   3.965   6.345 -0.3104 -1.0765 -0.2100
 8507SOL    HW237155   3.302   3.882   6.372  0.0044  0.2963  1.6633
 8508SOL     OW37156   1.996   3.370   1.707  0.2336  0.6580 -0.7819
 8508SOL    HW137157   2.000   3.465   1.700 -0.6755  0.7390 -0.2777
 8508SOL    HW237158   2.008   3.353   1.801  0.8156  2.4574 -0.5406
 8509SOL     OW37159   3.274   1.456  12.019  0.3340  0.3556 -0.2964
 8509SOL    HW137160   3.223   1.538  12.021  1.2036  0.8705  0.7255
 8509SOL    HW237161   3.203   1.392  12.012  0.3878  0.1062  1.4888
 8510SOL     OW37162   2.712   3.640   8.819  0.2554  0.3191 -0.1539
 8510SOL    HW137163   2.734   3.728   8.849  3.4005 -0.0991 -1.2320
 8510SOL    HW237164   2.794   3.611   8.859  0.4433 -1.1065 -1.5521
 8511SOL     OW37165   0.876   2.710   2.189 -0.1803  0.1004  0.0077
 8511SOL    HW137166   0.780   2.711   2.197 -0.1382  2.3406  0.4833
 8511SOL    HW237167   0.893   2.712   2.095  0.0017 -1.2112  0.0209
 8512SOL     OW37168   4.607   3.273   5.846 -0.0500  0.5594 -0.0012
 8512SOL    HW137169   4.678   3.304   5.902  0.5359 -1.4545  0.3477
 8512SOL    HW237170   4.654   3.237   5.771 -1.7583  1.0921 -1.3156
 8513SOL     OW37171   0.918   4.030   6.822 -0.8230 -0.2861  0.1077
 8513SOL    HW137172   0.933   3.938   6.844 -1.1931 -0.0415  1.4253
 8513SOL    HW237173   0.905   4.066   6.910  1.8870 -0.8818  0.7605
 8514SOL     OW37174   2.930   0.371   8.118 -0.5961 -0.0330 -0.4772
 8514SOL    HW137175   2.944   0.283   8.084  0.7023 -1.2108  3.1181
 8514SOL    HW237176   2.840   0.366   8.149 -0.3767  3.3664  0.7298
 8515SOL     OW37177   0.970   2.448   8.089 -0.0983 -0.1879  0.2157
 8515SOL    HW137178   1.036   2.447   8.019  0.7805 -0.4511  1.0585
 8515SOL    HW237179   0.951   2.540   8.108  1.6856  0.4563 -0.9959
 8516SOL     OW37180   0.393   0.869   3.104  0.6269  0.3255 -0.6294
 8516SOL    HW137181   0.391   0.774   3.096 -2.1242  0.1644  1.7555
 8516SOL    HW237182   0.304   0.882   3.070  0.4485  0.6317 -0.0518
 8517SOL     OW37183   0.026   1.021   1.842 -0.2338 -0.3200 -0.0778
 8517SOL    HW137184   0.066   1.104   1.815  1.8890 -1.0585  0.7808
 8517SOL    HW237185   4.710   1.044   1.917  0.2007 -2.6055  0.9485
 8518SOL     OW37186   3.820   2.021   5.475  0.3196 -0.3481 -0.6391
 8518SOL    HW137187   3.808   2.071   5.394  0.8564 -2.9444 -2.3469
 8518SOL    HW237188   3.836   1.934   5.438 -1.6854 -0.6752 -0.7227
 8519SOL     OW37189   0.056   1.444  11.215  0.2428  0.3498  0.1424
 8519SOL    HW137190   4.715   1.486  11.179 -1.4916 -3.4927 -0.5151
 8519SOL    HW237191   0.084   1.504  11.284 -0.4763  0.1001  0.6507
 8520SOL     OW37192   4.574   2.465   2.006 -0.1465  0.3072 -0.1588
 8520SOL    HW137193   4.582   2.375   2.037  2.6294  0.6878  0.2364
 8520SOL    HW237194   4.516   2.501   2.073  0.6090  0.6377  0.3207
 8521SOL     OW37195   2.510   3.032   5.059 -0.2341  0.3995 -0.4433
 8521SOL    HW137196   2.551   3.097   5.002 -0.0452 -0.2869 -1.0840
 8521SOL    HW237197   2.417   3.055   5.064 -0.5984 -1.0059 -0.8179
 8522SOL     OW37198   2.403   0.985  11.443  0.0500  0.5519 -0.5521
 8522SOL    HW137199   2.324   1.025  11.479 -0.0391  0.6514 -0.8576
 8522SOL    HW237200   2.370   0.927  11.374 -2.7161  0.0655  1.1845
 8523SOL     OW37201   3.852   1.640   4.582  0.0865 -0.1407  0.2025
 8523SOL    HW137202   3.816   1.552   4.566 -1.4321  0.5470 -0.1610
 8523SOL    HW237203   3.890   1.620   4.668 -0.8844 -0.5524  0.5395
 8524SOL     OW37204   1.989   2.697   1.480 -0.3966  0.0045  0.2587
 8524SOL    HW137205   2.006   2.763   1.548 -1.3729  1.6420 -1.0852
 8524SOL    HW237206   1.968   2.622   1.535 -0.3113  0.4117  0.8495
 8525SOL     OW37207   3.135   1.322   5.904 -0.3740  0.5819 -0.1899
 8525SOL    HW137208   3.081   1.378   5.849 -0.3009 -0.4008 -1.2590
 8525SOL    HW237209   3.082   1.329   5.983  0.5501 -1.4320  0.6038
 8526SOL     OW37210   0.262   1.871  11.539 -0.9219 -0.0420 -0.3575
 8526SOL    HW137211   0.326   1.813  11.498 -0.1714  0.3545  0.2583
 8526SOL    HW237212   0.211   1.887  11.460 -1.4785 -0.3473 -0.0607
 8527SOL     OW37213   0.633   0.536  16.137  0.5716  0.5261 -0.0470
 8527SOL    HW137214   0.663   0.617  16.178 -1.3273  1.2410 -0.0632
 8527SOL    HW237215   0.694   0.523  16.064  0.9454 -3.7782  0.9869
 8528SOL     OW37216   3.216   1.190   3.402  0.1094  0.0216 -0.2486
 8528SOL    HW137217   3.235   1.276   3.441  0.5039  0.1675 -0.7577
 8528SOL    HW237218   3.292   1.137   3.428  0.5653  0.1206 -1.3698
 8529SOL     OW37219   0.948   2.954  16.506  0.1914 -0.0908  0.3141
 8529SOL    HW137220   0.891   3.030  16.515  0.3971  0.1693 -0.5661
 8529SOL    HW237221   1.033   2.992  16.482 -0.2435 -0.6620 -2.1200
 8530SOL     OW37222   3.446   2.717  14.599 -0.4265  0.0376  0.1025
 8530SOL    HW137223   3.532   2.746  14.630 -0.9031  1.5916 -0.0227
 8530SOL    HW237224   3.471   2.643  14.543 -1.0482  0.0897 -0.2479
 8531SOL     OW37225   3.379   0.634   6.099  0.0921  0.6779 -0.0151
 8531SOL    HW137226   3.457   0.677   6.063 -0.5059  0.7564 -1.2048
 8531SOL    HW237227   3.409   0.544   6.107 -1.5944  0.1645  0.5897
 8532SOL     OW37228   1.455   2.650   8.839 -0.3242 -0.3955 -0.2388
 8532SOL    HW137229   1.470   2.695   8.923 -0.7646 -1.1811  0.2629
 8532SOL    HW237230   1.433   2.565   8.879  0.0898 -0.4973 -0.2282
 8533SOL     OW37231   4.312   3.971  12.464  0.1385  0.3597  0.0215
 8533SOL    HW137232   4.276   3.898  12.513  0.0771  0.9889  0.9151
 8533SOL    HW237233   4.267   3.965  12.380  1.0089 -0.4605 -0.3832
 8534SOL     OW37234   3.264   3.784   2.585  0.7658 -0.3418 -0.3400
 8534SOL    HW137235   3.315   3.716   2.541 -2.1468 -0.9889 -2.6834
 8534SOL    HW237236   3.317   3.863   2.577 -0.6717  0.6740  0.2132
 8535SOL     OW37237   4.445   0.021   5.564 -0.1582  0.1563  0.7808
 8535SOL    HW137238   4.508   4.709   5.512 -0.8694 -0.7671  0.7889
 8535SOL    HW237239   4.472   0.015   5.656  1.8421 -0.6051  0.1435
 8536SOL     OW37240   0.293   0.326   0.684 -0.0140 -0.1095 -0.4419
 8536SOL    HW137241   0.280   0.412   0.643 -3.4076 -0.2786  0.2859
 8536SOL    HW237242   0.358   0.293   0.622  0.6281 -0.2998  0.3356
 8537SOL     OW37243   3.701   1.085   6.868  0.1344 -0.4627  0.3311
 8537SOL    HW137244   3.747   1.029   6.805 -0.2089 -0.9510  0.5179
 8537SOL    HW237245   3.746   1.170   6.860 -0.1083 -0.3480  0.1957
 8538SOL     OW37246   4.519   4.266   5.444 -0.2333  0.4625 -0.2428
 8538SOL    HW137247   4.553   4.183   5.478  0.2247  0.5849 -0.3973
 8538SOL    HW237248   4.596   4.303   5.401  0.9591 -1.7806 -0.0236
 8539SOL     OW37249   3.859   2.927   6.695  0.1559 -0.3675 -0.3895
 8539SOL    HW137250   3.878   2.924   6.601  1.0691  0.0466 -0.2104
 8539SOL    HW237251   3.875   2.836   6.720  0.1322  0.1017  1.3402
 8540SOL     OW37252   3.671   1.934  10.755 -0.2718  0.1856 -0.7858
 8540SOL    HW137253   3.744   1.907  10.811 -0.2568  0.8509 -0.4750
 8540SOL    HW237254   3.702   2.015  10.713 -0.1496  0.8467  0.5617
 8541SOL     OW37255   1.924   4.240   6.627 -0.4223 -0.0580  0.3819
 8541SOL    HW137256   1.864   4.170   6.602 -0.5254 -0.3016  1.3097
 8541SOL    HW237257   2.004   4.220   6.579 -0.7668 -1.1155  0.2560
 8542SOL     OW37258   0.615   2.187   4.048 -0.3017  0.6040 -0.5945
 8542SOL    HW137259   0.673   2.247   4.095 -2.4273 -1.5231  4.7304
 8542SOL    HW237260   0.673   2.113   4.030  0.3284  1.3093 -1.4402
 8543SOL     OW37261   0.085   3.905  10.760  0.2746 -0.0727 -0.1517
 8543SOL    HW137262   0.098   3.831  10.819 -1.2061 -1.0367 -1.0172
 8543SOL    HW237263   0.046   3.974  10.814 -0.3043  0.4211 -1.1940
 8544SOL     OW37264   1.191   0.615  14.888  0.8765  0.9902 -0.5322
 8544SOL    HW137265   1.118   0.564  14.854  1.0172 -0.1673  0.8865
 8544SOL    HW237266   1.220   0.576  14.971 -0.6287  1.4182  0.1846
 8545SOL     OW37267   4.561   1.047  10.588  0.1944  0.3876  0.5584
 8545SOL    HW137268   4.471   1.065  10.615  0.1662  0.5554  0.3585
 8545SOL    HW237269   4.601   1.117  10.639 -1.6498  0.2403  2.1826
 8546SOL     OW37270   0.197   1.543  15.333  0.0969 -0.4002 -0.2406
 8546SOL    HW137271   0.218   1.476  15.268  0.8547  0.0331 -0.4544
 8546SOL    HW237272   0.136   1.602  15.290 -0.9476 -1.4831 -0.2228
 8547SOL     OW37273   3.430   1.090   1.885  0.1458  0.4224  0.0739
 8547SOL    HW137274   3.455   1.162   1.943  0.0899  0.7480 -0.3047
 8547SOL    HW237275   3.374   1.046   1.948 -1.9593  0.9629 -1.4099
 8548SOL     OW37276   1.596   2.028  15.243 -0.3102  0.0488 -0.0562
 8548SOL    HW137277   1.671   2.002  15.297  0.0836 -0.1984 -0.7232
 8548SOL    HW237278   1.552   1.943  15.235  3.5876 -1.8354 -1.5337
 8549SOL     OW37279   4.532   4.609  16.186 -0.6130  0.2673 -0.2106
 8549SOL    HW137280   4.578   4.587  16.267  0.9401  2.4335 -0.4939
 8549SOL    HW237281   4.598   4.574  16.125  0.8469  1.5525  0.6386
 8550SOL     OW37282   2.237   4.730   2.558 -0.2436  0.5236  0.7721
 8550SOL    HW137283   2.146   0.015   2.574 -0.5227 -1.0174  1.4333
 8550SOL    HW237284   2.217   4.668   2.488 -0.9526 -0.2931  1.7036
 8551SOL     OW37285   1.947   3.521  13.851 -0.2369 -0.2612 -0.2761
 8551SOL    HW137286   1.873   3.463  13.839  0.0161 -0.6750  0.1674
 8551SOL    HW237287   2.014   3.479  13.796 -0.6395  0.2820 -1.1837
 8552SOL     OW37288   2.908   3.878   3.530 -0.0029  0.3627 -0.2237
 8552SOL    HW137289   2.929   3.795   3.573  0.4303 -0.1822 -1.4887
 8552SOL    HW237290   2.940   3.945   3.591 -0.3605  1.2415 -1.0053
 8553SOL     OW37291   2.548   3.742  10.300 -0.0712 -0.6488 -0.6140
 8553SOL    HW137292   2.600   3.728  10.221  1.2275  0.5364  0.0403
 8553SOL    HW237293   2.499   3.660  10.294 -0.3742 -0.5177  0.0278
 8554SOL     OW37294   1.811   0.107   3.556 -0.4245  0.9406  0.4331
 8554SOL    HW137295   1.809   0.012   3.554  0.7194  0.9180  0.6059
 8554SOL    HW237296   1.719   0.129   3.573 -0.9446 -0.0346 -1.1294
 8555SOL     OW37297   1.440   1.329  14.418  1.0579 -0.4364  0.2016
 8555SOL    HW137298   1.479   1.270  14.354 -0.7073 -2.6486  1.1461
 8555SOL    HW237299   1.427   1.406  14.364 -0.9528 -0.2346  0.9851
 8556SOL     OW37300   1.989   2.986   6.994  0.7199 -0.7435  0.1210
 8556SOL    HW137301   2.072   2.965   7.035  0.0419 -1.0944  1.3314
 8556SOL    HW237302   1.989   2.932   6.915  0.4668  1.8456 -1.6344
 8557SOL     OW37303   0.375   3.912   7.239 -0.4292 -0.3152 -0.0439
 8557SOL    HW137304   0.365   3.982   7.175  1.0194 -0.9802 -0.9907
 8557SOL    HW237305   0.421   3.842   7.193 -0.8482 -1.3127  1.0360
 8558SOL     OW37306   2.825   1.659   9.046  0.0181 -0.5036  0.1059
 8558SOL    HW137307   2.855   1.575   9.011 -0.3529 -0.0690 -1.2626
 8558SOL    HW237308   2.827   1.637   9.139  2.1947  0.4526  0.2833
 8559SOL     OW37309   2.002   4.026   6.090  0.2248  0.0694  0.5436
 8559SOL    HW137310   1.967   4.107   6.051  0.7028 -1.3893 -2.9083
 8559SOL    HW237311   1.931   4.001   6.150  0.8916  1.8353  2.0755
 8560SOL     OW37312   3.518   0.208   8.085  0.3112  0.1404  0.0609
 8560SOL    HW137313   3.487   0.119   8.069 -0.3302  0.1065  1.4759
 8560SOL    HW237314   3.587   0.225   8.021 -2.2537  0.8567 -2.5295
 8561SOL     OW37315   2.321   1.533   4.651 -0.1332  0.2470  0.0770
 8561SOL    HW137316   2.385   1.489   4.706  0.6928  1.6425  0.2510
 8561SOL    HW237317   2.275   1.592   4.712  0.2988  0.0905  0.5486
 8562SOL     OW37318   0.272   4.664   1.114  0.4082  0.1644 -0.0154
 8562SOL    HW137319   0.262   0.021   1.107 -0.7846 -0.0698 -1.3238
 8562SOL    HW237320   0.221   4.642   1.192 -1.5493  2.1872 -0.7385
 8563SOL     OW37321   2.830   0.789   6.733 -0.6345  0.1733 -0.7551
 8563SOL    HW137322   2.896   0.858   6.733  2.0795 -2.4535  1.1474
 8563SOL    HW237323   2.754   0.847   6.742 -1.7579 -1.4799  0.5140
 8564SOL     OW37324   4.709   4.487   2.860  0.2377 -0.2258 -0.5202
 8564SOL    HW137325   4.645   4.491   2.932  1.6859 -2.1322  0.8859
 8564SOL    HW237326   0.040   4.428   2.890 -0.6087 -0.0477  1.8246
 8565SOL     OW37327   3.849   1.494  16.566 -0.5013 -0.0281 -0.2943
 8565SOL    HW137328   3.935   1.458  16.589 -0.5903 -1.2098 -1.8797
 8565SOL    HW237329   3.797   1.425  16.525  0.2691 -0.6284 -0.2688
 8566SOL     OW37330   2.356   4.347   2.771  0.2608  0.0691  0.2411
 8566SOL    HW137331   2.435   4.316   2.728  0.0827 -1.0437  0.7104
 8566SOL    HW237332   2.307   4.384   2.698  1.1443  1.5512  0.4057
 8567SOL     OW37333   4.205   3.523   1.905 -0.1161 -0.5629  0.3522
 8567SOL    HW137334   4.132   3.579   1.879 -0.2689 -1.8158 -1.9955
 8567SOL    HW237335   4.204   3.456   1.836 -0.5029 -0.7260  0.5165
 8568SOL     OW37336   3.544   3.834  11.888  0.0561 -0.1171 -0.0644
 8568SOL    HW137337   3.626   3.810  11.931  0.5186  1.8303  0.1194
 8568SOL    HW237338   3.557   3.925  11.862 -0.5893  0.5181  1.8176
 8569SOL     OW37339   3.843   2.659  15.162  0.5088  0.0587  0.3814
 8569SOL    HW137340   3.780   2.727  15.142 -0.5683 -1.3886 -1.1631
 8569SOL    HW237341   3.803   2.582  15.120 -2.9743  1.0175  1.9144
 8570SOL     OW37342   2.738   1.575   5.552 -0.0888 -0.0206 -0.3579
 8570SOL    HW137343   2.652   1.534   5.561  0.0948 -0.3657 -0.1792
 8570SOL    HW237344   2.784   1.498   5.520  1.6548  1.0307 -0.4157
 8571SOL     OW37345   2.317   2.436  15.024  0.2137 -0.2687  0.7856
 8571SOL    HW137346   2.225   2.464  15.017  0.1874  0.1221  2.8699
 8571SOL    HW237347   2.336   2.396  14.939 -0.3687  0.0478  0.4979
 8572SOL     OW37348   3.014   4.101  17.667  0.3987 -0.0306 -0.5934
 8572SOL    HW137349   3.002   4.191  17.698 -0.2033 -0.1113 -0.5915
 8572SOL    HW237350   3.100   4.086  17.706  0.2548  1.4748  0.2980
 8573SOL     OW37351   1.143   3.398  15.371  0.3897 -0.3208  0.0119
 8573SOL    HW137352   1.094   3.478  15.351 -0.7424 -0.3811  2.6020
 8573SOL    HW237353   1.217   3.419  15.315  1.0973 -0.3574  0.9428
 8574SOL     OW37354   0.244   0.210   1.067  0.5120 -0.5657 -0.1161
 8574SOL    HW137355   0.223   0.226   1.159 -1.3593  0.1448 -0.6454
 8574SOL    HW237356   0.338   0.224   1.064  0.5499 -0.2784  2.6910
 8575SOL     OW37357   3.431   1.871  12.589  0.6256  0.1895  0.2411
 8575SOL    HW137358   3.359   1.830  12.637 -0.3338  1.4007 -0.1761
 8575SOL    HW237359   3.463   1.798  12.536 -0.1460  0.0256  0.0050
 8576SOL     OW37360   3.925   2.166   0.181 -0.5836 -0.1446 -0.2210
 8576SOL    HW137361   3.838   2.199   0.161  0.3752  0.0192 -4.2054
 8576SOL    HW237362   3.972   2.246   0.203  0.5890 -1.3397  1.6925
 8577SOL     OW37363   4.278   2.097   1.575 -0.4621  0.0011 -0.2237
 8577SOL    HW137364   4.274   2.004   1.593  0.7827 -0.1480 -0.6971
 8577SOL    HW237365   4.186   2.125   1.570  0.3658  2.9186  0.9072
 8578SOL     OW37366   0.753   3.269   5.034  0.2538 -0.0538  0.4844
 8578SOL    HW137367   0.750   3.276   5.129 -2.4996  0.4694  0.3413
 8578SOL    HW237368   0.845   3.290   5.018  0.7778 -1.8317  1.1382
 8579SOL     OW37369   3.541   2.215   5.240  0.7799  0.8936  0.0921
 8579SOL    HW137370   3.534   2.145   5.304  0.5136  0.1701 -0.7230
 8579SOL    HW237371   3.501   2.201   5.154  2.3240  0.8092 -0.6140
 8580SOL     OW37372   0.934   2.195   6.306 -0.2476  0.1757 -0.2942
 8580SOL    HW137373   1.014   2.164   6.263  0.2278  0.3842  0.4501
 8580SOL    HW237374   0.931   2.287   6.281 -1.1218  0.1426 -0.2942
 8581SOL     OW37375   4.504   1.079   1.233  0.1438 -0.1726 -0.1804
 8581SOL    HW137376   4.438   1.073   1.303  0.5809 -1.9259  0.0675
 8581SOL    HW237377   4.448   1.099   1.158 -0.9024 -0.2773  0.5623
 8582SOL     OW37378   1.718   4.316   4.046 -0.0377 -0.0591  0.0923
 8582SOL    HW137379   1.784   4.282   4.108  0.9138  0.2093 -0.7710
 8582SOL    HW237380   1.637   4.293   4.092  0.1363 -0.6320  0.1198
 8583SOL     OW37381   2.667   2.404  12.509  0.1191  0.2298  0.0098
 8583SOL    HW137382   2.587   2.457  12.510  1.3432  2.0868  0.7418
 8583SOL    HW237383   2.643   2.355  12.587  0.0682 -0.3770 -0.3873
 8584SOL     OW37384   4.550   2.559  10.791  0.3054  0.3183 -0.5337
 8584SOL    HW137385   4.540   2.467  10.819 -1.4485  0.6081 -0.1988
 8584SOL    HW237386   4.631   2.543  10.743 -1.0242 -1.0283 -2.3175
 8585SOL     OW37387   3.213   1.722   1.155 -0.5057 -0.0892  0.2104
 8585SOL    HW137388   3.205   1.779   1.232 -2.1775  0.0107 -0.0403
 8585SOL    HW237389   3.124   1.685   1.162  0.6221 -1.9412  4.7263
 8586SOL     OW37390   0.089   3.538   9.634 -0.3014 -0.8187 -0.6135
 8586SOL    HW137391   0.150   3.583   9.576 -0.9608  0.2025 -0.5057
 8586SOL    HW237392   0.079   3.606   9.700  1.2798  1.0301 -2.2766
 8587SOL     OW37393   0.232   3.489   3.852 -0.0058  0.1976  0.2456
 8587SOL    HW137394   0.168   3.480   3.781  1.1724  3.1516 -1.1919
 8587SOL    HW237395   0.214   3.418   3.913  3.3934  0.3695  1.4168
 8588SOL     OW37396   2.265   0.638   5.807  0.0359 -0.1604  0.9122
 8588SOL    HW137397   2.336   0.662   5.868  1.3974  0.3696 -0.8990
 8588SOL    HW237398   2.236   0.726   5.787 -0.1296 -1.0914 -2.8219
 8589SOL     OW37399   2.490   4.047   6.306  0.0097  0.2772  0.2145
 8589SOL    HW137400   2.570   3.996   6.290  0.5463  1.0127  0.5455
 8589SOL    HW237401   2.510   4.074   6.396  0.7892  2.1887 -0.5419
 8590SOL     OW37402   0.751   1.214   0.903 -0.2785  0.4877  0.0227
 8590SOL    HW137403   0.809   1.232   0.829  2.3824 -3.7320  1.1125
 8590SOL    HW237404   0.759   1.119   0.912 -1.4792  0.4298  0.5264
 8591SOL     OW37405   0.076   2.021   6.739  0.6208 -0.7035 -0.3145
 8591SOL    HW137406   0.008   2.079   6.774 -0.7391 -0.8927 -2.6034
 8591SOL    HW237407   0.031   1.939   6.720 -0.6102 -0.0823 -0.1038
 8592SOL     OW37408   3.104   0.343   5.636 -0.8559  0.0668  0.4740
 8592SOL    HW137409   3.019   0.385   5.622 -1.0618 -0.6082 -0.2845
 8592SOL    HW237410   3.093   0.277   5.568 -0.8640 -0.1651  0.6985
 8593SOL     OW37411   3.319   0.119   8.337  0.1322 -0.3728 -0.1902
 8593SOL    HW137412   3.410   0.097   8.316 -0.0337 -1.4268  0.1912
 8593SOL    HW237413   3.288   0.037   8.375  0.8867 -1.2426 -1.4509
 8594SOL     OW37414   3.557   1.503   8.301 -0.2002 -0.5108  0.7811
 8594SOL    HW137415   3.499   1.568   8.341  1.5863  0.8907  1.1084
 8594SOL    HW237416   3.525   1.430   8.354 -2.4204  1.0340  1.5556
 8595SOL     OW37417   0.647   4.274   8.223  0.2471  0.1667  0.2648
 8595SOL    HW137418   0.712   4.327   8.176  0.8070  1.2050  2.1827
 8595SOL    HW237419   0.588   4.259   8.150  1.2887 -1.1932 -0.2876
 8596SOL     OW37420   0.291   4.384   2.625 -0.4602 -0.0282  0.5337
 8596SOL    HW137421   0.384   4.405   2.628 -0.1086 -1.1037 -2.6143
 8596SOL    HW237422   0.270   4.421   2.540  0.3894  0.0937  0.3822
 8597SOL     OW37423   1.917   3.596   7.865 -0.3429  0.5535 -0.1980
 8597SOL    HW137424   1.953   3.631   7.947 -0.8562 -1.0266  0.7000
 8597SOL    HW237425   1.892   3.675   7.816 -2.5623  0.4922  0.8029
 8598SOL     OW37426   2.465   1.188   3.727  0.0745 -0.2698  0.2208
 8598SOL    HW137427   2.408   1.219   3.657  0.2026 -0.5049  0.0113
 8598SOL    HW237428   2.421   1.203   3.811 -1.0138 -0.4364 -0.3248
 8599SOL     OW37429   3.020   1.376   1.296  0.5683 -0.0897  0.4033
 8599SOL    HW137430   3.076   1.307   1.331 -0.9429 -1.0975  0.8275
 8599SOL    HW237431   2.937   1.359   1.340 -0.7973  1.7790 -1.4684
 8600SOL     OW37432   1.669   2.644   4.739  0.0839 -0.1473  0.4617
 8600SOL    HW137433   1.738   2.582   4.716 -2.2646 -2.2648 -0.8982
 8600SOL    HW237434   1.587   2.595   4.739 -0.4393  0.7216  2.8998
 8601SOL     OW37435   4.389   0.519   2.345 -0.2187 -0.8190  0.1559
 8601SOL    HW137436   4.405   0.425   2.353 -2.3216 -1.1776  0.2986
 8601SOL    HW237437   4.339   0.531   2.426 -0.4102  0.1889 -0.1072
 8602SOL     OW37438   1.411   2.751   3.703 -0.1379 -0.0673 -0.0322
 8602SOL    HW137439   1.334   2.796   3.668 -1.5038 -2.3578  0.0439
 8602SOL    HW237440   1.397   2.657   3.692 -0.8897  0.0498 -0.0801
 8603SOL     OW37441   1.283   2.386  13.789 -0.3510 -0.1331  0.6538
 8603SOL    HW137442   1.259   2.384  13.882 -2.1058 -1.9501  0.1633
 8603SOL    HW237443   1.250   2.297  13.778  0.7982 -0.3709 -0.7957
 8604SOL     OW37444   3.669   1.414   5.199 -0.3857  0.6464 -0.1186
 8604SOL    HW137445   3.755   1.422   5.240 -0.9475 -0.4793  1.2815
 8604SOL    HW237446   3.624   1.339   5.239  0.3608 -0.9439 -2.2529
 8605SOL     OW37447   2.290   4.695   9.459 -0.1634 -0.0103 -0.1991
 8605SOL    HW137448   2.352   4.707   9.388  1.2987  1.4971  1.3239
 8605SOL    HW237449   2.331   4.626   9.512 -1.4524  0.0719  0.9072
 8606SOL     OW37450   0.471   4.675   4.536 -0.4903  0.4634 -0.0538
 8606SOL    HW137451   0.558   4.688   4.574 -0.4429 -0.6825  0.2389
 8606SOL    HW237452   0.500   4.630   4.456 -0.6501  1.4422 -0.6600
 8607SOL     OW37453   0.260   4.017   6.188 -0.3826  0.1819  0.0199
 8607SOL    HW137454   0.188   4.020   6.124 -0.3916 -2.0315 -0.0875
 8607SOL    HW237455   0.323   3.983   6.125  0.2508  1.3525  0.0288
 8608SOL     OW37456   3.371   2.628  12.299  0.0056 -0.4167  0.2032
 8608SOL    HW137457   3.349   2.559  12.361  0.9146 -0.6307  0.2807
 8608SOL    HW237458   3.325   2.585  12.227  0.0786 -0.6474  0.2976
 8609SOL     OW37459   4.457   2.528   3.577 -0.1209 -0.0511  0.4049
 8609SOL    HW137460   4.364   2.505   3.582 -0.4741  1.4348  0.6206
 8609SOL    HW237461   4.457   2.612   3.530 -1.8162 -1.3576 -1.9266
 8610SOL     OW37462   0.981   0.983   2.723  0.7161  0.1908 -0.3386
 8610SOL    HW137463   0.948   0.894   2.727  0.0260  0.3607 -1.9743
 8610SOL    HW237464   1.017   1.001   2.809  1.3701  2.2090 -1.0225
 8611SOL     OW37465   0.532   0.937   9.251  0.0191 -0.3795 -0.0614
 8611SOL    HW137466   0.507   0.850   9.282  0.7125  0.1911  2.0479
 8611SOL    HW237467   0.448   0.981   9.239 -0.2219 -0.5220  1.0877
 8612SOL     OW37468   4.203   1.567  13.069  0.4183 -0.1365  0.2905
 8612SOL    HW137469   4.292   1.575  13.035  0.3931 -0.8313  0.0637
 8612SOL    HW237470   4.222   1.536  13.158  0.1111  0.9409  0.7440
 8613SOL     OW37471   2.723   4.635   3.054 -0.0804  0.3225  0.0647
 8613SOL    HW137472   2.698   4.544   3.041  0.1453 -0.0019  1.8407
 8613SOL    HW237473   2.694   4.687   2.979 -1.5836  0.8597  1.0058
 8614SOL     OW37474   4.321   4.263   7.530 -0.0000 -0.4457  0.2942
 8614SOL    HW137475   4.400   4.268   7.476  1.8242  1.2853  3.1349
 8614SOL    HW237476   4.318   4.167   7.530  0.6362 -0.4595 -2.3034
 8615SOL     OW37477   0.838   0.594  15.253 -0.0278  0.0759 -0.0533
 8615SOL    HW137478   0.777   0.555  15.315 -0.0334  0.5351  0.2259
 8615SOL    HW237479   0.922   0.571  15.293 -0.3773  1.6442  1.5569
 8616SOL     OW37480   3.694   2.722  10.443  0.0666  0.6828  0.4572
 8616SOL    HW137481   3.720   2.647  10.390 -2.1394 -0.2654  0.7368
 8616SOL    HW237482   3.610   2.756  10.413 -0.5826 -0.9782  0.4278
 8617SOL     OW37483   0.220   3.773   2.339 -0.0197 -0.2795 -0.1239
 8617SOL    HW137484   0.192   3.681   2.338 -1.9154  0.3146 -1.7640
 8617SOL    HW237485   0.163   3.820   2.399 -0.3736  0.7859 -1.3098
 8618SOL     OW37486   2.248   4.419  16.268  0.3998 -0.3377 -0.5146
 8618SOL    HW137487   2.252   4.364  16.347 -0.7523  1.4334  0.7743
 8618SOL    HW237488   2.215   4.502  16.302 -0.7271 -2.0372  2.5625
 8619SOL     OW37489   0.611   0.778   7.347  0.4255  0.0640 -0.0348
 8619SOL    HW137490   0.615   0.721   7.270  1.1104  0.7793 -0.5227
 8619SOL    HW237491   0.592   0.861   7.305  1.9315  0.1685 -0.5154
 8620SOL     OW37492   2.661   2.834   3.681 -0.2768 -0.3831  0.1742
 8620SOL    HW137493   2.751   2.865   3.691 -0.8715  1.4192 -0.0252
 8620SOL    HW237494   2.646   2.802   3.770 -0.5866 -0.6004  0.0410
 8621SOL     OW37495   1.814   1.276   5.240  0.3991 -0.3725 -0.2648
 8621SOL    HW137496   1.839   1.353   5.292  0.2005  1.7982 -3.3902
 8621SOL    HW237497   1.823   1.206   5.304  1.0140  0.4030  0.5045
 8622SOL     OW37498   2.854   0.644   6.307 -0.4338  0.0197 -0.1330
 8622SOL    HW137499   2.864   0.561   6.353 -1.5624  0.1008  0.2626
 8622SOL    HW237500   2.835   0.612   6.219 -0.6492  0.3487 -0.2066
 8623SOL     OW37501   1.255   0.674   6.959 -0.1162  0.7421  0.1077
 8623SOL    HW137502   1.201   0.596   6.971  1.0948 -0.5068 -2.5152
 8623SOL    HW237503   1.259   0.702   7.050  0.4367 -0.5183  0.4659
 8624SOL     OW37504   3.927   1.659   7.428 -0.0065  0.3052 -0.1891
 8624SOL    HW137505   3.994   1.674   7.362  0.0316  1.2779  0.0714
 8624SOL    HW237506   3.984   1.629   7.499  2.4850  0.5171 -2.1276
 8625SOL     OW37507   1.860   2.356   6.119  0.1025  0.3274 -0.2375
 8625SOL    HW137508   1.900   2.302   6.051 -2.8953 -2.0966 -0.1002
 8625SOL    HW237509   1.851   2.299   6.195  2.2376 -0.9362 -0.9354
 8626SOL     OW37510   4.738   2.790  10.726  0.3172  0.1365 -0.0708
 8626SOL    HW137511   4.703   2.797  10.815 -1.2260 -0.6731 -0.6152
 8626SOL    HW237512   4.702   2.872  10.692 -0.9415 -0.5759 -0.4826
 8627SOL     OW37513   2.654   0.403   8.698  0.1368 -0.9518  0.5020
 8627SOL    HW137514   2.735   0.453   8.688  0.3571 -2.0240 -2.9340
 8627SOL    HW237515   2.666   0.368   8.786  2.0668 -0.2773  0.5020
 8628SOL     OW37516   0.838   4.125  10.681  0.3465  0.1490  0.1055
 8628SOL    HW137517   0.815   4.122  10.588 -0.8044  0.1990  0.3907
 8628SOL    HW237518   0.930   4.150  10.686  0.4997 -0.2638 -0.7893
 8629SOL     OW37519   0.274   2.439   6.527  0.2279 -0.1118 -0.5088
 8629SOL    HW137520   0.190   2.426   6.482  1.6012 -2.8272 -2.2394
 8629SOL    HW237521   0.283   2.530   6.499  0.2873  0.0102 -0.1027
 8630SOL     OW37522   4.497   0.448   6.076 -0.5069 -0.4073  0.2019
 8630SOL    HW137523   4.494   0.400   6.159 -0.3334 -0.7422  0.0106
 8630SOL    HW237524   4.575   0.412   6.035  0.0495  0.4094  0.5442
 8631SOL     OW37525   2.656   1.147   5.142 -0.2203  0.1876 -0.3012
 8631SOL    HW137526   2.685   1.065   5.182  0.1679 -0.1344 -1.2366
 8631SOL    HW237527   2.701   1.209   5.200 -0.1845 -2.0581  2.0672
 8632SOL     OW37528   0.270   1.068   8.015 -0.0414 -0.2553  0.3627
 8632SOL    HW137529   0.262   1.137   7.949  1.3225 -0.2301  0.2251
 8632SOL    HW237530   0.351   1.096   8.057  0.1544 -0.5898  0.2021
 8633SOL     OW37531   2.547   1.154   2.317  0.1529 -0.2163 -0.6196
 8633SOL    HW137532   2.566   1.130   2.408  0.1105 -0.0310 -0.5611
 8633SOL    HW237533   2.471   1.212   2.330  0.0022 -0.2132 -1.4947
 8634SOL     OW37534   4.185   3.410  11.407 -0.8083  0.2390  0.0272
 8634SOL    HW137535   4.233   3.331  11.383 -0.4867  0.0560  1.2750
 8634SOL    HW237536   4.177   3.444  11.318  0.9965 -0.3290 -0.3417
 8635SOL     OW37537   3.384   0.538  12.076  0.2764  1.0101 -0.1609
 8635SOL    HW137538   3.319   0.587  12.126  1.3502  0.4362  1.8303
 8635SOL    HW237539   3.381   0.452  12.118  0.9379  1.3612  0.6070
 8636SOL     OW37540   4.035   1.680   2.601 -0.5003  1.0209  0.2611
 8636SOL    HW137541   4.019   1.624   2.524  1.3607  3.5261 -1.9198
 8636SOL    HW237542   3.953   1.729   2.602  1.0075  3.4580  1.6660
 8637SOL     OW37543   2.160   3.611   4.631 -0.8686  0.1949  0.0007
 8637SOL    HW137544   2.107   3.570   4.699 -0.3602 -1.7204 -0.7541
 8637SOL    HW237545   2.233   3.548   4.632 -1.5313 -0.5631  0.3406
 8638SOL     OW37546   0.281   0.978   6.350 -0.7645  0.3132 -0.0359
 8638SOL    HW137547   0.215   0.913   6.328 -0.2154 -1.1204  2.5116
 8638SOL    HW237548   0.343   0.965   6.278 -0.4987  0.8167  0.0995
 8639SOL     OW37549   1.577   3.821   8.535 -0.4384 -0.0373  0.2632
 8639SOL    HW137550   1.538   3.894   8.583 -0.9507  0.5932 -1.1047
 8639SOL    HW237551   1.504   3.759   8.535 -0.0837 -0.4556  0.2232
 8640SOL     OW37552   3.929   4.645   4.024  0.3074 -0.1607 -0.5497
 8640SOL    HW137553   3.974   4.729   4.036  0.4071 -0.3497  0.4348
 8640SOL    HW237554   4.002   4.587   4.044 -0.9233 -1.1206  1.1431
 8641SOL     OW37555   0.736   0.892   2.408 -0.4929 -0.2724 -0.3898
 8641SOL    HW137556   0.699   0.812   2.369 -0.1561 -1.6062  2.0599
 8641SOL    HW237557   0.828   0.869   2.417 -0.7041 -1.6427 -1.6706
 8642SOL     OW37558   0.509   0.413   7.246 -0.3597 -0.6196  0.3065
 8642SOL    HW137559   0.500   0.323   7.213  2.0591 -0.3872 -0.9653
 8642SOL    HW237560   0.549   0.389   7.330  0.7075  0.7394  0.1685
 8643SOL     OW37561   0.685   0.166   5.860 -0.9479 -0.3662  0.0285
 8643SOL    HW137562   0.630   0.241   5.883  0.4185  1.0272 -1.2115
 8643SOL    HW237563   0.622   0.134   5.796 -3.9043  1.0785  2.2173
 8644SOL     OW37564   0.814   2.239   6.903 -0.0344 -0.1656  0.2413
 8644SOL    HW137565   0.770   2.270   6.825 -0.0999  0.8289  0.6792
 8644SOL    HW237566   0.787   2.147   6.910 -0.5903 -0.1518 -1.7254
 8645SOL     OW37567   3.554   2.461  12.675  0.2288  0.2495 -0.2967
 8645SOL    HW137568   3.597   2.469  12.590 -0.0934 -1.3572 -0.6090
 8645SOL    HW237569   3.617   2.403  12.717 -1.2978 -1.4758 -0.3599
 8646SOL     OW37570   4.144   4.172  14.956 -0.0549 -0.0325  0.5646
 8646SOL    HW137571   4.063   4.219  14.939  1.3031  2.3588  0.7170
 8646SOL    HW237572   4.111   4.086  14.982 -1.5485  0.2536 -0.4148
 8647SOL     OW37573   4.324   2.789  11.327  0.2956 -0.0740 -0.5061
 8647SOL    HW137574   4.270   2.804  11.250 -0.1535  2.4063  0.2574
 8647SOL    HW237575   4.278   2.719  11.372 -0.3723 -0.6861 -2.1409
 8648SOL     OW37576   1.367   3.931  11.460  0.3254 -0.1187 -0.0858
 8648SOL    HW137577   1.417   3.869  11.513 -0.7269 -0.8176  0.1024
 8648SOL    HW237578   1.282   3.889  11.444  0.2856  0.5631 -1.6676
 8649SOL     OW37579   2.297   0.739   3.388  0.2315  0.0034  0.1151
 8649SOL    HW137580   2.308   0.736   3.483 -0.8869 -1.3137  0.1956
 8649SOL    HW237581   2.231   0.673   3.367  1.8011 -2.2846  2.3035
 8650SOL     OW37582   2.422   3.503   9.143  0.0482 -0.4975 -0.2573
 8650SOL    HW137583   2.445   3.586   9.102  2.4965 -0.9406  0.2638
 8650SOL    HW237584   2.508   3.471   9.171  0.2819 -0.4389 -0.9290
 8651SOL     OW37585   0.289   0.537   7.172 -0.6237  0.6833 -0.1014
 8651SOL    HW137586   0.287   0.603   7.103  1.1834 -0.9490 -1.7146
 8651SOL    HW237587   0.380   0.530   7.203 -0.4673 -2.1784 -1.2374
 8652SOL     OW37588   4.016   2.782  11.567  0.1188 -0.0725  0.2079
 8652SOL    HW137589   4.007   2.872  11.538 -2.4188 -0.7195 -1.0200
 8652SOL    HW237590   3.973   2.727  11.501  0.9286 -0.8058  0.2870
 8653SOL     OW37591   0.286   0.278   8.170 -0.2782  0.0741 -0.3191
 8653SOL    HW137592   0.227   0.300   8.242 -0.6743 -1.2283 -0.2450
 8653SOL    HW237593   0.231   0.296   8.093 -0.6781  0.7021  0.1100
 8654SOL     OW37594   4.435   0.593  17.541  0.3228 -0.4425  0.0735
 8654SOL    HW137595   4.505   0.649  17.509  0.2017  0.0269  0.6331
 8654SOL    HW237596   4.472   0.543  17.614 -1.6727 -1.8094  0.1280
 8655SOL     OW37597   2.643   2.771   5.495  0.7226 -0.3144 -0.1353
 8655SOL    HW137598   2.608   2.803   5.578 -1.1109  0.7090 -1.3028
 8655SOL    HW237599   2.579   2.702   5.478  2.3274 -2.0157  0.7588
 8656SOL     OW37600   3.771   0.731   2.992  0.4797 -0.3690  0.0201
 8656SOL    HW137601   3.752   0.710   3.083  1.5540  0.3367  0.4023
 8656SOL    HW237602   3.692   0.702   2.945 -0.4531  0.2843  1.1937
 8657SOL     OW37603   1.252   4.436   7.347 -0.6705 -0.3015  0.0443
 8657SOL    HW137604   1.270   4.344   7.363 -2.5855 -0.8219 -0.7834
 8657SOL    HW237605   1.256   4.437   7.251 -0.7127  0.8765  0.0522
 8658SOL     OW37606   0.564   1.484   2.040 -0.2183 -0.0547 -0.2250
 8658SOL    HW137607   0.630   1.539   2.082 -0.5742 -0.7167  1.2011
 8658SOL    HW237608   0.620   1.408   2.023 -0.4216 -0.6690  1.9515
 8659SOL     OW37609   0.067   3.932  16.638  0.2014  0.2722  0.4224
 8659SOL    HW137610   0.150   3.944  16.685  0.0787  0.9128  0.4802
 8659SOL    HW237611   0.070   4.015  16.590 -1.6819  0.9765  1.5199
 8660SOL     OW37612   1.473   3.019   8.521  0.6233  0.6073  0.3237
 8660SOL    HW137613   1.554   2.978   8.550  0.4046  0.7951  1.2056
 8660SOL    HW237614   1.416   2.987   8.591  0.3312  1.9311  0.6951
 8661SOL     OW37615   2.741   1.851   8.859 -0.5095  0.1478  0.5559
 8661SOL    HW137616   2.761   1.778   8.918  0.7119 -0.7640 -0.9752
 8661SOL    HW237617   2.698   1.811   8.783 -0.5320  0.1191  0.5834
 8662SOL     OW37618   2.809   2.978  16.217 -0.2378  0.4115  0.3301
 8662SOL    HW137619   2.888   2.975  16.270  2.0192  1.3327 -2.9483
 8662SOL    HW237620   2.828   2.928  16.137 -1.2455 -1.0236  0.9864
 8663SOL     OW37621   0.739   0.737  16.268 -0.0972  0.2793 -0.4643
 8663SOL    HW137622   0.683   0.793  16.322 -0.0702  0.8706 -1.0485
 8663SOL    HW237623   0.824   0.734  16.311 -0.2960  0.4416 -0.0624
 8664SOL     OW37624   3.869   3.691   3.848  0.3655  0.6367 -0.4410
 8664SOL    HW137625   3.834   3.612   3.887 -0.5327  0.8363 -0.8327
 8664SOL    HW237626   3.919   3.729   3.920  1.4003  1.0844 -1.3874
 8665SOL     OW37627   4.526   3.089   8.069  0.4350  0.0529  0.0895
 8665SOL    HW137628   4.502   3.156   8.005 -1.1087 -0.1108  0.5141
 8665SOL    HW237629   4.451   3.098   8.128  1.6808  2.0847  1.3751
 8666SOL     OW37630   4.619   2.685   6.792  0.0686  0.0003 -0.0111
 8666SOL    HW137631   4.594   2.758   6.735 -2.2757 -0.1936  0.7841
 8666SOL    HW237632   4.542   2.666   6.845  0.5464 -3.1216 -0.4271
 8667SOL     OW37633   0.533   1.351   3.307  0.1691  0.4447 -0.0754
 8667SOL    HW137634   0.474   1.284   3.340  3.2103 -0.5996  3.2946
 8667SOL    HW237635   0.478   1.429   3.293 -1.4953 -0.7459 -0.1384
 8668SOL     OW37636   1.387   0.513   3.917 -0.2610 -0.9053  0.3401
 8668SOL    HW137637   1.481   0.509   3.899 -0.0870 -0.1740  1.0882
 8668SOL    HW237638   1.341   0.490   3.837  1.5528  0.6377 -1.1425
 8669SOL     OW37639   2.258   3.762  14.774 -0.5230  0.0524  0.4190
 8669SOL    HW137640   2.242   3.787  14.865  0.6041 -1.4375  1.0444
 8669SOL    HW237641   2.289   3.672  14.783  1.3669  0.7057  0.5344
 8670SOL     OW37642   1.438   0.646  16.629 -0.0890 -0.4328  0.2070
 8670SOL    HW137643   1.376   0.609  16.691 -2.0359 -0.2449 -1.6113
 8670SOL    HW237644   1.506   0.580  16.622 -1.2957 -1.7567  1.0492
 8671SOL     OW37645   2.428   0.554   8.248  0.4894  0.0545 -0.1212
 8671SOL    HW137646   2.351   0.512   8.285 -0.1783  0.1933 -1.3602
 8671SOL    HW237647   2.413   0.644   8.275  0.5262 -0.7690  2.6501
 8672SOL     OW37648   2.861   2.715   7.950  0.4505 -0.3039 -0.6888
 8672SOL    HW137649   2.857   2.624   7.921  1.0130 -1.0524  1.5787
 8672SOL    HW237650   2.945   2.723   7.996 -0.2998 -0.0757  0.6605
 8673SOL     OW37651   3.097   3.203   8.892  0.5089 -0.4326 -0.4745
 8673SOL    HW137652   3.162   3.174   8.828  1.6255 -2.0883  1.4147
 8673SOL    HW237653   3.017   3.187   8.841  1.4556 -1.1289 -1.7356
 8674SOL     OW37654   4.032   3.987   4.686 -0.5130 -0.1214 -0.4116
 8674SOL    HW137655   3.989   4.008   4.769 -0.1647 -2.9406  0.4696
 8674SOL    HW237656   4.024   4.072   4.641  1.6149 -0.6914 -1.8566
 8675SOL     OW37657   2.367   2.066  16.784 -0.3093 -0.0908 -0.8205
 8675SOL    HW137658   2.349   1.973  16.771  0.6251 -0.6898  2.3975
 8675SOL    HW237659   2.392   2.071  16.876 -0.2199  1.1888 -0.9145
 8676SOL     OW37660   1.715   4.593   6.680  0.4255 -0.3847 -0.3770
 8676SOL    HW137661   1.634   4.641   6.696  1.2044  0.0068  2.4657
 8676SOL    HW237662   1.736   4.562   6.769  0.7827 -0.4829 -0.4970
 8677SOL     OW37663   3.447   3.159   5.889  0.7834 -0.0207 -0.7321
 8677SOL    HW137664   3.520   3.143   5.829  0.1122  0.2623 -1.6164
 8677SOL    HW237665   3.494   3.162   5.972 -1.0142 -2.3190  0.3392
 8678SOL     OW37666   1.307   4.473   5.611 -0.5814  0.5736  0.0963
 8678SOL    HW137667   1.328   4.397   5.666  0.0221  0.3251 -0.4797
 8678SOL    HW237668   1.315   4.432   5.524 -2.6952  0.6097 -0.1303
 8679SOL     OW37669   4.421   2.543  15.285 -0.7120  0.3065 -0.0555
 8679SOL    HW137670   4.509   2.545  15.248 -0.2893  0.5860  0.9588
 8679SOL    HW237671   4.406   2.633  15.316 -0.7645  0.0883  0.5529
 8680SOL     OW37672   4.361   3.094   1.651  0.4219 -0.2406 -0.0711
 8680SOL    HW137673   4.437   3.070   1.598  0.3819 -1.7855  0.5871
 8680SOL    HW237674   4.320   3.164   1.599  1.1087  0.8970  0.9116
 8681SOL     OW37675   3.545   3.857   2.065 -0.1344 -0.1967  0.7699
 8681SOL    HW137676   3.461   3.878   2.025  1.3486 -1.0996 -2.7986
 8681SOL    HW237677   3.530   3.796   2.137 -1.4869  1.6630  2.0581
 8682SOL     OW37678   2.399   0.744  15.178  0.2191  0.3745  0.5366
 8682SOL    HW137679   2.448   0.678  15.129  1.3209  0.6835  1.2258
 8682SOL    HW237680   2.405   0.818  15.117 -1.6944 -0.3255 -0.4929
 8683SOL     OW37681   4.485   1.849  15.250 -0.6252 -0.0772  0.1187
 8683SOL    HW137682   4.518   1.925  15.202  0.7632  0.5511  2.0607
 8683SOL    HW237683   4.564   1.799  15.268  1.5523  3.6181  0.9449
 8684SOL     OW37684   3.995   1.607   3.392 -0.3554  0.2587  0.4507
 8684SOL    HW137685   3.977   1.514   3.404  0.2502  0.2250  1.1047
 8684SOL    HW237686   3.998   1.633   3.484  0.8687 -2.1260  1.0962
 8685SOL     OW37687   1.294   4.622  13.620 -0.5688  0.2148 -0.0123
 8685SOL    HW137688   1.213   4.661  13.587  0.2143  1.9805  0.1551
 8685SOL    HW237689   1.345   4.590  13.545 -1.9258 -0.1717 -0.7706
 8686SOL     OW37690   0.846   4.612   5.179 -0.0450 -0.5047  0.4185
 8686SOL    HW137691   0.778   4.552   5.210 -1.3977  1.2184  0.7564
 8686SOL    HW237692   0.842   4.581   5.088  1.4833 -0.4256  0.3244
 8687SOL     OW37693   0.060   2.489   3.979  0.1677 -1.0268  0.3630
 8687SOL    HW137694   0.118   2.521   3.910  0.6882 -0.1564  1.2147
 8687SOL    HW237695   4.713   2.499   3.936  0.2247  0.5299  0.6239
 8688SOL     OW37696   2.830   4.399   8.374  0.1002 -0.2178  0.3815
 8688SOL    HW137697   2.799   4.447   8.451 -1.4452 -0.7165  0.0741
 8688SOL    HW237698   2.924   4.396   8.388  0.3191  3.1343 -0.3292
 8689SOL     OW37699   4.222   1.255   0.576 -0.1177  0.6988  0.7154
 8689SOL    HW137700   4.260   1.199   0.644 -1.2292  0.1789  0.8974
 8689SOL    HW237701   4.298   1.275   0.520  0.3811 -0.0705  1.1204
 8690SOL     OW37702   1.555   4.593   5.760  0.1712  0.6958  0.7127
 8690SOL    HW137703   1.502   4.547   5.826  0.8334 -1.5889 -0.3430
 8690SOL    HW237704   1.495   4.616   5.689 -0.3000  1.8448  1.4803
 8691SOL     OW37705   1.466   4.667   0.738  0.4859 -0.2508  0.4000
 8691SOL    HW137706   1.416   4.637   0.662 -2.1147 -0.5810  2.2780
 8691SOL    HW237707   1.542   4.609   0.727 -0.8714 -1.8921 -0.2655
 8692SOL     OW37708   3.067   3.080   7.936 -0.3210  0.0509  0.0795
 8692SOL    HW137709   3.071   2.985   7.921 -0.2453 -0.0566  0.7953
 8692SOL    HW237710   3.009   3.116   7.869  0.5741  1.1837 -0.0863
 8693SOL     OW37711   2.730   1.692  14.587 -0.0981  0.1076 -0.0037
 8693SOL    HW137712   2.732   1.697  14.492 -2.5131 -0.0529 -0.0638
 8693SOL    HW237713   2.639   1.668  14.601  0.1116 -0.8677 -0.3087
 8694SOL     OW37714   1.433   0.536   5.371  0.4051  0.0984 -0.1482
 8694SOL    HW137715   1.509   0.584   5.339 -1.3128  2.3489 -0.8594
 8694SOL    HW237716   1.403   0.593   5.441 -1.1037  0.6690 -1.2594
 8695SOL     OW37717   0.069   2.573   9.300  0.3118  0.2702 -0.3896
 8695SOL    HW137718   0.024   2.541   9.379 -1.2297  0.3421 -1.2406
 8695SOL    HW237719   0.160   2.560   9.327  0.5707  2.9972  0.0226
 8696SOL     OW37720   2.592   0.325   2.572  0.4225  0.1166 -0.0358
 8696SOL    HW137721   2.626   0.412   2.549 -1.1987  0.8266  0.2369
 8696SOL    HW237722   2.547   0.343   2.655 -1.1712 -2.5386 -0.3374
 8697SOL     OW37723   2.835   2.726   6.164 -0.4742 -0.1457  0.7772
 8697SOL    HW137724   2.899   2.756   6.227 -0.6216 -0.7613  1.2161
 8697SOL    HW237725   2.773   2.799   6.161 -1.5037 -1.1791 -3.6349
 8698SOL     OW37726   4.154   2.755   5.011 -0.3658  0.1263  0.4081
 8698SOL    HW137727   4.074   2.804   4.993 -0.4319 -0.0795  0.1550
 8698SOL    HW237728   4.206   2.798   4.944  1.2225 -0.4970  1.2212
 8699SOL     OW37729   3.510   3.679  16.659  0.6024  0.0107 -0.1732
 8699SOL    HW137730   3.484   3.770  16.672 -2.8389 -1.0398  0.1388
 8699SOL    HW237731   3.434   3.634  16.623 -0.0279  1.2877 -0.4633
 8700SOL     OW37732   3.979   3.610   5.933 -0.9969 -0.7343  0.0816
 8700SOL    HW137733   3.915   3.614   5.862  0.5677 -0.1449 -1.2884
 8700SOL    HW237734   3.922   3.652   5.997 -1.1602  0.2833 -0.7327
 8701SOL     OW37735   4.270   1.953  13.775  0.3584  0.6188  0.0483
 8701SOL    HW137736   4.187   1.950  13.729 -0.2300  0.3101  1.1267
 8701SOL    HW237737   4.327   1.933  13.701 -0.6723 -0.9306 -0.3150
 8702SOL     OW37738   3.216   3.072   2.587  0.1245  0.0306  0.2005
 8702SOL    HW137739   3.292   3.035   2.543 -0.6805 -0.2207 -0.9820
 8702SOL    HW237740   3.220   3.165   2.565 -3.2922 -0.4407 -2.4937
 8703SOL     OW37741   3.238   1.954  11.039  0.2023  0.2607  0.5717
 8703SOL    HW137742   3.243   2.043  11.003  2.5827 -0.7639 -1.6191
 8703SOL    HW237743   3.296   1.964  11.115  0.0953  0.3761  0.6376
 8704SOL     OW37744   4.580   0.703   8.740  0.1551 -0.6272  0.5805
 8704SOL    HW137745   4.527   0.629   8.712 -1.8331  0.0996  2.4702
 8704SOL    HW237746   4.544   0.770   8.683  2.4355  0.3284  0.2354
 8705SOL     OW37747   1.092   1.549   2.021  0.0632 -0.1970 -0.0072
 8705SOL    HW137748   1.035   1.555   1.944  0.5249  0.5687 -0.2857
 8705SOL    HW237749   1.081   1.455   2.037  0.1871  0.6069  4.5845
 8706SOL     OW37750   4.062   3.102   8.381  0.0640 -0.3413  0.2476
 8706SOL    HW137751   4.020   3.149   8.453 -1.7221 -1.7924  0.1423
 8706SOL    HW237752   3.999   3.099   8.310 -0.6682 -0.4368  0.9093
 8707SOL     OW37753   3.012   0.539  14.032 -0.2476 -0.4240 -0.6243
 8707SOL    HW137754   2.964   0.479  13.974 -0.8980 -0.3644 -0.1398
 8707SOL    HW237755   3.035   0.610  13.972  2.3220  0.0093  0.8404
 8708SOL     OW37756   2.385   0.177  14.706  0.3395 -0.0735  0.0994
 8708SOL    HW137757   2.474   0.204  14.729  1.4702 -1.3843 -2.8270
 8708SOL    HW237758   2.330   0.188  14.784 -1.0699 -0.5619 -0.8291
 8709SOL     OW37759   2.952   4.311   0.083  0.3594 -0.3661  0.0523
 8709SOL    HW137760   2.873   4.329   0.030 -1.0694  0.7975  2.5874
 8709SOL    HW237761   3.002   4.392   0.073  0.7747 -0.8348 -1.7719
 8710SOL     OW37762   0.179   1.635   6.581  0.4442  0.1908 -0.0673
 8710SOL    HW137763   0.163   1.553   6.533 -0.5432  1.1476 -1.3655
 8710SOL    HW237764   0.114   1.686   6.533 -1.2132 -2.7617 -0.9815
 8711SOL     OW37765   0.206   4.573   1.420 -0.3875 -0.1001 -0.4015
 8711SOL    HW137766   0.206   4.485   1.382  1.2360 -1.5992  2.9919
 8711SOL    HW237767   0.127   4.609   1.381  0.7413  1.5100 -1.2140
 8712SOL     OW37768   4.392   0.106  10.041  0.1331  0.6327  0.1424
 8712SOL    HW137769   4.365   0.015  10.037  2.3437  0.1201 -2.8598
 8712SOL    HW237770   4.412   0.110  10.135 -2.0139 -0.6626  0.6413
 8713SOL     OW37771   4.682   3.677   3.748 -0.4836 -0.1775 -0.7277
 8713SOL    HW137772   4.656   3.769   3.744 -0.4488 -0.1849 -1.0714
 8713SOL    HW237773   4.610   3.638   3.798 -0.4681  1.6468  0.7177
 8714SOL     OW37774   0.025   4.101   1.846  0.2019  0.0892 -0.2729
 8714SOL    HW137775   0.025   4.006   1.851 -2.4083  0.1685  0.9249
 8714SOL    HW237776   0.102   4.112   1.790 -0.2559  0.1745 -0.8809
 8715SOL     OW37777   3.634   1.524   2.460 -0.5037 -0.5995 -0.0565
 8715SOL    HW137778   3.599   1.611   2.480 -0.3059 -0.3364 -0.8416
 8715SOL    HW237779   3.633   1.493   2.550 -1.0981 -1.2011 -0.2756
 8716SOL     OW37780   3.687   3.989   0.744 -0.2013 -0.1931 -0.0933
 8716SOL    HW137781   3.682   4.066   0.687 -0.3571 -1.1660 -1.3853
 8716SOL    HW237782   3.731   3.922   0.692 -0.5541 -0.3872 -0.1406
 8717SOL     OW37783   2.994   0.774   7.121 -0.0474  0.0879  0.1262
 8717SOL    HW137784   3.007   0.679   7.120  2.4747  0.4212 -0.5603
 8717SOL    HW237785   3.085   0.795   7.140  1.2175 -2.9398 -2.4748
 8718SOL     OW37786   1.095   4.471   7.765 -0.0610  0.7059  0.2750
 8718SOL    HW137787   1.110   4.397   7.823  1.5068  0.2988 -0.6637
 8718SOL    HW237788   1.129   4.543   7.818 -0.4137 -0.1079  1.6094
 8719SOL     OW37789   2.950   0.539  13.230 -0.1341 -0.6608  0.0167
 8719SOL    HW137790   2.943   0.449  13.261 -0.7291 -0.6735 -0.1532
 8719SOL    HW237791   2.878   0.587  13.271 -1.0408 -0.3675 -1.9419
 8720SOL     OW37792   1.477   4.267   7.151 -0.5735 -0.5090  0.8328
 8720SOL    HW137793   1.502   4.211   7.225 -0.5786  0.8520  1.8644
 8720SOL    HW237794   1.565   4.299   7.134 -1.7595  2.8486  0.9893
 8721SOL     OW37795   4.438   2.530   9.020  0.1288 -0.0155  0.2116
 8721SOL    HW137796   4.516   2.586   9.015  0.4406 -0.5285 -0.5422
 8721SOL    HW237797   4.461   2.466   8.954 -2.6046 -2.5329  1.7377
 8722SOL     OW37798   2.706   1.223   7.616 -0.0721  0.7232 -0.3040
 8722SOL    HW137799   2.776   1.158   7.626 -1.3844 -0.4103  1.7761
 8722SOL    HW237800   2.639   1.166   7.577  1.5645 -1.9077  0.6782
 8723SOL     OW37801   1.872   0.260   3.129  0.0200  0.3674 -0.0367
 8723SOL    HW137802   1.913   0.274   3.215  1.8766 -2.2506 -0.5077
 8723SOL    HW237803   1.855   0.166   3.136  1.3432  0.1588  0.3300
 8724SOL     OW37804   3.107   0.033  13.675  0.1311  0.6005 -1.1586
 8724SOL    HW137805   3.174   0.034  13.607 -0.4376 -2.2239 -1.7356
 8724SOL    HW237806   3.108   0.125  13.701 -1.5113  0.1252  0.5903
 8725SOL     OW37807   3.549   1.725  11.230 -0.1552 -0.1682 -0.0663
 8725SOL    HW137808   3.510   1.741  11.144  1.1179  2.4411 -0.1393
 8725SOL    HW237809   3.549   1.629  11.222  1.7184 -0.4731  3.4138
 8726SOL     OW37810   2.277   1.687  15.763  0.7052 -0.7350  0.4234
 8726SOL    HW137811   2.273   1.694  15.668 -1.3963  1.1255  0.6717
 8726SOL    HW237812   2.306   1.774  15.790 -1.8422  0.8155 -1.8577
 8727SOL     OW37813   2.759   1.607   2.413  0.3659 -0.4538  0.2217
 8727SOL    HW137814   2.696   1.676   2.432 -0.2017 -1.1153  0.7150
 8727SOL    HW237815   2.819   1.647   2.350 -0.8593  0.4176 -0.3893
 8728SOL     OW37816   4.028   1.352  12.268 -0.4728  0.1271 -0.4819
 8728SOL    HW137817   4.054   1.348  12.360 -1.6553 -1.6707 -0.2276
 8728SOL    HW237818   3.964   1.281  12.272  0.8577 -1.1899 -3.0969
 8729SOL     OW37819   0.681   2.839   5.005 -0.5453  0.1513 -0.7448
 8729SOL    HW137820   0.721   2.863   5.088 -0.1769 -1.4077 -0.4631
 8729SOL    HW237821   0.723   2.759   4.974  0.2783  0.2398  0.1741
 8730SOL     OW37822   4.523   3.394  16.260  0.1521  0.2941 -0.4018
 8730SOL    HW137823   4.589   3.441  16.311  0.5687 -0.1881 -0.4995
 8730SOL    HW237824   4.575   3.389  16.180  0.9839 -5.4975  0.5287
 8731SOL     OW37825   2.786   4.476   8.102  0.1926 -0.0221  0.1753
 8731SOL    HW137826   2.785   4.419   8.179 -0.8391  0.5918  0.6177
 8731SOL    HW237827   2.751   4.558   8.138 -1.2339 -1.3799  1.9172
 8732SOL     OW37828   0.281   0.135   4.580  0.2285  0.1284  0.4144
 8732SOL    HW137829   0.353   0.073   4.574 -0.6333 -0.7344 -0.9360
 8732SOL    HW237830   0.209   0.071   4.583  0.2905  0.0629  0.5185
 8733SOL     OW37831   0.309   1.528   8.272 -0.0825  0.3808  0.2118
 8733SOL    HW137832   0.267   1.442   8.270 -1.1501  0.8875  0.7782
 8733SOL    HW237833   0.284   1.559   8.359 -1.2104 -0.2997  0.1273
 8734SOL     OW37834   3.015   2.396  11.670  0.3600 -0.1802 -0.4238
 8734SOL    HW137835   3.061   2.461  11.616  0.5624 -0.5576 -0.7054
 8734SOL    HW237836   2.928   2.431  11.650  0.8865  0.4653 -1.5927
 8735SOL     OW37837   1.951   4.013   8.447 -0.6802  0.2633  0.7494
 8735SOL    HW137838   1.965   4.005   8.542 -1.8826 -1.5145  0.7763
 8735SOL    HW237839   1.941   3.919   8.432  1.2508  0.0169  0.9632
 8736SOL     OW37840   1.264   1.027  14.387  0.5984  0.1920  0.1138
 8736SOL    HW137841   1.275   0.936  14.415 -0.5033  0.0436  0.0485
 8736SOL    HW237842   1.257   1.007  14.293 -0.6620  0.9189  0.0526
 8737SOL     OW37843   0.280   0.830   5.853  0.4222  0.4955 -0.2172
 8737SOL    HW137844   0.271   0.791   5.940  0.3677  1.3929  0.1765
 8737SOL    HW237845   0.375   0.841   5.850  0.3815  0.8464 -0.1812
 8738SOL     OW37846   0.200   0.413   5.517  0.0081 -0.5900  0.3974
 8738SOL    HW137847   0.200   0.469   5.439  1.9208  1.5781  1.9422
 8738SOL    HW237848   0.246   0.462   5.585  1.0617 -0.6831 -0.2441
 8739SOL     OW37849   4.308   4.247   8.689 -0.2429  0.0575 -0.0200
 8739SOL    HW137850   4.319   4.324   8.633 -1.2261  0.6431  0.5895
 8739SOL    HW237851   4.222   4.220   8.657 -0.5152  0.4985  0.3334
 8740SOL     OW37852   0.033   4.033   6.036  0.6053  0.2682  0.5925
 8740SOL    HW137853   0.048   3.992   5.952 -0.6462 -0.8995  0.9501
 8740SOL    HW237854   4.695   4.088   6.016  0.3617 -0.5844 -0.7625
 8741SOL     OW37855   3.932   1.552   6.648  0.3562  0.3295 -0.3503
 8741SOL    HW137856   3.866   1.582   6.586 -0.6667 -0.8704  0.1355
 8741SOL    HW237857   3.953   1.637   6.686  3.1333 -1.5960  2.4450
 8742SOL     OW37858   4.626   3.738   5.106 -0.5042  0.6257  0.1659
 8742SOL    HW137859   4.603   3.652   5.142  1.8852 -1.0841 -2.4129
 8742SOL    HW237860   4.714   3.732   5.070  0.9650  0.9879  3.6400
 8743SOL     OW37861   1.510   3.933   9.817 -0.0669 -0.0317  0.1554
 8743SOL    HW137862   1.600   3.958   9.796 -0.8178  0.5916 -2.3555
 8743SOL    HW237863   1.452   3.990   9.768  1.2331 -1.3885 -2.9744
 8744SOL     OW37864   1.340   1.909   4.261 -0.3351  0.0325  0.3150
 8744SOL    HW137865   1.349   1.944   4.172 -1.0477  0.5548  0.4413
 8744SOL    HW237866   1.409   1.955   4.307 -1.0147  2.0332 -0.6626
 8745SOL     OW37867   1.611   1.383   2.811 -0.5402 -0.2913  0.1254
 8745SOL    HW137868   1.706   1.399   2.816 -0.7445  1.0167  0.0365
 8745SOL    HW237869   1.607   1.300   2.858  1.3431 -0.3005  0.2760
 8746SOL     OW37870   4.128   0.885   3.353  0.2396 -0.6185 -0.4846
 8746SOL    HW137871   4.165   0.896   3.265  0.2542  0.5053 -0.3385
 8746SOL    HW237872   4.065   0.814   3.339  0.4180 -0.7837 -0.4306
 8747SOL     OW37873   4.429   1.672   0.795 -0.7241 -0.2888  0.3166
 8747SOL    HW137874   4.443   1.749   0.739  0.9324  0.2962  1.5452
 8747SOL    HW237875   4.340   1.647   0.770 -0.9868  1.6821 -0.7290
 8748SOL     OW37876   3.047   1.145  15.792 -0.4651  0.4402 -0.1340
 8748SOL    HW137877   3.026   1.211  15.725  1.1705  1.1415  0.0460
 8748SOL    HW237878   3.114   1.095  15.746 -1.0368 -1.1586  0.8077
 8749SOL     OW37879   1.529   3.329   8.492  0.4101 -0.0936  0.4506
 8749SOL    HW137880   1.568   3.346   8.578  2.1661  1.5879 -0.7038
 8749SOL    HW237881   1.601   3.337   8.430  0.9978 -1.6383  0.9211
 8750SOL     OW37882   1.749   3.328   8.262 -0.7205 -0.2545 -0.2382
 8750SOL    HW137883   1.829   3.305   8.310  0.4407  1.3888 -1.3752
 8750SOL    HW237884   1.776   3.287   8.180  1.1657  0.7308 -0.1277
 8751SOL     OW37885   0.294   3.336   2.551  0.1485 -0.0201 -0.2526
 8751SOL    HW137886   0.200   3.354   2.551  0.4529  1.5456  0.6278
 8751SOL    HW237887   0.295   3.292   2.466 -0.5095 -0.0114 -0.2670
 8752SOL     OW37888   1.050   3.128  15.358  0.1872 -0.4615  0.0133
 8752SOL    HW137889   1.083   3.218  15.354  1.3803 -0.9249 -0.5947
 8752SOL    HW237890   1.074   3.102  15.447  1.9127 -0.7005 -0.5309
 8753SOL     OW37891   2.429   1.796   2.287 -0.4323  0.0531 -0.1345
 8753SOL    HW137892   2.426   1.701   2.278 -0.4088 -0.1168  1.5782
 8753SOL    HW237893   2.501   1.818   2.229  1.3025 -1.6136  1.4077
 8754SOL     OW37894   4.165   1.947   3.341  0.8208  0.5586 -0.3461
 8754SOL    HW137895   4.211   1.872   3.378 -0.4090 -0.0028  0.0361
 8754SOL    HW237896   4.108   1.974   3.413  1.1323  0.0557  0.0876
 8755SOL     OW37897   1.800   0.358   7.076  0.2425 -0.3484  0.0268
 8755SOL    HW137898   1.839   0.376   6.990 -1.6518 -0.6461 -0.8819
 8755SOL    HW237899   1.748   0.281   7.053 -1.3211  0.5522  0.5697
 8756SOL     OW37900   2.509   2.320   7.769 -0.2029  0.0229 -0.2363
 8756SOL    HW137901   2.547   2.250   7.715 -3.0589 -1.1748 -0.7248
 8756SOL    HW237902   2.560   2.314   7.850 -1.0996  3.8023  0.5630
 8757SOL     OW37903   4.117   4.476   2.660  0.5545  0.0409 -0.1346
 8757SOL    HW137904   4.130   4.383   2.644 -0.6826 -0.4472  1.6645
 8757SOL    HW237905   4.168   4.505   2.585 -0.5742  1.0078 -0.5228
 8758SOL     OW37906   3.184   3.031  14.302  0.5303 -0.1584 -0.8817
 8758SOL    HW137907   3.230   2.973  14.363 -0.6568 -1.7495 -1.4836
 8758SOL    HW237908   3.100   2.985  14.295 -1.0772  2.6389 -0.0107
 8759SOL     OW37909   1.932   3.765   5.902  0.0155 -0.6108  0.1525
 8759SOL    HW137910   1.907   3.684   5.859  1.0673 -0.8087 -0.0833
 8759SOL    HW237911   1.996   3.739   5.968  0.6639 -1.0368 -0.6598
 8760SOL     OW37912   2.725   2.223   8.152 -0.2936 -0.4214 -0.3962
 8760SOL    HW137913   2.668   2.297   8.130  0.1205 -0.7026 -2.4322
 8760SOL    HW237914   2.687   2.187   8.232  2.9630 -0.4326  1.1805
 8761SOL     OW37915   2.592   0.666   4.738  0.7553  0.2435 -0.0406
 8761SOL    HW137916   2.524   0.632   4.680  0.1300 -0.2468  0.9730
 8761SOL    HW237917   2.536   0.735   4.774  2.3177  1.7488 -0.4710
 8762SOL     OW37918   3.927   0.444   3.820 -0.1880  0.3689 -0.7167
 8762SOL    HW137919   3.843   0.398   3.823  1.5263 -2.6065  1.7553
 8762SOL    HW237920   3.965   0.409   3.901 -0.7466  1.8964  0.1947
 8763SOL     OW37921   3.983   0.883   5.347 -0.2918 -0.1772  0.3233
 8763SOL    HW137922   3.892   0.888   5.378 -0.4792 -2.0202  0.0633
 8763SOL    HW237923   3.979   0.808   5.287 -0.4918  0.2639 -0.2131
 8764SOL     OW37924   0.705   0.084   6.145  0.4314  0.2739 -0.4743
 8764SOL    HW137925   0.712   0.108   6.053 -0.3391 -0.1278 -0.6398
 8764SOL    HW237926   0.793   0.112   6.169 -0.0210  1.3070 -0.0130
 8765SOL     OW37927   4.676   1.215  12.410  0.4820 -1.0580  0.5862
 8765SOL    HW137928   4.583   1.206  12.389 -0.0853 -1.3586  3.1869
 8765SOL    HW237929   4.677   1.309  12.430 -0.3860 -1.0171  0.4506
 8766SOL     OW37930   3.069   4.662   4.108 -0.8011 -0.2167 -0.0033
 8766SOL    HW137931   3.061   4.619   4.193  0.4445 -0.4094  0.0143
 8766SOL    HW237932   2.981   4.654   4.070 -0.2852  3.5345 -1.9797
 8767SOL     OW37933   4.052   3.389   1.108 -0.3946 -0.5671  0.1890
 8767SOL    HW137934   4.023   3.382   1.199 -0.7306  0.5167  0.1665
 8767SOL    HW237935   3.984   3.451   1.080  1.8227  1.0030 -1.6757
 8768SOL     OW37936   0.296   1.974   6.889  1.0276  0.0779  0.2205
 8768SOL    HW137937   0.250   1.961   6.972 -1.9282  1.0092 -1.2676
 8768SOL    HW237938   0.222   2.000   6.834  0.3394 -1.6151  0.3212
 8769SOL     OW37939   0.667   1.303  14.586 -0.3516  0.7252  0.4190
 8769SOL    HW137940   0.746   1.342  14.549 -1.7774  1.9625 -1.3950
 8769SOL    HW237941   0.658   1.236  14.518  0.9142  0.1761  0.7990
 8770SOL     OW37942   0.774   2.566   2.463  0.5444 -0.0123 -0.0007
 8770SOL    HW137943   0.786   2.584   2.370  5.1458  1.8395  0.9580
 8770SOL    HW237944   0.829   2.488   2.475  0.3733  0.1745  1.9874
 8771SOL     OW37945   0.042   4.044   7.616 -0.0103  0.1834 -0.0877
 8771SOL    HW137946   4.694   4.043   7.574 -0.9114 -0.2260  1.7772
 8771SOL    HW237947   0.027   4.002   7.700  2.0242  0.1465  0.2440
 8772SOL     OW37948   3.167   1.049  10.774  0.0094 -0.0281  0.5592
 8772SOL    HW137949   3.235   1.105  10.813  1.0749 -1.6002  0.9659
 8772SOL    HW237950   3.104   1.117  10.753  2.2550  1.3004 -1.9038
 8773SOL     OW37951   1.414   2.857   9.042 -0.0700 -0.5544 -0.4453
 8773SOL    HW137952   1.385   2.854   8.951  0.2374 -0.6176 -0.5417
 8773SOL    HW237953   1.329   2.850   9.086  0.1430 -0.7303 -0.0638
 8774SOL     OW37954   0.524   3.698   7.104  0.1390  0.0881  0.6453
 8774SOL    HW137955   0.518   3.685   7.199  0.5874 -1.4740  0.4537
 8774SOL    HW237956   0.584   3.628   7.081  0.5423  0.6883 -0.1158
 8775SOL     OW37957   0.979   1.184  11.412 -0.9257 -0.3826  0.4635
 8775SOL    HW137958   0.941   1.268  11.388  0.0501  0.2035  1.0189
 8775SOL    HW237959   0.946   1.179  11.502 -0.2094  2.9765  0.8835
 8776SOL     OW37960   4.613   1.490  12.643  0.7939 -1.1488  0.2476
 8776SOL    HW137961   4.623   1.550  12.570  0.3911 -0.4797  0.7465
 8776SOL    HW237962   4.520   1.468  12.641  0.4852  0.2379 -0.2884
 8777SOL     OW37963   2.310   3.873   9.704  0.0492  0.0672 -0.2652
 8777SOL    HW137964   2.359   3.821   9.768 -2.6238 -3.7199 -1.2580
 8777SOL    HW237965   2.360   3.953   9.689  0.2307 -0.0768 -0.4337
 8778SOL     OW37966   1.119   2.478   0.906 -0.0400  0.2087 -0.0096
 8778SOL    HW137967   1.153   2.407   0.853 -0.7874  1.2580 -1.8776
 8778SOL    HW237968   1.194   2.536   0.901  1.8332 -2.0816  1.6286
 8779SOL     OW37969   2.301   3.499   8.067 -0.2923 -0.4528 -0.2319
 8779SOL    HW137970   2.334   3.465   8.150 -0.2759 -0.8520 -0.4043
 8779SOL    HW237971   2.208   3.505   8.090 -0.4956  0.7354 -1.3511
 8780SOL     OW37972   0.547   3.529   4.674  0.0176 -0.3603  0.3452
 8780SOL    HW137973   0.637   3.518   4.704  0.7707 -1.3691 -2.2754
 8780SOL    HW237974   0.511   3.587   4.741 -0.5852 -0.8481  0.4524
 8781SOL     OW37975   2.967   1.853   8.552  0.4800  0.3230  0.2143
 8781SOL    HW137976   3.035   1.885   8.493 -0.2227  0.4804 -0.5183
 8781SOL    HW237977   2.885   1.882   8.512  0.7918  1.0491  0.1027
 8782SOL     OW37978   0.870   4.477   9.473 -0.4211  0.1350 -0.4150
 8782SOL    HW137979   0.931   4.549   9.460 -0.1155 -0.2027 -0.8453
 8782SOL    HW237980   0.839   4.505   9.559  1.6528 -0.2346  0.4503
 8783SOL     OW37981   4.575   2.872   6.563  0.0841 -0.5698  0.1970
 8783SOL    HW137982   4.617   2.957   6.564  1.3974 -1.2303  2.9663
 8783SOL    HW237983   4.482   2.895   6.573  0.2352 -0.6812  1.9640
 8784SOL     OW37984   0.957   3.756   3.645  0.0125 -0.3118 -0.3809
 8784SOL    HW137985   0.972   3.700   3.569 -1.7955 -0.2427 -0.7687
 8784SOL    HW237986   0.914   3.829   3.600 -0.1335 -0.4652 -0.4866
 8785SOL     OW37987   4.583   3.667   2.212 -0.5467  0.1150  0.1100
 8785SOL    HW137988   4.542   3.710   2.288 -1.7174  2.2392 -1.7065
 8785SOL    HW237989   4.665   3.654   2.260 -1.0632  0.9839  1.2384
 8786SOL     OW37990   3.151   1.047  13.917  0.3307  0.3616 -0.2356
 8786SOL    HW137991   3.246   1.051  13.914  0.3326  0.2442 -0.3013
 8786SOL    HW237992   3.132   1.109  13.846  1.2547  1.0046  0.0824
 8787SOL     OW37993   3.643   2.128   8.174  0.4871  1.0477  0.1531
 8787SOL    HW137994   3.664   2.192   8.107 -0.3433  1.5544  0.3800
 8787SOL    HW237995   3.654   2.045   8.128  1.3249  0.7219  0.9275
 8788SOL     OW37996   2.584   0.171   1.575 -0.0546 -0.2548  0.1113
 8788SOL    HW137997   2.552   0.117   1.502 -0.3124 -0.9732  0.7622
 8788SOL    HW237998   2.671   0.133   1.585  0.1776 -0.3606 -2.1650
 8789SOL     OW37999   3.717   4.560   4.158  0.3544 -0.3077 -0.2692
 8789SOL    HW138000   3.806   4.580   4.131  0.5389 -0.6516  0.0833
 8789SOL    HW238001   3.680   4.528   4.076  0.0199 -1.4708  0.3334
 8790SOL     OW38002   2.376   0.409  16.935 -0.2772 -0.4168  0.1626
 8790SOL    HW138003   2.387   0.494  16.976 -2.0650 -0.9179  1.6703
 8790SOL    HW238004   2.282   0.404  16.918 -0.4876  0.3956  1.1072
 8791SOL     OW38005   1.092   2.467   2.705 -0.0789 -0.3465  0.2495
 8791SOL    HW138006   1.162   2.415   2.745  0.4949  1.3810  1.4894
 8791SOL    HW238007   1.114   2.475   2.612 -2.8590 -0.1779 -0.4092
 8792SOL     OW38008   2.820   1.412  17.498  0.2782  0.0648 -0.8678
 8792SOL    HW138009   2.797   1.398  17.590 -3.1217  2.0054 -1.4189
 8792SOL    HW238010   2.749   1.467  17.466 -1.7543 -1.3778  1.1800
 8793SOL     OW38011   2.951   1.353   6.950 -0.0646  0.2984  0.5706
 8793SOL    HW138012   2.858   1.369   6.938 -0.5155 -0.6916  2.7395
 8793SOL    HW238013   2.989   1.438   6.973  2.2758 -0.1279 -1.7056
 8794SOL     OW38014   0.326   2.955   8.514  1.2373 -0.3499  0.3769
 8794SOL    HW138015   0.283   2.880   8.474 -2.0220  1.8631 -0.3455
 8794SOL    HW238016   0.380   2.905   8.575  1.4209  1.5706  1.7994
 8795SOL     OW38017   2.743   1.689  12.047  0.3139  0.4645 -0.1485
 8795SOL    HW138018   2.748   1.595  12.061  1.3095  0.3975 -0.9401
 8795SOL    HW238019   2.792   1.724  12.122 -0.1774  0.6132  0.1067
 8796SOL     OW38020   3.031   2.955   1.034  0.1025 -0.0553  0.2355
 8796SOL    HW138021   3.083   3.023   1.078 -0.3097  0.9387 -0.8295
 8796SOL    HW238022   2.953   3.000   1.003  0.8652 -0.1924 -1.8564
 8797SOL     OW38023   0.232   1.521  11.714  0.4355 -0.2221  0.2243
 8797SOL    HW138024   0.184   1.604  11.720 -1.4630 -1.1937 -1.7161
 8797SOL    HW238025   0.303   1.537  11.776  0.8301 -1.1503  0.0093
 8798SOL     OW38026   3.022   3.210  16.837 -0.3671 -0.0315  0.0765
 8798SOL    HW138027   3.104   3.174  16.872 -1.2235 -0.1270  1.9811
 8798SOL    HW238028   2.959   3.186  16.904 -0.5682  0.3400  0.0187
 8799SOL     OW38029   3.243   4.538   8.798 -0.4530 -0.0777  0.1983
 8799SOL    HW138030   3.182   4.537   8.725 -1.3209 -2.1671  0.9412
 8799SOL    HW238031   3.313   4.475   8.782  0.4689  1.1697 -0.6471
 8800SOL     OW38032   4.073   1.901  16.995 -0.5838  0.2731  0.0635
 8800SOL    HW138033   4.079   1.943  17.081  0.8064 -0.4162  0.3113
 8800SOL    HW238034   4.048   1.974  16.939  0.8914  0.7825  0.0647
 8801SOL     OW38035   3.758   1.958   2.053 -0.0335 -0.3471  0.1444
 8801SOL    HW138036   3.690   1.957   2.121  1.7693 -0.4364  1.9405
 8801SOL    HW238037   3.787   1.867   2.058  1.2860 -0.0474 -2.5093
 8802SOL     OW38038   3.350   3.334   7.651 -0.3001  0.1531 -0.5245
 8802SOL    HW138039   3.326   3.245   7.629  0.5547 -0.0370 -0.6881
 8802SOL    HW238040   3.430   3.327   7.705 -1.4412  0.4593  1.2074
 8803SOL     OW38041   0.947   0.556   8.235  0.0497 -0.1597 -0.1618
 8803SOL    HW138042   0.949   0.461   8.229  0.5737 -0.2628  1.5730
 8803SOL    HW238043   1.011   0.566   8.306  0.5590  0.6609 -0.7264
 8804SOL     OW38044   3.657   0.232  15.119 -0.4143  0.2392  0.0938
 8804SOL    HW138045   3.570   0.201  15.144  0.3989 -0.1172  2.3802
 8804SOL    HW238046   3.644   0.240  15.024 -2.4220  1.8042  0.4876
 8805SOL     OW38047   4.192   2.588  11.515 -0.4438  0.1401 -0.4331
 8805SOL    HW138048   4.265   2.577  11.576 -1.5241  1.0150  1.0148
 8805SOL    HW238049   4.138   2.653  11.558 -0.9732 -0.2207 -0.5494
 8806SOL     OW38050   0.690   0.592   5.478 -0.0819  0.4903 -0.6910
 8806SOL    HW138051   0.632   0.560   5.547  2.0607  1.1394  1.4009
 8806SOL    HW238052   0.654   0.680   5.479 -0.6883  0.2424 -0.6000
 8807SOL     OW38053   3.696   2.836   5.765  0.1195  0.3553 -0.5302
 8807SOL    HW138054   3.784   2.812   5.735 -0.2485 -1.0229 -0.4783
 8807SOL    HW238055   3.651   2.841   5.681 -1.6995  1.4879  0.5183
 8808SOL     OW38056   4.688   0.703   5.924  0.3352  0.6907  0.5657
 8808SOL    HW138057   4.609   0.700   5.977 -1.2478 -0.1857 -1.8299
 8808SOL    HW238058   4.657   0.723   5.836 -0.7329 -0.2132  0.7457
 8809SOL     OW38059   1.179   0.470  10.572 -0.0779  0.2641 -0.4364
 8809SOL    HW138060   1.196   0.564  10.577  0.2877  0.0703  2.3335
 8809SOL    HW238061   1.175   0.462  10.477  2.0508 -0.5401 -0.4613
 8810SOL     OW38062   0.245   1.553   5.480 -0.1367  0.0984 -0.1179
 8810SOL    HW138063   0.281   1.567   5.393  1.8679 -3.6662  0.1186
 8810SOL    HW238064   0.175   1.618   5.486 -1.5141 -1.3592 -0.1454
 8811SOL     OW38065   3.679   0.276   6.738  0.5798  0.9625 -0.4837
 8811SOL    HW138066   3.766   0.240   6.758  0.5478 -1.3629 -4.4168
 8811SOL    HW238067   3.679   0.259   6.644  0.4022 -0.5354 -0.2046
 8812SOL     OW38068   3.045   3.242  14.120  0.6453 -0.3919 -0.0943
 8812SOL    HW138069   3.066   3.158  14.160 -0.4731 -1.2631 -1.3263
 8812SOL    HW238070   3.128   3.282  14.149  0.9175 -0.4327 -0.8197
 8813SOL     OW38071   2.232   2.572   4.407 -0.2303 -0.4448  0.5419
 8813SOL    HW138072   2.257   2.573   4.500  1.4898 -2.2762  0.0987
 8813SOL    HW238073   2.263   2.485   4.384 -1.6073 -1.1894  1.5551
 8814SOL     OW38074   3.434   0.988   2.236 -0.4553 -0.1990  0.2434
 8814SOL    HW138075   3.513   1.003   2.288 -1.7563  2.3982  1.4812
 8814SOL    HW238076   3.402   0.902   2.263 -1.2711  0.1777  0.4872
 8815SOL     OW38077   3.022   4.034   5.784  0.4456  0.3743  0.6027
 8815SOL    HW138078   3.106   4.011   5.823  0.5744 -1.2553 -0.6273
 8815SOL    HW238079   3.007   3.957   5.729 -1.1316  0.0966  1.4271
 8816SOL     OW38080   1.611   3.483  11.124 -0.3778 -0.1075 -0.3130
 8816SOL    HW138081   1.669   3.542  11.077 -3.1004  1.0115 -2.2533
 8816SOL    HW238082   1.618   3.527  11.209  1.5133  1.7635 -1.4618
 8817SOL     OW38083   1.621   0.262  12.552 -0.1030  0.0548  0.4317
 8817SOL    HW138084   1.632   0.320  12.477 -0.0274  1.4247  1.5018
 8817SOL    HW238085   1.570   0.195  12.507 -1.3265 -0.3872  2.4659
 8818SOL     OW38086   0.958   4.353   1.707 -0.1505 -0.8085 -0.1635
 8818SOL    HW138087   0.979   4.404   1.628 -0.6726  1.7834  1.3998
 8818SOL    HW238088   0.995   4.410   1.774 -0.4471  0.3783 -1.0035
 8819SOL     OW38089   2.587   1.260   9.692  0.2985 -0.0260  0.3351
 8819SOL    HW138090   2.500   1.282   9.723 -0.6751 -5.5413  1.5729
 8819SOL    HW238091   2.638   1.337   9.718 -0.7061  0.9065 -0.4794
 8820SOL     OW38092   2.113   3.028   6.558  0.1246  0.2883  0.2906
 8820SOL    HW138093   2.069   3.102   6.601  0.6829  1.6408 -1.4721
 8820SOL    HW238094   2.068   2.955   6.600 -1.4660  1.6480  0.9751
 8821SOL     OW38095   3.958   0.091   4.938  0.1399 -0.0055  0.2454
 8821SOL    HW138096   3.954   4.736   4.916  3.4721 -0.1199  0.2051
 8821SOL    HW238097   4.052   0.099   4.948  0.2800  1.1313 -1.9222
 8822SOL     OW38098   4.156   4.010  15.598  0.2652  0.0044 -0.8815
 8822SOL    HW138099   4.081   3.975  15.549 -1.4362  2.0824  0.2440
 8822SOL    HW238100   4.119   4.095  15.620  1.3907  0.0100  0.9695
 8823SOL     OW38101   3.231   2.925   9.038  0.4603  0.1635  0.2181
 8823SOL    HW138102   3.245   2.881   9.122  0.5352 -0.2082  0.0122
 8823SOL    HW238103   3.321   2.947   9.016  0.3460 -0.0405 -0.4468
 8824SOL     OW38104   2.853   4.478   7.629  0.2590 -0.4909  0.7278
 8824SOL    HW138105   2.776   4.468   7.573  1.7149  0.0172 -1.3674
 8824SOL    HW238106   2.800   4.492   7.708 -0.0958 -5.1758  1.2784
 8825SOL     OW38107   1.387   4.285   8.779  0.2333  0.0011 -0.1373
 8825SOL    HW138108   1.432   4.370   8.782 -0.0927  0.1767 -0.1236
 8825SOL    HW238109   1.298   4.313   8.755  0.4775 -0.0491 -1.0825
 8826SOL     OW38110   3.345   2.678   7.046 -0.3088 -0.1042  0.0843
 8826SOL    HW138111   3.403   2.752   7.033 -0.5048 -0.2958 -1.9061
 8826SOL    HW238112   3.372   2.611   6.983 -2.0289  1.2831 -2.1238
 8827SOL     OW38113   2.389   4.008  12.202 -0.8255 -0.7214  0.7296
 8827SOL    HW138114   2.343   4.049  12.276  0.5136  0.7522  0.7576
 8827SOL    HW238115   2.356   3.918  12.204  0.8643 -1.3552 -0.3919
 8828SOL     OW38116   0.853   1.446   8.888 -0.4580  0.6095 -0.2866
 8828SOL    HW138117   0.805   1.377   8.933 -0.3716  0.5842 -0.2327
 8828SOL    HW238118   0.818   1.524   8.933 -0.5906 -1.1319  2.6489
 8829SOL     OW38119   0.597   3.442   8.959 -0.3713 -0.1982 -0.2715
 8829SOL    HW138120   0.679   3.447   8.909  1.4035 -2.4704  2.3857
 8829SOL    HW238121   0.544   3.497   8.902 -1.2702 -0.6586  0.1287
 8830SOL     OW38122   1.309   4.263  17.368  0.0613  0.1040 -0.5391
 8830SOL    HW138123   1.274   4.174  17.361 -0.0592  0.2708 -2.1698
 8830SOL    HW238124   1.335   4.266  17.276 -0.7180 -3.7302 -0.8928
 8831SOL     OW38125   3.840   4.015   4.909  0.0234 -0.4305 -0.1068
 8831SOL    HW138126   3.788   3.995   4.987 -0.3175  1.8630  0.2593
 8831SOL    HW238127   3.804   3.965   4.835 -0.7726  1.0164 -0.7089
 8832SOL     OW38128   4.301   2.422   3.894  0.3986  0.4294  0.3768
 8832SOL    HW138129   4.245   2.498   3.909  1.8692  1.4312  0.8658
 8832SOL    HW238130   4.275   2.398   3.805 -0.7127 -0.3248  0.9083
 8833SOL     OW38131   1.384   1.491   4.054 -0.3807  0.0549  0.4468
 8833SOL    HW138132   1.303   1.541   4.045 -0.0996  0.7089  1.5241
 8833SOL    HW238133   1.395   1.486   4.149  0.2762 -0.0856  0.3627
 8834SOL     OW38134   4.296   1.749   2.748 -1.2232  0.7275  0.0411
 8834SOL    HW138135   4.373   1.773   2.696  0.4999 -2.3431  1.1978
 8834SOL    HW238136   4.227   1.754   2.681 -0.7073 -1.2415 -0.6270
 8835SOL     OW38137   3.908   0.209   5.291 -0.1732  0.1576  0.5505
 8835SOL    HW138138   3.895   0.216   5.197 -1.1617  1.4324  0.7808
 8835SOL    HW238139   3.845   0.138   5.306  0.0149 -0.5403 -1.9721
 8836SOL     OW38140   3.191   0.626  13.740 -0.1795 -0.1236  0.2406
 8836SOL    HW138141   3.209   0.585  13.655  1.4459  0.2251  0.4125
 8836SOL    HW238142   3.119   0.686  13.723 -0.3184 -0.4432 -0.2954
 8837SOL     OW38143   3.194   2.840  16.183  0.2727  0.6261 -0.2208
 8837SOL    HW138144   3.138   2.891  16.242 -1.1144 -0.5189 -0.5334
 8837SOL    HW238145   3.131   2.798  16.124  3.9566  0.3398 -3.9392
 8838SOL     OW38146   1.369   2.973   3.188 -0.3597  0.0206  0.3025
 8838SOL    HW138147   1.405   2.898   3.141 -0.6740 -1.9642  3.1738
 8838SOL    HW238148   1.444   3.001   3.241  1.1208 -0.1065 -1.7481
 8839SOL     OW38149   3.725   0.060   8.266 -0.1062 -0.0730 -0.1932
 8839SOL    HW138150   3.715   0.032   8.175  0.6482  3.7017 -1.3982
 8839SOL    HW238151   3.650   0.015   8.305 -1.3003  2.1619  0.1047
 8840SOL     OW38152   2.580   3.507   4.896 -0.6044 -0.4462 -0.4548
 8840SOL    HW138153   2.611   3.445   4.962  1.2795  2.4053  1.3475
 8840SOL    HW238154   2.522   3.563   4.949  2.6282  2.0187  0.5047
 8841SOL     OW38155   2.845   3.135   2.827 -0.6183  0.2297  0.1428
 8841SOL    HW138156   2.921   3.154   2.883  0.7359  1.0995 -1.9698
 8841SOL    HW238157   2.790   3.214   2.836 -1.3593 -0.1843 -0.7236
 8842SOL     OW38158   2.583   3.523   4.368  0.5768  0.9866 -0.5121
 8842SOL    HW138159   2.614   3.500   4.456  0.0681 -1.6036 -1.0383
 8842SOL    HW238160   2.527   3.597   4.392 -0.7842 -0.9628  2.3374
 8843SOL     OW38161   0.894   2.167   4.720 -0.3616 -0.0300 -0.1055
 8843SOL    HW138162   0.915   2.143   4.630 -0.0854  0.0941 -0.0757
 8843SOL    HW238163   0.813   2.120   4.737 -0.0227 -0.5851 -0.0250
 8844SOL     OW38164   4.264   4.105   8.338  0.5552 -0.3322 -0.3183
 8844SOL    HW138165   4.201   4.176   8.353  2.2727  0.5775  2.6688
 8844SOL    HW238166   4.346   4.154   8.338 -1.2919  2.7448 -2.4096
 8845SOL     OW38167   1.863   4.701  17.320 -0.7057  0.5386  0.5006
 8845SOL    HW138168   1.812   4.711  17.401 -2.4820 -2.6792 -0.2100
 8845SOL    HW238169   1.933   4.643  17.349  2.4326  3.6491 -0.9134
 8846SOL     OW38170   0.512   1.970   3.092 -0.1529 -0.1556  0.1799
 8846SOL    HW138171   0.416   1.972   3.083 -0.2061  2.3048  1.0634
 8846SOL    HW238172   0.518   1.929   3.179 -0.8616 -0.4602  0.0919
 8847SOL     OW38173   2.119   1.589   3.316  0.2182 -0.1785 -0.0250
 8847SOL    HW138174   2.092   1.677   3.287 -0.5764 -0.7411 -1.0224
 8847SOL    HW238175   2.126   1.556   3.226 -2.2199 -0.9449  0.0528
 8848SOL     OW38176   2.586   4.461  10.107 -0.7484  0.1286 -0.2484
 8848SOL    HW138177   2.534   4.445  10.185  2.4799  0.2523  1.9184
 8848SOL    HW238178   2.653   4.523  10.136  1.2020 -1.2766 -1.7403
 8849SOL     OW38179   4.648   3.147   3.230  0.1678 -0.1393  0.2853
 8849SOL    HW138180   4.620   3.107   3.312  1.4832  0.3319  0.9572
 8849SOL    HW238181   4.716   3.083   3.208  0.0577 -0.9034  2.2068
 8850SOL     OW38182   2.847   1.597   6.763  0.1576 -0.4342  0.6526
 8850SOL    HW138183   2.844   1.640   6.849  1.8981 -1.2198  1.1076
 8850SOL    HW238184   2.860   1.670   6.702 -1.3751 -0.1350  0.6897
 8851SOL     OW38185   2.496   1.150   6.881 -0.4015 -0.3984  0.7862
 8851SOL    HW138186   2.538   1.080   6.932  0.3237  0.1813  0.9772
 8851SOL    HW238187   2.430   1.102   6.831  2.1749 -3.1293 -0.0002
 8852SOL     OW38188   1.556   3.230  15.940 -0.4642 -0.2519  0.2013
 8852SOL    HW138189   1.499   3.218  15.864 -0.1124  3.6550 -0.7053
 8852SOL    HW238190   1.643   3.215  15.901  0.6302  2.3505  1.6361
 8853SOL     OW38191   4.001   1.536   5.811  0.0319 -0.5982 -0.6365
 8853SOL    HW138192   3.907   1.530   5.793 -0.0304  0.4661 -0.6606
 8853SOL    HW238193   4.044   1.486   5.741 -0.1475 -0.4018 -0.8839
 8854SOL     OW38194   2.192   3.618   6.408 -0.1963  0.0519 -0.0600
 8854SOL    HW138195   2.127   3.688   6.406 -1.6552 -1.3149 -0.8158
 8854SOL    HW238196   2.224   3.630   6.497  0.2672  0.2013 -0.2455
 8855SOL     OW38197   1.264   3.632  16.052 -0.1562 -0.4878 -0.5058
 8855SOL    HW138198   1.260   3.728  16.058 -1.7999 -0.5656 -0.3642
 8855SOL    HW238199   1.183   3.606  16.095  0.2012 -1.4453 -0.4200
 8856SOL     OW38200   3.141   3.027   5.589  0.3442  0.1654 -0.1295
 8856SOL    HW138201   3.181   3.106   5.554  1.8893 -0.8618 -0.7105
 8856SOL    HW238202   3.073   3.012   5.523  2.2563 -4.7137 -1.0413
 8857SOL     OW38203   4.562   4.167  12.141  0.4207 -0.0181 -0.3781
 8857SOL    HW138204   4.568   4.102  12.211 -0.1693 -0.5006 -0.7729
 8857SOL    HW238205   4.651   4.178  12.108  0.2866  0.7370 -0.4743
 8858SOL     OW38206   2.847   3.296   8.014 -0.4830  0.6570 -0.0466
 8858SOL    HW138207   2.853   3.216   8.067  2.6086 -0.7651 -2.5608
 8858SOL    HW238208   2.873   3.259   7.930 -0.7891  1.6526 -0.5869
 8859SOL     OW38209   2.598   0.121   4.327 -0.3253  0.2745 -0.1422
 8859SOL    HW138210   2.580   0.185   4.397 -1.1185 -1.2776  1.0589
 8859SOL    HW238211   2.660   0.061   4.368 -0.4333 -0.8493 -1.6302
 8860SOL     OW38212   3.738   3.167   2.793 -0.3255 -0.0335 -0.0741
 8860SOL    HW138213   3.782   3.137   2.873 -0.7458 -3.3692 -1.1142
 8860SOL    HW238214   3.715   3.256   2.822 -0.3108  0.5860 -1.9239
 8861SOL     OW38215   3.103   1.894   6.975 -0.6429  0.3653 -0.0766
 8861SOL    HW138216   3.068   1.920   7.061 -1.4146  1.2831 -0.6627
 8861SOL    HW238217   3.145   1.810   6.989 -2.4672 -0.5082  0.1946
 8862SOL     OW38218   2.878   2.583   2.878  0.3214  0.1320 -0.0967
 8862SOL    HW138219   2.909   2.512   2.935 -2.4945  1.1772  2.7349
 8862SOL    HW238220   2.912   2.656   2.929 -1.1851  1.8078 -1.5223
 8863SOL     OW38221   3.539   4.697   4.447 -0.0275  0.5511 -0.4727
 8863SOL    HW138222   3.545   4.620   4.391  0.0158 -0.5025  0.9662
 8863SOL    HW238223   3.445   4.715   4.451 -0.3026 -0.6412 -1.7741
 8864SOL     OW38224   3.784   3.691   2.380  0.0701 -0.3900  0.2641
 8864SOL    HW138225   3.820   3.627   2.318 -0.2183 -0.0353 -0.2718
 8864SOL    HW238226   3.847   3.761   2.392  0.2864 -0.2957 -1.3440
 8865SOL     OW38227   0.494   0.033  12.491 -0.1148  0.2232  0.1844
 8865SOL    HW138228   0.580   0.069  12.511 -0.7289  0.8505  1.6831
 8865SOL    HW238229   0.514   4.690  12.444 -0.7277 -0.4352  1.0572
 8866SOL     OW38230   2.390   2.659   5.869 -0.7724 -0.1937 -0.1484
 8866SOL    HW138231   2.342   2.585   5.831 -1.8497  0.7669 -0.6735
 8866SOL    HW238232   2.424   2.617   5.948 -1.5887  0.6508  0.6639
 8867SOL     OW38233   4.421   4.600   4.843 -0.2928  0.2031  0.0333
 8867SOL    HW138234   4.492   4.555   4.798  0.9586  0.9325  1.2860
 8867SOL    HW238235   4.360   4.527   4.858  1.9332 -1.6020  0.2981
 8868SOL     OW38236   4.149   1.682   5.513 -0.3902 -0.0493 -0.2285
 8868SOL    HW138237   4.081   1.645   5.457  0.9548  0.0059 -1.8812
 8868SOL    HW238238   4.187   1.748   5.455  0.1046 -0.6895 -0.6217
 8869SOL     OW38239   1.703   3.351   7.169 -0.1045  0.4754 -0.5052
 8869SOL    HW138240   1.707   3.255   7.163 -0.6918  0.5412 -2.0543
 8869SOL    HW238241   1.610   3.371   7.155  0.0711 -0.1581 -2.5791
 8870SOL     OW38242   0.169   0.591   9.388  0.0661 -0.3745  0.0749
 8870SOL    HW138243   0.139   0.679   9.411  0.5475 -0.1280 -0.2596
 8870SOL    HW238244   0.265   0.592   9.386 -0.0033  0.9920 -1.7929
 8871SOL     OW38245   4.401   1.230  12.378  0.4565 -0.2665  0.0905
 8871SOL    HW138246   4.355   1.170  12.320  0.3543  1.4574 -1.6131
 8871SOL    HW238247   4.367   1.312  12.341  0.3207  0.3275  1.5508
 8872SOL     OW38248   3.131   0.714   6.173 -0.3017  0.3151  0.4383
 8872SOL    HW138249   3.166   0.789   6.221  2.0719 -0.9156  0.6589
 8872SOL    HW238250   3.217   0.673   6.158  0.3008  1.5320  0.5258
 8873SOL     OW38251   2.450   4.460   7.723 -0.2908  0.4574 -0.0217
 8873SOL    HW138252   2.409   4.452   7.809  3.1183  0.4764  1.6197
 8873SOL    HW238253   2.540   4.452   7.754 -0.8450 -0.0945  1.4682
 8874SOL     OW38254   0.359   4.138   1.031  0.1778 -1.1151 -0.4462
 8874SOL    HW138255   0.351   4.163   0.938  2.6612  0.8924 -0.1066
 8874SOL    HW238256   0.351   4.043   1.038 -1.7753 -1.0554 -1.6526
 8875SOL     OW38257   1.986   1.242   4.856  0.2265 -0.0024  0.3277
 8875SOL    HW138258   1.974   1.149   4.841  0.8421  0.3653 -2.4187
 8875SOL    HW238259   2.082   1.244   4.865  0.3423  0.5072 -1.0521
 8876SOL     OW38260   0.031   2.072   3.313  0.3703  1.0708 -0.1818
 8876SOL    HW138261   4.710   1.998   3.296 -0.6780  1.5611  1.2498
 8876SOL    HW238262   0.053   2.060   3.406 -0.6806 -0.6851 -0.1593
 8877SOL     OW38263   1.117   1.494   1.468 -0.1137 -0.4879 -0.0827
 8877SOL    HW138264   1.169   1.528   1.395 -1.2144 -1.7831 -1.4634
 8877SOL    HW238265   1.163   1.411   1.479 -0.6262 -0.8214 -0.4550
 8878SOL     OW38266   0.195   2.351   2.359 -0.1743 -0.5211 -0.1091
 8878SOL    HW138267   0.155   2.353   2.446  1.8884 -1.9507  0.8687
 8878SOL    HW238268   0.258   2.423   2.368  0.6554 -1.2879  0.2076
 8879SOL     OW38269   1.991   0.597   4.224 -0.3397  0.0965 -0.0221
 8879SOL    HW138270   1.942   0.664   4.271  0.0417 -0.1117  0.6835
 8879SOL    HW238271   1.923   0.557   4.170 -0.0305 -1.1767  0.5179
 8880SOL     OW38272   3.554   3.854   6.784 -0.0871 -0.1386 -0.2857
 8880SOL    HW138273   3.518   3.937   6.813  0.7339  0.0537  0.1782
 8880SOL    HW238274   3.481   3.800   6.815  1.3263 -1.4740  0.7811
 8881SOL     OW38275   2.523   3.244  12.140  0.4897  0.0863 -0.6440
 8881SOL    HW138276   2.538   3.215  12.050  0.4678 -0.2528 -0.5378
 8881SOL    HW238277   2.452   3.307  12.125 -0.2713 -0.5646  0.2406
 8882SOL     OW38278   1.772   1.593  16.233 -0.7677 -0.1384 -0.6127
 8882SOL    HW138279   1.763   1.539  16.312 -0.7886 -0.6386 -0.9585
 8882SOL    HW238280   1.732   1.676  16.261 -0.3111 -0.4221  0.9227
 8883SOL     OW38281   3.064   0.712   1.488  0.0542 -0.2552 -0.0347
 8883SOL    HW138282   3.100   0.762   1.560  0.4872  2.0808 -1.8728
 8883SOL    HW238283   2.975   0.748   1.481  0.2419  0.3654  0.7797
 8884SOL     OW38284   2.849   0.974   3.748 -0.4203  0.5206 -0.1517
 8884SOL    HW138285   2.858   0.937   3.836 -1.5426 -0.9466 -0.6535
 8884SOL    HW238286   2.927   1.030   3.745 -1.6977  2.4259  1.3103
 8885SOL     OW38287   3.838   0.938   3.838  0.0589 -0.1897 -0.0869
 8885SOL    HW138288   3.858   0.906   3.751  1.6804  1.7425 -0.4439
 8885SOL    HW238289   3.870   0.861   3.884 -1.3239 -1.3826 -1.1406
 8886SOL     OW38290   0.648   0.253  17.183 -0.1483 -0.8347 -0.9194
 8886SOL    HW138291   0.653   0.334  17.132 -1.6267  1.2028  2.1991
 8886SOL    HW238292   0.738   0.244  17.216 -0.3801  1.3370  0.2649
 8887SOL     OW38293   3.251   3.642   5.772  0.9529 -0.2138  0.4298
 8887SOL    HW138294   3.323   3.607   5.719  0.9368 -2.5169  1.9486
 8887SOL    HW238295   3.225   3.556   5.803 -0.4984  0.3045  0.6417
 8888SOL     OW38296   0.778   4.347   3.838  0.2774  0.7608  0.6355
 8888SOL    HW138297   0.709   4.291   3.873 -0.2339  1.0536  0.0893
 8888SOL    HW238298   0.830   4.289   3.783  0.4729  1.2475  0.3131
 8889SOL     OW38299   2.731   3.382   3.980 -0.4647 -0.5261  0.2872
 8889SOL    HW138300   2.820   3.381   4.015 -0.2994 -1.1132 -0.1490
 8889SOL    HW238301   2.747   3.327   3.903  1.0621 -1.6596  1.4169
 8890SOL     OW38302   0.790   1.873  12.434  0.5953 -0.0524 -0.6165
 8890SOL    HW138303   0.758   1.783  12.442 -1.3864  0.8385  1.7512
 8890SOL    HW238304   0.719   1.920  12.479  0.0006 -0.6329 -0.9537
 8891SOL     OW38305   0.149   1.970   7.112 -0.4782  0.2167 -0.9947
 8891SOL    HW138306   0.107   1.908   7.171  1.6477 -0.4337 -0.1584
 8891SOL    HW238307   0.226   1.986   7.167 -1.0829 -0.6120  0.0891
 8892SOL     OW38308   4.522   0.353   1.346  0.0289 -0.1498 -0.2680
 8892SOL    HW138309   4.455   0.389   1.289  0.9217  1.0156 -0.5850
 8892SOL    HW238310   4.602   0.363   1.293  0.0989  2.0570  0.2443
 8893SOL     OW38311   2.477   1.115   4.142  0.5403 -0.2684 -0.6036
 8893SOL    HW138312   2.415   1.080   4.079 -1.5430  1.9155  0.2392
 8893SOL    HW238313   2.449   1.204   4.162  0.7112 -0.4289  0.3557
 8894SOL     OW38314   3.626   3.731  14.343  0.2132  0.2921 -0.3130
 8894SOL    HW138315   3.720   3.722  14.355  0.1037 -2.4276 -1.5754
 8894SOL    HW238316   3.625   3.810  14.288  3.2448 -1.0092 -2.2152
 8895SOL     OW38317   3.659   4.454   4.772 -0.3885  0.5177 -0.2689
 8895SOL    HW138318   3.580   4.471   4.721  0.1248  1.0573 -0.8949
 8895SOL    HW238319   3.637   4.382   4.831 -2.1283  1.8840  0.7453
 8896SOL     OW38320   3.792   1.460  17.406 -0.2432  0.4932  0.4484
 8896SOL    HW138321   3.834   1.410  17.336 -4.3027  0.2832 -1.8612
 8896SOL    HW238322   3.842   1.431  17.482 -0.5105 -1.4534 -0.0952
 8897SOL     OW38323   1.261   0.246   6.466 -0.0793  0.4232 -0.5248
 8897SOL    HW138324   1.223   0.261   6.553 -2.1587 -4.1205 -0.6313
 8897SOL    HW238325   1.233   0.156   6.448  2.7641 -0.4108 -0.7429
 8898SOL     OW38326   2.728   1.363   9.301 -0.1640  0.6939  0.1372
 8898SOL    HW138327   2.746   1.457   9.299  3.1304  0.0852  0.5224
 8898SOL    HW238328   2.728   1.346   9.207  1.3440  0.7345  0.1261
 8899SOL     OW38329   4.199   4.070  13.066  0.3304 -0.2901  0.2119
 8899SOL    HW138330   4.294   4.068  13.060  0.2902  1.3117 -0.7506
 8899SOL    HW238331   4.175   4.083  12.975  0.9959  2.0472  0.3585
 8900SOL     OW38332   4.235   1.716   2.078  0.8407 -0.1857  0.2023
 8900SOL    HW138333   4.287   1.716   2.159  2.2496 -0.9819 -0.7148
 8900SOL    HW238334   4.159   1.682   2.125  0.2837  1.8326  0.7581
 8901SOL     OW38335   0.709   1.749  11.563  0.6275  0.7310 -0.1856
 8901SOL    HW138336   0.747   1.785  11.643 -1.7301 -0.3561  1.4367
 8901SOL    HW238337   0.724   1.656  11.579  0.7185  0.6990 -0.4480
 8902SOL     OW38338   4.646   1.252   8.536 -0.3295 -0.0659 -0.4383
 8902SOL    HW138339   4.703   1.180   8.564 -2.4486 -0.2156  3.5501
 8902SOL    HW238340   4.655   1.308   8.613 -1.7028 -0.0851 -0.2750
 8903SOL     OW38341   0.540   1.071   5.767 -0.2488  0.0967 -0.3313
 8903SOL    HW138342   0.560   1.120   5.687 -0.7852  1.6561  0.5063
 8903SOL    HW238343   0.489   1.128   5.824 -0.6553  1.1573 -1.7656
 8904SOL     OW38344   3.848   3.279  10.701 -0.2048  0.0495 -0.2873
 8904SOL    HW138345   3.857   3.220  10.625 -1.7072 -0.0261 -0.4015
 8904SOL    HW238346   3.856   3.223  10.778  1.6160  0.0964 -0.4292
 8905SOL     OW38347   0.970   1.660   9.141 -0.1327  0.3399  0.6255
 8905SOL    HW138348   0.893   1.687   9.091 -0.5592 -1.8805  0.0567
 8905SOL    HW238349   1.013   1.745   9.143  0.4893  0.1069 -2.1602
 8906SOL     OW38350   0.420   0.464  16.659 -0.5370  1.0433 -0.0744
 8906SOL    HW138351   0.382   0.497  16.740 -3.0999 -1.7391 -0.1355
 8906SOL    HW238352   0.477   0.539  16.640 -1.3462  1.5468 -0.5019
 8907SOL     OW38353   3.857   4.659   5.978  0.3488  0.5052  0.1910
 8907SOL    HW138354   3.828   0.008   5.952  4.1026  2.0422  1.1538
 8907SOL    HW238355   3.861   4.669   6.073 -0.0412 -2.2182  0.5070
 8908SOL     OW38356   3.998   0.944   8.416 -0.3723  0.6457  0.0105
 8908SOL    HW138357   4.037   0.868   8.459 -1.1407  2.2731  3.6356
 8908SOL    HW238358   4.081   0.992   8.419 -0.1002  0.1401  0.6231
 8909SOL     OW38359   2.784   0.678   5.472  0.1941  0.5949  0.1027
 8909SOL    HW138360   2.812   0.701   5.560 -1.1512 -0.4989  0.8165
 8909SOL    HW238361   2.832   0.731   5.409  1.7682 -2.5156 -1.3155
 8910SOL     OW38362   3.696   0.973   2.383  0.3171  0.2329  0.6305
 8910SOL    HW138363   3.676   1.062   2.414  0.9641  0.4738  0.3440
 8910SOL    HW238364   3.718   0.941   2.471 -0.4957  2.8405  1.7963
 8911SOL     OW38365   1.842   3.158   7.895  0.6031 -0.5707 -0.4192
 8911SOL    HW138366   1.901   3.193   7.961 -1.8951 -0.7770  1.9268
 8911SOL    HW238367   1.881   3.070   7.896  0.3576 -0.6625  0.5446
 8912SOL     OW38368   1.888   2.778  14.850  0.0341  0.1870 -0.7896
 8912SOL    HW138369   1.919   2.867  14.834  2.2963 -0.8986 -2.5475
 8912SOL    HW238370   1.799   2.790  14.882 -0.1694 -3.9634  0.2260
 8913SOL     OW38371   2.042   4.730   9.544 -0.0515  0.4105  0.5240
 8913SOL    HW138372   2.138   4.722   9.542 -0.1426 -0.3370 -1.2565
 8913SOL    HW238373   2.024   4.733   9.637  0.7713  2.4787  0.6175
 8914SOL     OW38374   0.975   2.012   2.270 -0.4959  0.0182 -0.3005
 8914SOL    HW138375   0.880   2.013   2.266 -0.5667 -0.9610  1.1861
 8914SOL    HW238376   1.000   1.920   2.258 -0.3392 -0.1185  1.1157
 8915SOL     OW38377   0.970   4.655   8.789 -0.2601  0.0153  0.0246
 8915SOL    HW138378   1.012   4.693   8.866 -1.6002  0.0023  0.7677
 8915SOL    HW238379   0.884   4.648   8.830  0.1497  0.4535  0.9693
 8916SOL     OW38380   1.088   2.852   3.282  0.3826 -0.8156 -0.1796
 8916SOL    HW138381   1.166   2.884   3.237  0.6143 -1.0128  0.0857
 8916SOL    HW238382   1.043   2.809   3.209  3.4716 -1.4665 -1.6808
 8917SOL     OW38383   0.105   0.628   2.948  0.4272 -0.2153 -0.2722
 8917SOL    HW138384   0.011   0.643   2.937  0.1742 -0.8849  1.0309
 8917SOL    HW238385   0.129   0.634   2.855  2.0805 -0.5172  0.1370
 8918SOL     OW38386   1.171   1.671   4.087 -0.0554  0.5155  0.0108
 8918SOL    HW138387   1.206   1.734   4.150 -0.2637  1.5803 -0.9467
 8918SOL    HW238388   1.111   1.617   4.139  2.5434 -1.4331  1.0375
 8919SOL     OW38389   1.456   0.178   6.853 -0.4822 -0.2392  0.1131
 8919SOL    HW138390   1.419   0.236   6.787 -0.3154  0.9102  1.0318
 8919SOL    HW238391   1.381   0.175   6.912 -1.1214 -1.1840 -0.7362
 8920SOL     OW38392   4.492   3.817   2.013  0.2087  0.2007  0.5429
 8920SOL    HW138393   4.521   3.763   2.086 -0.1552 -0.7439 -0.0177
 8920SOL    HW238394   4.532   3.901   2.035  2.1597 -0.2230 -1.3848
 8921SOL     OW38395   3.798   2.016   3.496  0.5186 -0.0006  0.0192
 8921SOL    HW138396   3.877   1.979   3.534 -0.1743  0.7901  2.2267
 8921SOL    HW238397   3.760   1.931   3.475 -0.7236  0.5263  0.1137
 8922SOL     OW38398   0.035   2.910   9.715  0.2969  0.0734  0.1853
 8922SOL    HW138399   4.726   2.902   9.632 -0.2779  0.3850  0.4784
 8922SOL    HW238400   0.020   2.825   9.755  3.7774 -0.3486  0.5409
 8923SOL     OW38401   3.950   3.945   8.998 -0.4852  0.0665  0.2277
 8923SOL    HW138402   3.998   3.912   9.074 -1.5229 -0.5539  0.6165
 8923SOL    HW238403   3.860   3.925   9.024 -0.4706 -0.7349 -0.3365
 8924SOL     OW38404   0.706   4.140  17.170  0.3659 -0.1695 -0.0774
 8924SOL    HW138405   0.776   4.199  17.145 -0.2732  1.0195  0.9339
 8924SOL    HW238406   0.634   4.184  17.124 -0.6840  0.3184  2.0526
 8925SOL     OW38407   0.414   0.591   2.239  0.0079 -0.1916  0.2012
 8925SOL    HW138408   0.426   0.496   2.241 -1.4837 -0.3820  0.2075
 8925SOL    HW238409   0.403   0.591   2.144 -0.0216 -0.6708  0.2026
 8926SOL     OW38410   0.351   0.626   3.670 -0.5824  0.6332  0.5459
 8926SOL    HW138411   0.385   0.573   3.742 -0.8174  2.3067  1.8902
 8926SOL    HW238412   0.302   0.560   3.621  1.8126 -1.0047  0.3534
 8927SOL     OW38413   3.849   0.590  11.588  0.5123  0.3909  0.3091
 8927SOL    HW138414   3.762   0.622  11.614 -0.0741 -3.0056  2.4626
 8927SOL    HW238415   3.877   0.542  11.666  0.9580  0.1223 -0.0221
 8928SOL     OW38416   0.342   1.324   6.736  0.1227  0.6778 -0.2538
 8928SOL    HW138417   0.270   1.353   6.793  0.8461 -0.1220  1.0678
 8928SOL    HW238418   0.402   1.399   6.740  0.4339  0.5985 -3.3697
 8929SOL     OW38419   1.339   0.681   7.819 -0.5099  0.0584 -0.3148
 8929SOL    HW138420   1.335   0.741   7.744 -2.8195  0.0266 -0.2228
 8929SOL    HW238421   1.299   0.725   7.894 -0.3814  0.3012 -0.3875
 8930SOL     OW38422   2.433   1.676   6.511 -0.3019 -0.2018 -0.0610
 8930SOL    HW138423   2.500   1.735   6.477 -0.6545 -0.3062 -0.9391
 8930SOL    HW238424   2.389   1.746   6.560 -1.9587 -1.8081  0.7212
 8931SOL     OW38425   1.539   1.220  17.173 -0.0169 -0.2760  0.8079
 8931SOL    HW138426   1.469   1.279  17.203  1.1014  1.6535 -0.4266
 8931SOL    HW238427   1.516   1.133  17.207 -1.5187 -0.6265 -1.0912
 8932SOL     OW38428   0.501   3.212   8.039 -0.2044 -0.1074 -0.4623
 8932SOL    HW138429   0.480   3.218   8.132  0.2867  0.1347 -0.3694
 8932SOL    HW238430   0.452   3.283   7.998  2.1203  1.7858  0.0612
 8933SOL     OW38431   0.654   3.558   6.693 -0.0155 -0.1525  0.6266
 8933SOL    HW138432   0.592   3.623   6.726 -0.8433 -0.6808  0.1041
 8933SOL    HW238433   0.683   3.608   6.616  1.0134  0.9958  1.7496
 8934SOL     OW38434   4.365   0.420  11.889  0.5125 -1.2758 -0.0008
 8934SOL    HW138435   4.270   0.428  11.894  0.3943 -2.1182 -0.9401
 8934SOL    HW238436   4.402   0.491  11.837 -1.4502 -0.6842 -0.5866
 8935SOL     OW38437   1.654   1.840  17.327  0.0886 -0.0847 -0.5743
 8935SOL    HW138438   1.694   1.875  17.406 -1.1427  0.6800 -0.2918
 8935SOL    HW238439   1.576   1.799  17.365 -0.2669  0.2302 -0.9579
 8936SOL     OW38440   3.507   4.641   8.345  0.1219 -0.1942  0.2952
 8936SOL    HW138441   3.513   4.575   8.276 -0.6749 -1.9802  1.9082
 8936SOL    HW238442   3.424   4.614   8.385  0.1718  1.5978  1.6484
 8937SOL     OW38443   1.156   1.449  11.193  0.1705 -0.6091 -1.3421
 8937SOL    HW138444   1.210   1.404  11.258 -0.9837 -0.5892 -0.3604
 8937SOL    HW238445   1.094   1.379  11.174 -1.2486  0.1666  0.3255
 8938SOL     OW38446   0.744   3.844   2.673 -0.0021  0.6484  0.1762
 8938SOL    HW138447   0.714   3.921   2.624  0.4172 -0.3930 -1.7527
 8938SOL    HW238448   0.729   3.768   2.615 -0.4981  0.0304  1.1146
 8939SOL     OW38449   0.093   3.838   1.855 -0.1277 -0.1629  0.1168
 8939SOL    HW138450   0.164   3.791   1.811  1.2686  2.2662 -0.2374
 8939SOL    HW238451   0.111   3.827   1.949 -0.4878 -0.0958  0.1915
 8940SOL     OW38452   2.668   1.779  11.530  0.3072  0.0191  0.4677
 8940SOL    HW138453   2.737   1.807  11.589  1.1561 -0.8634 -0.1028
 8940SOL    HW238454   2.721   1.738  11.462 -0.3748 -0.5391  0.2627
 8941SOL     OW38455   4.157   0.430   8.685 -0.3003 -0.0522 -0.2044
 8941SOL    HW138456   4.157   0.338   8.658 -0.3195  0.4394 -1.8589
 8941SOL    HW238457   4.066   0.445   8.658  0.3143  2.0859 -1.0458
 8942SOL     OW38458   1.502   3.009   5.802 -0.4847  0.4661 -0.4965
 8942SOL    HW138459   1.415   3.003   5.841  0.4614 -0.9648  1.4252
 8942SOL    HW238460   1.558   3.017   5.879 -0.7117 -0.7840 -0.1918
 8943SOL     OW38461   0.430   1.939   1.540 -0.1517 -0.6787  0.2825
 8943SOL    HW138462   0.517   1.903   1.557  0.6685  0.7915 -0.8878
 8943SOL    HW238463   0.455   2.031   1.541 -0.1124 -0.7016  1.2238
 8944SOL     OW38464   2.834   0.359  14.805 -0.7051  0.5717 -0.4858
 8944SOL    HW138465   2.870   0.448  14.814  2.3685 -0.6416 -1.0135
 8944SOL    HW238466   2.895   0.300  14.849 -0.9300  0.5414 -0.2129
 8945SOL     OW38467   4.540   2.185   3.987 -0.0334  0.2120  0.1390
 8945SOL    HW138468   4.590   2.265   3.972 -1.4853  1.2531  0.9259
 8945SOL    HW238469   4.553   2.165   4.080 -0.1818  0.5223  0.2252
 8946SOL     OW38470   1.074   2.397   5.328  0.4490  0.2263  0.2479
 8946SOL    HW138471   1.156   2.385   5.280  0.8585 -2.0405  1.5467
 8946SOL    HW238472   1.028   2.318   5.299  4.2959 -0.9515 -2.6486
 8947SOL     OW38473   4.353   1.808  13.340 -0.3154 -0.0338 -0.2451
 8947SOL    HW138474   4.327   1.716  13.341  0.0359 -0.1244  0.4900
 8947SOL    HW238475   4.395   1.825  13.255 -0.0692  3.0913  0.5354
 8948SOL     OW38476   1.196   0.609   4.380  0.0382  0.1817  0.4463
 8948SOL    HW138477   1.275   0.555   4.374  0.1527  0.4200 -0.2295
 8948SOL    HW238478   1.160   0.602   4.292  1.4665  1.2216 -0.2171
 8949SOL     OW38479   1.407   0.002  11.925 -0.4653  0.5021  0.3863
 8949SOL    HW138480   1.424   4.655  11.885  1.5403  0.0513  2.2652
 8949SOL    HW238481   1.373   0.048  11.847  0.1793  0.4963  0.1041
 8950SOL     OW38482   2.010   0.141   4.665 -0.2415 -0.1271  0.0972
 8950SOL    HW138483   2.063   0.198   4.610  0.0815  0.9002  1.4611
 8950SOL    HW238484   1.959   0.084   4.608  3.2492 -0.2143 -2.9470
 8951SOL     OW38485   1.083   0.566   5.677  0.3915 -0.6249  0.2999
 8951SOL    HW138486   1.065   0.630   5.746 -1.5021 -0.7929 -0.0410
 8951SOL    HW238487   1.089   0.495   5.741  0.8470 -0.9259 -0.0740
 8952SOL     OW38488   3.989   2.169  17.423 -0.0700 -0.3716  0.6303
 8952SOL    HW138489   4.022   2.147  17.511 -0.0881  1.8001  1.1824
 8952SOL    HW238490   3.951   2.255  17.439  1.9786  1.3110 -3.6331
 8953SOL     OW38491   2.326   0.956   3.944  0.1836  0.0547 -0.3189
 8953SOL    HW138492   2.392   0.945   3.876  2.5817  1.3462  1.8031
 8953SOL    HW238493   2.305   0.866   3.969  3.2203 -0.3456  0.7977
 8954SOL     OW38494   2.490   3.463   4.084  0.4361  0.4093  0.2977
 8954SOL    HW138495   2.525   3.491   4.168  2.1524 -1.3553  0.1629
 8954SOL    HW238496   2.568   3.426   4.043 -0.3817 -2.4671  1.3623
 8955SOL     OW38497   4.190   3.208  13.126  0.1351 -0.0934  0.4622
 8955SOL    HW138498   4.097   3.218  13.147 -0.1051  1.7704 -1.4352
 8955SOL    HW238499   4.229   3.276  13.181  2.1172 -0.0849 -0.9532
 8956SOL     OW38500   4.532   0.599  13.889 -0.5915 -0.8341  0.1822
 8956SOL    HW138501   4.504   0.580  13.799  1.5082  0.7058 -0.8099
 8956SOL    HW238502   4.449   0.587  13.936  0.3625 -0.6429  1.8744
 8957SOL     OW38503   2.521   4.380   3.988 -0.1357 -0.3249 -0.2746
 8957SOL    HW138504   2.491   4.463   4.025  3.6791 -0.0856  2.1874
 8957SOL    HW238505   2.517   4.408   3.896 -0.4340 -0.6835 -0.3722
 8958SOL     OW38506   2.266   4.509   5.010 -0.9820 -0.0268  0.2928
 8958SOL    HW138507   2.193   4.484   4.954 -2.4665  0.1934  2.1288
 8958SOL    HW238508   2.212   4.543   5.081  1.0063 -0.1704  1.8995
 8959SOL     OW38509   1.357   1.342   1.195  0.3154  0.9446  0.0748
 8959SOL    HW138510   1.336   1.350   1.102  0.5166 -0.3303 -0.0849
 8959SOL    HW238511   1.282   1.295   1.232  0.5601  0.3063 -0.2494
 8960SOL     OW38512   0.181   1.225   8.255 -0.4062 -0.6930  0.5754
 8960SOL    HW138513   0.239   1.167   8.305  0.9427 -0.7441 -1.0944
 8960SOL    HW238514   0.178   1.185   8.168  3.2328 -0.4713  0.3659
 8961SOL     OW38515   0.002   2.036   8.461 -0.2256 -0.2102 -0.0852
 8961SOL    HW138516   0.060   1.967   8.496  0.2821  0.1251 -0.2728
 8961SOL    HW238517   4.682   1.981   8.409 -1.2004 -0.3917  1.1688
 8962SOL     OW38518   1.966   3.531   9.309  0.2002  0.3716  0.2624
 8962SOL    HW138519   2.016   3.451   9.292  0.6272  0.2923  1.8942
 8962SOL    HW238520   1.923   3.501   9.389 -0.6264  2.1591  0.4810
 8963SOL     OW38521   0.494   4.610   1.395  0.0430  0.0353  0.0151
 8963SOL    HW138522   0.400   4.592   1.398  0.5857 -2.5999  1.4923
 8963SOL    HW238523   0.516   4.645   1.482  1.2011 -3.1726  1.0128
 8964SOL     OW38524   4.128   2.938   1.771  0.6508  0.2592 -0.0216
 8964SOL    HW138525   4.179   3.003   1.723  2.0596 -0.6422  0.2614
 8964SOL    HW238526   4.100   2.987   1.847 -1.5594 -0.7429 -0.1833
 8965SOL     OW38527   0.368   2.427  16.130  0.0779 -0.0313  0.1025
 8965SOL    HW138528   0.360   2.517  16.099 -2.3116 -0.6961 -1.2360
 8965SOL    HW238529   0.328   2.438  16.217  0.5736  1.6994  0.1225
 8966SOL     OW38530   4.343   1.245   2.102 -0.4549  0.1398  0.0201
 8966SOL    HW138531   4.400   1.290   2.164  2.4978 -1.4663 -1.5341
 8966SOL    HW238532   4.328   1.318   2.041  0.7075  1.3330  1.1814
 8967SOL     OW38533   4.180   2.588  17.507  0.2420 -0.0671 -0.8676
 8967SOL    HW138534   4.106   2.649  17.502  0.2988  0.2926  3.2780
 8967SOL    HW238535   4.230   2.614  17.584 -1.8179 -0.6342  0.6485
 8968SOL     OW38536   0.453   2.166  11.977  0.4958  0.6118 -0.1605
 8968SOL    HW138537   0.426   2.115  11.900  1.1327 -1.3457  0.9181
 8968SOL    HW238538   0.505   2.100  12.024  1.1051  0.9980 -0.2880
 8969SOL     OW38539   3.212   2.678   6.586  0.2351  0.3724  0.0646
 8969SOL    HW138540   3.129   2.725   6.578 -0.1472 -0.0309  1.6397
 8969SOL    HW238541   3.231   2.652   6.496  0.0716  2.0534 -0.4577
 8970SOL     OW38542   4.106   0.169   8.554  0.5306  0.4553 -0.4669
 8970SOL    HW138543   4.028   0.222   8.572  0.1042 -0.5333  0.5843
 8970SOL    HW238544   4.061   0.102   8.503  2.2581 -0.6211 -0.5517
 8971SOL     OW38545   3.449   1.724   3.011 -0.4500 -0.1717 -0.9123
 8971SOL    HW138546   3.507   1.796   3.033  1.1197 -1.2944 -1.3455
 8971SOL    HW238547   3.492   1.651   3.057 -0.0496  1.0158  0.6079
 8972SOL     OW38548   0.961   0.400   5.442 -0.1742 -0.4893 -0.2345
 8972SOL    HW138549   0.939   0.418   5.351 -0.3827  2.3254  0.3580
 8972SOL    HW238550   1.056   0.388   5.433 -0.0199  1.5737 -1.3551
 8973SOL     OW38551   3.009   2.642  17.065  0.4829 -0.0269  0.4903
 8973SOL    HW138552   2.990   2.564  17.012 -0.9274  0.0256  0.9364
 8973SOL    HW238553   3.029   2.607  17.152  0.6804 -1.2486 -0.0450
 8974SOL     OW38554   2.757   4.542   8.925 -0.3223 -0.1145  0.0904
 8974SOL    HW138555   2.769   4.609   8.992  0.4419 -1.1573  0.9929
 8974SOL    HW238556   2.840   4.495   8.925 -0.9694 -1.2443  0.1390
 8975SOL     OW38557   1.407   1.300   6.488  0.3888 -0.5705 -0.0437
 8975SOL    HW138558   1.339   1.339   6.433  0.3540 -0.2020  0.2570
 8975SOL    HW238559   1.365   1.296   6.575 -0.5785 -0.2611 -0.4966
 8976SOL     OW38560   1.826   4.466  17.733 -0.4691 -0.0936  0.0809
 8976SOL    HW138561   1.741   4.479   0.025 -0.2270  0.0564  0.5259
 8976SOL    HW238562   1.876   4.454   0.064 -1.9419 -0.6980  0.9175
 8977SOL     OW38563   0.459   3.872   9.227  0.6165 -0.1587 -0.0078
 8977SOL    HW138564   0.461   3.890   9.321 -1.9544 -4.3575  0.8075
 8977SOL    HW238565   0.498   3.785   9.227 -0.8645 -0.8144 -0.1513
 8978SOL     OW38566   4.643   1.814   6.736  0.6221  0.1324 -0.0109
 8978SOL    HW138567   4.653   1.743   6.672  1.9201 -0.7939  1.2175
 8978SOL    HW238568   4.551   1.803   6.762  1.1989 -2.2060  1.1165
 8979SOL     OW38569   1.123   0.356   5.881  0.0830 -0.1259 -0.1474
 8979SOL    HW138570   1.053   0.292   5.875  1.2492 -1.5964  1.6523
 8979SOL    HW238571   1.149   0.367   5.973 -1.5107 -0.1025  0.2964
 8980SOL     OW38572   2.502   2.876   5.732 -0.1791 -0.0444 -0.1282
 8980SOL    HW138573   2.415   2.913   5.724  0.2649  1.0217  0.0078
 8980SOL    HW238574   2.496   2.835   5.818 -0.3349 -0.3313 -0.2758
 8981SOL     OW38575   0.029   1.411   4.203  0.1627 -0.0917  0.0425
 8981SOL    HW138576   0.058   1.431   4.114  0.1380 -0.5477 -0.0679
 8981SOL    HW238577   4.674   1.394   4.189  0.2812 -0.6808 -0.0436
 8982SOL     OW38578   4.359   0.903   3.756  0.1949  0.3668  0.2395
 8982SOL    HW138579   4.438   0.850   3.761 -0.3648 -0.7463 -2.5187
 8982SOL    HW238580   4.318   0.854   3.684  0.3922 -0.4083  0.6598
 8983SOL     OW38581   2.255   1.552   3.549  0.3372 -0.0950  0.0344
 8983SOL    HW138582   2.224   1.546   3.458  0.9047 -1.4955 -0.0598
 8983SOL    HW238583   2.320   1.622   3.543 -2.2810  2.3432 -0.2830
 8984SOL     OW38584   1.291   1.381  11.444  0.2985  0.5878  0.5631
 8984SOL    HW138585   1.270   1.351  11.533 -2.2795 -1.1255 -0.6147
 8984SOL    HW238586   1.368   1.331  11.417 -0.6649 -1.2428  1.1832
 8985SOL     OW38587   1.936   1.669   5.883  0.0294  0.1766  0.3457
 8985SOL    HW138588   1.920   1.584   5.841 -0.5881  0.5419 -0.1383
 8985SOL    HW238589   1.968   1.724   5.812  1.2852  1.7605  2.1410
 8986SOL     OW38590   1.087   1.411   8.728  0.0111 -0.5149 -0.1046
 8986SOL    HW138591   1.107   1.332   8.777 -0.3930  0.3037  1.3814
 8986SOL    HW238592   1.031   1.455   8.792  0.1703  0.5185 -0.6786
 8987SOL     OW38593   0.318   2.784  15.503  0.4204 -0.0457 -0.7409
 8987SOL    HW138594   0.352   2.710  15.552  1.4862  1.1199  0.2918
 8987SOL    HW238595   0.395   2.799  15.447  0.2101  0.7288 -0.8212
 8988SOL     OW38596   0.295   1.648   8.016  0.3296  0.4049  0.5638
 8988SOL    HW138597   0.294   1.619   8.107  0.5348  0.9573  0.7444
 8988SOL    HW238598   0.204   1.671   7.998  0.1037 -0.0176  1.1511
 8989SOL     OW38599   3.458   3.110   0.047  0.2416  0.1634 -0.4741
 8989SOL    HW138600   3.374   3.077   0.078 -0.8357  2.8290 -0.5386
 8989SOL    HW238601   3.453   3.104  17.702  2.6802 -2.2449 -0.4528
 8990SOL     OW38602   0.598   2.998  13.300  0.1778 -0.2668 -0.2970
 8990SOL    HW138603   0.611   2.972  13.209  0.9803 -0.2409 -0.1926
 8990SOL    HW238604   0.584   2.914  13.345 -2.0195 -0.0733 -0.6173
 8991SOL     OW38605   3.767   1.263   9.751  0.0195 -0.4162 -0.1624
 8991SOL    HW138606   3.674   1.242   9.752 -0.1527  0.4639  3.3771
 8991SOL    HW238607   3.806   1.177   9.737  1.9680  0.3727  0.3971
 8992SOL     OW38608   3.395   1.505   2.824 -0.7566 -0.4671 -0.4983
 8992SOL    HW138609   3.303   1.486   2.843 -0.9429  2.1608  1.2163
 8992SOL    HW238610   3.413   1.579   2.881 -1.1427 -0.5438 -0.2735
 8993SOL     OW38611   2.244   0.970   7.874 -0.4500  0.0789 -0.3788
 8993SOL    HW138612   2.278   0.902   7.816  0.3525  0.9996 -0.9815
 8993SOL    HW238613   2.149   0.959   7.877 -0.4528  0.7818  1.8111
 8994SOL     OW38614   4.538   2.099   4.264 -0.5561  0.0624  0.4496
 8994SOL    HW138615   4.536   2.004   4.274 -0.1373 -0.0891 -0.9390
 8994SOL    HW238616   4.465   2.131   4.317  0.3618 -0.5860  2.1138
 8995SOL     OW38617   2.080   3.983  17.014 -0.5607 -0.3666  0.3610
 8995SOL    HW138618   2.156   4.042  17.021  0.5645 -1.6697 -0.9529
 8995SOL    HW238619   2.095   3.959  16.923  3.4712  2.1208  0.3428
 8996SOL     OW38620   3.880   1.686   1.620 -0.0285 -0.1759 -0.0771
 8996SOL    HW138621   3.788   1.664   1.607 -0.5328  0.7822  1.8319
 8996SOL    HW238622   3.927   1.604   1.607 -0.8873 -0.0770 -3.7962
 8997SOL     OW38623   1.632   0.155   7.059 -0.4394  0.3013 -0.0010
 8997SOL    HW138624   1.577   0.081   7.084  1.3782 -1.4695 -1.2451
 8997SOL    HW238625   1.588   0.177   6.977  1.2130  2.3494 -0.3423
 8998SOL     OW38626   0.685   4.515   6.990  0.4497  0.1237  0.0128
 8998SOL    HW138627   0.659   4.539   7.079  1.0686 -0.3843  0.3264
 8998SOL    HW238628   0.613   4.559   6.944  0.4936 -0.9766 -1.0937
 8999SOL     OW38629   3.037   1.787   8.013  0.5584  0.1651 -0.2395
 8999SOL    HW138630   3.081   1.764   7.931  1.5453 -2.2475  0.9613
 8999SOL    HW238631   2.946   1.766   7.989  0.5558 -0.2983  0.1702
 9000SOL     OW38632   3.580   3.464  13.048  0.2694  0.4627  0.1245
 9000SOL    HW138633   3.512   3.532  13.045 -1.2992 -1.1588 -0.8629
 9000SOL    HW238634   3.660   3.514  13.062  1.0562 -0.7512 -0.0381
 9001SOL     OW38635   1.968   2.631   8.723  0.2286 -0.7193 -0.3263
 9001SOL    HW138636   1.923   2.620   8.807 -0.7597  2.5870 -0.4261
 9001SOL    HW238637   1.910   2.580   8.666  1.4472 -0.8070 -1.4888
 9002SOL     OW38638   2.882   0.107  16.044 -0.3635  0.8819  0.7525
 9002SOL    HW138639   2.867   0.028  16.096 -3.0587  0.4952 -0.6265
 9002SOL    HW238640   2.959   0.083  15.993 -0.4961 -1.2450  1.5627
 9003SOL     OW38641   3.357   2.898   9.286 -0.1136 -0.0578  0.0948
 9003SOL    HW138642   3.449   2.877   9.302  0.4767  1.9361 -0.6293
 9003SOL    HW238643   3.319   2.881   9.372  1.1189 -2.6028  0.1480
 9004SOL     OW38644   2.398   3.511  15.506 -0.2158 -0.1278 -0.3963
 9004SOL    HW138645   2.371   3.463  15.584  1.9919 -0.1156  0.3778
 9004SOL    HW238646   2.395   3.602  15.537  0.1460 -0.5817  0.9675
 9005SOL     OW38647   1.701   0.730   6.633  0.3068  0.2035  0.0266
 9005SOL    HW138648   1.639   0.700   6.699  0.8947 -1.7019 -0.2743
 9005SOL    HW238649   1.746   0.807   6.668  1.1081 -0.7912  1.2025
 9006SOL     OW38650   3.415   2.815   7.408  0.1206 -0.4704 -0.4323
 9006SOL    HW138651   3.357   2.834   7.335 -1.4912 -0.0386  0.9656
 9006SOL    HW238652   3.466   2.895   7.412 -0.4851 -0.1981  1.9363
 9007SOL     OW38653   0.648   1.226   2.334 -0.4321  0.1973 -0.2308
 9007SOL    HW138654   0.602   1.155   2.378 -1.2765 -0.6535 -2.4643
 9007SOL    HW238655   0.577   1.290   2.330 -1.9371 -1.5363 -1.5776
 9008SOL     OW38656   2.790   0.836   8.703 -0.0813  0.4039 -0.0360
 9008SOL    HW138657   2.869   0.807   8.656  1.1277  1.5720  1.2683
 9008SOL    HW238658   2.728   0.780   8.657  0.2355  0.9906 -1.2141
 9009SOL     OW38659   1.730   1.873  15.787 -1.0153 -0.1895  0.1578
 9009SOL    HW138660   1.773   1.831  15.861 -2.9591 -2.2684  0.1096
 9009SOL    HW238661   1.700   1.804  15.728 -2.0012  0.4860 -0.1428
 9010SOL     OW38662   2.606   0.344   7.903  0.5504 -0.2356  0.1629
 9010SOL    HW138663   2.568   0.430   7.924  3.1617  0.3292  2.5332
 9010SOL    HW238664   2.698   0.360   7.884  0.1471  0.7015 -1.0732
 9011SOL     OW38665   3.203   3.071  12.969  0.3107  0.0364 -0.4037
 9011SOL    HW138666   3.181   3.161  12.948  3.0492  0.3778 -1.8043
 9011SOL    HW238667   3.295   3.075  12.996 -0.2024 -1.4094  1.5972
 9012SOL     OW38668   0.767   0.927   0.904  0.7039  0.0640 -0.1262
 9012SOL    HW138669   0.841   0.879   0.866  0.4898  0.8602 -1.5296
 9012SOL    HW238670   0.693   0.897   0.851 -1.0022  1.3107  1.5184
 9013SOL     OW38671   0.679   4.644   5.602  0.1737 -0.7476 -0.1976
 9013SOL    HW138672   0.738   4.571   5.620  0.2902 -0.7448 -0.5847
 9013SOL    HW238673   0.731   4.693   5.538  0.9393  0.3293  1.2234
 9014SOL     OW38674   4.507   3.235   4.412 -0.1101  0.1774 -0.0014
 9014SOL    HW138675   4.531   3.327   4.407 -0.9262  0.3126 -1.4146
 9014SOL    HW238676   4.592   3.191   4.422  0.0313  0.5402  0.4001
 9015SOL     OW38677   3.801   3.482  13.601  0.1089  0.0008 -0.2812
 9015SOL    HW138678   3.759   3.565  13.577 -0.9278 -0.3281  0.4263
 9015SOL    HW238679   3.870   3.474  13.534 -1.4144  0.7445 -1.9343
 9016SOL     OW38680   2.413   4.217   6.539  0.2375  0.2235  0.2244
 9016SOL    HW138681   2.494   4.208   6.589  0.1075  0.1704  0.4232
 9016SOL    HW238682   2.408   4.311   6.523  1.6811  0.1869 -0.5180
 9017SOL     OW38683   0.095   0.419   8.319  0.4106 -0.1925  0.5174
 9017SOL    HW138684   0.008   0.418   8.279  0.6637 -4.6342 -0.0110
 9017SOL    HW238685   0.124   0.499   8.275 -1.3602 -0.1191 -0.5213
 9018SOL     OW38686   2.170   0.616   1.596 -0.5572  0.5046  0.0999
 9018SOL    HW138687   2.162   0.711   1.597  0.2657  0.5728  0.0309
 9018SOL    HW238688   2.249   0.598   1.646  0.1035 -1.6666 -1.7178
 9019SOL     OW38689   1.521   4.403  16.427 -0.5896  0.1937 -0.0456
 9019SOL    HW138690   1.561   4.448  16.353  1.9581 -0.3453  1.0281
 9019SOL    HW238691   1.532   4.323  16.377 -1.1886 -0.3475  0.6843
 9020SOL     OW38692   3.122   4.156  16.820 -0.0781  0.4774  0.0030
 9020SOL    HW138693   3.140   4.247  16.800  1.3650  0.4445  1.1474
 9020SOL    HW238694   3.133   4.151  16.915 -1.2935 -0.8606  0.0812
 9021SOL     OW38695   0.162   4.411   5.124  0.2769  0.3232  0.9718
 9021SOL    HW138696   0.170   4.504   5.105 -0.8777  0.3373  0.5546
 9021SOL    HW238697   0.241   4.381   5.169  0.5620  0.4107  0.5286
 9022SOL     OW38698   1.327   0.954   2.699 -0.9036 -0.6083 -1.0325
 9022SOL    HW138699   1.329   0.987   2.789 -1.5581  0.0232 -1.2542
 9022SOL    HW238700   1.300   1.030   2.649 -0.3994  0.1214 -0.1970
 9023SOL     OW38701   2.602   4.155   5.910 -0.2564  0.3702 -0.5505
 9023SOL    HW138702   2.689   4.130   5.878 -0.3364 -0.0332 -0.4595
 9023SOL    HW238703   2.615   4.153   6.004  1.3875 -2.5726 -0.8292
 9024SOL     OW38704   2.361   4.551   0.562  0.0783 -0.5781  0.3088
 9024SOL    HW138705   2.313   4.590   0.489 -0.0823  2.4189  2.0264
 9024SOL    HW238706   2.451   4.578   0.549  0.2691 -1.7362 -0.8656
 9025SOL     OW38707   1.419   0.739   0.525 -0.0909 -0.9778 -0.1308
 9025SOL    HW138708   1.342   0.736   0.468 -2.3962  1.9704  2.8887
 9025SOL    HW238709   1.487   0.782   0.473 -0.9808  0.2365 -0.2958
 9026SOL     OW38710   0.397   3.492   1.914 -0.6155 -0.2432 -0.2765
 9026SOL    HW138711   0.398   3.486   2.010  1.2266  0.6052 -0.2596
 9026SOL    HW238712   0.303   3.475   1.907 -0.6376  0.6756 -2.0449
 9027SOL     OW38713   3.222   2.011   8.674 -0.6622  0.1426  0.2760
 9027SOL    HW138714   3.216   2.032   8.581 -1.2179 -0.4964  0.1705
 9027SOL    HW238715   3.229   1.916   8.663  0.5673  0.5173 -2.2876
 9028SOL     OW38716   1.261   1.127   7.998 -0.0822 -0.2201 -0.3514
 9028SOL    HW138717   1.209   1.058   8.041 -0.4296  0.3597  0.1616
 9028SOL    HW238718   1.194   1.179   7.955 -0.5305  0.3641  1.0658
 9029SOL     OW38719   1.429   0.820   5.769 -0.7242 -0.0049 -0.8331
 9029SOL    HW138720   1.379   0.804   5.689  0.7118 -0.2996 -1.6626
 9029SOL    HW238721   1.452   0.730   5.792  2.8673  0.9172 -0.8840
 9030SOL     OW38722   1.447   3.620  10.577  0.0124  0.3940  0.3679
 9030SOL    HW138723   1.385   3.675  10.529 -1.3173 -1.3469  0.1054
 9030SOL    HW238724   1.407   3.592  10.659  2.8859 -1.8471  1.0133
 9031SOL     OW38725   3.866   1.453   2.702  0.9116 -0.0613 -0.3114
 9031SOL    HW138726   3.874   1.536   2.750 -1.2896  1.0968 -1.9306
 9031SOL    HW238727   3.796   1.411   2.752  0.8926 -0.5232 -0.7329
 9032SOL     OW38728   1.087   0.291   9.089  0.2550  0.6308 -0.2775
 9032SOL    HW138729   1.031   0.225   9.049 -0.2586  0.2778  1.0048
 9032SOL    HW238730   1.028   0.367   9.094  0.5633  0.8799 -0.4340
 9033SOL     OW38731   4.395   1.634   8.530  0.1671 -0.2482 -0.1883
 9033SOL    HW138732   4.479   1.621   8.486 -1.3795  0.2585 -3.2689
 9033SOL    HW238733   4.333   1.672   8.468  0.6734 -1.3291 -1.3493
 9034SOL     OW38734   2.023   0.197   2.412  0.4908 -0.4151  0.4245
 9034SOL    HW138735   1.991   0.184   2.501 -3.1962 -0.1967 -0.8982
 9034SOL    HW238736   2.021   0.292   2.413 -0.5231 -0.4100 -1.6034
 9035SOL     OW38737   4.078   0.268   6.344  0.4342  0.7732 -0.3425
 9035SOL    HW138738   4.133   0.274   6.422  1.7731 -0.9647 -1.1405
 9035SOL    HW238739   3.993   0.263   6.387  1.6521 -1.6711  1.7691
 9036SOL     OW38740   2.874   4.665   5.158 -0.5097  0.2098 -0.5973
 9036SOL    HW138741   2.925   4.702   5.230  0.6914 -2.0153 -0.3018
 9036SOL    HW238742   2.935   4.657   5.085  0.4310 -0.7099  0.2970
 9037SOL     OW38743   4.187   0.681   4.658 -0.3212  0.1199 -0.3252
 9037SOL    HW138744   4.278   0.650   4.652 -0.4166 -0.1382 -0.4275
 9037SOL    HW238745   4.204   0.766   4.619 -1.8345  0.4262 -0.3017
 9038SOL     OW38746   1.974   1.092  17.052  0.4590  0.1797 -0.9370
 9038SOL    HW138747   1.942   1.182  17.046  1.2690  0.5676  0.4424
 9038SOL    HW238748   1.972   1.064  16.961  0.8394  1.6906 -1.4081
 9039SOL     OW38749   1.281   1.910   7.612 -0.0580  0.0705 -0.1528
 9039SOL    HW138750   1.295   1.968   7.537  1.9839 -0.4081 -0.1404
 9039SOL    HW238751   1.319   1.961   7.683  0.1452  0.3018 -0.4271
 9040SOL     OW38752   1.465   0.889   6.322  0.2517 -0.4967  0.5873
 9040SOL    HW138753   1.425   0.898   6.236  0.4605  0.6772  0.6201
 9040SOL    HW238754   1.394   0.852   6.375 -1.1697  0.4904 -0.6172
 9041SOL     OW38755   4.446   0.548   5.223  0.7963  0.5314  0.3842
 9041SOL    HW138756   4.385   0.492   5.175 -1.5653  1.2176  2.5464
 9041SOL    HW238757   4.458   0.498   5.304 -2.2485 -0.1309  0.4200
 9042SOL     OW38758   1.203   2.014   9.575 -0.1663  0.2386 -0.6821
 9042SOL    HW138759   1.153   1.953   9.629  2.0370 -0.0628  0.9928
 9042SOL    HW238760   1.264   1.955   9.532 -1.2420 -1.5772  0.3130
 9043SOL     OW38761   2.615   3.112   4.806 -0.5450 -0.7069  0.1548
 9043SOL    HW138762   2.604   3.025   4.769 -0.1627  0.7109 -3.2528
 9043SOL    HW238763   2.698   3.110   4.855  1.3764 -2.1835 -3.1420
 9044SOL     OW38764   0.998   3.875   9.570 -0.2659 -0.0989  0.0105
 9044SOL    HW138765   0.954   3.795   9.597  0.9733 -0.6725  0.3568
 9044SOL    HW238766   1.087   3.846   9.551 -0.7038 -1.5023  0.1422
 9045SOL     OW38767   2.156   2.155   8.178 -0.2625  0.2785 -0.1805
 9045SOL    HW138768   2.103   2.079   8.153  0.9491 -0.7329  0.3409
 9045SOL    HW238769   2.230   2.138   8.119  0.7889 -0.2252  1.2883
 9046SOL     OW38770   4.497   0.548   3.926 -0.4553  0.4950 -0.0784
 9046SOL    HW138771   4.499   0.529   4.020  0.3694  0.8681 -0.0212
 9046SOL    HW238772   4.535   0.635   3.926  0.6351  0.0266  0.5388
 9047SOL     OW38773   3.937   3.210  13.189  0.0546  0.2761 -0.2412
 9047SOL    HW138774   3.859   3.252  13.226  0.5436  0.7872  0.2063
 9047SOL    HW238775   3.908   3.119  13.185 -0.7824  0.5314 -0.0389
 9048SOL     OW38776   3.075   3.751  11.038 -0.1793  0.2971  0.6166
 9048SOL    HW138777   3.038   3.678  10.988 -0.9154  0.2067  1.2866
 9048SOL    HW238778   3.119   3.697  11.103 -1.9442 -2.3963 -0.4255
 9049SOL     OW38779   0.272   1.120   3.908  0.4718  0.2883 -0.8510
 9049SOL    HW138780   0.349   1.168   3.879  1.6078 -1.2544 -0.3778
 9049SOL    HW238781   0.217   1.152   3.836 -3.3818  0.4305  2.1525
 9050SOL     OW38782   4.547   1.478   1.858  0.2168  0.1858  0.0902
 9050SOL    HW138783   4.453   1.468   1.874 -0.1878 -0.3272 -2.5295
 9050SOL    HW238784   4.529   1.545   1.792 -2.3697 -1.0335 -0.4420
 9051SOL     OW38785   1.651   0.821  15.290  0.5934 -0.9187  0.4814
 9051SOL    HW138786   1.573   0.769  15.312 -0.0758  0.2278  0.7942
 9051SOL    HW238787   1.704   0.783  15.360  0.1438 -3.5906 -0.6379
 9052SOL     OW38788   1.531   0.240   8.118 -0.3820 -0.0964  0.1945
 9052SOL    HW138789   1.615   0.194   8.126  1.0406  2.5201  0.2199
 9052SOL    HW238790   1.555   0.331   8.135  2.9350 -1.0267  0.4809
 9053SOL     OW38791   1.732   1.300  11.541  0.0287 -0.0646 -0.1974
 9053SOL    HW138792   1.650   1.336  11.505 -0.0257 -0.9000 -0.9029
 9053SOL    HW238793   1.725   1.314  11.635  1.3343 -1.4253  0.0856
 9054SOL     OW38794   2.304   0.238   1.572  0.2095 -0.3267 -0.0553
 9054SOL    HW138795   2.283   0.256   1.480 -0.3962  1.5368  0.4560
 9054SOL    HW238796   2.398   0.255   1.578  0.1942 -0.3733  0.2911
 9055SOL     OW38797   1.417   0.276   8.457 -0.6120  0.2791 -0.7237
 9055SOL    HW138798   1.373   0.241   8.534  1.5072  2.3062  1.4225
 9055SOL    HW238799   1.473   0.338   8.504 -0.6095  0.6151 -1.1706
 9056SOL     OW38800   1.694   1.268  11.832  0.1449 -0.1710  0.0440
 9056SOL    HW138801   1.769   1.326  11.840  0.5566 -0.3670 -2.5000
 9056SOL    HW238802   1.751   1.192  11.842  1.8535  1.3081  1.7248
 9057SOL     OW38803   2.673   0.494  12.375  0.2740 -0.0206 -0.2872
 9057SOL    HW138804   2.596   0.533  12.335  1.7259  0.5200 -2.5095
 9057SOL    HW238805   2.624   0.437  12.435  0.2307  2.6754  2.2552
 9058SOL     OW38806   1.733   0.078  17.118  0.4470  0.1562 -0.5064
 9058SOL    HW138807   1.779   0.046  17.195 -1.4943 -0.2628  0.5000
 9058SOL    HW238808   1.786   0.040  17.048  1.2148  0.3695 -0.0411
 9059SOL     OW38809   1.491   2.339  15.776  0.2860  0.3186 -0.1700
 9059SOL    HW138810   1.422   2.305  15.719 -0.3935  2.1203 -0.4031
 9059SOL    HW238811   1.556   2.268  15.781  0.0491  0.0850 -0.3896
 9060SOL     OW38812   3.386   4.343   8.701  0.5721  0.0843 -0.8607
 9060SOL    HW138813   3.462   4.339   8.643  0.0048 -2.2714 -1.4478
 9060SOL    HW238814   3.397   4.270   8.761 -0.2707  1.2058  0.6668
 9061SOL     OW38815   4.357   1.199   4.051  0.2075 -0.3211 -0.2652
 9061SOL    HW138816   4.335   1.198   3.957 -1.2148 -2.2614  0.0857
 9061SOL    HW238817   4.434   1.143   4.040  2.4726  3.1486 -1.8737
 9062SOL     OW38818   3.514   1.659  12.441  0.2006  0.1451 -0.6323
 9062SOL    HW138819   3.492   1.586  12.383 -2.2759 -1.0972  1.8865
 9062SOL    HW238820   3.609   1.665  12.428  0.4643 -1.7239  0.5117
 9063SOL     OW38821   3.956   0.439  11.783 -0.0934 -0.2296  0.5645
 9063SOL    HW138822   3.886   0.374  11.790 -1.7656  1.1102 -3.5523
 9063SOL    HW238823   4.027   0.376  11.784  1.5442  1.5914 -0.4533
 9064SOL     OW38824   3.595   2.515  15.761  0.0262 -0.7550 -0.2713
 9064SOL    HW138825   3.679   2.556  15.784  1.2657 -2.3821 -1.9008
 9064SOL    HW238826   3.601   2.506  15.666 -0.1626  1.0986 -0.4613
 9065SOL     OW38827   2.774   0.682   8.165  0.2583  0.2273  0.6182
 9065SOL    HW138828   2.728   0.598   8.170  0.5269  0.0389 -0.1672
 9065SOL    HW238829   2.753   0.713   8.077  0.8524  1.2786  0.8554
 9066SOL     OW38830   0.853   3.052   6.650 -0.3165  0.1120 -0.1763
 9066SOL    HW138831   0.946   3.045   6.674 -0.6743 -0.7047  0.9248
 9066SOL    HW238832   0.859   3.065   6.555  0.6961 -0.5007 -0.1999
 9067SOL     OW38833   1.220   0.198   1.045  0.6233 -0.3678  0.0985
 9067SOL    HW138834   1.222   0.203   0.949 -2.0997 -1.6902 -0.0419
 9067SOL    HW238835   1.312   0.183   1.068  0.8039  2.1998  0.9742
 9068SOL     OW38836   2.466   1.627   4.082 -0.0574 -0.3476 -0.5069
 9068SOL    HW138837   2.469   1.599   3.991 -2.1295  0.1919 -0.7208
 9068SOL    HW238838   2.546   1.680   4.090  0.2638 -0.6083 -1.9418
 9069SOL     OW38839   1.634   3.323  15.035 -0.5708  0.0085  0.3798
 9069SOL    HW138840   1.649   3.330  14.940  0.6255  1.9211  0.7127
 9069SOL    HW238841   1.703   3.377  15.074 -0.2910 -0.0219 -0.0666
 9070SOL     OW38842   1.116   4.689   7.066  0.1222  0.1157 -0.0345
 9070SOL    HW138843   1.089   4.738   7.145  0.1685  0.4183 -0.2051
 9070SOL    HW238844   1.182   4.630   7.102  0.2299 -0.4150 -1.1330
 9071SOL     OW38845   4.553   1.098   0.556  0.5185 -0.4305 -0.4628
 9071SOL    HW138846   4.507   1.025   0.515 -0.2892  0.4008 -1.0282
 9071SOL    HW238847   4.542   1.167   0.491  0.0668  0.0041  0.0658
 9072SOL     OW38848   3.884   1.949  13.298  0.1331  0.5785 -0.5660
 9072SOL    HW138849   3.866   1.855  13.294  1.0823  0.4004 -0.8538
 9072SOL    HW238850   3.878   1.950  13.393 -0.3080 -0.6050 -0.5801
 9073SOL     OW38851   0.030   1.374   6.041 -0.2701 -0.1961  0.1458
 9073SOL    HW138852   0.064   1.328   6.118 -0.9651  0.6061  0.9359
 9073SOL    HW238853   0.023   1.462   6.078 -2.7296 -0.3892  0.1750
 9074SOL     OW38854   1.905   2.173   8.836  0.4067  0.5897  0.5236
 9074SOL    HW138855   1.893   2.078   8.848 -0.8474  0.5142 -1.4116
 9074SOL    HW238856   1.856   2.195   8.756 -0.0294 -0.6990  0.4238
 9075SOL     OW38857   0.875   3.666   7.126 -0.2721  0.1167  0.1477
 9075SOL    HW138858   0.907   3.642   7.213  2.0142  2.4893 -0.0620
 9075SOL    HW238859   0.824   3.587   7.106  0.1283  0.0988 -0.7868
 9076SOL     OW38860   4.123   1.195   7.738  0.1970 -0.0920  0.2478
 9076SOL    HW138861   4.181   1.122   7.719  0.9157  0.3810  0.6050
 9076SOL    HW238862   4.083   1.206   7.652  1.2761 -0.8853 -0.3551
 9077SOL     OW38863   4.365   3.517   9.172 -0.6099  0.6326  0.0685
 9077SOL    HW138864   4.281   3.481   9.201 -0.6738 -0.3708 -1.3703
 9077SOL    HW238865   4.401   3.452   9.113  1.3853  0.2600  1.7206
 9078SOL     OW38866   0.851   1.809  15.538  0.1235 -0.2132 -0.5860
 9078SOL    HW138867   0.875   1.774  15.624 -2.5001 -1.5245 -0.4012
 9078SOL    HW238868   0.892   1.745  15.480  1.0639 -0.6707  0.5636
 9079SOL     OW38869   2.053   4.242  10.927 -0.7054  0.1353  0.4624
 9079SOL    HW138870   2.054   4.147  10.919 -3.3896  0.0498  0.7978
 9079SOL    HW238871   2.098   4.245  11.011 -0.7171  1.2448  0.4241
 9080SOL     OW38872   1.230   1.442   7.259 -0.2566  0.1093  0.0331
 9080SOL    HW138873   1.135   1.435   7.243 -0.7928  1.2454  2.6297
 9080SOL    HW238874   1.256   1.446   7.167 -0.0039  0.7495  0.1329
 9081SOL     OW38875   3.653   0.953   3.278  0.0288 -0.9266 -0.0375
 9081SOL    HW138876   3.656   0.859   3.263 -1.4144 -1.5192  3.4329
 9081SOL    HW238877   3.571   0.975   3.233 -0.1644 -1.1637  0.2014
 9082SOL     OW38878   1.941   3.116   7.449 -0.2729  0.0848 -0.4719
 9082SOL    HW138879   1.991   3.169   7.386  3.2660 -1.2318  1.2310
 9082SOL    HW238880   1.973   3.156   7.530  2.8754 -1.2028 -1.0397
 9083SOL     OW38881   3.880   1.990   8.718  0.0852  0.1846  0.8644
 9083SOL    HW138882   3.890   2.000   8.623 -0.1353 -0.6239  0.7537
 9083SOL    HW238883   3.962   2.032   8.742 -0.9424  1.9719  1.2487
 9084SOL     OW38884   4.670   3.428   4.255 -0.3612  0.0515  0.1948
 9084SOL    HW138885   4.703   3.505   4.209  0.6220 -1.2779 -1.3355
 9084SOL    HW238886   0.015   3.381   4.269 -1.3663 -1.4466  1.0992
 9085SOL     OW38887   1.109   3.463   2.631 -0.6010 -0.5805  0.2711
 9085SOL    HW138888   1.154   3.415   2.562 -0.8956  0.8763 -0.9294
 9085SOL    HW238889   1.159   3.425   2.703  1.0432 -1.5321 -1.3843
 9086SOL     OW38890   3.365   1.491   4.082 -0.1982  0.2124  0.6437
 9086SOL    HW138891   3.322   1.468   3.999 -1.0105  2.4558  0.4343
 9086SOL    HW238892   3.286   1.527   4.123  1.1080 -0.9440  4.1127
 9087SOL     OW38893   3.592   3.443   8.443 -0.1652  0.5881  0.3266
 9087SOL    HW138894   3.684   3.468   8.453  0.3205 -0.3309 -1.9202
 9087SOL    HW238895   3.555   3.495   8.372  0.3177 -0.4172 -0.6604
 9088SOL     OW38896   4.061   3.274   0.802  0.1655 -0.3147  0.4416
 9088SOL    HW138897   3.979   3.228   0.784 -0.6742  0.3775  2.5042
 9088SOL    HW238898   4.049   3.314   0.888 -0.4295 -0.0645  0.2463
 9089SOL     OW38899   1.833   2.840  17.467 -0.5202 -0.2103  0.3222
 9089SOL    HW138900   1.913   2.882  17.436 -0.0451 -0.8048  0.7559
 9089SOL    HW238901   1.775   2.839  17.392 -1.6372 -2.9790  1.2295
 9090SOL     OW38902   4.175   1.038   2.319 -0.5044  0.2163 -0.0131
 9090SOL    HW138903   4.255   1.004   2.278 -1.6697 -1.7444 -0.7026
 9090SOL    HW238904   4.113   1.047   2.247 -1.0794  1.5187  0.6606
 9091SOL     OW38905   2.097   2.482   5.357 -0.3117 -0.4795 -0.5314
 9091SOL    HW138906   2.084   2.426   5.434  0.2483  1.5310  1.0300
 9091SOL    HW238907   2.114   2.416   5.290  1.2032 -0.3940 -0.2184
 9092SOL     OW38908   1.031   1.449   6.018  0.2030 -0.2026 -0.0522
 9092SOL    HW138909   1.125   1.468   6.024  0.0529  1.2392 -2.2027
 9092SOL    HW238910   1.011   1.382   6.083 -0.9224 -1.9764 -2.2564
 9093SOL     OW38911   2.642   1.476   5.177 -0.0621 -0.1460  0.3380
 9093SOL    HW138912   2.567   1.448   5.229 -0.8087 -0.3930 -0.8726
 9093SOL    HW238913   2.710   1.482   5.245  1.2528 -1.1070 -0.8777
 9094SOL     OW38914   2.616   2.654   0.299 -0.2325 -0.2273  0.2364
 9094SOL    HW138915   2.565   2.655   0.380 -0.5468 -1.9605  0.0597
 9094SOL    HW238916   2.656   2.568   0.312  2.4514  1.1646  1.3116
 9095SOL     OW38917   4.007   4.235   3.316  0.1384  0.1911 -0.0016
 9095SOL    HW138918   3.950   4.305   3.285  0.3882  1.2335  1.9016
 9095SOL    HW238919   3.942   4.173   3.349 -0.3221 -0.9185 -3.0362
 9096SOL     OW38920   0.673   3.939   6.702  0.4557  0.0081 -0.3421
 9096SOL    HW138921   0.665   3.900   6.789  0.4560  2.7672  0.9227
 9096SOL    HW238922   0.760   3.979   6.712  0.2148  0.1393  1.2034
 9097SOL     OW38923   4.149   0.806  11.739  0.1531 -0.0126  0.3192
 9097SOL    HW138924   4.180   0.882  11.689  3.9900 -0.0215  2.6551
 9097SOL    HW238925   4.219   0.741  11.744  1.8439  1.7104 -0.4987
 9098SOL     OW38926   2.339   2.254  16.191  0.6723 -0.2816 -0.3981
 9098SOL    HW138927   2.390   2.289  16.264  0.9453 -1.1363 -0.1853
 9098SOL    HW238928   2.397   2.273  16.117  1.4628 -0.5222  0.1684
 9099SOL     OW38929   3.650   0.582   3.955  0.3808  0.1122 -0.3130
 9099SOL    HW138930   3.744   0.598   3.949  0.4395  0.8612  2.4226
 9099SOL    HW238931   3.649   0.517   4.026 -0.8009  1.5664  1.0315
 9100SOL     OW38932   1.787   4.625   2.667 -0.2784 -0.0453  0.0700
 9100SOL    HW138933   1.835   4.705   2.684 -0.3430 -0.0663  0.3478
 9100SOL    HW238934   1.715   4.647   2.726  1.0156  1.0387  1.2192
 9101SOL     OW38935   0.369   0.263   9.132 -0.0392 -0.2653 -0.0668
 9101SOL    HW138936   0.281   0.238   9.159  0.5177 -0.0134  2.0115
 9101SOL    HW238937   0.339   0.335   9.076  0.8516  0.7382  0.7391
 9102SOL     OW38938   0.597   3.373  16.946  0.0551  0.5793 -0.2360
 9102SOL    HW138939   0.580   3.398  17.037  0.0119  0.3621 -0.1844
 9102SOL    HW238940   0.688   3.399  16.954  0.3938 -0.3195 -1.1542
 9103SOL     OW38941   0.970   0.775   9.372  0.4032 -0.1187 -0.5375
 9103SOL    HW138942   1.034   0.837   9.337  2.3700 -0.2543  2.8430
 9103SOL    HW238943   0.900   0.769   9.307 -0.1576 -0.9022  0.1348
 9104SOL     OW38944   0.631   3.604  16.080  0.1273 -0.2743  0.3232
 9104SOL    HW138945   0.558   3.586  16.020  1.5960 -2.2607 -0.8756
 9104SOL    HW238946   0.598   3.598  16.170 -3.2162 -1.2026 -0.9488
 9105SOL     OW38947   1.014   4.488   6.469  0.3488  0.7551 -0.4960
 9105SOL    HW138948   1.047   4.432   6.399 -0.4103  0.3015 -0.4855
 9105SOL    HW238949   0.940   4.438   6.503  1.8806  0.1122  1.8723
 9106SOL     OW38950   3.856   2.838  16.159  0.6841 -0.4169 -0.0623
 9106SOL    HW138951   3.838   2.907  16.094  0.9567  0.3343  0.6691
 9106SOL    HW238952   3.913   2.784  16.104  1.2463  0.4335 -0.3198
 9107SOL     OW38953   4.593   2.950  14.307 -0.1196  0.1667  0.0099
 9107SOL    HW138954   4.634   2.953  14.394 -0.9328 -2.1358  0.4755
 9107SOL    HW238955   4.556   2.862  14.305  2.2308 -0.8008 -1.1773
 9108SOL     OW38956   1.809   2.735   4.292  0.4109 -0.0454  0.7226
 9108SOL    HW138957   1.791   2.827   4.309 -0.1532  0.7234 -4.0256
 9108SOL    HW238958   1.858   2.709   4.370 -0.5102 -1.3697  0.8620
 9109SOL     OW38959   2.375   1.592  17.312  0.3442 -0.4300  0.3236
 9109SOL    HW138960   2.315   1.548  17.372  0.0891  0.2611  0.5676
 9109SOL    HW238961   2.312   1.631  17.251 -1.8359 -1.2135  2.1016
 9110SOL     OW38962   3.101   1.818  16.707  0.8082  0.3812  0.4300
 9110SOL    HW138963   3.058   1.821  16.793  1.4100  0.3905  0.7346
 9110SOL    HW238964   3.161   1.891  16.722  1.0877  0.6390 -1.9529
 9111SOL     OW38965   2.797   3.355   0.842 -0.0733 -1.0131  0.5705
 9111SOL    HW138966   2.843   3.417   0.785 -1.5172  2.4930  3.2215
 9111SOL    HW238967   2.723   3.334   0.785 -0.1242 -0.0607  0.2853
 9112SOL     OW38968   0.619   0.573  10.307 -0.9811  0.3813  0.3486
 9112SOL    HW138969   0.714   0.576  10.321 -1.0859 -0.3312  1.1403
 9112SOL    HW238970   0.595   0.664  10.324 -0.5238  0.4654  0.5441
 9113SOL     OW38971   3.626   0.272   6.431 -0.0314  0.4160 -0.5969
 9113SOL    HW138972   3.671   0.287   6.348  0.0325  0.5068 -0.5462
 9113SOL    HW238973   3.549   0.325   6.407 -0.4822 -1.1187 -2.5233
 9114SOL     OW38974   3.093   2.403   3.000  0.2074 -0.0911  0.0933
 9114SOL    HW138975   3.186   2.423   2.991  0.3047 -0.8367 -0.5375
 9114SOL    HW238976   3.073   2.458   3.076 -0.6770 -0.8829  0.4377
 9115SOL     OW38977   3.311   2.463  12.079 -0.7286 -1.1250  0.2905
 9115SOL    HW138978   3.242   2.476  12.014 -0.1980 -0.3416 -0.1264
 9115SOL    HW238979   3.374   2.420  12.022  1.4524 -0.2025  2.0037
 9116SOL     OW38980   1.084   1.104   4.823 -0.1792  0.4699 -0.3431
 9116SOL    HW138981   1.153   1.157   4.782  0.5962  0.0549  0.4486
 9116SOL    HW238982   1.000   1.149   4.809 -0.8737 -0.8725 -0.4527
 9117SOL     OW38983   2.230   3.191   8.216 -0.4502  0.9142  0.5640
 9117SOL    HW138984   2.264   3.264   8.269 -2.8749  1.3596  1.4951
 9117SOL    HW238985   2.312   3.170   8.172 -1.0793 -3.9672  1.7473
 9118SOL     OW38986   2.372   1.189   3.275  0.4376  0.0422 -0.0108
 9118SOL    HW138987   2.331   1.111   3.313 -0.8920  1.0448  0.6199
 9118SOL    HW238988   2.465   1.171   3.286  0.0713 -2.0832 -0.3636
 9119SOL     OW38989   3.155   2.126  16.722 -0.3919  0.8455 -0.1754
 9119SOL    HW138990   3.198   2.172  16.794  0.9837  1.4339 -1.3536
 9119SOL    HW238991   3.073   2.110  16.767  0.6161  0.0994  1.3888
 9120SOL     OW38992   0.423   3.863  13.335  0.1065 -0.2602 -0.2845
 9120SOL    HW138993   0.432   3.956  13.315  0.8819  0.2004  2.1764
 9120SOL    HW238994   0.399   3.826  13.250  1.0833 -2.1489  0.2552
 9121SOL     OW38995   1.408   4.190   4.454 -0.7657 -0.0395 -1.0884
 9121SOL    HW138996   1.393   4.249   4.529 -1.4983 -0.0842 -1.1983
 9121SOL    HW238997   1.341   4.123   4.462  0.1490 -0.5899  1.9714
 9122SOL     OW38998   3.135   0.495   6.906  0.3439 -0.3273  0.1489
 9122SOL    HW138999   3.115   0.474   6.997 -0.4060  0.6325  0.2072
 9122SOL    HW239000   3.090   0.421   6.866  0.8684 -0.2519 -0.5726
 9123SOL     OW39001   2.094   4.680   4.830  0.5244 -0.2173  0.3344
 9123SOL    HW139002   2.054   0.009   4.774 -0.9589 -2.0897 -0.8324
 9123SOL    HW239003   2.037   4.603   4.828  2.3135 -1.5943  2.1471
 9124SOL     OW39004   3.280   4.048   4.292  0.4064  0.0779 -0.1138
 9124SOL    HW139005   3.197   4.037   4.245 -1.4423 -2.7076  3.8371
 9124SOL    HW239006   3.241   4.056   4.379 -0.9873  1.5002 -0.8645
 9125SOL     OW39007   4.266   2.238   6.959  0.6026  0.3251 -0.1057
 9125SOL    HW139008   4.203   2.306   6.936 -1.4916 -1.4323  0.4479
 9125SOL    HW239009   4.251   2.231   7.053 -1.1431  0.5666 -0.3660
 9126SOL     OW39010   1.864   3.782  17.698 -0.0339 -0.1436  0.1674
 9126SOL    HW139011   1.783   3.830  17.679 -0.3052 -2.0048 -3.4522
 9126SOL    HW239012   1.896   3.756  17.611  0.2101  0.9452 -0.0634
 9127SOL     OW39013   2.116   0.116  11.967 -0.7751 -0.5360 -0.1698
 9127SOL    HW139014   2.121   0.026  11.933  1.8196  0.0130 -1.2330
 9127SOL    HW239015   2.161   0.109  12.051 -1.2817  0.1437  0.1530
 9128SOL     OW39016   0.146   3.771   7.322  0.3146  0.2854  0.4882
 9128SOL    HW139017   0.225   3.817   7.292 -0.2781  2.5114  2.3586
 9128SOL    HW239018   0.108   3.835   7.382  0.0041 -1.0934  1.7565
 9129SOL     OW39019   0.206   3.057   5.462  0.2455 -0.9077  0.3737
 9129SOL    HW139020   0.267   3.129   5.480  0.4762 -0.8237 -0.7629
 9129SOL    HW239021   0.244   3.021   5.382 -0.0914  0.6690 -0.4797
 9130SOL     OW39022   3.293   3.169   8.339 -1.1193  0.5067 -0.2237
 9130SOL    HW139023   3.206   3.182   8.300 -0.5128  3.1168 -0.7134
 9130SOL    HW239024   3.299   3.250   8.390 -0.5803 -0.0345  0.5655
 9131SOL     OW39025   0.492   2.743   7.896  0.1725 -0.0630  0.9299
 9131SOL    HW139026   0.456   2.790   7.970  1.6686  0.7521  1.1304
 9131SOL    HW239027   0.425   2.675   7.889  0.9033 -0.7495  0.5387
 9132SOL     OW39028   2.370   1.291  17.401  0.6466 -0.0743 -0.0313
 9132SOL    HW139029   2.410   1.266  17.485  0.0822 -0.4958  0.1110
 9132SOL    HW239030   2.299   1.353  17.421  2.6567  1.9245  0.9929
 9133SOL     OW39031   3.504   0.227   9.315 -0.1644 -0.0408 -0.3629
 9133SOL    HW139032   3.411   0.204   9.324 -0.3212  0.2982 -1.0814
 9133SOL    HW239033   3.508   0.223   9.219 -1.0434 -3.2087 -0.2734
 9134SOL     OW39034   0.335   0.696  17.136 -0.0466 -0.4342  0.5147
 9134SOL    HW139035   0.368   0.778  17.099 -1.1687 -0.1404  0.1539
 9134SOL    HW239036   0.400   0.698  17.206  2.5733  1.1775 -2.0041
 9135SOL     OW39037   4.477   4.563   3.693 -0.3937 -0.0624 -0.2182
 9135SOL    HW139038   4.433   4.479   3.682  2.2812 -1.5012  0.2325
 9135SOL    HW239039   4.559   4.534   3.732 -0.8966 -0.7789  0.2932
 9136SOL     OW39040   2.324   2.389   8.195 -0.0452  0.6603  0.5090
 9136SOL    HW139041   2.318   2.450   8.269 -1.9685 -1.1419  1.8400
 9136SOL    HW239042   2.305   2.308   8.242 -0.1745  0.4428  0.0794
 9137SOL     OW39043   4.458   3.066   1.291 -0.2147 -0.3960  0.1055
 9137SOL    HW139044   4.430   2.984   1.332  2.9120 -1.5863 -0.1663
 9137SOL    HW239045   4.481   3.036   1.203  1.1391 -0.8337  0.6219
 9138SOL     OW39046   1.559   1.627  10.061  0.2742 -0.6676 -0.3266
 9138SOL    HW139047   1.567   1.685   9.985 -0.6400 -0.2366 -0.0932
 9138SOL    HW239048   1.548   1.694  10.129 -2.6927 -1.7097  0.1871
 9139SOL     OW39049   2.773   1.652   9.320  0.4617 -0.0944  0.2826
 9139SOL    HW139050   2.686   1.683   9.297  0.9127  0.6149 -0.4409
 9139SOL    HW239051   2.815   1.737   9.326  0.3152 -0.0770  1.0337
 9140SOL     OW39052   4.380   2.894  16.500 -0.3467 -0.3327  0.3968
 9140SOL    HW139053   4.412   2.804  16.488  2.4752  0.7239 -0.0465
 9140SOL    HW239054   4.351   2.909  16.410 -2.6762 -1.7264  0.9114
 9141SOL     OW39055   3.637   3.917   0.318  0.2043  0.5364  0.0886
 9141SOL    HW139056   3.687   3.858   0.262  0.8298 -1.4712  2.7726
 9141SOL    HW239057   3.609   3.852   0.383  0.9509 -2.3122 -2.4664
 9142SOL     OW39058   3.283   1.850   7.436 -0.1770  0.1334 -0.9922
 9142SOL    HW139059   3.295   1.755   7.433  0.0902  0.0883  2.0492
 9142SOL    HW239060   3.291   1.862   7.530  0.9682 -0.7532 -0.9805
 9143SOL     OW39061   0.274   1.982   8.170  0.7863 -0.2475 -0.4527
 9143SOL    HW139062   0.196   1.926   8.161  1.7535 -1.9073  1.4988
 9143SOL    HW239063   0.219   2.060   8.177 -0.4917 -1.0308 -1.6345
 9144SOL     OW39064   1.836   3.831  10.630  0.1546  0.4296  0.0774
 9144SOL    HW139065   1.760   3.854  10.683  0.9230  2.8485  0.1651
 9144SOL    HW239066   1.785   3.835  10.549 -0.6910 -0.7792  0.5511
 9145SOL     OW39067   3.566   0.485  10.131  0.0342  0.4469  0.5942
 9145SOL    HW139068   3.604   0.415  10.079  1.0858  1.5229 -0.0697
 9145SOL    HW239069   3.606   0.565  10.096 -0.3352  0.2718 -0.2163
 9146SOL     OW39070   1.244   0.981   6.615 -0.2365 -0.4949  0.4916
 9146SOL    HW139071   1.222   0.967   6.523  1.8940 -0.7513  0.0322
 9146SOL    HW239072   1.201   0.908   6.659  1.0524  0.0633  2.6700
 9147SOL     OW39073   4.146   1.078   0.393  0.0567  0.0783  0.3392
 9147SOL    HW139074   4.099   1.122   0.322 -0.0435 -0.5351  0.0264
 9147SOL    HW239075   4.170   1.150   0.452 -0.1315  0.0057  0.5041
 9148SOL     OW39076   0.057   3.190   5.159 -0.5682  0.0170 -0.1661
 9148SOL    HW139077   4.724   3.126   5.166 -0.3561 -0.3515 -1.4113
 9148SOL    HW239078   0.042   3.231   5.244  0.8724  2.0559 -0.8840
 9149SOL     OW39079   4.317   1.275   6.752  0.1338 -0.4733 -0.1803
 9149SOL    HW139080   4.238   1.284   6.805  1.4777  1.3601  1.4716
 9149SOL    HW239081   4.354   1.361   6.772 -1.0111  0.1078 -0.5481
 9150SOL     OW39082   1.053   0.054   6.468 -0.3530 -0.2267 -0.0873
 9150SOL    HW139083   1.087   4.703   6.471 -1.5123 -0.6233  1.2327
 9150SOL    HW239084   0.992   0.052   6.542 -1.7684  1.5789 -1.2155
 9151SOL     OW39085   1.780   0.998   0.132  0.0376  0.3659 -0.6526
 9151SOL    HW139086   1.694   1.038   0.143  0.5365  1.2206  0.1911
 9151SOL    HW239087   1.767   0.922   0.077  2.0806  0.4757 -1.2964
 9152SOL     OW39088   2.845   3.083   0.840 -0.2597  0.0404 -0.2206
 9152SOL    HW139089   2.767   3.072   0.785 -0.7385  0.3119  0.3906
 9152SOL    HW239090   2.824   3.169   0.877 -0.3148  0.9077 -2.2773
 9153SOL     OW39091   1.015   3.271   1.593 -0.0280 -0.3975  0.0599
 9153SOL    HW139092   0.967   3.354   1.593  1.5159  0.4868  0.5867
 9153SOL    HW239093   0.951   3.220   1.542  0.8777 -0.8255 -0.6367
 9154SOL     OW39094   3.388   1.749   8.704  0.5822  1.1001 -0.1681
 9154SOL    HW139095   3.377   1.706   8.789 -1.3799 -1.5016 -1.7040
 9154SOL    HW239096   3.475   1.780   8.727  0.1815  1.0054  1.4802
 9155SOL     OW39097   3.685   2.903   3.736 -0.1199  0.7657  0.1478
 9155SOL    HW139098   3.713   2.813   3.757  1.1843  0.8619 -1.1718
 9155SOL    HW239099   3.630   2.890   3.659 -0.6382 -2.8733  1.0842
 9156SOL     OW39100   2.104   3.945   1.715  0.0204  0.1812  0.2248
 9156SOL    HW139101   2.080   3.930   1.623  0.3259 -0.2643  0.2153
 9156SOL    HW239102   2.079   4.037   1.722 -1.6417 -0.1580 -1.1955
 9157SOL     OW39103   3.656   3.156   6.088 -0.0795  0.2136  0.5711
 9157SOL    HW139104   3.680   3.064   6.087 -0.3438  0.1483 -0.0413
 9157SOL    HW239105   3.681   3.184   6.176  0.7771  1.2697 -0.0050
 9158SOL     OW39106   2.211   4.458   9.886 -0.0043 -0.2594 -0.4917
 9158SOL    HW139107   2.127   4.414   9.901  0.1264 -0.2824  0.1753
 9158SOL    HW239108   2.271   4.384   9.900  0.8537  0.3196 -1.1642
 9159SOL     OW39109   2.309   3.816  13.185 -0.2517  0.0028  0.0266
 9159SOL    HW139110   2.304   3.862  13.101 -1.2241  0.9646  0.6180
 9159SOL    HW239111   2.254   3.864  13.247 -0.0772  1.5936 -1.0442
 9160SOL     OW39112   2.448   2.751  12.646 -0.3014 -0.0710  0.0049
 9160SOL    HW139113   2.483   2.796  12.570 -0.2731  0.9013  0.5906
 9160SOL    HW239114   2.461   2.659  12.623 -0.9941 -0.3062  0.5690
 9161SOL     OW39115   0.157   1.833   6.235 -0.2384  0.0738  0.3524
 9161SOL    HW139116   0.176   1.926   6.246  0.9820 -0.0995 -0.2109
 9161SOL    HW239117   0.242   1.797   6.207  0.1996  1.4100 -0.0351
 9162SOL     OW39118   4.326   2.205   2.854  0.5740  0.3963 -0.1262
 9162SOL    HW139119   4.397   2.180   2.795 -0.3737  2.0096 -1.9436
 9162SOL    HW239120   4.310   2.127   2.907  0.5372  0.6198  0.1921
 9163SOL     OW39121   3.930   2.929   6.409 -0.5237 -0.6315  0.0516
 9163SOL    HW139122   3.974   2.961   6.331 -2.0018  0.7767 -0.2089
 9163SOL    HW239123   3.912   2.838   6.385 -0.2983 -1.5398  3.2000
 9164SOL     OW39124   1.816   4.719   2.155 -0.3323 -0.0987 -0.0620
 9164SOL    HW139125   1.874   0.058   2.158 -2.2553  1.4538 -2.3913
 9164SOL    HW239126   1.787   4.702   2.245 -0.5327  1.7438  0.2301
 9165SOL     OW39127   1.078   1.990   7.217 -0.4716  0.0800  0.1195
 9165SOL    HW139128   1.156   1.934   7.224 -0.2092  0.3541 -0.5850
 9165SOL    HW239129   1.026   1.956   7.290  1.6013 -0.4639  1.3632
 9166SOL     OW39130   1.375   3.664   9.344  0.7280  0.1950  0.0350
 9166SOL    HW139131   1.304   3.609   9.311  0.7243  0.3589 -0.2260
 9166SOL    HW239132   1.418   3.698   9.266  5.1105  0.6329  2.6199
 9167SOL     OW39133   4.082   2.040   6.971 -0.4229 -0.2035  0.4454
 9167SOL    HW139134   4.100   1.952   6.939 -3.0202 -0.7403  0.4638
 9167SOL    HW239135   4.149   2.100   6.937 -1.8575  2.5132  2.4028
 9168SOL     OW39136   1.247   3.971  16.411  0.1827 -0.8041  0.1962
 9168SOL    HW139137   1.221   3.965  16.319 -1.6090 -0.5692  0.6863
 9168SOL    HW239138   1.220   4.061  16.430 -2.3107 -1.5136  0.0307
 9169SOL     OW39139   1.741   1.687   7.580 -0.6394 -0.0198  0.2068
 9169SOL    HW139140   1.745   1.596   7.611 -0.8878  0.5603  1.9025
 9169SOL    HW239141   1.833   1.694   7.556 -0.7810  2.0347  0.2614
 9170SOL     OW39142   2.470   3.332  16.876  0.3146 -0.4514 -0.0783
 9170SOL    HW139143   2.446   3.335  16.783 -0.1343  2.0937  0.1099
 9170SOL    HW239144   2.506   3.245  16.890 -0.0968 -0.4108  1.1951
 9171SOL     OW39145   1.671   0.556   7.199 -0.5510 -0.0986  0.6293
 9171SOL    HW139146   1.706   0.499   7.131  0.9543  1.4109  0.1166
 9171SOL    HW239147   1.619   0.501   7.258 -0.0871  0.0597  1.1825
 9172SOL     OW39148   0.239   1.058  10.842  0.0775  0.3213 -0.4127
 9172SOL    HW139149   0.199   1.091  10.762 -1.0060 -1.7465 -0.7008
 9172SOL    HW239150   0.293   1.133  10.867 -0.5145  0.1121  1.5052
 9173SOL     OW39151   2.201   3.958  15.686 -0.4273 -0.1835  0.6582
 9173SOL    HW139152   2.186   4.043  15.728 -0.3176  1.5327 -2.7915
 9173SOL    HW239153   2.116   3.943  15.645  0.0434  0.3932 -0.5294
 9174SOL     OW39154   3.736   0.399  16.741 -0.3919 -0.1564  0.0814
 9174SOL    HW139155   3.667   0.350  16.786 -0.6042 -2.3643 -2.6025
 9174SOL    HW239156   3.688   0.444  16.672 -1.7604 -2.0913 -0.2254
 9175SOL     OW39157   2.507   3.881  12.722  0.2544 -0.1462 -0.1950
 9175SOL    HW139158   2.601   3.873  12.705  0.3748 -0.4676  0.6169
 9175SOL    HW239159   2.500   3.909  12.813 -0.5717 -0.6763 -0.0913
 9176SOL     OW39160   0.442   4.073   8.614 -0.2026 -0.0285 -0.3377
 9176SOL    HW139161   0.501   4.125   8.560 -1.2516 -0.2683 -1.7488
 9176SOL    HW239162   0.495   4.042   8.687  0.1595  2.3652  0.3841
 9177SOL     OW39163   1.350   0.481   3.517 -0.3836  0.3281 -0.2039
 9177SOL    HW139164   1.443   0.493   3.536 -0.3875 -0.2804  0.2188
 9177SOL    HW239165   1.360   0.454   3.425  0.0736 -0.8854  0.1972
 9178SOL     OW39166   2.919   3.760   2.876 -0.1599  0.2536  0.3961
 9178SOL    HW139167   2.988   3.794   2.933 -0.4403  1.1533  0.2036
 9178SOL    HW239168   2.900   3.675   2.915  2.1733 -0.9054 -0.9642
 9179SOL     OW39169   4.436   2.272  12.247  0.4375 -0.2107 -0.1772
 9179SOL    HW139170   4.447   2.207  12.316  0.9161 -1.8709 -1.8388
 9179SOL    HW239171   4.343   2.289  12.262  0.6777 -0.8391  1.9960
 9180SOL     OW39172   3.166   3.805   8.257  0.4094  0.2071  0.0406
 9180SOL    HW139173   3.081   3.825   8.296  1.1461 -1.0782  2.2936
 9180SOL    HW239174   3.214   3.749   8.317  2.3468 -0.2071 -1.8810
 9181SOL     OW39175   1.391   1.386  16.435 -0.5763 -0.3306 -0.4457
 9181SOL    HW139176   1.304   1.417  16.460 -0.1865  1.8344 -1.8505
 9181SOL    HW239177   1.448   1.460  16.455 -0.7089 -0.5147  0.6621
 9182SOL     OW39178   0.272   4.684  12.858 -0.5800  0.0081  0.4697
 9182SOL    HW139179   0.201   0.008  12.878 -0.7002  0.1774 -0.4784
 9182SOL    HW239180   0.343   0.010  12.865 -1.8169  1.3684  0.6882
 9183SOL     OW39181   3.336   2.786  11.687  0.1088  0.3779  0.3557
 9183SOL    HW139182   3.372   2.716  11.740 -1.4086 -0.4497  0.3060
 9183SOL    HW239183   3.285   2.842  11.746 -0.1688  1.9610 -1.3706
 9184SOL     OW39184   3.409   4.729   3.070 -0.0694 -0.6101  0.1578
 9184SOL    HW139185   3.332   4.719   3.127 -1.3227 -2.1547 -1.7796
 9184SOL    HW239186   3.436   0.077   3.100 -2.4579  0.2582 -0.1912
 9185SOL     OW39187   3.950   0.791   4.388  0.1952 -0.6352  0.0891
 9185SOL    HW139188   4.011   0.837   4.446 -0.6376  2.1302 -1.2154
 9185SOL    HW239189   3.985   0.807   4.300  1.8522 -0.9725  0.6807
 9186SOL     OW39190   1.519   4.302  17.541 -0.3741  0.1419  0.4807
 9186SOL    HW139191   1.487   4.275  17.627 -0.6841 -0.0783  0.2933
 9186SOL    HW239192   1.452   4.268  17.482 -0.0875 -0.1407  0.3214
 9187SOL     OW39193   0.314   1.321   5.138  0.5321  0.5861  0.3399
 9187SOL    HW139194   0.374   1.369   5.196 -0.0872 -0.1676  1.5975
 9187SOL    HW239195   0.242   1.322   5.201 -1.7529 -1.5630 -2.2803
 9188SOL     OW39196   2.708   3.730   7.993 -0.1024  0.2244  0.0643
 9188SOL    HW139197   2.704   3.780   8.074  0.4136 -0.2757  0.3991
 9188SOL    HW239198   2.619   3.737   7.959 -0.9070 -0.8417  2.0025
 9189SOL     OW39199   0.917   0.134  17.514  0.1080 -0.0256  0.5482
 9189SOL    HW139200   0.934   0.040  17.516  1.0753  0.1356  0.1558
 9189SOL    HW239201   0.966   0.161  17.592  0.1955  1.6241 -0.0790
 9190SOL     OW39202   0.706   4.499   9.712 -0.2587  0.2697  0.6115
 9190SOL    HW139203   0.735   4.408   9.718  2.2039  0.9948 -0.4100
 9190SOL    HW239204   0.619   4.480   9.749  0.4167 -1.1102  1.4991
 9191SOL     OW39205   2.428   0.503   5.594  0.5657 -0.2429  0.0324
 9191SOL    HW139206   2.383   0.524   5.676 -0.0528 -0.6183 -0.2089
 9191SOL    HW239207   2.354   0.480   5.538 -1.7287  1.3403  2.3858
 9192SOL     OW39208   2.758   4.655  10.235  0.6567  0.2574  0.5289
 9192SOL    HW139209   2.678   4.680  10.281 -0.4678  0.1510 -1.3639
 9192SOL    HW239210   2.825   4.711  10.275  0.3438 -0.3717  1.9134
 9193SOL     OW39211   3.998   3.747   4.562  0.2406 -0.4793 -0.4698
 9193SOL    HW139212   4.080   3.747   4.514  1.0392  1.9298  0.8770
 9193SOL    HW239213   4.020   3.819   4.622  0.0820 -0.8368  0.0172
 9194SOL     OW39214   2.961   4.616   4.879 -0.0884 -0.3542 -0.6231
 9194SOL    HW139215   2.994   4.582   4.796  0.6171  0.0234 -0.4935
 9194SOL    HW239216   2.891   4.676   4.853  1.9207  2.1397 -0.2050
 9195SOL     OW39217   1.491   2.688   4.320 -0.1420  0.6460  0.0259
 9195SOL    HW139218   1.523   2.772   4.290  2.2044  0.0469  0.8437
 9195SOL    HW239219   1.547   2.678   4.397  2.2990 -0.8079 -1.9327
 9196SOL     OW39220   3.995   0.866   9.837  0.3137 -0.3060 -0.2477
 9196SOL    HW139221   3.961   0.777   9.825 -2.3403  0.7118 -0.2549
 9196SOL    HW239222   3.952   0.904   9.760 -1.5369 -2.9890 -0.5128
 9197SOL     OW39223   2.362   4.306  16.820  0.2386  0.2714  0.0289
 9197SOL    HW139224   2.305   4.281  16.893  0.0420  1.3574  0.2444
 9197SOL    HW239225   2.356   4.399  16.841  0.4070 -0.1482  1.8914
 9198SOL     OW39226   1.462   2.348   5.922  0.0939  0.2604  0.7901
 9198SOL    HW139227   1.500   2.382   6.002 -1.5180 -2.3755  2.6690
 9198SOL    HW239228   1.460   2.425   5.864 -0.1862  1.7253  2.7435
 9199SOL     OW39229   3.850   2.137   9.617  0.3568  0.1563 -0.1558
 9199SOL    HW139230   3.815   2.082   9.546  1.5975 -2.8631  1.5786
 9199SOL    HW239231   3.787   2.206   9.638  1.2169  1.0604 -0.5200
 9200SOL     OW39232   2.114   4.382   6.264  0.1737 -0.3415  0.2587
 9200SOL    HW139233   2.138   4.473   6.283  0.1859 -0.0892 -1.0055
 9200SOL    HW239234   2.141   4.373   6.173 -0.5703  1.6517 -0.1688
 9201SOL     OW39235   0.650   3.802  13.081  0.5037  0.1702 -0.5421
 9201SOL    HW139236   0.556   3.796  13.060  0.3299 -0.5052  0.4180
 9201SOL    HW239237   0.652   3.892  13.113 -0.1902 -0.5146  1.4533
 9202SOL     OW39238   1.996   0.617   0.205  0.4411 -0.3429  0.3288
 9202SOL    HW139239   1.971   0.550   0.269 -0.8157 -1.7499 -1.6161
 9202SOL    HW239240   2.012   0.698   0.254  0.2081  0.1906 -0.4861
 9203SOL     OW39241   0.057   1.417   2.928 -0.8034 -0.5514 -0.4354
 9203SOL    HW139242   4.715   1.366   2.912 -0.3033 -2.2868  2.5484
 9203SOL    HW239243   0.085   1.386   3.014  1.8750  1.3503 -0.6139
 9204SOL     OW39244   1.318   0.113  16.910 -0.0204  0.6733 -0.0304
 9204SOL    HW139245   1.278   0.028  16.930  1.7873  0.2176  1.5738
 9204SOL    HW239246   1.409   0.089  16.926 -0.3123  0.2583  0.9846
 9205SOL     OW39247   4.310   2.498   5.008  0.3815  0.0864  0.0531
 9205SOL    HW139248   4.379   2.561   5.028  0.0256  0.2752  0.6882
 9205SOL    HW239249   4.298   2.511   4.914  1.4896 -0.8127 -0.2096
 9206SOL     OW39250   1.216   1.598  17.481 -0.1660  0.3540  0.4422
 9206SOL    HW139251   1.136   1.621  17.434  1.1914  0.0255 -1.9960
 9206SOL    HW239252   1.212   1.503  17.474  1.6423  0.3449 -0.4004
 9207SOL     OW39253   3.075   4.056   9.249 -0.8137  0.3412  0.4298
 9207SOL    HW139254   3.086   4.078   9.341  0.6731 -0.6028  0.4713
 9207SOL    HW239255   3.035   4.137   9.216 -0.4301 -0.4610 -2.0044
 9208SOL     OW39256   1.833   4.734  16.886 -0.2095 -0.6249 -0.1478
 9208SOL    HW139257   1.837   4.668  16.817 -0.2941 -0.6612 -0.1171
 9208SOL    HW239258   1.920   0.035  16.877  0.0330 -0.8268  1.4006
 9209SOL     OW39259   2.785   0.440   4.997 -0.1651 -0.1177  0.2024
 9209SOL    HW139260   2.826   0.461   5.081  1.0054 -1.2540 -0.0771
 9209SOL    HW239261   2.856   0.449   4.934 -0.9407  0.1776 -0.6203
 9210SOL     OW39262   1.075   2.454   2.114 -0.3205  0.0107 -0.1052
 9210SOL    HW139263   0.981   2.440   2.107 -0.5685  1.5575  0.3369
 9210SOL    HW239264   1.107   2.364   2.122 -0.4573 -0.2235 -2.0540
 9211SOL     OW39265   4.506   4.440   1.888 -0.6606 -0.4067 -0.1934
 9211SOL    HW139266   4.426   4.492   1.882 -1.5268 -1.9553 -1.8291
 9211SOL    HW239267   4.570   4.511   1.881 -0.9228  0.1621  3.0922
 9212SOL     OW39268   4.173   1.669   3.942  0.2636  0.1121  0.1042
 9212SOL    HW139269   4.161   1.684   4.036 -1.4574 -0.3883 -0.0188
 9212SOL    HW239270   4.083   1.642   3.921  0.7197 -0.3784 -1.2214
 9213SOL     OW39271   1.636   0.095   4.314  0.1439 -0.2218  0.0264
 9213SOL    HW139272   1.722   0.130   4.289 -0.8681  0.7551 -2.0479
 9213SOL    HW239273   1.659   0.002   4.322 -0.2831 -0.2218  1.1579
 9214SOL     OW39274   3.706   2.801   4.508 -0.0161 -0.1770  0.2215
 9214SOL    HW139275   3.715   2.711   4.541 -0.2607 -0.3460 -0.1798
 9214SOL    HW239276   3.707   2.791   4.413 -1.8762  0.4905  0.1358
 9215SOL     OW39277   1.693   2.369   5.155  0.2699 -0.5449 -0.2930
 9215SOL    HW139278   1.632   2.315   5.103  0.4210 -0.4270 -0.5907
 9215SOL    HW239279   1.670   2.454   5.119  1.6290  0.0116  0.1867
 9216SOL     OW39280   1.006   3.379   8.329  0.7269  0.1281  1.1937
 9216SOL    HW139281   1.042   3.466   8.307  1.8170 -0.9859 -1.4895
 9216SOL    HW239282   1.075   3.325   8.291  1.8387  0.2285  3.1199
 9217SOL     OW39283   1.799   2.145   6.269 -0.5058  0.8320 -0.5674
 9217SOL    HW139284   1.822   2.064   6.313 -1.4381  0.5731 -0.5540
 9217SOL    HW239285   1.729   2.123   6.207 -1.3307  2.0857 -0.0899
 9218SOL     OW39286   3.152   1.646  14.753  0.1305 -0.7864  0.3489
 9218SOL    HW139287   3.067   1.603  14.759 -0.4229  0.4608  1.3632
 9218SOL    HW239288   3.135   1.737  14.731 -1.0229 -1.5983 -2.1244
 9219SOL     OW39289   3.831   3.112  11.743  0.0954  0.1622  0.4509
 9219SOL    HW139290   3.751   3.139  11.789 -0.0422  3.2465 -1.5263
 9219SOL    HW239291   3.867   3.068  11.819 -0.6761  2.1315  1.9710
 9220SOL     OW39292   3.945   3.082  11.216  0.6530 -0.8199  0.5373
 9220SOL    HW139293   3.874   3.128  11.172 -0.4435  0.3120  3.4700
 9220SOL    HW239294   3.922   3.080  11.309 -2.9246  0.7960 -0.3087
 9221SOL     OW39295   3.504   0.506   4.992  0.1466 -0.0893 -0.0115
 9221SOL    HW139296   3.530   0.557   4.915 -1.0086 -0.8798 -0.9162
 9221SOL    HW239297   3.488   0.584   5.047  0.1089 -0.2846  0.2549
 9222SOL     OW39298   2.066   4.651   1.140 -0.0879 -0.4866 -0.0889
 9222SOL    HW139299   2.154   4.672   1.171  0.6137 -0.1037 -2.3959
 9222SOL    HW239300   2.018   4.713   1.195  1.0636 -0.4468  0.8623
 9223SOL     OW39301   4.541   0.891   8.371  0.0950  0.1203 -0.3949
 9223SOL    HW139302   4.538   0.800   8.341  0.4663 -0.1524  0.3788
 9223SOL    HW239303   4.633   0.915   8.362  0.1862 -0.3548 -0.7607
 9224SOL     OW39304   4.017   3.353   5.860  0.2868  0.6906 -0.2299
 9224SOL    HW139305   4.002   3.443   5.891  0.2448  1.3148 -2.0870
 9224SOL    HW239306   4.031   3.302   5.940 -1.9613  0.1635 -0.1829
 9225SOL     OW39307   1.584   2.865   0.949 -0.2649  0.2817 -0.3033
 9225SOL    HW139308   1.603   2.937   1.008  0.1673 -0.1796  0.1188
 9225SOL    HW239309   1.561   2.915   0.870 -2.3978  0.5327  0.4778
 9226SOL     OW39310   2.101   3.320   2.715  0.5874  0.7057  0.1873
 9226SOL    HW139311   2.031   3.284   2.770 -0.3073  0.1300 -1.3254
 9226SOL    HW239312   2.178   3.322   2.772 -0.2483  2.0518  1.2504
 9227SOL     OW39313   1.832   4.641   1.874 -0.4198 -0.0654  0.6942
 9227SOL    HW139314   1.806   4.670   1.961  0.6458 -0.5943  1.1976
 9227SOL    HW239315   1.901   4.703   1.850 -0.2862 -0.2454  0.6110
 9228SOL     OW39316   3.168   2.442   7.933 -0.8245 -0.0726  0.5971
 9228SOL    HW139317   3.220   2.495   7.873  0.3653 -2.8858 -0.8661
 9228SOL    HW239318   3.231   2.396   7.989  0.0591 -0.2768 -0.5733
 9229SOL     OW39319   0.196   1.614  11.357  0.2109  0.3031 -0.3630
 9229SOL    HW139320   0.156   1.688  11.311 -0.7449 -0.8434 -1.3909
 9229SOL    HW239321   0.290   1.618  11.339  1.0775  0.2497  4.2060
 9230SOL     OW39322   4.517   3.599  13.001 -0.2806  0.3066 -0.0200
 9230SOL    HW139323   4.429   3.632  13.019 -1.0554 -1.6038 -0.2052
 9230SOL    HW239324   4.541   3.644  12.920  1.4785  1.4051  1.1152
 9231SOL     OW39325   4.154   3.178   4.917  0.4394 -0.3473  0.9111
 9231SOL    HW139326   4.068   3.182   4.875  0.1468  2.0298  1.7573
 9231SOL    HW239327   4.168   3.084   4.925  0.0900 -0.7328 -2.9321
 9232SOL     OW39328   4.580   0.097   4.804  0.0138 -0.1872  0.1179
 9232SOL    HW139329   4.575   0.143   4.888 -0.9881  0.2943 -0.1935
 9232SOL    HW239330   4.518   0.029   4.830  1.3533 -1.9618 -1.3734
 9233SOL     OW39331   4.429   0.998   3.277  0.4602  0.5729  0.3874
 9233SOL    HW139332   4.424   0.924   3.216  0.7937 -0.0348  1.1049
 9233SOL    HW239333   4.483   0.961   3.347  0.0873  0.9161  0.8590
 9234SOL     OW39334   2.635   2.547  10.749  0.6609  0.1594  0.1573
 9234SOL    HW139335   2.606   2.613  10.812  0.4004  0.3599 -0.1732
 9234SOL    HW239336   2.570   2.480  10.768 -1.2074  2.0593  0.5324
 9235SOL     OW39337   4.449   0.292   7.188 -0.0100  0.1119 -0.1609
 9235SOL    HW139338   4.389   0.274   7.261 -0.4393 -1.2709 -0.8658
 9235SOL    HW239339   4.526   0.310   7.241 -0.7330 -0.0687  0.9640
 9236SOL     OW39340   0.361   4.048   5.745 -0.0403 -0.4750 -0.1810
 9236SOL    HW139341   0.280   4.097   5.755  0.3982  0.3318 -0.5867
 9236SOL    HW239342   0.369   4.024   5.652  2.9669  2.9114 -0.7974
 9237SOL     OW39343   0.629   0.868  14.645 -0.4142  0.3414  0.4950
 9237SOL    HW139344   0.606   0.911  14.563  1.0743 -0.0176 -0.1071
 9237SOL    HW239345   0.626   0.936  14.712 -0.5804  0.9891 -0.1717
 9238SOL     OW39346   0.857   4.512   4.935  0.0380  0.2246  0.0421
 9238SOL    HW139347   0.943   4.516   4.893 -0.7395 -1.9647 -1.7791
 9238SOL    HW239348   0.795   4.532   4.865  1.7307  0.8852 -1.2921
 9239SOL     OW39349   3.107   4.515   0.004 -0.0846  0.1540 -0.1643
 9239SOL    HW139350   3.173   4.473  17.700  0.4789 -0.2270  0.8395
 9239SOL    HW239351   3.153   4.596   0.028  0.3766 -0.0171 -0.4853
 9240SOL     OW39352   3.768   0.998  10.768 -0.0746  0.7954  0.0841
 9240SOL    HW139353   3.789   0.904  10.763 -1.2049  0.5761 -0.5626
 9240SOL    HW239354   3.674   1.001  10.753 -0.9187 -3.5543  4.3416
 9241SOL     OW39355   2.181   3.144  12.833  0.0705 -0.1782  0.2088
 9241SOL    HW139356   2.177   3.239  12.849 -1.8971 -0.1240 -0.5413
 9241SOL    HW239357   2.125   3.113  12.904  0.7020  1.8046  1.5843
 9242SOL     OW39358   0.559   1.854   3.347  0.3215  0.3625 -0.5278
 9242SOL    HW139359   0.512   1.863   3.429  0.2170 -1.2553 -0.4234
 9242SOL    HW239360   0.645   1.890   3.369  0.6293 -0.1199 -0.9412
 9243SOL     OW39361   2.810   1.497   4.318  0.1441  0.4572 -0.2786
 9243SOL    HW139362   2.718   1.521   4.327  0.5109  2.2687 -1.1856
 9243SOL    HW239363   2.849   1.583   4.337 -0.4005  0.5283  0.4922
 9244SOL     OW39364   2.824   1.712  12.303  0.2223  0.1823 -0.0708
 9244SOL    HW139365   2.858   1.788  12.349 -0.8416  1.5349 -1.5164
 9244SOL    HW239366   2.895   1.648  12.312 -0.6983 -0.4238  2.8079
 9245SOL     OW39367   2.512   4.414   4.867  0.4399 -0.4781 -0.2424
 9245SOL    HW139368   2.444   4.478   4.887  0.4726 -0.1221 -1.2650
 9245SOL    HW239369   2.578   4.441   4.931  2.0334  1.6973 -2.8016
 9246SOL     OW39370   1.128   0.528   4.628  0.5029 -0.0510  0.0984
 9246SOL    HW139371   1.142   0.581   4.550 -0.7375  0.5122  0.2550
 9246SOL    HW239372   1.111   0.445   4.583  0.8746  0.6475 -1.3273
 9247SOL     OW39373   4.266   1.971  15.365 -0.0173  0.1548 -0.1325
 9247SOL    HW139374   4.232   2.029  15.296  1.3951  0.3414 -0.6771
 9247SOL    HW239375   4.347   1.927  15.340 -0.0580  0.0118 -0.0145
 9248SOL     OW39376   3.598   0.503  16.525  0.0871  0.2962  0.4683
 9248SOL    HW139377   3.525   0.564  16.510 -0.1663 -0.0820  0.1430
 9248SOL    HW239378   3.546   0.423  16.526  1.6347 -0.7352 -1.1803
 9249SOL     OW39379   2.465   4.723   1.427 -0.7598  0.1819 -0.1845
 9249SOL    HW139380   2.416   4.712   1.345  1.1132  2.2671 -1.5887
 9249SOL    HW239381   2.524   4.649   1.418  0.9733  1.4805  0.6063
 9250SOL     OW39382   3.752   3.163   6.349 -0.2624  0.8440 -0.5818
 9250SOL    HW139383   3.782   3.235   6.405  0.4700 -0.8466  1.2148
 9250SOL    HW239384   3.802   3.089   6.385  0.9250  0.9401 -2.0428
 9251SOL     OW39385   1.791   4.519  14.174  0.1872  0.6620 -0.0142
 9251SOL    HW139386   1.869   4.511  14.118 -1.1377 -0.4520 -1.7111
 9251SOL    HW239387   1.841   4.539  14.253 -0.2183 -2.2444  0.9604
 9252SOL     OW39388   0.205   0.097   4.227 -0.4510  0.4717  0.3584
 9252SOL    HW139389   0.241   0.181   4.253 -2.6365  1.3667  0.5291
 9252SOL    HW239390   0.114   0.125   4.242 -0.9299 -1.3121  0.7871
 9253SOL     OW39391   1.778   3.043   6.708  0.6295  0.4258  0.8523
 9253SOL    HW139392   1.854   3.099   6.689  0.2321  0.4404 -0.7034
 9253SOL    HW239393   1.788   3.046   6.803  0.0721 -2.2434  0.9836
 9254SOL     OW39394   2.844   0.168   1.848  0.5296  0.4245  0.0400
 9254SOL    HW139395   2.866   0.109   1.775 -0.6710  0.3301 -0.2388
 9254SOL    HW239396   2.798   0.102   1.899  1.0555  0.5376  0.6629
 9255SOL     OW39397   2.175   3.873   2.308 -0.0404  0.2068  0.2187
 9255SOL    HW139398   2.180   3.968   2.319  2.2096  0.0526  0.6738
 9255SOL    HW239399   2.104   3.866   2.244  1.5958  0.7898 -1.6638
 9256SOL     OW39400   2.468   0.554   7.975  0.8562  0.2123  0.0243
 9256SOL    HW139401   2.434   0.555   8.064  1.6781  1.8880  0.3174
 9256SOL    HW239402   2.503   0.641   7.959  2.4518 -0.4351 -0.1028
 9257SOL     OW39403   0.927   1.622   8.586 -0.2513  0.4584  0.2530
 9257SOL    HW139404   0.975   1.698   8.617  1.4205  0.0490 -1.3500
 9257SOL    HW239405   0.984   1.550   8.615  2.4202  1.5529 -2.3645
 9258SOL     OW39406   1.447   4.006  17.474 -0.3631  0.9646 -0.2458
 9258SOL    HW139407   1.367   3.970  17.434 -1.2036 -0.0735  2.4192
 9258SOL    HW239408   1.462   4.075  17.409 -1.4998  0.4543 -1.0636
 9259SOL     OW39409   2.562   0.294   8.473  0.3251 -0.6785 -0.9817
 9259SOL    HW139410   2.601   0.341   8.547  0.9350 -0.9291 -1.1410
 9259SOL    HW239411   2.479   0.263   8.509  0.4246 -1.3637 -1.3504
 9260SOL     OW39412   0.931   3.647   4.501  0.1057  0.2003 -0.3507
 9260SOL    HW139413   0.842   3.683   4.496 -0.4198 -0.9548  0.5573
 9260SOL    HW239414   0.922   3.612   4.412  2.8237  1.9496 -1.2849
 9261SOL     OW39415   3.656   2.356  17.433 -0.6831  0.5276  0.2218
 9261SOL    HW139416   3.700   2.328  17.352  1.6945  0.4836  1.5408
 9261SOL    HW239417   3.670   2.288  17.498 -0.1801 -0.3021 -0.7401
 9262SOL     OW39418   1.046   3.577   6.922 -0.0786  0.4606  0.4547
 9262SOL    HW139419   1.062   3.656   6.871  0.3105  1.1125  1.5867
 9262SOL    HW239420   0.981   3.618   6.979 -0.9481 -1.0107  0.5157
 9263SOL     OW39421   2.969   2.844   2.980  0.2352  0.3150  0.1421
 9263SOL    HW139422   3.058   2.840   3.014  0.4713 -1.1308 -0.6226
 9263SOL    HW239423   2.967   2.926   2.931  3.0386 -0.7693 -1.8106
 9264SOL     OW39424   2.240   1.267   4.853  0.4135 -0.2486  0.0218
 9264SOL    HW139425   2.305   1.337   4.839  0.6212 -0.3181  0.6292
 9264SOL    HW239426   2.283   1.221   4.925  2.4188  1.5663  0.0041
 9265SOL     OW39427   0.393   1.968   2.559  0.6450 -0.3276  0.1020
 9265SOL    HW139428   0.399   1.984   2.465 -0.2668 -0.5110  0.0122
 9265SOL    HW239429   0.400   1.873   2.573 -0.1885 -0.3605  0.3258
 9266SOL     OW39430   1.308   1.487   0.133  0.1438 -0.2458  0.3265
 9266SOL    HW139431   1.384   1.431   0.115  0.4012 -0.3128  1.5859
 9266SOL    HW239432   1.347   1.530   0.209 -0.3453  1.4037 -0.3578
 9267SOL     OW39433   0.618   3.280   1.761 -0.8590 -0.0159 -0.2727
 9267SOL    HW139434   0.548   3.247   1.818 -1.6745  0.0816 -1.2020
 9267SOL    HW239435   0.681   3.299   1.830  0.3043  0.7393 -1.5576
 9268SOL     OW39436   1.370   2.691  17.249  0.0320  0.7111  0.3770
 9268SOL    HW139437   1.286   2.711  17.208 -0.4584  0.2553  1.1639
 9268SOL    HW239438   1.353   2.700  17.343  1.2099 -0.3967  0.6962
 9269SOL     OW39439   1.806   2.184   8.572 -0.0319 -0.0568  0.4075
 9269SOL    HW139440   1.756   2.103   8.586 -0.0267 -0.3968 -1.6040
 9269SOL    HW239441   1.884   2.171   8.520 -0.5256  1.0337 -0.5972
 9270SOL     OW39442   1.657   1.949   8.586 -0.3801 -0.0916 -0.0213
 9270SOL    HW139443   1.645   1.874   8.528  0.4426  0.4795 -0.9348
 9270SOL    HW239444   1.622   1.922   8.671 -0.7907 -1.3811 -0.6047
 9271SOL     OW39445   2.014   2.707   4.736  0.2090 -0.1481 -0.4237
 9271SOL    HW139446   2.046   2.795   4.758 -0.5398 -0.1867  0.7911
 9271SOL    HW239447   1.965   2.683   4.814  2.2696  0.6599  1.1172
 9272SOL     OW39448   3.442   2.194  13.428  0.2461 -0.3209 -0.3785
 9272SOL    HW139449   3.504   2.263  13.450  0.1451 -0.5388  0.6150
 9272SOL    HW239450   3.485   2.152  13.354  0.2887 -0.1907 -0.4279
 9273SOL     OW39451   3.105   1.901   5.640  0.0162 -0.2665 -0.2803
 9273SOL    HW139452   3.056   1.916   5.721 -0.3403  1.5852 -0.8587
 9273SOL    HW239453   3.081   1.808   5.632 -0.3336 -0.3362  1.5674
 9274SOL     OW39454   1.797   2.294   9.052  0.1048 -0.1537 -0.9285
 9274SOL    HW139455   1.806   2.226   9.119 -1.3564  1.4274  0.8482
 9274SOL    HW239456   1.861   2.269   8.985 -1.0906 -0.9466 -1.7821
 9275SOL     OW39457   2.934   4.199  11.568 -0.7295 -0.1533 -0.0981
 9275SOL    HW139458   2.918   4.177  11.660 -0.8232  2.1975  0.4595
 9275SOL    HW239459   2.902   4.289  11.561 -0.8415 -0.3571 -2.2120
 9276SOL     OW39460   0.088   3.444   1.847  0.8741 -0.4132 -0.3620
 9276SOL    HW139461   0.010   3.479   1.804  0.9258 -1.6909 -1.4840
 9276SOL    HW239462   0.074   3.350   1.837  2.8269 -0.7088 -0.4295
 9277SOL     OW39463   3.327   0.734   7.455 -0.1525 -0.2357  0.0724
 9277SOL    HW139464   3.233   0.746   7.447 -0.0040  2.3899  2.2856
 9277SOL    HW239465   3.352   0.748   7.363  0.3361  0.2740  0.2829
 9278SOL     OW39466   1.049   0.183   9.428 -0.2723 -0.0322  0.0166
 9278SOL    HW139467   0.998   0.169   9.348  0.1740 -1.8325  0.0481
 9278SOL    HW239468   1.082   0.273   9.422  0.0439 -0.1662 -0.2104
 9279SOL     OW39469   0.918   3.096   6.369 -0.2932 -0.4298  1.0017
 9279SOL    HW139470   0.943   3.189   6.378  0.6978 -0.4970 -1.0128
 9279SOL    HW239471   0.890   3.085   6.278 -0.5271 -0.5873  1.0956
 9280SOL     OW39472   3.656   3.326   2.254 -0.2087  0.0456 -0.4253
 9280SOL    HW139473   3.656   3.386   2.179  1.7522  0.7073  0.1057
 9280SOL    HW239474   3.564   3.307   2.272 -0.3748  0.1093 -1.1854
 9281SOL     OW39475   2.156   1.456  17.456  0.0201  0.4086  0.3034
 9281SOL    HW139476   2.068   1.464  17.419  0.4982 -1.0624 -1.1235
 9281SOL    HW239477   2.169   1.529  17.517  1.1815  0.6432 -0.2292
 9282SOL     OW39478   2.757   2.849  13.382 -0.0807  0.4580  0.0058
 9282SOL    HW139479   2.699   2.925  13.389  0.4417  0.8990 -0.4774
 9282SOL    HW239480   2.782   2.852  13.290 -2.0928  0.8508 -0.5368
 9283SOL     OW39481   0.173   3.966  10.506 -0.3083  0.5436  0.3617
 9283SOL    HW139482   0.088   3.944  10.467  0.0729 -0.2458 -0.0235
 9283SOL    HW239483   0.155   3.965  10.600 -1.0530 -2.1766  0.1915
 9284SOL     OW39484   4.530   1.929   3.883 -0.2744  0.5200 -0.5428
 9284SOL    HW139485   4.538   1.984   3.805  1.8270  0.9775  0.0143
 9284SOL    HW239486   4.518   2.003   3.942  1.1734  0.9173 -0.7581
 9285SOL     OW39487   1.066   1.460  17.164 -0.5422  1.1204 -0.1954
 9285SOL    HW139488   1.134   1.517  17.127 -2.7417  3.4720 -0.6605
 9285SOL    HW239489   0.997   1.522  17.190  0.5625  2.0588  0.5139
 9286SOL     OW39490   0.495   3.468   9.421 -0.2459  0.5259 -0.4714
 9286SOL    HW139491   0.440   3.541   9.447  1.1674  0.9232  1.4602
 9286SOL    HW239492   0.471   3.396   9.479 -0.3235  1.1480  0.2689
 9287SOL     OW39493   0.457   2.869   8.749 -0.2754 -0.0548 -0.0994
 9287SOL    HW139494   0.429   2.919   8.826 -1.8942 -0.7575 -0.2209
 9287SOL    HW239495   0.531   2.922   8.721 -0.7289  0.6178 -0.0213
 9288SOL     OW39496   1.065   0.030   4.923  0.2404  0.2416  0.1893
 9288SOL    HW139497   1.127   4.697   4.940 -0.1573  0.2560  1.7672
 9288SOL    HW239498   1.104   0.077   4.850 -0.4631  1.0673  0.3449
 9289SOL     OW39499   3.480   2.383   2.761  0.3289  0.0499 -0.0092
 9289SOL    HW139500   3.438   2.359   2.844 -0.7668  0.8721 -0.3308
 9289SOL    HW239501   3.482   2.478   2.768 -0.2740 -0.0373  1.4709
 9290SOL     OW39502   4.528   1.381  11.637  0.5296  0.4959  0.2829
 9290SOL    HW139503   4.619   1.357  11.654  0.4489 -0.8858 -1.3164
 9290SOL    HW239504   4.518   1.358  11.545 -1.4853  1.8153  0.1887
 9291SOL     OW39505   2.648   1.514   8.170  0.1081  0.1902  0.0572
 9291SOL    HW139506   2.613   1.522   8.082  1.2674 -2.0475 -0.6035
 9291SOL    HW239507   2.739   1.541   8.157 -0.3269  1.0256 -1.2025
 9292SOL     OW39508   0.834   0.801  11.478 -0.4636  0.1915  0.1245
 9292SOL    HW139509   0.917   0.806  11.525  0.6061 -2.2033 -1.5473
 9292SOL    HW239510   0.838   0.706  11.467 -0.6243  0.2992 -0.8626
 9293SOL     OW39511   0.306   2.629   7.506  0.1099  0.3684 -0.3318
 9293SOL    HW139512   0.364   2.622   7.430  0.8231 -2.0432  0.4175
 9293SOL    HW239513   0.368   2.669   7.568  0.6810  1.2225 -1.4500
 9294SOL     OW39514   3.957   2.509   6.053 -0.1388 -0.2305  0.1033
 9294SOL    HW139515   3.974   2.419   6.028  0.4179  0.8690 -3.4804
 9294SOL    HW239516   3.939   2.560   5.974 -0.3283 -0.7825 -0.2044
 9295SOL     OW39517   1.573   4.431   3.800 -0.2569 -0.2939 -0.8999
 9295SOL    HW139518   1.629   4.446   3.877  1.1301  1.4158 -2.2455
 9295SOL    HW239519   1.511   4.504   3.796  0.5076  0.3416 -1.0983
 9296SOL     OW39520   3.305   4.299   6.954 -0.5655  0.1313 -0.2549
 9296SOL    HW139521   3.290   4.380   6.905  0.0024  0.5792  0.3207
 9296SOL    HW239522   3.237   4.294   7.022  0.0176 -1.9964  0.1718
 9297SOL     OW39523   4.120   1.295  16.344 -0.1057 -0.1640  0.0593
 9297SOL    HW139524   4.159   1.208  16.351 -1.0759 -0.5613  0.5195
 9297SOL    HW239525   4.057   1.287  16.272  0.8996 -1.1422 -0.7253
 9298SOL     OW39526   1.708   0.063   1.082  0.2084 -0.4250  0.3656
 9298SOL    HW139527   1.618   0.031   1.084  0.0809 -0.3029 -3.1422
 9298SOL    HW239528   1.716   0.120   1.006 -0.7281 -0.7176  0.0527
 9299SOL     OW39529   1.961   4.548  16.488 -0.2411 -0.5156 -0.4535
 9299SOL    HW139530   1.933   4.628  16.444 -2.3211 -0.9392  0.1157
 9299SOL    HW239531   2.055   4.561  16.500 -0.1383 -1.1896 -0.5087
 9300SOL     OW39532   3.813   3.093   2.181 -0.0283  0.3923 -0.2431
 9300SOL    HW139533   3.895   3.106   2.227 -0.5085  0.7600  0.4995
 9300SOL    HW239534   3.764   3.161   2.227 -1.0862 -0.4373 -0.1328
 9301SOL     OW39535   1.357   3.540  13.695 -0.0031 -0.2551 -0.2288
 9301SOL    HW139536   1.365   3.513  13.604 -1.0005  0.5596 -0.5577
 9301SOL    HW239537   1.432   3.600  13.698  0.5648 -1.0008  0.4970
 9302SOL     OW39538   4.513   0.078   1.376 -0.3456  0.3906 -0.4744
 9302SOL    HW139539   4.524   0.169   1.346  1.9266  0.3611  0.2164
 9302SOL    HW239540   4.517   0.086   1.471 -0.5697  0.0435 -0.4383
 9303SOL     OW39541   2.911   3.391   5.710 -0.3738  0.8781  0.5655
 9303SOL    HW139542   3.000   3.365   5.685 -0.8975 -0.5691  0.1674
 9303SOL    HW239543   2.853   3.336   5.657  0.2163 -0.8101  1.6731
 9304SOL     OW39544   4.095   3.086   4.534  0.3125  0.3009  0.2561
 9304SOL    HW139545   4.062   3.129   4.455  0.0375  2.3755  1.5036
 9304SOL    HW239546   4.166   3.036   4.494 -0.5805 -0.0973 -0.8414
 9305SOL     OW39547   1.061   2.117   5.583  0.3218 -0.0446 -0.5589
 9305SOL    HW139548   1.152   2.141   5.569 -0.3931  1.7913 -2.0658
 9305SOL    HW239549   1.063   2.096   5.677 -1.1306 -0.5578 -0.6312
 9306SOL     OW39550   3.337   2.915   1.181 -0.5301 -0.0421  0.3648
 9306SOL    HW139551   3.301   2.831   1.151  0.1463 -0.3411  0.4015
 9306SOL    HW239552   3.428   2.894   1.162 -0.2611 -0.5757  2.2230
 9307SOL     OW39553   1.267   2.712   2.577 -0.1381 -0.3915  0.0617
 9307SOL    HW139554   1.224   2.691   2.494  0.9451  1.7871 -1.0442
 9307SOL    HW239555   1.358   2.691   2.556 -0.2339 -1.1654  0.4066
 9308SOL     OW39556   4.377   1.665   6.684 -0.5386  0.9195 -0.2406
 9308SOL    HW139557   4.445   1.603   6.657 -2.5022 -0.3846 -2.2557
 9308SOL    HW239558   4.300   1.625   6.642 -1.2191  0.9560  0.9836
 9309SOL     OW39559   2.144   0.483  17.180  0.4265 -0.1641 -0.3213
 9309SOL    HW139560   2.072   0.434  17.221  0.6125 -0.5109 -0.4056
 9309SOL    HW239561   2.194   0.504  17.259  1.5531 -0.9927 -0.8060
 9310SOL     OW39562   3.832   1.853   1.227 -1.0368  0.2990 -0.1326
 9310SOL    HW139563   3.841   1.948   1.221  0.1161  0.3778  2.7036
 9310SOL    HW239564   3.739   1.845   1.248 -1.2679  0.6222 -1.0381
 9311SOL     OW39565   1.568   1.839   3.369 -0.3369 -0.1178 -0.0013
 9311SOL    HW139566   1.653   1.855   3.329 -0.4903 -0.5446 -0.4884
 9311SOL    HW239567   1.541   1.931   3.379  0.9849  0.2294  0.3834
 9312SOL     OW39568   2.197   1.063   9.344  0.2768  0.6331  0.1612
 9312SOL    HW139569   2.238   1.150   9.341  1.2231  0.2041  0.8445
 9312SOL    HW239570   2.263   1.001   9.374 -0.2101 -0.6644 -1.4646
 9313SOL     OW39571   4.587   0.731  15.638  0.4185  0.5509 -0.2871
 9313SOL    HW139572   4.575   0.820  15.605  1.3485  0.9113  0.3566
 9313SOL    HW239573   4.605   0.747  15.731  0.2503  0.8540 -0.3089
 9314SOL     OW39574   3.835   1.512   6.272  0.7025  0.4862  0.5218
 9314SOL    HW139575   3.782   1.504   6.351  1.3479 -2.0005  0.7086
 9314SOL    HW239576   3.888   1.432   6.268  0.0385  0.0393  0.7313
 9315SOL     OW39577   3.449   1.044  14.789  0.4747  0.1900 -0.3558
 9315SOL    HW139578   3.502   0.968  14.812 -0.4235 -0.5803 -0.8323
 9315SOL    HW239579   3.509   1.118  14.801 -0.3973  0.8490 -0.0678
 9316SOL     OW39580   1.861   1.742   4.488  0.1635 -0.2539  0.2040
 9316SOL    HW139581   1.956   1.738   4.479  0.1786  1.5368 -0.4827
 9316SOL    HW239582   1.852   1.832   4.457  0.5637 -0.6265 -0.9623
 9317SOL     OW39583   1.869   4.087  13.340  0.5354 -0.8293 -0.1246
 9317SOL    HW139584   1.819   4.139  13.277  0.5492 -1.4938 -0.6946
 9317SOL    HW239585   1.856   4.155  13.406 -2.3419 -0.3633 -1.1657
 9318SOL     OW39586   2.593   2.560   4.769 -0.0647 -0.6388 -0.6205
 9318SOL    HW139587   2.575   2.478   4.815 -0.4487 -0.0945  0.2008
 9318SOL    HW239588   2.517   2.569   4.711 -0.3946 -1.4281 -0.3086
 9319SOL     OW39589   4.606   2.519  16.777  0.2223 -0.1810 -0.1799
 9319SOL    HW139590   4.523   2.540  16.733 -0.5131 -2.2583  0.2035
 9319SOL    HW239591   4.617   2.603  16.821 -3.1346  1.2118 -1.9339
 9320SOL     OW39592   2.812   0.728   4.604  0.2615  0.0020 -0.3689
 9320SOL    HW139593   2.732   0.705   4.650 -0.5812  1.5700 -1.0167
 9320SOL    HW239594   2.779   0.807   4.560  0.7288  0.2952 -0.1965
 9321SOL     OW39595   2.519   0.156  11.277  0.2001  0.5425  0.1454
 9321SOL    HW139596   2.483   0.121  11.196  0.2836  2.3238 -0.6631
 9321SOL    HW239597   2.589   0.205  11.235  1.1268  0.4045  1.5463
 9322SOL     OW39598   4.448   2.434   1.041  0.6346 -0.0886  0.1278
 9322SOL    HW139599   4.487   2.473   1.119  0.6537 -1.4232  0.7812
 9322SOL    HW239600   4.453   2.498   0.970  1.0965 -0.3499 -0.0773
 9323SOL     OW39601   0.759   1.274   3.127  0.4291 -0.2877  0.0099
 9323SOL    HW139602   0.704   1.217   3.073  1.1610 -0.4838 -0.5339
 9323SOL    HW239603   0.695   1.342   3.146  0.7641 -0.3381  1.2846
 9324SOL     OW39604   3.385   2.420  17.407  0.0267 -0.2868 -0.3065
 9324SOL    HW139605   3.391   2.513  17.430 -0.2913 -0.0874 -1.0361
 9324SOL    HW239606   3.477   2.393  17.409  0.2775  0.6947  1.6229
 9325SOL     OW39607   1.868   1.344   7.879  0.3471  0.2181 -0.0668
 9325SOL    HW139608   1.896   1.435   7.880  1.1248 -0.0104 -0.2807
 9325SOL    HW239609   1.944   1.295   7.847  0.0498 -0.5179  0.3387
 9326SOL     OW39610   3.882   1.564   7.761 -0.1403 -0.0065  0.0617
 9326SOL    HW139611   3.897   1.536   7.851 -0.6348  1.9839  0.7615
 9326SOL    HW239612   3.940   1.640   7.753 -0.2409  0.1070  0.3988
 9327SOL     OW39613   0.313   2.215   2.914  0.3477 -0.0021 -0.1796
 9327SOL    HW139614   0.401   2.224   2.877  0.1197  1.8733 -0.2541
 9327SOL    HW239615   0.336   2.145   2.976 -0.7502 -0.7937 -0.6710
 9328SOL     OW39616   2.417   0.450   3.764 -0.1147 -0.4981 -0.3984
 9328SOL    HW139617   2.438   0.522   3.705  1.6301 -0.2979  0.4711
 9328SOL    HW239618   2.352   0.489   3.823 -0.1922 -0.5729 -0.4344
 9329SOL     OW39619   3.778   4.275   2.449 -0.7454 -0.1610  0.0733
 9329SOL    HW139620   3.684   4.259   2.445 -0.3401 -2.4791  0.0691
 9329SOL    HW239621   3.786   4.363   2.488 -0.8522  0.8811 -2.2376
 9330SOL     OW39622   2.803   1.782  11.024  0.0119  0.3217 -0.2205
 9330SOL    HW139623   2.818   1.698  11.066 -3.4346 -0.4427 -0.5236
 9330SOL    HW239624   2.863   1.774  10.950  0.9401  3.0255  0.2154
 9331SOL     OW39625   3.214   4.136   3.299 -0.2731  0.2135  0.0084
 9331SOL    HW139626   3.150   4.064   3.294  0.7046 -0.6683  0.1569
 9331SOL    HW239627   3.177   4.216   3.262  1.6327  0.4285 -1.4411
 9332SOL     OW39628   3.638   3.726   3.332 -0.1796 -0.4303 -0.0170
 9332SOL    HW139629   3.692   3.778   3.273  1.4468 -2.1478 -0.0044
 9332SOL    HW239630   3.689   3.650   3.359 -0.6224 -0.2537  1.3393
 9333SOL     OW39631   2.177   1.486   7.354  0.2382  0.8442  0.2889
 9333SOL    HW139632   2.165   1.422   7.285  0.8685  0.3180  0.6596
 9333SOL    HW239633   2.238   1.544   7.308  2.1714 -0.0666  1.7080
 9334SOL     OW39634   2.335   3.583   1.467  0.4687 -0.6995 -0.4795
 9334SOL    HW139635   2.352   3.597   1.560  0.0531 -3.1374 -0.0330
 9334SOL    HW239636   2.351   3.674   1.443  2.4959 -0.9615 -0.1298
 9335SOL     OW39637   2.676   0.314   3.559  0.2852 -0.4607  0.2053
 9335SOL    HW139638   2.654   0.266   3.638 -2.7001 -1.2976 -1.1285
 9335SOL    HW239639   2.695   0.237   3.505 -0.7655 -0.7077  0.1844
 9336SOL     OW39640   1.338   1.363  13.764  0.1067  0.5645 -0.5208
 9336SOL    HW139641   1.253   1.368  13.721  1.5242  1.5406 -3.1885
 9336SOL    HW239642   1.379   1.320  13.689 -2.0638 -0.3356 -1.2046
 9337SOL     OW39643   1.975   4.409   5.372 -0.0923 -0.3858 -0.0213
 9337SOL    HW139644   1.890   4.444   5.401  0.7625  0.0558  1.9562
 9337SOL    HW239645   1.967   4.318   5.401  1.1040 -0.7317 -0.8157
 9338SOL     OW39646   0.943   0.155   1.596  0.4145  0.5602  0.1691
 9338SOL    HW139647   0.890   0.111   1.529 -1.8015  2.5235  0.6185
 9338SOL    HW239648   0.927   0.245   1.565 -1.0205 -0.4220 -2.0055
 9339SOL     OW39649   1.637   0.135   6.034  0.2435 -0.2004  0.9836
 9339SOL    HW139650   1.631   0.230   6.029  0.5483 -0.0972  2.5720
 9339SOL    HW239651   1.549   0.121   6.070 -0.4290 -0.3559 -0.7307
 9340SOL     OW39652   1.626   4.723  10.343  0.0537  0.0523 -0.4626
 9340SOL    HW139653   1.533   4.721  10.321  0.5035 -2.7712 -2.1711
 9340SOL    HW239654   1.671   0.017  10.265  0.0434  1.8582  0.2834
 9341SOL     OW39655   1.764   1.041   8.396  0.2631  0.0985 -0.6278
 9341SOL    HW139656   1.766   1.128   8.356  2.4720  0.7580  0.9228
 9341SOL    HW239657   1.698   1.004   8.337  1.6558 -2.7405 -0.3951
 9342SOL     OW39658   3.736   0.015   5.644  0.0413 -0.4620  0.2578
 9342SOL    HW139659   3.679   0.069   5.699 -1.6711 -3.2802  1.2141
 9342SOL    HW239660   3.703   4.665   5.661 -0.5239 -0.2393  0.3358
 9343SOL     OW39661   3.268   3.415   3.537 -0.2920  0.5799  0.2702
 9343SOL    HW139662   3.264   3.367   3.454 -1.6636  0.1604  0.5702
 9343SOL    HW239663   3.175   3.427   3.555 -0.5420  0.9085 -1.2179
 9344SOL     OW39664   2.441   3.709   7.919  0.1965  0.0960 -0.3976
 9344SOL    HW139665   2.396   3.634   7.958  1.2840 -1.0008 -1.2631
 9344SOL    HW239666   2.381   3.726   7.846 -0.8013 -1.5416  0.0593
 9345SOL     OW39667   1.285   3.341   2.811  0.2693 -0.1919 -0.2024
 9345SOL    HW139668   1.358   3.402   2.814 -1.0483  1.2617  2.1612
 9345SOL    HW239669   1.288   3.293   2.893  0.1195  2.5238  1.3796
 9346SOL     OW39670   4.644   2.234   9.393 -0.3641  0.4714 -0.4027
 9346SOL    HW139671   4.591   2.313   9.390  1.6037  1.7710 -0.9595
 9346SOL    HW239672   4.684   2.234   9.306  1.4553  1.4889  0.4365
 9347SOL     OW39673   1.751   2.217  10.635  0.1861  0.2881  0.2064
 9347SOL    HW139674   1.711   2.194  10.719 -1.8699  1.9302 -0.3299
 9347SOL    HW239675   1.684   2.279  10.607 -0.5488  0.4369  2.3236
 9348SOL     OW39676   0.255   3.370  17.100  0.2221 -0.1064 -0.4210
 9348SOL    HW139677   0.254   3.336  17.011  0.4016  1.0354 -0.8573
 9348SOL    HW239678   0.230   3.296  17.156 -1.1167 -1.3182 -2.6477
 9349SOL     OW39679   0.665   1.840   4.967 -0.1744 -0.2824 -0.0208
 9349SOL    HW139680   0.678   1.930   4.935 -0.2127 -0.9156 -1.8031
 9349SOL    HW239681   0.701   1.779   4.904 -1.8495 -0.2015 -1.0467
 9350SOL     OW39682   1.310   0.550  11.152  0.1456 -0.1038  0.1133
 9350SOL    HW139683   1.256   0.627  11.167  0.5963  0.2881 -0.2886
 9350SOL    HW239684   1.365   0.546  11.231  1.2698 -1.6382 -0.7373
 9351SOL     OW39685   4.289   1.037  15.275  0.4176 -0.1967  0.0178
 9351SOL    HW139686   4.359   0.978  15.248 -1.0910 -1.5107 -1.0072
 9351SOL    HW239687   4.330   1.082  15.349 -3.7476  2.6637  0.6428
 9352SOL     OW39688   1.552   3.806  10.768  0.3570 -0.1007  0.0045
 9352SOL    HW139689   1.511   3.787  10.684  0.9340  0.5379 -0.4156
 9352SOL    HW239690   1.493   3.872  10.803 -0.5088 -0.3769 -0.9411
 9353SOL     OW39691   3.331   3.969   7.154  0.0362  0.7481  0.2916
 9353SOL    HW139692   3.351   4.000   7.065  0.4744 -1.4016 -0.3674
 9353SOL    HW239693   3.351   4.053   7.196 -2.4254  0.5889  1.7412
 9354SOL     OW39694   2.489   0.027  10.728 -0.3744  0.0611  0.4261
 9354SOL    HW139695   2.393   0.031  10.725 -0.4604 -2.5482 -0.4515
 9354SOL    HW239696   2.504   0.121  10.727 -0.6319  0.1258  2.4327
 9355SOL     OW39697   2.190   4.045   5.802  0.1578 -0.1123  0.3127
 9355SOL    HW139698   2.164   4.025   5.891  2.4936  0.7069  1.1736
 9355SOL    HW239699   2.223   4.133   5.816 -0.5009  0.2041 -0.1059
 9356SOL     OW39700   0.811   1.511  15.822  0.2592 -0.8136  0.2607
 9356SOL    HW139701   0.760   1.535  15.900 -2.4298  0.5395 -1.9005
 9356SOL    HW239702   0.741   1.476  15.767 -1.2183  1.5118  0.6464
 9357SOL     OW39703   1.080   4.647   9.466  0.1113  0.3941 -0.7896
 9357SOL    HW139704   1.090   0.003   9.450  0.8315  0.9278  2.9293
 9357SOL    HW239705   1.103   4.609   9.381  1.1019 -1.5438  0.3633
 9358SOL     OW39706   1.074   2.913   1.480  0.4486  0.0976 -0.1387
 9358SOL    HW139707   1.073   2.973   1.555  0.4334  0.4332 -0.4056
 9358SOL    HW239708   1.089   2.828   1.522 -1.7728  0.2370  0.9459
 9359SOL     OW39709   4.712   4.567   4.041 -0.2035  0.2543  0.6289
 9359SOL    HW139710   4.701   4.661   4.025  1.1558  0.3850  0.4362
 9359SOL    HW239711   0.054   4.547   3.993 -1.2453 -1.5485 -0.3614
 9360SOL     OW39712   1.658   3.916   2.765  0.2160 -0.0912 -0.4623
 9360SOL    HW139713   1.573   3.947   2.735  0.1674  3.1303  2.9809
 9360SOL    HW239714   1.704   3.927   2.682 -0.6902  1.6245 -0.7299
 9361SOL     OW39715   3.462   0.189   9.034 -0.0389 -0.1486 -0.3744
 9361SOL    HW139716   3.402   0.115   9.026 -1.7504  1.3123 -0.9866
 9361SOL    HW239717   3.531   0.167   8.971  0.0239  0.3966 -0.4943
 9362SOL     OW39718   3.086   2.083   4.319 -0.2167 -0.0884  0.1701
 9362SOL    HW139719   3.074   2.178   4.322  2.0827  0.1437  2.5187
 9362SOL    HW239720   3.171   2.070   4.361  0.3930 -0.8290 -1.2857
 9363SOL     OW39721   0.588   0.151   7.171  0.2012  0.0911 -0.0951
 9363SOL    HW139722   0.539   0.118   7.096 -0.3771 -0.0893  0.3661
 9363SOL    HW239723   0.563   0.080   7.229  0.0667  1.7680  1.9041
 9364SOL     OW39724   4.653   3.206   4.900  0.5713 -0.2232  0.4589
 9364SOL    HW139725   4.712   3.197   4.975  0.6638 -0.2935  0.3782
 9364SOL    HW239726   4.571   3.231   4.942  0.1161 -0.5592 -0.2130
 9365SOL     OW39727   3.310   2.656   2.017  0.3428 -0.0535  0.0189
 9365SOL    HW139728   3.356   2.733   1.982 -1.2450  0.3095 -1.3073
 9365SOL    HW239729   3.295   2.685   2.107  0.4405  1.3154 -0.3924
 9366SOL     OW39730   1.929   4.063   3.046  0.1663  0.2239 -0.0373
 9366SOL    HW139731   1.966   4.133   3.100  2.8606 -0.1954 -1.3724
 9366SOL    HW239732   2.004   4.029   2.998  0.2251  0.0918  0.1473
 9367SOL     OW39733   2.555   0.511  15.213  0.1005  0.0008 -0.3721
 9367SOL    HW139734   2.568   0.418  15.235  0.5099  0.2841  0.5959
 9367SOL    HW239735   2.564   0.517  15.118  0.1660  1.0279 -0.3033
 9368SOL     OW39736   3.350   0.979   3.571 -0.2566 -0.6785 -0.0351
 9368SOL    HW139737   3.442   0.950   3.570  0.5031  1.6713  0.8372
 9368SOL    HW239738   3.313   0.913   3.629 -0.4128 -0.7522 -0.2184
 9369SOL     OW39739   4.713   1.515   5.121  0.5306 -0.1999 -0.1366
 9369SOL    HW139740   0.063   1.536   5.152  1.0787 -1.9501 -0.5304
 9369SOL    HW239741   4.723   1.444   5.057 -1.1350 -1.6341  1.2030
 9370SOL     OW39742   2.562   0.779   1.754 -0.2116  0.2640 -0.0400
 9370SOL    HW139743   2.529   0.864   1.726  0.2827  0.6259  0.4722
 9370SOL    HW239744   2.644   0.812   1.790  0.1829  0.6737 -1.3073
 9371SOL     OW39745   4.724   2.689   2.316  0.2793 -0.1659 -0.0193
 9371SOL    HW139746   4.726   2.707   2.410 -1.2144  1.4674 -0.3033
 9371SOL    HW239747   4.643   2.731   2.288  0.5599 -0.5974 -1.4810
 9372SOL     OW39748   0.511   4.317   2.858  0.0884 -0.1179 -0.0737
 9372SOL    HW139749   0.474   4.363   2.933  2.2832  0.5796  0.5809
 9372SOL    HW239750   0.525   4.228   2.889 -1.6041 -0.3268  0.0546
 9373SOL     OW39751   4.480   0.702   9.013 -0.6257 -0.3072  0.4693
 9373SOL    HW139752   4.446   0.791   9.008  0.9593  0.1691 -1.5877
 9373SOL    HW239753   4.514   0.697   8.923 -0.3855  0.9593  0.4955
 9374SOL     OW39754   3.177   4.181  10.418 -0.4282  0.4855  0.4784
 9374SOL    HW139755   3.256   4.234  10.405 -1.5380  2.3623  1.3107
 9374SOL    HW239756   3.112   4.250  10.432  0.1550  1.0605  0.3252
 9375SOL     OW39757   0.699   1.928   2.273 -0.0506  0.2233 -0.2656
 9375SOL    HW139758   0.621   1.877   2.252  1.6374 -1.5226 -2.2560
 9375SOL    HW239759   0.696   1.916   2.368 -0.4610 -0.3942 -0.3586
 9376SOL     OW39760   3.528   0.521   5.699  0.2940 -0.7856  0.2855
 9376SOL    HW139761   3.536   0.592   5.763  3.1221  0.2298 -1.1811
 9376SOL    HW239762   3.618   0.499   5.673  0.6475 -0.0335  0.8580
 9377SOL     OW39763   0.722   3.848   6.961 -0.4044  0.1451 -0.1054
 9377SOL    HW139764   0.732   3.777   7.024 -3.4353  1.7288  2.1720
 9377SOL    HW239765   0.758   3.919   7.014 -0.1978 -1.0602  1.3532
 9378SOL     OW39766   0.857   0.770   1.978  0.0192 -0.0521 -0.0031
 9378SOL    HW139767   0.908   0.721   2.042 -0.9562 -2.1478 -0.8478
 9378SOL    HW239768   0.767   0.762   2.007 -0.4189  1.1100 -1.0536
 9379SOL     OW39769   1.545   2.769   7.890  0.2756  0.1241 -0.6059
 9379SOL    HW139770   1.566   2.757   7.797 -2.0645  2.7493 -1.4513
 9379SOL    HW239771   1.504   2.684   7.908 -1.2756  0.7930 -1.0270
 9380SOL     OW39772   3.973   0.700   7.154  0.1360  0.2616  0.2367
 9380SOL    HW139773   3.910   0.667   7.089 -1.5086 -2.2303  3.0962
 9380SOL    HW239774   3.938   0.784   7.182  1.1254  0.9756 -0.6821
 9381SOL     OW39775   0.365   4.479  14.746  0.9508 -0.4663  0.0041
 9381SOL    HW139776   0.321   4.457  14.828 -1.0347  1.5084 -0.5297
 9381SOL    HW239777   0.445   4.520  14.781  1.5205 -2.5043  1.0540
 9382SOL     OW39778   2.714   1.911   8.458  0.0553 -0.1346  0.1564
 9382SOL    HW139779   2.672   1.855   8.522 -1.6971 -0.4208 -1.2382
 9382SOL    HW239780   2.665   1.886   8.379 -1.4996  1.5091  0.5914
 9383SOL     OW39781   2.742   3.970   4.038  0.2006  1.0093 -0.0385
 9383SOL    HW139782   2.704   4.055   4.018  1.8928  2.2259  1.8810
 9383SOL    HW239783   2.682   3.947   4.110 -0.3176  2.3332 -0.0487
 9384SOL     OW39784   0.998   1.734   2.222  0.1329  0.4014  0.5063
 9384SOL    HW139785   0.996   1.674   2.297  0.3630  0.0743  0.2492
 9384SOL    HW239786   1.030   1.674   2.154  0.4995  2.2955 -0.9960
 9385SOL     OW39787   0.160   0.943   2.993  0.4437  0.4748  0.6375
 9385SOL    HW139788   0.107   0.979   2.922  0.8047  0.4474  0.3543
 9385SOL    HW239789   0.121   0.858   3.012 -0.2420  0.3698 -1.2571
 9386SOL     OW39790   3.324   0.072  11.469  0.1872 -1.1329 -0.6886
 9386SOL    HW139791   3.411   0.043  11.496  0.4050 -1.8275 -2.1106
 9386SOL    HW239792   3.268   0.009  11.515 -2.6382  1.0437 -1.1419
 9387SOL     OW39793   1.612   0.352  12.155 -0.2415  0.0871 -0.2113
 9387SOL    HW139794   1.610   0.262  12.188 -2.0565 -0.5795 -2.0905
 9387SOL    HW239795   1.693   0.392  12.187  0.1561 -0.3697 -0.6647
 9388SOL     OW39796   1.614   2.145  10.855  0.4661 -0.2195 -0.1236
 9388SOL    HW139797   1.573   2.142  10.941 -1.0886  0.6700 -0.8285
 9388SOL    HW239798   1.547   2.102  10.802 -0.8968  2.5011 -0.6224
 9389SOL     OW39799   1.373   3.430  13.156  0.0472 -0.5046 -0.2549
 9389SOL    HW139800   1.296   3.382  13.186 -0.5287  0.5391 -0.0755
 9389SOL    HW239801   1.410   3.364  13.097 -0.0964  0.5204 -1.4901
 9390SOL     OW39802   2.576   1.768   8.654 -0.7448 -0.2635 -0.0764
 9390SOL    HW139803   2.492   1.813   8.650  0.5281  2.0767 -0.0763
 9390SOL    HW239804   2.547   1.696   8.712 -1.4932 -0.7123 -1.0062
 9391SOL     OW39805   2.204   2.291   5.821  0.0717 -0.6662 -0.1884
 9391SOL    HW139806   2.206   2.383   5.847  0.1917  0.3360 -3.7128
 9391SOL    HW239807   2.139   2.260   5.883  0.8819 -0.6047  0.6872
 9392SOL     OW39808   0.792   0.677   4.980 -0.4738 -0.2492 -0.4272
 9392SOL    HW139809   0.852   0.741   5.017 -2.1905  2.7392 -2.8654
 9392SOL    HW239810   0.851   0.652   4.910  2.4131  2.4367  1.0317
 9393SOL     OW39811   0.167   1.585   8.539 -0.1588 -0.0809 -0.3994
 9393SOL    HW139812   0.186   1.513   8.599  1.7517  0.1097 -0.7868
 9393SOL    HW239813   0.229   1.651   8.571  1.6823 -0.6881 -2.7056
 9394SOL     OW39814   1.005   3.387  17.180 -0.4081 -0.1341  0.7711
 9394SOL    HW139815   0.931   3.373  17.239 -2.0371  1.6002 -0.8749
 9394SOL    HW239816   0.961   3.415  17.100  0.9058  0.9079  0.4092
 9395SOL     OW39817   3.788   2.249   6.819 -0.7244 -0.2278  0.4673
 9395SOL    HW139818   3.765   2.305   6.892 -2.1434  0.8067 -0.7637
 9395SOL    HW239819   3.774   2.159   6.849  0.2615 -0.5768 -0.1078
 9396SOL     OW39820   2.506   0.114   6.290  0.3229 -0.2861 -1.0115
 9396SOL    HW139821   2.508   0.118   6.386 -3.1275  0.1944 -0.9430
 9396SOL    HW239822   2.580   0.166   6.260 -0.6943  0.7729 -1.7212
 9397SOL     OW39823   1.587   0.433   2.741 -0.1722 -0.6704 -0.3575
 9397SOL    HW139824   1.552   0.348   2.714  2.1506 -1.8032  0.2127
 9397SOL    HW239825   1.511   0.480   2.773  0.5732  0.7667 -0.6898
 9398SOL     OW39826   1.859   0.376   8.122  0.3908  0.9423  0.1937
 9398SOL    HW139827   1.864   0.451   8.181  0.5451  0.7020  0.4869
 9398SOL    HW239828   1.795   0.410   8.059  0.9738  1.9966  0.1649
 9399SOL     OW39829   0.358   1.001   7.413  0.3636  0.4530  0.6368
 9399SOL    HW139830   0.400   1.081   7.380  0.9524 -1.0674 -2.2095
 9399SOL    HW239831   0.394   0.992   7.502  1.1751  1.0781  0.3670
 9400SOL     OW39832   1.706   4.158   5.894  0.4928 -0.0367  0.0292
 9400SOL    HW139833   1.631   4.148   5.952  1.0073 -0.2648  0.6556
 9400SOL    HW239834   1.768   4.207   5.948  2.2996 -3.4216  1.0082
 9401SOL     OW39835   2.310   2.863   1.527 -0.5208 -0.6202 -0.0860
 9401SOL    HW139836   2.392   2.847   1.481 -0.8859 -1.9090 -0.2998
 9401SOL    HW239837   2.261   2.919   1.467  1.6859  1.1205 -0.2764
 9402SOL     OW39838   0.453   1.289  17.132  0.3999  0.1125 -0.2222
 9402SOL    HW139839   0.376   1.335  17.166 -0.0158 -1.5650  1.1332
 9402SOL    HW239840   0.447   1.200  17.166 -0.8107  0.4934  0.5734
 9403SOL     OW39841   3.217   3.273   9.423  0.2582 -0.7595  0.2213
 9403SOL    HW139842   3.274   3.298   9.350  0.9846 -0.3059  0.9416
 9403SOL    HW239843   3.139   3.234   9.382 -0.2357 -1.3018  1.6823
 9404SOL     OW39844   4.391   0.364   7.686  0.1587 -0.0615  0.0256
 9404SOL    HW139845   4.335   0.304   7.636  0.7145  0.4322 -1.2057
 9404SOL    HW239846   4.411   0.427   7.617  1.0303 -0.1325  0.2059
 9405SOL     OW39847   0.966   2.508   3.076 -0.2719  0.3047 -0.7086
 9405SOL    HW139848   1.009   2.586   3.043 -0.7488  0.7091 -0.3757
 9405SOL    HW239849   0.873   2.531   3.073 -0.3222  0.5279  2.4911
 9406SOL     OW39850   3.429   4.023   3.190 -0.3670 -0.0991  0.1452
 9406SOL    HW139851   3.358   4.084   3.212  1.3749  1.6113  1.0365
 9406SOL    HW239852   3.497   4.090   3.185 -1.6875  1.2264 -0.2331
 9407SOL     OW39853   1.139   0.349  11.208  0.2918 -0.0695  0.0116
 9407SOL    HW139854   1.201   0.422  11.206 -0.0310  0.1706 -1.5378
 9407SOL    HW239855   1.194   0.271  11.219  0.1579 -0.2540 -0.6492
 9408SOL     OW39856   1.699   0.196   5.156  0.2408 -0.0902  0.1757
 9408SOL    HW139857   1.665   0.225   5.240 -0.9476 -1.3417  0.1302
 9408SOL    HW239858   1.791   0.215   5.170 -0.0271  1.1382  0.3114
 9409SOL     OW39859   2.446   4.438   1.049 -0.2861 -0.2624 -0.1944
 9409SOL    HW139860   2.445   4.344   1.033  0.3788 -0.4546  0.9486
 9409SOL    HW239861   2.521   4.466   0.996  0.4016 -0.9786  0.4009
 9410SOL     OW39862   3.174   2.886   4.339  0.0863  0.4024  0.2690
 9410SOL    HW139863   3.237   2.831   4.385  0.4097  0.1409 -0.4906
 9410SOL    HW239864   3.174   2.842   4.254  0.8223  0.4761  0.2310
 9411SOL     OW39865   2.419   3.332  11.459 -0.0423 -0.0388  0.0326
 9411SOL    HW139866   2.472   3.408  11.437  0.3294 -0.6413 -1.1592
 9411SOL    HW239867   2.479   3.260  11.483 -0.0056  0.1113  0.3975
 9412SOL     OW39868   3.841   4.307   2.195 -0.5364  0.2752 -0.3413
 9412SOL    HW139869   3.837   4.219   2.157 -2.1632  0.5836 -0.8660
 9412SOL    HW239870   3.802   4.297   2.282  1.1793 -0.1863  0.3857
 9413SOL     OW39871   3.983   2.818   8.200 -0.1111 -0.2044  0.4656
 9413SOL    HW139872   4.051   2.835   8.265  1.1779  1.9764 -1.4995
 9413SOL    HW239873   4.039   2.754   8.157 -1.4908  0.0070 -1.6503
 9414SOL     OW39874   0.655   3.194   0.019  0.6951 -0.0838 -0.2213
 9414SOL    HW139875   0.652   3.204   0.114 -0.9250  0.7178 -0.3588
 9414SOL    HW239876   0.630   3.102   0.013 -1.7245  0.5666 -0.1378
 9415SOL     OW39877   1.603   0.841   7.126 -0.2104 -0.3579  0.2920
 9415SOL    HW139878   1.529   0.860   7.183 -2.4374  0.2830 -2.8261
 9415SOL    HW239879   1.629   0.754   7.157 -1.8168 -0.3550  1.6232
 9416SOL     OW39880   2.941   2.073   8.779 -0.4285 -0.0309 -0.1667
 9416SOL    HW139881   2.912   1.987   8.808 -0.4187 -0.4838 -1.4731
 9416SOL    HW239882   3.009   2.034   8.724  0.6835 -0.2484  1.3835
 9417SOL     OW39883   3.379   2.553  14.983  0.2224  0.5916  0.4599
 9417SOL    HW139884   3.295   2.511  14.965 -0.1131  0.9583  1.1721
 9417SOL    HW239885   3.430   2.486  14.937  0.4092  0.4639  0.8491
 9418SOL     OW39886   3.141   2.393  16.555  0.4550 -0.0993 -0.3626
 9418SOL    HW139887   3.117   2.334  16.483 -2.2844 -0.2881  0.7172
 9418SOL    HW239888   3.198   2.331  16.601 -0.5052 -1.2305 -0.6781
 9419SOL     OW39889   1.474   3.488   4.553  0.0777 -0.0772  0.0015
 9419SOL    HW139890   1.556   3.451   4.520  0.6292  1.6432 -0.5233
 9419SOL    HW239891   1.421   3.468   4.475  0.3179 -2.3660  0.4167
 9420SOL     OW39892   1.255   4.028   3.522 -0.0793  0.5711  0.3675
 9420SOL    HW139893   1.344   4.025   3.556 -1.3054 -2.2977  3.2948
 9420SOL    HW239894   1.230   3.936   3.522 -1.9672  1.0823  1.3453
 9421SOL     OW39895   1.718   4.120   8.081 -0.6475 -0.3395 -0.3814
 9421SOL    HW139896   1.811   4.115   8.104 -0.5075 -2.3056 -1.3341
 9421SOL    HW239897   1.687   4.046   8.133  2.6393 -0.7535  0.9801
 9422SOL     OW39898   3.533   0.448   1.427 -0.2014  0.7706 -0.3976
 9422SOL    HW139899   3.597   0.434   1.497  2.1313 -2.8937 -3.2731
 9422SOL    HW239900   3.462   0.491   1.475  1.8571  1.8416  1.6776
 9423SOL     OW39901   0.631   3.949   3.275 -0.0582 -0.5856  0.2874
 9423SOL    HW139902   0.684   3.943   3.195  0.8755 -1.0091  0.9299
 9423SOL    HW239903   0.579   3.869   3.264 -1.6480  0.5737 -0.5066
 9424SOL     OW39904   4.305   4.244   5.663  0.0742  0.2925 -0.3782
 9424SOL    HW139905   4.310   4.320   5.720  0.6306 -1.0282  1.3320
 9424SOL    HW239906   4.391   4.235   5.623  0.3177  0.4166  0.1157
 9425SOL     OW39907   4.173   4.413   9.898 -0.0183 -0.1028  0.0948
 9425SOL    HW139908   4.105   4.380   9.956  0.2825  1.4603  1.3446
 9425SOL    HW239909   4.115   4.470   9.847 -1.5764 -1.7269  0.0608
 9426SOL     OW39910   0.753   0.851   7.578 -0.0386  0.4511 -0.9357
 9426SOL    HW139911   0.723   0.939   7.600  1.2655  0.9485 -1.1355
 9426SOL    HW239912   0.726   0.841   7.487 -1.7107  0.1711 -0.3976
 9427SOL     OW39913   3.324   4.468   7.250 -0.0491  0.3026  0.3916
 9427SOL    HW139914   3.380   4.451   7.174 -0.2104  1.0259  0.1105
 9427SOL    HW239915   3.355   4.409   7.319  0.4858 -0.6417 -0.6479
 9428SOL     OW39916   3.948   3.929   8.508 -0.1166 -0.3718  0.0413
 9428SOL    HW139917   4.020   3.887   8.462  0.4028  0.0479  0.4661
 9428SOL    HW239918   3.996   4.002   8.548 -1.9706  1.0291 -0.3038
 9429SOL     OW39919   2.150   0.736   8.119  0.2108  0.0033 -0.0971
 9429SOL    HW139920   2.229   0.790   8.116  0.1301  0.2226  1.8496
 9429SOL    HW239921   2.114   0.769   8.037  2.6560  0.8803 -0.8231
 9430SOL     OW39922   1.377   4.451  11.099  0.7265 -0.7046  0.2405
 9430SOL    HW139923   1.326   4.374  11.072 -1.0735  0.3576  0.6057
 9430SOL    HW239924   1.347   4.525  11.047 -0.6535 -0.2698  1.6758
 9431SOL     OW39925   3.748   3.710  13.487  0.5076  0.0277 -0.1273
 9431SOL    HW139926   3.802   3.718  13.409  0.8170 -2.6683 -0.1584
 9431SOL    HW239927   3.752   3.801  13.517 -1.7676  1.0976 -3.0540
 9432SOL     OW39928   3.976   2.258  17.154 -0.0653 -0.1124  0.0329
 9432SOL    HW139929   3.889   2.221  17.136  0.1189  1.0606 -3.2998
 9432SOL    HW239930   3.985   2.234  17.246  1.6827  0.9653  0.1445
 9433SOL     OW39931   2.600   2.535   5.215 -0.0063 -0.4515 -0.6518
 9433SOL    HW139932   2.677   2.541   5.158  0.0496  0.3967 -0.4834
 9433SOL    HW239933   2.552   2.618   5.216  1.3389  0.3288 -2.1307
 9434SOL     OW39934   0.846   3.340  17.399  0.3613  0.1997  0.1440
 9434SOL    HW139935   0.808   3.428  17.407 -1.6744 -0.6420 -0.2918
 9434SOL    HW239936   0.769   3.283  17.404  1.3702 -1.0457  1.5746
 9435SOL     OW39937   1.095   0.090   3.699  0.0770  0.0016  0.2215
 9435SOL    HW139938   1.172   0.048   3.659  1.0665  0.6330  1.4507
 9435SOL    HW239939   1.023   0.040   3.661  0.9476 -1.2845  0.2242
 9436SOL     OW39940   2.088   3.294   5.161 -0.0288 -0.7531  0.2196
 9436SOL    HW139941   2.051   3.314   5.248  0.0605  1.8846 -0.3307
 9436SOL    HW239942   2.044   3.360   5.107  3.3728  2.6095  1.5798
 9437SOL     OW39943   1.135   0.329   3.342  0.1004 -0.7434  0.4658
 9437SOL    HW139944   1.051   0.307   3.301  0.1124  1.4252 -0.7579
 9437SOL    HW239945   1.100   0.382   3.414  0.4117 -1.7663  1.3696
 9438SOL     OW39946   2.303   4.292   8.514 -0.7271  0.1763 -0.5177
 9438SOL    HW139947   2.305   4.360   8.582 -3.1692 -0.6448  0.3884
 9438SOL    HW239948   2.393   4.284   8.483 -0.5344  0.1671  0.0342
 9439SOL     OW39949   3.347   3.604   8.446 -0.1187  0.0228 -0.5921
 9439SOL    HW139950   3.266   3.567   8.479 -0.0433 -0.3752 -0.8519
 9439SOL    HW239951   3.373   3.551   8.370  0.4535 -1.2425  0.5025
 9440SOL     OW39952   2.012   1.639  15.705 -0.1474  0.3550  0.1372
 9440SOL    HW139953   2.014   1.555  15.751 -1.5281 -1.0332 -2.3246
 9440SOL    HW239954   2.073   1.685  15.763  2.2335 -3.1882  0.4561
 9441SOL     OW39955   2.700   3.418   8.668 -0.2093  0.0887 -0.6063
 9441SOL    HW139956   2.706   3.489   8.732 -1.9235 -0.3961  0.1201
 9441SOL    HW239957   2.773   3.439   8.611  1.1887 -0.6988  0.9134
 9442SOL     OW39958   0.098   3.217   6.916 -0.4655 -0.2113 -0.2167
 9442SOL    HW139959   0.155   3.287   6.947  0.4029 -0.7676 -0.5696
 9442SOL    HW239960   0.147   3.191   6.838 -0.1398 -0.9019  0.2138
 9443SOL     OW39961   1.415   1.463   4.346 -0.1195  0.4761  0.4879
 9443SOL    HW139962   1.373   1.549   4.357  1.8031  1.3356  1.1818
 9443SOL    HW239963   1.502   1.476   4.386  0.3555 -0.9500 -0.0930
 9444SOL     OW39964   2.814   1.959   4.883  0.5149 -0.1309 -0.1672
 9444SOL    HW139965   2.735   2.009   4.860  2.2083  1.9614 -1.5473
 9444SOL    HW239966   2.875   2.033   4.888 -0.2039  0.5233 -0.8846
 9445SOL     OW39967   4.297   4.664   4.071 -0.4408  0.9188  0.3677
 9445SOL    HW139968   4.365   4.598   4.088 -2.4669 -1.7211 -1.6457
 9445SOL    HW239969   4.235   4.608   4.024 -0.3808  1.3257 -0.1893
 9446SOL     OW39970   3.009   4.633   8.683 -0.3848 -0.0538 -0.0038
 9446SOL    HW139971   2.991   4.724   8.661  1.6327  0.3700  0.1280
 9446SOL    HW239972   2.930   4.590   8.650 -0.0089 -0.1685 -0.7556
 9447SOL     OW39973   2.882   4.572   0.407  0.0187 -0.2710  0.0122
 9447SOL    HW139974   2.889   4.619   0.324  0.3258 -2.2878 -1.1156
 9447SOL    HW239975   2.962   4.603   0.449  1.0820 -2.0421 -0.6939
 9448SOL     OW39976   3.563   1.668   7.101  0.0185 -1.0275  0.4705
 9448SOL    HW139977   3.559   1.601   7.032  0.1179  3.2319 -3.7173
 9448SOL    HW239978   3.544   1.745   7.048 -1.6895 -0.3874  2.0372
 9449SOL     OW39979   3.537   4.224  13.170 -0.5416  0.4791  0.6894
 9449SOL    HW139980   3.579   4.170  13.237  1.5010  1.2792  0.0552
 9449SOL    HW239981   3.607   4.204  13.108 -0.6379  0.6495  0.5252
 9450SOL     OW39982   2.365   2.707  15.104  0.2260 -0.4249 -0.2129
 9450SOL    HW139983   2.349   2.620  15.067  0.8749  1.0451 -3.9345
 9450SOL    HW239984   2.301   2.759  15.056  0.4682  0.3493  0.2921
 9451SOL     OW39985   0.786   1.935   9.150  0.3334 -0.2574  0.8408
 9451SOL    HW139986   0.699   1.956   9.184 -0.4061 -2.9111  0.5411
 9451SOL    HW239987   0.782   1.927   9.055 -0.8767 -3.2030  1.1665
 9452SOL     OW39988   1.126   1.218   1.250 -0.3833 -0.0149 -0.3304
 9452SOL    HW139989   1.093   1.140   1.295 -2.1886  1.3242  0.6617
 9452SOL    HW239990   1.044   1.263   1.230  0.3153  2.2430  1.9024
 9453SOL     OW39991   2.337   0.711  16.029  0.2687 -0.0730 -0.5435
 9453SOL    HW139992   2.339   0.734  16.121 -1.5063  1.8947 -0.9957
 9453SOL    HW239993   2.346   0.800  15.995  1.4681  0.8228  2.1786
 9454SOL     OW39994   3.090   3.172   4.874 -0.0408  0.0130  0.2156
 9454SOL    HW139995   3.143   3.140   4.801  2.7074  1.7489  1.4148
 9454SOL    HW239996   3.077   3.256   4.831 -1.0242 -0.9821 -1.4056
 9455SOL     OW39997   2.365   2.526   6.149  0.9066  0.0781  0.0364
 9455SOL    HW139998   2.324   2.474   6.219  0.8566  0.3950  0.2412
 9455SOL    HW239999   2.446   2.477   6.138  2.3511  2.6491 -0.6401
 9456SOL     OW40000   2.957   3.554   8.927 -0.0309 -0.0544 -0.4772
 9456SOL    HW140001   2.987   3.487   8.989 -0.6494 -0.3201 -0.4694
 9456SOL    HW240002   3.029   3.560   8.864 -0.7106 -1.9069 -1.4273
 9457SOL     OW40003   2.648   4.665   5.404 -0.4398  0.1862 -0.1675
 9457SOL    HW140004   2.580   4.598   5.399 -1.1270  0.9045 -0.2604
 9457SOL    HW240005   2.592   0.001   5.384  2.1925  2.4244  0.7178
 9458SOL     OW40006   2.450   3.603   8.789 -0.4386  0.4553  0.3508
 9458SOL    HW140007   2.541   3.626   8.808 -0.3285 -1.1401  1.7652
 9458SOL    HW240008   2.408   3.656   8.857 -0.6349  0.6093  0.1111
 9459SOL     OW40009   0.887   3.949   0.053  0.0703 -0.7253 -0.1253
 9459SOL    HW140010   0.932   3.886  17.747  3.0637  1.1361  0.1658
 9459SOL    HW240011   0.944   3.955   0.130 -1.0656  0.8536  0.6045
 9460SOL     OW40012   0.459   1.563  12.400  0.1475 -0.0887 -0.3286
 9460SOL    HW140013   0.424   1.536  12.485 -0.4863  0.6613 -0.3499
 9460SOL    HW240014   0.405   1.509  12.343 -3.7951  2.3716  1.0730
 9461SOL     OW40015   1.859   2.601   0.151  0.2984 -0.2731 -0.5174
 9461SOL    HW140016   1.929   2.540   0.173  0.9647  1.4075  1.9637
 9461SOL    HW240017   1.824   2.561   0.071  1.2446  3.4074 -2.7721
 9462SOL     OW40018   3.096   1.304   1.045 -0.0372 -0.2907 -0.3509
 9462SOL    HW140019   3.123   1.213   1.055  0.3254 -0.4108 -2.2916
 9462SOL    HW240020   3.052   1.323   1.127 -2.5725 -3.1803 -1.0107
 9463SOL     OW40021   3.817   1.799   2.432 -0.1969 -0.1062 -0.5127
 9463SOL    HW140022   3.729   1.794   2.470 -0.1700  0.6730 -0.3543
 9463SOL    HW240023   3.797   1.806   2.338  1.9975  1.5128 -0.8405
 9464SOL     OW40024   4.081   2.195  12.342  0.0260  0.2877 -0.1352
 9464SOL    HW140025   4.056   2.286  12.353 -1.6689 -0.0630 -1.1176
 9464SOL    HW240026   4.023   2.144  12.400  2.4160 -0.8513  1.2754
 9465SOL     OW40027   3.450   1.870   6.684  0.7675  0.3754  0.8351
 9465SOL    HW140028   3.360   1.878   6.655  0.2736  1.7611  2.7295
 9465SOL    HW240029   3.498   1.948   6.654  1.4535 -0.0219  0.8992
 9466SOL     OW40030   3.501   3.061   7.801 -0.3688  0.0901  0.5564
 9466SOL    HW140031   3.419   3.056   7.753 -1.5356  1.4824  2.4021
 9466SOL    HW240032   3.560   3.025   7.735  0.3777  0.1130  1.2052
 9467SOL     OW40033   4.407   0.478   7.442 -0.2001  0.2321  0.1237
 9467SOL    HW140034   4.427   0.557   7.392  1.4467 -0.1547  0.1652
 9467SOL    HW240035   4.323   0.464   7.399 -0.5571  0.3561  0.7880
 9468SOL     OW40036   0.129   3.579  17.461 -0.3634  0.6475 -0.1309
 9468SOL    HW140037   0.164   3.665  17.483  1.8482 -0.4937  0.7802
 9468SOL    HW240038   0.112   3.599  17.369  0.4717  1.9442 -0.0067
 9469SOL     OW40039   0.050   3.982  11.153  0.2499 -0.3013  0.1388
 9469SOL    HW140040   0.054   3.918  11.083  0.8485  0.2172 -0.3026
 9469SOL    HW240041   0.144   3.992  11.170 -0.2047  2.4510  1.0870
 9470SOL     OW40042   3.317   2.096   7.306  0.5347 -0.1901 -0.3202
 9470SOL    HW140043   3.338   2.013   7.350 -0.2905 -0.6508 -0.8186
 9470SOL    HW240044   3.314   2.067   7.216 -0.4775 -0.4344 -0.2053
 9471SOL     OW40045   0.751   1.022   8.916 -0.3646 -0.0149  0.3223
 9471SOL    HW140046   0.696   1.095   8.944  2.1453  0.7024  3.2488
 9471SOL    HW240047   0.673   0.980   8.878 -1.3048  0.1748  2.0285
 9472SOL     OW40048   1.234   4.352   7.057 -0.6547  0.4814 -0.3568
 9472SOL    HW140049   1.314   4.318   7.097 -0.0617  1.3019 -0.8609
 9472SOL    HW240050   1.240   4.307   6.973 -0.9991 -0.6885  0.2460
 9473SOL     OW40051   4.605   0.581   6.924 -0.7431 -0.1866  0.0260
 9473SOL    HW140052   4.582   0.669   6.896 -0.4721  0.3077  1.3651
 9473SOL    HW240053   4.521   0.554   6.960 -1.6465  2.1807 -0.3554
 9474SOL     OW40054   4.069   2.446   6.936  0.1197  0.1154 -0.3305
 9474SOL    HW140055   4.018   2.483   6.864  0.7218 -1.2684 -1.4676
 9474SOL    HW240056   4.003   2.379   6.958  1.3272 -0.0664  2.6867
 9475SOL     OW40057   0.896   0.300   8.388  0.5850  0.0616  0.4210
 9475SOL    HW140058   0.906   0.224   8.331 -0.8422  0.7709 -0.7875
 9475SOL    HW240059   0.934   0.266   8.469 -0.2825  1.2190  1.3078
 9476SOL     OW40060   3.587   0.987   8.014  0.2804 -0.0514 -0.5731
 9476SOL    HW140061   3.573   0.910   8.069 -0.6912  0.1339 -0.5649
 9476SOL    HW240062   3.524   0.967   7.945 -0.2342 -0.3733 -0.0021
 9477SOL     OW40063   4.662   2.536   7.893  0.4066  0.0234 -0.3102
 9477SOL    HW140064   4.701   2.607   7.842 -2.7501  0.9160 -1.4382
 9477SOL    HW240065   4.603   2.509   7.824  0.8248  1.4696 -1.2440
 9478SOL     OW40066   4.574   0.053   7.091  0.0753 -0.5216 -0.0794
 9478SOL    HW140067   4.667   0.066   7.105 -0.1128  1.2224 -0.3547
 9478SOL    HW240068   4.529   0.097   7.163  0.3174 -0.8570  0.2741
 9479SOL     OW40069   0.224   3.066   3.269 -0.4503  0.2630  0.3128
 9479SOL    HW140070   0.247   2.976   3.243 -0.1059  0.0349  1.4070
 9479SOL    HW240071   0.217   3.102   3.180  1.8526  1.1293  0.4746
 9480SOL     OW40072   0.270   4.726   3.437 -0.4820  0.1199 -0.1995
 9480SOL    HW140073   0.292   0.051   3.369 -0.8511  1.3241  0.8049
 9480SOL    HW240074   0.202   4.678   3.389  0.8934 -1.5214 -0.5182
 9481SOL     OW40075   0.669   0.351  10.800 -0.2723 -0.2616  0.6045
 9481SOL    HW140076   0.599   0.307  10.752  0.3996 -0.1511 -0.4723
 9481SOL    HW240077   0.664   0.304  10.884 -4.3684 -1.7688 -0.4890
 9482SOL     OW40078   3.989   0.653   3.329  0.1707 -0.0508 -0.5006
 9482SOL    HW140079   3.909   0.610   3.360  1.2086 -0.7381  1.1633
 9482SOL    HW240080   4.030   0.578   3.286 -0.5577  0.7832 -2.6697
 9483SOL     OW40081   3.314   3.617   4.099  0.1158  0.4159  0.2881
 9483SOL    HW140082   3.255   3.643   4.028  1.8165  0.8143 -1.0029
 9483SOL    HW240083   3.351   3.533   4.071 -1.5536  0.3072 -1.5825
 9484SOL     OW40084   1.390   4.676   6.636 -0.1377  0.3641 -0.3060
 9484SOL    HW140085   1.333   4.602   6.653  1.0442 -0.1070  1.6567
 9484SOL    HW240086   1.407   4.686   6.729  1.8359 -3.6685 -0.2366
 9485SOL     OW40087   0.030   1.831   7.332  0.0851  0.4686  0.3113
 9485SOL    HW140088   0.028   1.839   7.427 -2.8815  2.1338  0.1146
 9485SOL    HW240089   4.676   1.828   7.304  0.4350  0.7735 -0.8587
 9486SOL     OW40090   0.562   4.709   2.518  0.4234  0.1634  0.5233
 9486SOL    HW140091   0.547   4.615   2.530  1.7242  0.1347  1.9246
 9486SOL    HW240092   0.556   4.725   2.424  1.9866  2.2344  0.7840
 9487SOL     OW40093   4.301   1.139  14.042  0.0949  0.2462 -0.1629
 9487SOL    HW140094   4.302   1.048  14.074 -2.4109 -0.0542 -0.9266
 9487SOL    HW240095   4.378   1.150  13.986 -0.6005 -1.9213 -1.5758
 9488SOL     OW40096   2.349   0.583  17.341  1.1653  0.2766  0.2401
 9488SOL    HW140097   2.352   0.592  17.437  0.9839 -0.2813  0.2952
 9488SOL    HW240098   2.429   0.622  17.307  1.7914 -0.8386  0.4303
 9489SOL     OW40099   2.219   0.136  14.486 -0.1396  0.4773  0.5006
 9489SOL    HW140100   2.286   0.143  14.553  1.0445 -0.2730 -0.6032
 9489SOL    HW240101   2.140   0.119  14.538 -1.8228  1.8519 -1.5862
 9490SOL     OW40102   1.864   0.710   3.579 -0.1840  0.5167  0.6198
 9490SOL    HW140103   1.882   0.754   3.497  0.0655  1.8426  1.3918
 9490SOL    HW240104   1.870   0.789   3.632 -2.8143  0.4719  1.0271
 9491SOL     OW40105   1.918   3.183   2.900  0.2219 -0.4150 -0.5242
 9491SOL    HW140106   1.885   3.107   2.949 -0.8446  2.1692  2.8089
 9491SOL    HW240107   1.861   3.181   2.824  1.7823 -0.7103 -1.6917
 9492SOL     OW40108   4.323   1.986  14.086 -0.3420  0.4869  0.4090
 9492SOL    HW140109   4.262   1.964  14.156  0.9420 -2.7246  0.5264
 9492SOL    HW240110   4.287   1.933  14.015  3.8905  1.5904 -2.5479
 9493SOL     OW40111   2.200   0.623  10.904 -0.1602  0.5968  0.0896
 9493SOL    HW140112   2.281   0.574  10.922 -0.2528  0.3591 -0.1380
 9493SOL    HW240113   2.140   0.563  10.949  2.0649 -3.3849 -2.3304
 9494SOL     OW40114   1.223   4.278   6.058 -0.5699 -0.4630 -0.1574
 9494SOL    HW140115   1.145   4.266   6.113 -1.3257 -0.0894 -1.1526
 9494SOL    HW240116   1.232   4.372   6.072  1.7002 -0.7364  0.2289
 9495SOL     OW40117   0.176   2.318   2.073  0.2829  0.2715  0.5675
 9495SOL    HW140118   0.142   2.285   1.989  0.5552  2.8833 -0.5719
 9495SOL    HW240119   0.260   2.275   2.057  0.2059  0.9331 -1.7149
 9496SOL     OW40120   2.541   0.771   5.575  0.1273  0.6274 -0.3099
 9496SOL    HW140121   2.621   0.736   5.537 -0.1856 -0.4166 -0.0016
 9496SOL    HW240122   2.506   0.694   5.620 -1.4863 -0.1208 -2.8025
 9497SOL     OW40123   1.086   0.751   3.246 -0.6937 -0.3092  0.2101
 9497SOL    HW140124   0.991   0.762   3.237 -0.7946  0.5228  2.1872
 9497SOL    HW240125   1.089   0.771   3.339  1.6953  1.8258 -0.3245
 9498SOL     OW40126   1.768   4.331  17.498  0.6554 -0.3645 -0.1037
 9498SOL    HW140127   1.786   4.364  17.586  1.0228  2.0060 -1.0841
 9498SOL    HW240128   1.678   4.298  17.495  0.7325 -0.6112  0.2227
 9499SOL     OW40129   3.024   3.420   2.345 -0.2684  0.3718 -0.1536
 9499SOL    HW140130   3.055   3.511   2.355  0.6918 -0.2220  2.4518
 9499SOL    HW240131   2.951   3.424   2.406 -1.2151 -2.9099 -1.0754
 9500SOL     OW40132   4.307   1.895   6.799 -0.0756 -0.0967 -0.5039
 9500SOL    HW140133   4.322   1.813   6.751 -0.7844 -0.6295  0.1780
 9500SOL    HW240134   4.360   1.949   6.740  0.3657 -1.7416 -1.6187
 9501SOL     OW40135   1.003   3.144   5.758  0.0400 -0.2586  0.3836
 9501SOL    HW140136   1.042   3.063   5.791  0.6954 -0.7317 -1.6016
 9501SOL    HW240137   1.038   3.153   5.670  0.3581 -0.3217  0.5036
 9502SOL     OW40138   1.004   0.988   1.361  0.2833  0.2440 -0.5312
 9502SOL    HW140139   1.061   0.957   1.432 -0.4200  0.3980  0.1023
 9502SOL    HW240140   0.922   1.012   1.404  0.1438 -1.6692  0.2720
 9503SOL     OW40141   0.385   2.578   8.817  0.4955  0.2987 -0.1889
 9503SOL    HW140142   0.432   2.647   8.771  1.6540  0.4789  1.2670
 9503SOL    HW240143   0.450   2.560   8.884 -0.2148  0.4482  0.5427
 9504SOL     OW40144   2.312   4.298   9.612  0.2877  0.2905  0.7430
 9504SOL    HW140145   2.318   4.279   9.706  0.6770 -0.0536  0.6487
 9504SOL    HW240146   2.363   4.379   9.606 -0.4933  0.5781 -2.0072
 9505SOL     OW40147   2.788   3.630   2.499 -0.9797 -0.0475 -0.1634
 9505SOL    HW140148   2.752   3.578   2.427 -2.1953  1.2348 -0.4843
 9505SOL    HW240149   2.874   3.658   2.470 -0.1980 -0.8473  1.3914
 9506SOL     OW40150   2.317   2.022   6.353  0.7597 -0.4049  1.1450
 9506SOL    HW140151   2.388   2.024   6.288 -0.4803 -0.4433 -0.1912
 9506SOL    HW240152   2.239   2.028   6.298  1.6284  1.7362  0.1426
 9507SOL     OW40153   4.231   2.212   9.307 -0.1659  0.3223 -0.1484
 9507SOL    HW140154   4.157   2.272   9.321  0.7223  1.0693  1.4341
 9507SOL    HW240155   4.272   2.266   9.240 -0.4934 -2.5112 -2.6210
 9508SOL     OW40156   0.871   1.721   6.598 -0.5369  0.2321  0.2037
 9508SOL    HW140157   0.815   1.670   6.657 -0.5905  1.1782  0.9873
 9508SOL    HW240158   0.805   1.748   6.534  0.3200  0.9573 -0.3817
 9509SOL     OW40159   2.602   2.273   6.090  0.3417 -0.6274 -0.1232
 9509SOL    HW140160   2.631   2.362   6.068 -2.1001 -0.3564 -2.2658
 9509SOL    HW240161   2.647   2.229   6.018  2.8607  0.8645  0.5690
 9510SOL     OW40162   0.277   2.675  10.813 -0.2308  0.4308  0.3193
 9510SOL    HW140163   0.186   2.665  10.787 -0.2820 -0.9870  1.0761
 9510SOL    HW240164   0.283   2.770  10.824  2.0134  0.4011 -0.5989
 9511SOL     OW40165   2.748   1.889   3.293  0.4081 -0.2056  0.1369
 9511SOL    HW140166   2.806   1.851   3.227  0.0575  2.9056 -1.9391
 9511SOL    HW240167   2.802   1.882   3.371  0.1369  0.8665  0.4215
 9512SOL     OW40168   3.773   2.473   6.976 -0.3464 -0.5712 -0.2589
 9512SOL    HW140169   3.699   2.514   7.021 -1.3006  0.7285 -2.9557
 9512SOL    HW240170   3.810   2.424   7.049  1.2509 -0.2946 -0.8693
 9513SOL     OW40171   0.574   4.351   1.433  0.2614 -0.0114 -0.1979
 9513SOL    HW140172   0.546   4.316   1.349  0.0546 -2.0614  0.7170
 9513SOL    HW240173   0.539   4.440   1.424  1.0312  0.1489 -1.5743
 9514SOL     OW40174   2.062   0.393  15.442 -0.3985 -0.0403 -0.3505
 9514SOL    HW140175   2.010   0.326  15.399 -0.3687  1.1147 -2.1874
 9514SOL    HW240176   2.131   0.404  15.376 -1.7113  0.4498 -1.6535
 9515SOL     OW40177   4.185   3.717   7.761 -0.0789 -0.2289  0.5496
 9515SOL    HW140178   4.181   3.621   7.752 -0.8535  0.1961 -3.5921
 9515SOL    HW240179   4.258   3.728   7.822  1.2660  0.4107 -1.1691
 9516SOL     OW40180   3.928   3.698  16.380  0.3467  0.2095 -0.2966
 9516SOL    HW140181   3.977   3.616  16.386  1.5057  0.9000 -0.2840
 9516SOL    HW240182   3.879   3.678  16.300  1.9981 -2.5247 -0.5956
 9517SOL     OW40183   4.737   0.059   6.066 -0.0969  0.4350 -0.2521
 9517SOL    HW140184   0.026   0.031   5.978 -1.5707  0.6702 -0.7858
 9517SOL    HW240185   0.012   0.153   6.051  1.7582  0.2429  0.1817
 9518SOL     OW40186   3.611   3.671   5.173  0.3581  0.2830 -0.0276
 9518SOL    HW140187   3.517   3.660   5.162  0.3415  0.6344 -0.2088
 9518SOL    HW240188   3.630   3.756   5.135 -1.8597  1.0445  0.5768
 9519SOL     OW40189   4.519   4.272  12.900  0.9188 -0.4143  0.5986
 9519SOL    HW140190   4.590   4.321  12.857 -0.7458  2.0738  0.7428
 9519SOL    HW240191   4.492   4.332  12.969  2.2637 -0.1608  0.9026
 9520SOL     OW40192   2.252   2.933   9.222 -0.0342  0.5839  0.1444
 9520SOL    HW140193   2.175   2.914   9.275  1.6069 -1.3253  1.8901
 9520SOL    HW240194   2.214   3.005   9.173  1.3578  1.6584  0.6352
 9521SOL     OW40195   0.835   0.861  15.936  0.0294  0.2769 -0.9079
 9521SOL    HW140196   0.841   0.936  15.878 -1.7266  1.4634  0.4418
 9521SOL    HW240197   0.805   0.789  15.881 -0.5121 -1.9443  2.2711
 9522SOL     OW40198   4.662   3.552  12.176  0.1424 -0.1025  0.1533
 9522SOL    HW140199   4.683   3.612  12.105 -1.8208  0.8680  0.4074
 9522SOL    HW240200   4.639   3.473  12.128 -1.6191 -0.1221  1.0235
 9523SOL     OW40201   0.565   2.886   7.431 -0.4329 -0.5904 -0.5910
 9523SOL    HW140202   0.636   2.871   7.493 -0.8615  1.9605  0.5111
 9523SOL    HW240203   0.501   2.916   7.495  1.7747  0.0123  1.2981
 9524SOL     OW40204   1.152   4.696   5.674  0.3549  0.2411 -0.1854
 9524SOL    HW140205   1.186   0.008   5.748  1.6084 -1.4406  0.3545
 9524SOL    HW240206   1.223   4.635   5.654 -1.0423 -1.7944  1.1717
 9525SOL     OW40207   4.384   3.035  11.471  0.1010 -0.0454  0.1116
 9525SOL    HW140208   4.435   3.004  11.545  0.9732  1.1423  0.0056
 9525SOL    HW240209   4.395   2.958  11.415 -1.4405  0.4782 -0.9176
 9526SOL     OW40210   2.549   1.637  11.886 -0.3394  0.3334  0.7990
 9526SOL    HW140211   2.630   1.664  11.929 -0.0989  0.3706  0.3080
 9526SOL    HW240212   2.490   1.708  11.914 -1.1886 -0.9832  2.3571
 9527SOL     OW40213   0.297   4.216  15.332 -0.6120 -0.4172  0.2073
 9527SOL    HW140214   0.319   4.132  15.373  0.1369  1.1346  2.9928
 9527SOL    HW240215   0.361   4.223  15.262 -0.7893  2.6773  0.3426
 9528SOL     OW40216   0.862   4.595   4.203  0.6003 -0.1575 -0.6334
 9528SOL    HW140217   0.896   4.516   4.246  0.8507 -0.3021 -1.0931
 9528SOL    HW240218   0.862   4.581   4.108  1.5097 -3.4029 -0.1562
 9529SOL     OW40219   2.286   1.576   9.286 -0.5632 -0.2689  0.1142
 9529SOL    HW140220   2.320   1.581   9.376 -2.3102  0.5758  0.7298
 9529SOL    HW240221   2.319   1.490   9.262  0.5816  0.3064 -0.3417
 9530SOL     OW40222   2.815   1.359   2.971 -0.0660 -0.2643 -0.4555
 9530SOL    HW140223   2.720   1.369   2.975 -0.1023 -0.5889 -0.4811
 9530SOL    HW240224   2.824   1.275   3.016  0.5132 -0.6856 -1.3532
 9531SOL     OW40225   1.602   1.319  12.524  0.3165  0.2552 -0.3211
 9531SOL    HW140226   1.638   1.329  12.436 -2.7670  1.3908 -1.4660
 9531SOL    HW240227   1.596   1.410  12.553  0.3053 -0.6225  2.3753
 9532SOL     OW40228   0.494   3.719   3.959 -0.0191  0.3518 -0.0824
 9532SOL    HW140229   0.470   3.764   3.878  0.5026  0.5002 -0.1546
 9532SOL    HW240230   0.440   3.761   4.027 -0.9242 -1.2800  0.1936
 9533SOL     OW40231   2.004   3.528   6.198 -0.0864 -0.0638  0.3440
 9533SOL    HW140232   2.092   3.552   6.225  1.1170  0.6769 -4.2263
 9533SOL    HW240233   2.033   3.493   6.115 -1.0273 -2.3063  0.9664
 9534SOL     OW40234   2.511   2.598  10.467 -0.2298  0.2584  0.5328
 9534SOL    HW140235   2.582   2.577  10.527 -0.7063 -0.1982  0.9383
 9534SOL    HW240236   2.499   2.508  10.436  1.4794  0.6353 -1.2239
 9535SOL     OW40237   1.729   2.114   4.985  0.4766  0.0834 -0.2539
 9535SOL    HW140238   1.816   2.084   4.958 -0.5521 -0.2309 -3.2339
 9535SOL    HW240239   1.707   2.161   4.904  0.9931 -3.3052 -2.4065
 9536SOL     OW40240   3.745   0.904   1.653 -0.3477 -0.0767 -0.6879
 9536SOL    HW140241   3.725   0.977   1.594  0.7022  0.6425 -0.1475
 9536SOL    HW240242   3.748   0.825   1.599  0.4424 -0.7024  0.2821
 9537SOL     OW40243   4.039   4.454   8.804 -0.5185  0.0151 -0.0871
 9537SOL    HW140244   4.032   4.498   8.889  1.4875 -1.7126  0.9738
 9537SOL    HW240245   4.037   4.363   8.833 -0.3687  0.2541  0.6825
 9538SOL     OW40246   4.656   1.406   2.077  0.0233  0.8089  0.1139
 9538SOL    HW140247   4.582   1.454   2.114 -0.6264 -0.2230  0.1550
 9538SOL    HW240248   4.657   1.440   1.988  0.1358  2.1735  0.6385
 9539SOL     OW40249   3.901   1.380   3.494  0.1438 -0.9713  0.0811
 9539SOL    HW140250   3.966   1.378   3.564 -0.2997  3.2871  0.6051
 9539SOL    HW240251   3.922   1.293   3.461  0.0159 -0.6724 -0.7882
 9540SOL     OW40252   3.483   2.184   4.977  0.0040  0.3374  0.5110
 9540SOL    HW140253   3.556   2.143   4.929  0.9877  1.0224  1.4265
 9540SOL    HW240254   3.448   2.242   4.909  0.9728  0.2944 -0.0205
 9541SOL     OW40255   2.607   2.300   2.477 -0.5770  0.1250 -0.2158
 9541SOL    HW140256   2.693   2.321   2.513 -0.1179  0.9985 -1.8034
 9541SOL    HW240257   2.633   2.242   2.405  3.0369 -0.1517  1.3171
 9542SOL     OW40258   0.105   0.428   3.142 -0.1980  0.1204 -0.0738
 9542SOL    HW140259   0.076   0.497   3.082 -0.3842 -1.1638 -1.4675
 9542SOL    HW240260   0.022   0.380   3.143  0.8683 -1.7143  1.8129
 9543SOL     OW40261   3.607   1.525   2.176  0.0165 -0.4842  0.0215
 9543SOL    HW140262   3.573   1.568   2.255 -2.0699  2.0275 -2.2171
 9543SOL    HW240263   3.589   1.594   2.112 -1.3141  1.5148  2.5225
 9544SOL     OW40264   0.939   4.700   4.500 -0.0819 -0.2880 -0.1802
 9544SOL    HW140265   0.935   0.013   4.582  0.3814 -0.8488  0.1887
 9544SOL    HW240266   0.884   0.016   4.443  0.8236  1.1202  0.2688
 9545SOL     OW40267   4.458   3.710  16.841  0.3495  0.5967 -0.4894
 9545SOL    HW140268   4.481   3.732  16.931  0.5974  1.3583 -0.7404
 9545SOL    HW240269   4.374   3.755  16.830 -1.1197 -2.1611 -0.3617
 9546SOL     OW40270   1.556   1.009   3.185  0.0469 -0.1132 -0.4939
 9546SOL    HW140271   1.611   0.932   3.200 -1.3499 -1.4767 -2.2618
 9546SOL    HW240272   1.578   1.058   3.264 -0.8384  0.5363 -0.6554
 9547SOL     OW40273   0.166   2.732   1.873  0.1179 -0.1152  0.6632
 9547SOL    HW140274   0.174   2.692   1.959  1.7880 -2.9505 -0.8296
 9547SOL    HW240275   0.247   2.705   1.830  0.3821  2.6537 -0.6313
 9548SOL     OW40276   1.275   4.505  17.026  0.1087  0.4217  0.9006
 9548SOL    HW140277   1.259   4.501  16.931 -0.0208  1.6676  0.8735
 9548SOL    HW240278   1.241   4.421  17.057  0.0694 -0.5003 -1.6131
 9549SOL     OW40279   4.620   3.432   8.116  0.1561 -0.4479  0.5458
 9549SOL    HW140280   4.613   3.498   8.185 -1.1413 -0.7789  0.7308
 9549SOL    HW240281   4.693   3.382   8.153  1.2247 -1.0102 -2.2662
 9550SOL     OW40282   1.710   1.295   8.314 -0.3367 -0.0270 -0.7021
 9550SOL    HW140283   1.753   1.334   8.238 -0.9702  1.7662 -0.1407
 9550SOL    HW240284   1.629   1.344   8.316 -0.7307 -0.7132  0.2943
 9551SOL     OW40285   2.342   2.869   4.720 -0.5369  0.4277  0.0809
 9551SOL    HW140286   2.303   2.913   4.646 -1.0738 -0.5803 -0.2376
 9551SOL    HW240287   2.280   2.898   4.787  0.4081  1.8194  0.3465
 9552SOL     OW40288   1.362   0.046   1.874  0.0264 -0.0165 -0.6171
 9552SOL    HW140289   1.429   0.050   1.942 -0.0041  2.2204 -0.7124
 9552SOL    HW240290   1.325   4.701   1.902  0.8696 -1.0879 -2.6199
 9553SOL     OW40291   1.573   4.313   5.695 -0.2711 -0.4804  0.1361
 9553SOL    HW140292   1.618   4.385   5.651  0.0581 -0.7982 -0.0405
 9553SOL    HW240293   1.629   4.287   5.768 -0.5445 -1.2016  0.0885
 9554SOL     OW40294   1.250   1.488   7.975 -0.3799  0.3386 -0.3412
 9554SOL    HW140295   1.279   1.520   7.890  1.7845 -1.5300 -0.3035
 9554SOL    HW240296   1.206   1.410   7.942  1.4575 -1.1534  0.7422
 9555SOL     OW40297   0.057   4.032   4.073  0.0373  0.0997 -0.6197
 9555SOL    HW140298   0.108   3.965   4.118 -0.2102 -0.3162 -0.9587
 9555SOL    HW240299   4.722   4.050   4.133 -1.0838  1.3189 -2.3426
 9556SOL     OW40300   3.521   3.045   4.593 -0.4892  0.2788 -0.4661
 9556SOL    HW140301   3.549   3.137   4.592  3.2740 -0.8797 -3.2093
 9556SOL    HW240302   3.525   3.016   4.502 -0.3503 -3.3649  0.6976
 9557SOL     OW40303   0.490   3.739   2.295 -0.1017 -0.2043 -0.0823
 9557SOL    HW140304   0.534   3.823   2.281 -0.4610 -0.2590 -1.5139
 9557SOL    HW240305   0.403   3.771   2.317  0.7593  1.6781  0.6792
 9558SOL     OW40306   3.089   2.599  13.046  0.3148  0.6372  0.3310
 9558SOL    HW140307   3.138   2.663  13.099 -0.2508 -1.6683  3.5895
 9558SOL    HW240308   3.140   2.592  12.965 -0.2761 -2.1956  0.2242
 9559SOL     OW40309   1.017   1.737  12.103 -0.3515  0.1709 -0.4259
 9559SOL    HW140310   0.937   1.784  12.127 -0.2412 -0.1401  0.5621
 9559SOL    HW240311   1.000   1.708  12.014 -1.2627 -1.0208  0.1241
 9560SOL     OW40312   1.800   2.027   5.235 -0.2324 -0.1196 -0.2008
 9560SOL    HW140313   1.737   2.076   5.287  0.2900  0.3357  0.0063
 9560SOL    HW240314   1.782   2.075   5.154  0.1763 -0.5861 -0.5746
 9561SOL     OW40315   2.917   0.838   4.014 -0.3295 -0.4582 -0.2007
 9561SOL    HW140316   2.843   0.892   4.043 -0.6069  0.4606 -2.5706
 9561SOL    HW240317   2.882   0.751   4.034  0.3106 -1.0469 -1.6063
 9562SOL     OW40318   0.942   3.611   9.497  0.1757  0.4573  0.1742
 9562SOL    HW140319   0.977   3.590   9.410 -2.4556  1.2500 -1.0743
 9562SOL    HW240320   0.886   3.536   9.516  0.4244  0.1740 -0.1886
 9563SOL     OW40321   0.461   1.834  12.351 -0.0545  0.3274 -0.1617
 9563SOL    HW140322   0.428   1.849  12.440 -0.6794  1.1332 -0.5335
 9563SOL    HW240323   0.450   1.739  12.347 -3.5900  0.7635 -0.5664
 9564SOL     OW40324   2.166   0.890  17.098  0.5757  0.4287 -0.3067
 9564SOL    HW140325   2.211   0.964  17.138  1.9474  0.8353 -2.6526
 9564SOL    HW240326   2.090   0.935  17.062 -0.0231 -0.5440 -0.2839
 9565SOL     OW40327   2.483   0.920   8.612 -0.1381 -1.1836 -0.4264
 9565SOL    HW140328   2.396   0.900   8.576 -0.4800 -1.0569  0.3270
 9565SOL    HW240329   2.501   1.008   8.579 -1.0448  0.1843  2.7482
 9566SOL     OW40330   0.138   4.444  15.287  0.0184  0.3133  0.5894
 9566SOL    HW140331   0.055   4.397  15.291 -0.1887  0.4901 -1.5234
 9566SOL    HW240332   0.204   4.375  15.293  0.6747  0.7484 -1.4243
 9567SOL     OW40333   4.115   0.240   3.571 -0.6466  0.6160  0.0805
 9567SOL    HW140334   4.086   0.232   3.662  4.1454 -0.1232  1.5723
 9567SOL    HW240335   4.142   0.153   3.542  0.4073  0.8553  0.3286
 9568SOL     OW40336   3.543   3.624   2.865  0.6374  0.2511  0.2514
 9568SOL    HW140337   3.447   3.620   2.863  0.7295 -1.2833 -1.9933
 9568SOL    HW240338   3.555   3.696   2.926  0.0480 -0.4061  1.1454
 9569SOL     OW40339   3.680   1.073  11.383 -0.5012  0.5028  0.0479
 9569SOL    HW140340   3.643   1.037  11.463  1.7176 -0.6900  0.5252
 9569SOL    HW240341   3.739   1.002  11.356 -0.0625  1.7558 -2.2876
 9570SOL     OW40342   4.354   4.472   5.856 -0.1234 -0.4605  0.0713
 9570SOL    HW140343   4.262   4.501   5.855  0.1758  0.4630 -1.3696
 9570SOL    HW240344   4.395   4.536   5.914 -0.8846 -0.9274  1.1361
 9571SOL     OW40345   0.517   1.858   6.836 -0.5722  0.0398  0.5584
 9571SOL    HW140346   0.430   1.897   6.829 -1.5125 -2.9731 -4.9815
 9571SOL    HW240347   0.547   1.911   6.909 -1.6665  1.6497 -0.1608
   4.73786   4.73786  17.74958
