Membrane in water
40347
    1TMC1    C1    1   2.283   0.039  11.821 -0.4125 -0.2231 -0.5577
    1TMC1    C2    2   2.336   0.157  11.867  0.2890 -0.1505  0.2411
    1TMC1    C3    3   2.318   0.268  11.792  0.3989  0.1703 -1.0370
    1TMC1    C4    4   2.213   0.024  11.697 -0.5146  0.1306 -0.2626
    1TMC1    C5    5   2.220   0.136  11.627 -0.5674 -0.2880  0.8496
    1TMC1    C6    6   2.272   0.256  11.664  0.1752  0.4758 -0.4904
    1TMC1     C    7   2.261   4.662  11.915  0.0272 -0.4405  1.2329
    1TMC1     O    8   2.251   4.696  12.030  0.5690 -0.2817 -0.7938
    1TMC1     H    9   2.389   0.166  11.962  0.3696 -1.0833  0.2920
    1TMC1    H1   10   2.167   4.664  11.672  0.0668 -0.0091 -0.8051
    1TMC1    H2   11   2.258   0.349  11.610  1.4325 -0.0669 -1.7750
    1TMC1    C7   12   2.183   0.125  11.493 -0.7906  0.1014 -0.0123
    1TMC1    C8   13   2.372   0.392  11.841 -0.3522  0.1142 -0.4446
    1TMC1    O1   14   2.181   0.218  11.413  0.2828 -0.4656  0.1138
    1TMC1    O2   15   2.392   0.422  11.961 -0.2845 -0.8030  0.2617
    1TMC1    O3   16   2.084   0.039  11.489  0.7185 -0.5080  0.1457
    1TMC1    H3   17   2.035   0.037  11.573 -0.5614 -0.1111 -0.5988
    1TMC1    O5   18   2.439   0.452  11.739  0.8567 -0.0503 -0.0177
    1TMC1    H5   19   2.418   0.419  11.649 -0.7263  1.7698 -0.3288
    2MPD2     C   20   2.332   4.170  12.079  0.2727  0.1038 -0.5319
    2MPD2    C1   21   2.335   4.290  12.151 -0.0026 -0.3044  0.1210
    2MPD2    C2   22   2.318   4.411  12.081 -0.0481  0.1444 -0.5043
    2MPD2    C3   23   2.312   4.418  11.941  0.9385 -0.1475  0.2785
    2MPD2    C4   24   2.322   4.297  11.872 -0.0152  0.0802  0.1991
    2MPD2    C5   25   2.335   4.176  11.943  0.0043  0.3104  0.0442
    2MPD2     H   26   2.317   4.507  12.132  0.0545 -1.7183  2.9563
    2MPD2    H1   27   2.320   4.290  11.764  0.6138 -1.8844  0.3160
    2MPD2    H2   28   2.335   4.077  12.135 -1.5322  1.7264  2.2726
    2MPD2    H3   29   2.336   4.085  11.885 -1.3581  0.8505 -0.8303
    2MPD2     N   30   2.274   4.536  11.867  0.3928  0.1671 -0.0172
    2MPD2    H5   31   2.296   4.529  11.768 -0.8534  1.2642 -0.3667
    2MPD2    N1   32   2.348   4.302  12.290 -0.2825  0.4621 -0.2577
    2MPD2    H7   33   2.329   4.396  12.323  0.5655 -0.0941  1.8049
    3TMC1    C1   34   1.370   0.075  11.153  0.4288 -0.4104  0.4028
    3TMC1    C2   35   1.370   0.142  11.034  0.1815 -0.3836  0.0960
    3TMC1    C3   36   1.404   0.085  10.913 -0.5828 -0.1449  0.1523
    3TMC1    C4   37   1.413   4.678  11.158  0.1715 -0.3225 -0.4880
    3TMC1    C5   38   1.446   4.619  11.040  0.4925 -0.1141  0.3231
    3TMC1    C6   39   1.449   4.692  10.923  0.4649  0.4590 -0.0535
    3TMC1     C   40   1.370   0.151  11.277 -0.0946 -0.3648  0.1944
    3TMC1     O   41   1.363   0.088  11.382  0.4031  0.5683  0.3411
    3TMC1     H   42   1.358   0.250  11.038 -1.6253 -0.6425  2.0209
    3TMC1    H1   43   1.431   4.624  11.251 -0.5355  0.9984  0.4214
    3TMC1    H2   44   1.465   4.647  10.825 -2.0728  0.7634 -0.6081
    3TMC1    C7   45   1.460   4.475  11.033 -0.3415 -1.2999  0.1375
    3TMC1    C8   46   1.436   0.163  10.802  0.6431 -0.3448  0.5104
    3TMC1    O1   47   1.504   4.416  10.937 -0.2976  0.6720 -0.8246
    3TMC1    O2   48   1.475   0.279  10.815 -0.2321  0.0925 -0.0106
    3TMC1    O3   49   1.368   4.427  11.117 -0.0676  0.3216 -0.1612
    3TMC1    H3   50   1.336   4.505  11.167  1.2708  0.0770  1.0768
    3TMC1    O5   51   1.407   0.100  10.690  0.2024 -0.0843  0.4718
    3TMC1    H5   52   1.378   0.006  10.691 -1.5658  0.4477 -0.8911
    4MPD2     C   53   1.375   0.582  11.535  0.3909  0.0525 -0.4943
    4MPD2    C1   54   1.429   0.614  11.408  0.6670 -0.1487 -0.6643
    4MPD2    C2   55   1.456   0.507  11.322  0.3444  0.7109  0.3991
    4MPD2    C3   56   1.407   0.382  11.358  1.1408 -0.1490 -0.3784
    4MPD2    C4   57   1.340   0.361  11.474  0.5054  0.8169  1.0150
    4MPD2    C5   58   1.332   0.462  11.567 -0.4702  0.4307 -0.5849
    4MPD2     H   59   1.508   0.512  11.226  0.8867 -0.2351  0.6359
    4MPD2    H1   60   1.303   0.264  11.505 -0.2254  0.2680 -1.6108
    4MPD2    H2   61   1.372   0.658  11.613 -3.4315 -1.2353  0.6136
    4MPD2    H3   62   1.283   0.436  11.661 -2.1948  0.5495 -1.4418
    4MPD2     N   63   1.423   0.283  11.263 -0.5299 -0.3153 -0.1912
    4MPD2    H5   64   1.470   0.305  11.176  0.5814  1.0256  0.7504
    4MPD2    N1   65   1.474   0.739  11.367 -0.0794 -0.4788 -0.5934
    4MPD2    H7   66   1.519   0.741  11.276 -0.0378 -0.3610 -0.5698
    5TCq1    O1   67   1.826   2.706  12.220  0.2424 -0.4251  0.0632
    5TCq1    C1   68   1.803   2.698  12.083 -0.1849  0.2713 -0.4980
    5TCq1    O2   69   1.706   2.731  12.019  0.0955  0.5847 -0.4397
    5TCq1    C2   70   1.899   2.612  12.021 -0.0153 -0.9389 -0.0850
    5TCq1    C3   71   2.022   2.619  12.070  0.4764 -0.3030  0.2341
    5TCq1    C4   72   2.116   2.551  11.998  0.0015  0.1109 -0.0184
    5TCq1    C5   73   2.087   2.488  11.881 -0.1752 -0.3745  0.1232
    5TCq1    C6   74   1.956   2.491  11.833  0.2315 -0.6988  0.1580
    5TCq1    C7   75   1.863   2.552  11.904  0.1438  0.6950  1.0568
    5TCq1    C8   76   1.934   2.431  11.703 -0.2711  0.4198 -0.2913
    5TCq1    O4   77   2.028   2.368  11.654  0.4188 -0.0731  0.1500
    5TCq1    C9   78   2.249   2.532  12.054  0.0637 -0.0141 -0.0583
    5TCq1    O5   79   2.326   2.466  11.983 -0.2802  0.1488 -0.1386
    5TCq1    O6   80   2.260   2.557  12.181  0.0595  0.2266  0.3468
    5TCq1    H1   81   1.894   2.640  12.246  1.5931  0.6630 -0.6862
    5TCq1    H2   82   2.062   2.663  12.161  1.2997 -0.2522 -0.1479
    5TCq1    H3   83   2.164   2.440  11.822  1.3100 -0.9923  2.5844
    5TCq1    H4   84   1.757   2.540  11.882  0.4999 -0.5878  0.0658
    6MPD2     C   85   1.609   2.408  11.538 -0.1298  0.5115  0.3050
    6MPD2    C1   86   1.745   2.385  11.554  0.7060  0.6974  0.0984
    6MPD2    C2   87   1.809   2.316  11.455 -0.2042 -0.1764  0.3044
    6MPD2    C3   88   1.738   2.257  11.351  0.3531  0.1261  0.0325
    6MPD2    C4   89   1.604   2.280  11.337 -0.0324 -0.2667  0.1789
    6MPD2    C5   90   1.541   2.355  11.429  0.1822  0.2465 -0.0418
    6MPD2     H   91   1.917   2.305  11.450 -0.2489 -0.5018  0.0524
    6MPD2    H1   92   1.549   2.236  11.255 -0.9544 -0.4192  0.8742
    6MPD2    H2   93   1.557   2.465  11.615 -0.5666  2.7544 -1.6398
    6MPD2    H3   94   1.438   2.372  11.399  0.2225  0.0049 -0.3124
    6MPD2     N   95   1.814   2.194  11.248 -0.8730 -0.0120  0.3131
    6MPD2    H5   96   1.909   2.163  11.266 -1.8551 -3.2192 -0.1009
    6MPD2    N1   97   1.804   2.445  11.667  0.0188 -0.3675  0.7359
    6MPD2    H7   98   1.739   2.503  11.718  0.6950  0.2144  0.9373
    7TCq1    O1   99   3.402   2.164  13.218  0.9171  0.1470  0.0732
    7TCq1    C1  100   3.527   2.137  13.178 -0.3900  0.7832  0.6978
    7TCq1    O2  101   3.616   2.215  13.145  0.5669  0.2044  0.7754
    7TCq1    C2  102   3.544   1.997  13.199 -0.4284  0.5661 -0.3603
    7TCq1    C3  103   3.449   1.904  13.163  0.0376 -0.6793 -0.1286
    7TCq1    C4  104   3.489   1.772  13.167  0.6074 -0.6337 -0.5017
    7TCq1    C5  105   3.597   1.731  13.231  0.3511 -0.3486 -0.2145
    7TCq1    C6  106   3.681   1.823  13.282 -0.5597 -0.0934  0.0516
    7TCq1    C7  107   3.657   1.954  13.265 -0.0077 -0.2623 -0.1803
    7TCq1    C8  108   3.799   1.774  13.352 -0.1505 -0.1057 -0.1645
    7TCq1    O4  109   3.836   1.662  13.314 -0.3657  0.2042  0.3790
    7TCq1    C9  110   3.390   1.672  13.134 -0.4510 -0.0690 -0.9468
    7TCq1    O5  111   3.389   1.563  13.186 -0.2641  0.3038  0.3381
    7TCq1    O6  112   3.296   1.702  13.061 -0.1573 -0.4031 -0.2565
    7TCq1    H1  113   3.361   2.084  13.257  0.8905 -0.5164 -1.3231
    7TCq1    H2  114   3.353   1.929  13.120 -0.6338 -1.3052  1.0059
    7TCq1    H3  115   3.620   1.626  13.244  1.3702 -0.5656 -3.6550
    7TCq1    H4  116   3.724   2.029  13.305 -0.3732 -0.4314  0.7473
    8MPD2     C  117   4.141   1.788  13.733  0.6318  0.6217 -0.1543
    8MPD2    C1  118   4.092   1.674  13.666  0.0270  0.7498  0.0950
    8MPD2    C2  119   3.992   1.693  13.573  0.2369  0.2095 -0.1913
    8MPD2    C3  120   3.939   1.823  13.554  0.3057 -0.5239  0.0379
    8MPD2    C4  121   3.979   1.931  13.627 -0.0127  0.1366  1.0568
    8MPD2    C5  122   4.079   1.913  13.724 -0.7449  0.6724  0.1154
    8MPD2     H  123   3.956   1.606  13.520  3.4653 -1.7538  0.8522
    8MPD2    H1  124   3.935   2.029  13.614  1.0392  0.3319 -1.1283
    8MPD2    H2  125   4.226   1.769  13.798  0.2915  0.0222  0.1109
    8MPD2    H3  126   4.100   1.997  13.789  0.8611 -1.1945  2.0334
    8MPD2     N  127   3.834   1.851  13.459  0.2107 -0.9276 -0.6126
    8MPD2    H5  128   3.783   1.936  13.482  2.7927  0.5356 -0.3447
    8MPD2    N1  129   4.152   1.552  13.702  0.4855  0.4007  0.3114
    8MPD2    H7  130   4.230   1.553  13.766  0.0243  0.0114  0.8745
    9TMC1    C1  131   2.387   0.696  11.041 -0.0286 -0.0647 -0.3167
    9TMC1    C2  132   2.431   0.726  10.912  0.2670  0.2981 -0.0147
    9TMC1    C3  133   2.507   0.631  10.849 -1.1300 -0.4060 -0.3245
    9TMC1    C4  134   2.431   0.575  11.098  0.6754  0.5754  0.3252
    9TMC1    C5  135   2.518   0.498  11.033  0.2304  0.1064 -0.6894
    9TMC1    C6  136   2.563   0.522  10.904 -0.0115 -0.0410 -0.2999
    9TMC1     C  137   2.329   0.801  11.128  0.4840 -0.1311 -0.0430
    9TMC1     O  138   2.349   0.911  11.079  0.9706  0.1776 -0.5709
    9TMC1     H  139   2.415   0.823  10.868 -0.1355 -0.2415 -1.0480
    9TMC1    H1  140   2.403   0.548  11.199 -2.1115  1.0800 -0.3378
    9TMC1    H2  141   2.636   0.459  10.854  1.3894  1.3720 -0.0054
    9TMC1    C7  142   2.543   0.367  11.096  0.0314  0.6200 -0.4005
    9TMC1    C8  143   2.592   0.688  10.746 -0.2313  0.4833  0.1141
    9TMC1    O1  144   2.498   0.343  11.211  0.0798 -0.7649  0.0815
    9TMC1    O2  145   2.637   0.618  10.659  0.1494  0.2512  0.1284
    9TMC1    O3  146   2.554   0.269  11.011  0.0524  0.3575 -0.1279
    9TMC1    H3  147   2.552   0.286  10.914 -0.0763 -1.2933 -0.4145
    9TMC1    O5  148   2.665   0.772  10.818 -0.1220 -0.2159 -0.2185
    9TMC1    H5  149   2.615   0.830  10.878  0.7594  0.8944 -0.5696
   10MPD2     C  150   2.279   0.979  11.373 -0.5562  0.2115 -0.0012
   10MPD2    C1  151   2.252   0.839  11.359  0.6653  0.0033  0.3647
   10MPD2    C2  152   2.228   0.766  11.473  0.3690  0.4122  0.1942
   10MPD2    C3  153   2.177   0.825  11.589  0.0846  0.5038  0.0272
   10MPD2    C4  154   2.198   0.961  11.597 -0.1260 -0.3266 -0.2164
   10MPD2    C5  155   2.251   1.037  11.495 -0.4107 -0.4375  0.8360
   10MPD2     H  156   2.231   0.658  11.463 -0.8752  0.6250 -2.5219
   10MPD2    H1  157   2.163   1.011  11.687 -1.3158 -2.1221  0.3162
   10MPD2    H2  158   2.318   1.039  11.292  0.9891 -1.2282 -0.3455
   10MPD2    H3  159   2.234   1.144  11.507 -0.6672 -0.4265  0.3370
   10MPD2     N  160   2.132   0.757  11.705 -0.0510 -0.0913 -0.4796
   10MPD2    H5  161   2.107   0.816  11.784  0.1358 -0.3243 -0.2476
   10MPD2    N1  162   2.284   0.761  11.251  0.6430 -0.4268  0.1435
   10MPD2    H7  163   2.286   0.660  11.262  2.0306 -0.3403  0.6636
   11TCq1    O1  164   3.533   0.883  14.820 -0.6463  0.3676  0.1636
   11TCq1    C1  165   3.451   0.988  14.829 -0.0785  0.2694 -0.9577
   11TCq1    O2  166   3.404   1.016  14.937  0.1732  0.6360 -0.4558
   11TCq1    C2  167   3.369   0.969  14.714 -0.1682  0.3163  0.0990
   11TCq1    C3  168   3.426   0.964  14.586  1.0155 -0.4202  0.6041
   11TCq1    C4  169   3.344   0.937  14.479 -0.3138  0.0017 -0.7049
   11TCq1    C5  170   3.207   0.927  14.490  0.3223 -0.4334  0.2026
   11TCq1    C6  171   3.152   0.930  14.623  0.1157  0.5932 -0.8265
   11TCq1    C7  172   3.233   0.954  14.735 -0.0745  0.1983 -0.4715
   11TCq1    C8  173   3.015   0.912  14.653  0.1584 -0.1535 -0.0337
   11TCq1    O4  174   2.983   0.917  14.768 -0.2772 -0.4971 -0.4022
   11TCq1    C9  175   3.407   0.923  14.351  0.5627 -0.9220  0.0812
   11TCq1    O5  176   3.333   0.918  14.250 -0.7550 -0.6169 -0.0626
   11TCq1    O6  177   3.529   0.961  14.342 -0.4641  0.3173 -0.1373
   11TCq1    H1  178   3.551   0.850  14.730  2.4634  2.8673 -0.1180
   11TCq1    H2  179   3.533   0.974  14.576  1.0369 -0.6258  0.6262
   11TCq1    H3  180   3.152   0.896  14.402  0.4401 -0.4034  0.1185
   11TCq1    H4  181   3.195   0.964  14.836 -0.1904  2.2871 -0.7179
   12MPD2     C  182   2.737   0.836  14.659  0.7367  0.3649 -0.3835
   12MPD2    C1  183   2.803   0.847  14.536 -0.4107 -0.0419 -0.2083
   12MPD2    C2  184   2.749   0.796  14.424  0.4969  0.5211 -0.6781
   12MPD2    C3  185   2.628   0.729  14.428  0.6796 -0.3122  0.4101
   12MPD2    C4  186   2.555   0.732  14.545 -0.1540  0.8275 -0.2437
   12MPD2    C5  187   2.609   0.789  14.657  0.8400  1.0112 -0.4813
   12MPD2     H  188   2.803   0.806  14.330  0.1660  0.6872 -0.8525
   12MPD2    H1  189   2.453   0.697  14.552  0.5443 -1.4538 -1.4828
   12MPD2    H2  190   2.781   0.870  14.752  0.4329 -1.3286  0.3814
   12MPD2    H3  191   2.550   0.792  14.747  0.7400 -6.2550 -0.2720
   12MPD2     N  192   2.575   0.648  14.318 -0.4682 -0.9100 -0.4970
   12MPD2    H5  193   2.478   0.619  14.327 -0.2507 -1.9955 -1.6657
   12MPD2    N1  194   2.938   0.893  14.539 -0.4092 -0.3762 -0.6700
   12MPD2    H7  195   2.975   0.920  14.449 -0.1173  2.2471  0.2266
   13TCq1    O1  196   1.440   4.685  10.263 -0.7176 -0.1027  0.0367
   13TCq1    C1  197   1.519   4.614  10.340  0.2179 -0.0941 -0.1923
   13TCq1    O2  198   1.529   4.494  10.323  0.1249  0.2197 -0.1702
   13TCq1    C2  199   1.620   4.710  10.392  0.2228  0.2340  0.7912
   13TCq1    C3  200   1.667   0.071  10.314 -0.6157  0.3543  0.4541
   13TCq1    C4  201   1.756   0.166  10.368 -0.4185 -0.3075  0.0713
   13TCq1    C5  202   1.798   0.163  10.499 -0.0059  0.4470  0.1550
   13TCq1    C6  203   1.759   0.054  10.565  1.0158 -0.6851 -0.2100
   13TCq1    C7  204   1.664   4.704  10.525 -0.1813  0.0726 -0.3578
   13TCq1    C8  205   1.783   0.062  10.707 -0.6720  0.4475 -0.6554
   13TCq1    O4  206   1.711   0.024  10.800  0.5104  0.0569  0.2056
   13TCq1    C9  207   1.822   0.263  10.281  0.0175  0.0253  0.2737
   13TCq1    O5  208   1.787   0.271  10.161 -0.3618  0.3828 -0.1295
   13TCq1    O6  209   1.908   0.335  10.337 -0.5128 -0.0580 -0.1611
   13TCq1    H1  210   1.431   0.045  10.285 -3.5998 -0.5974  0.9921
   13TCq1    H2  211   1.651   0.083  10.208  0.2554  0.6114  0.3548
   13TCq1    H3  212   1.861   0.243  10.535  0.0239  0.7899 -0.6397
   13TCq1    H4  213   1.613   4.629  10.585 -0.9619  1.6661  0.9613
   14MPD2     C  214   2.120   0.154  10.830 -0.4395  0.0849 -0.2607
   14MPD2    C1  215   1.987   0.127  10.842  0.1482  0.1356 -0.2633
   14MPD2    C2  216   1.933   0.107  10.970 -0.1489 -0.8837  0.2061
   14MPD2    C3  217   2.005   0.142  11.083  0.0591  0.1891 -0.0619
   14MPD2    C4  218   2.135   0.184  11.061 -0.5034  0.6608  0.5916
   14MPD2    C5  219   2.196   0.187  10.937  0.2890 -0.3211 -0.1945
   14MPD2     H  220   1.830   0.075  10.980 -0.8010  1.6041  1.2189
   14MPD2    H1  221   2.194   0.212  11.148 -0.3179 -0.9101  0.9670
   14MPD2    H2  222   2.167   0.174  10.733  0.3203 -1.4926 -0.2088
   14MPD2    H3  223   2.295   0.231  10.928  0.7105 -1.1422  0.4060
   14MPD2     N  224   1.958   0.151  11.210  0.0256  0.4718 -0.1377
   14MPD2    H5  225   2.031   0.193  11.267 -0.8729  3.4448 -1.1735
   14MPD2    N1  226   1.912   0.112  10.724 -0.5899 -0.2612  0.1321
   14MPD2    H7  227   1.952   0.138  10.634  0.9886  0.8981  1.1591
   15TCq1    O1  228   4.575   0.365   2.321 -0.7177 -0.4268  0.3907
   15TCq1    C1  229   4.523   0.244   2.317 -0.1581 -0.4247 -0.4949
   15TCq1    O2  230   4.574   0.150   2.373 -0.0987  0.2353  0.4194
   15TCq1    C2  231   4.448   0.217   2.190  0.0983  0.4445 -0.4884
   15TCq1    C3  232   4.346   0.308   2.156 -0.2208  0.2992  0.3182
   15TCq1    C4  233   4.254   0.274   2.061  0.0511  0.0259 -0.1715
   15TCq1    C5  234   4.261   0.152   2.001 -0.4386  0.2285 -0.0412
   15TCq1    C6  235   4.363   0.058   2.045 -0.0572 -0.2913 -0.4761
   15TCq1    C7  236   4.459   0.096   2.133  0.4335 -0.2050 -0.1656
   15TCq1    C8  237   4.372   4.668   1.972  0.0615  0.0960  0.2312
   15TCq1    O4  238   4.464   4.592   1.998 -0.3346 -0.9673  0.0095
   15TCq1    C9  239   4.164   0.373   2.016  0.1788 -0.4204 -0.8177
   15TCq1    O5  240   4.081   0.333   1.932  0.9462  0.6241  0.6036
   15TCq1    O6  241   4.146   0.471   2.094  0.0300  0.2567 -0.2024
   15TCq1    H1  242   4.522   0.437   2.279  1.4798  0.6687 -0.4673
   15TCq1    H2  243   4.343   0.402   2.210  0.3061  0.7113 -0.3680
   15TCq1    H3  244   4.183   0.138   1.927 -1.7177  0.4122  1.2500
   15TCq1    H4  245   4.532   0.021   2.164  1.9586  0.7562 -1.4139
   16MPD2     C  246   4.137   4.506   1.736  0.1022  0.1987 -0.6826
   16MPD2    C1  247   4.256   4.533   1.801  0.1571  0.1981  0.0541
   16MPD2    C2  248   4.366   4.449   1.765  0.6433  0.0474  0.6856
   16MPD2    C3  249   4.358   4.346   1.675  0.1300 -0.2435 -0.2856
   16MPD2    C4  250   4.237   4.324   1.616 -0.7206  0.3570  0.0790
   16MPD2    C5  251   4.130   4.402   1.646 -0.7305 -0.2277  0.5349
   16MPD2     H  252   4.468   4.473   1.795  1.3970 -1.8682 -0.3090
   16MPD2    H1  253   4.224   4.244   1.544 -0.9656  0.6292 -0.1793
   16MPD2    H2  254   4.057   4.575   1.760  1.5850  1.2368  1.3127
   16MPD2    H3  255   4.041   4.371   1.591 -2.0043  0.2978  2.2849
   16MPD2     N  256   4.484   4.292   1.640  0.5797 -0.3553  0.1982
   16MPD2    H5  257   4.555   4.315   1.709  1.0784  1.5468 -0.9476
   16MPD2    N1  258   4.261   4.641   1.897  0.1055  0.0669 -0.2553
   16MPD2    H7  259   4.174   4.686   1.921  0.0725 -1.6808  2.8379
   17TMC1    C1  260   1.142   3.821  10.324  0.0269 -0.0173  0.3801
   17TMC1    C2  261   1.054   3.719  10.296  0.2353 -0.2660  0.6548
   17TMC1    C3  262   1.004   3.698  10.171  0.3164 -0.1665  0.6332
   17TMC1    C4  263   1.165   3.916  10.235  0.9963  0.3097 -0.5297
   17TMC1    C5  264   1.129   3.892  10.107  0.5339 -0.8364 -0.2669
   17TMC1    C6  265   1.047   3.781  10.065  0.6520 -0.5657  0.5580
   17TMC1     C  266   1.172   3.856  10.465 -0.6869 -0.5440 -0.7448
   17TMC1     O  267   1.099   3.802  10.552  0.1157 -0.2875 -0.2331
   17TMC1     H  268   1.016   3.667  10.384  1.1832 -0.7018  0.8082
   17TMC1    H1  269   1.207   4.011  10.267 -1.5809  1.1549  0.3779
   17TMC1    H2  270   1.000   3.799   9.969  0.6046 -1.3097  0.4429
   17TMC1    C7  271   1.165   3.995  10.013  0.3689 -0.5177 -0.0945
   17TMC1    C8  272   0.931   3.581  10.145  0.4623  0.3640 -0.6012
   17TMC1    O1  273   1.103   4.013   9.910  0.1213 -0.1037 -0.2371
   17TMC1    O2  274   0.881   3.517  10.243 -0.3096  0.2257 -0.1755
   17TMC1    O3  275   1.295   4.030  10.034  0.5903 -0.5572  0.2107
   17TMC1    H3  276   1.341   3.993  10.113 -0.3928 -0.0593  1.0132
   17TMC1    O5  277   0.875   3.585  10.027 -0.2579  0.4893 -0.2025
   17TMC1    H5  278   0.935   3.614   9.955 -0.0401 -0.1671 -0.2808
   18MPD2     C  279   1.243   3.981  10.720 -0.2472  0.8539  0.5209
   18MPD2    C1  280   1.310   4.010  10.605 -0.3214  0.5898 -0.5548
   18MPD2    C2  281   1.415   4.092  10.605  0.3038  0.4515  0.1063
   18MPD2    C3  282   1.452   4.154  10.723 -0.0953 -0.5237  0.2244
   18MPD2    C4  283   1.379   4.131  10.841  0.0518  0.8325  0.0615
   18MPD2    C5  284   1.275   4.043  10.835 -0.1787  0.2609 -0.3483
   18MPD2     H  285   1.477   4.108  10.518 -1.1316 -1.0758 -1.1892
   18MPD2    H1  286   1.415   4.155  10.941 -1.1249 -2.4333  1.2968
   18MPD2    H2  287   1.167   3.904  10.730  0.3180  0.1289 -0.7829
   18MPD2    H3  288   1.223   4.006  10.922  0.4391 -0.0942 -0.1245
   18MPD2     N  289   1.568   4.238  10.740 -0.5368  0.1605 -0.5970
   18MPD2    H5  290   1.585   4.274  10.833 -1.3883  0.0730 -0.4063
   18MPD2    N1  291   1.273   3.950  10.480  0.7986  1.1366  1.1325
   18MPD2    H7  292   1.334   3.964  10.401  2.1863 -1.1406  1.7915
   19TMC2    C1  293   4.212   0.178  13.698  0.2653 -0.3657 -0.4978
   19TMC2    C2  294   4.189   0.158  13.563  0.1156  0.1049  0.3366
   19TMC2    C3  295   4.078   0.216  13.513 -0.5838  0.3726 -0.5428
   19TMC2    C4  296   4.131   0.253  13.773  0.3093  0.1010  0.2492
   19TMC2    C5  297   4.019   0.306  13.720  0.0960 -0.0824 -0.0585
   19TMC2    C6  298   3.986   0.289  13.587  0.6223 -0.0514  0.0619
   19TMC2     C  299   4.325   0.109  13.757  0.1168  0.8880 -0.0678
   19TMC2     O  300   4.410   0.071  13.679 -0.0961 -0.6760 -0.6512
   19TMC2     H  301   4.265   0.117  13.497 -0.2939 -0.4976  0.2462
   19TMC2    H1  302   4.157   0.284  13.873 -2.1024  1.7533  0.3751
   19TMC2    H2  303   3.898   0.327  13.537  0.6495  0.0222  0.0706
   19TMC2    C7  304   3.910   0.282  13.817  0.2522  0.2097 -0.0212
   19TMC2    C8  305   4.064   0.254  13.374  0.4347  0.0352  0.2910
   19TMC2    O1  306   3.945   0.231  13.923 -0.1036  0.1155 -0.3635
   19TMC2    O2  307   3.969   0.211  13.312  0.0582 -0.0790  0.6563
   19TMC2    O5  308   4.090   0.389  13.389 -0.1800  0.8227  0.2617
   19TMC2    H5  309   4.163   0.400  13.454  0.2567  0.2379 -0.1251
   20MPD2     C  310   4.511   4.692  13.942  0.5698  0.6938 -0.1906
   20MPD2    C1  311   4.387   0.007  13.975  0.2741  0.5369  0.1742
   20MPD2    C2  312   4.349   4.726  14.103 -0.6861  0.1302 -0.1919
   20MPD2    C3  313   4.419   4.646  14.197 -0.3865 -0.6865 -0.6889
   20MPD2    C4  314   4.535   4.584  14.153 -0.1941 -0.3818 -0.2148
   20MPD2    C5  315   4.580   4.606  14.026  0.1401 -0.0763 -0.3404
   20MPD2     H  316   4.269   0.058  14.131 -0.0681  0.1897  1.4557
   20MPD2    H1  317   4.596   4.528  14.222  0.1503  0.1385 -0.0985
   20MPD2    H2  318   4.541   4.710  13.839  2.2425  0.3872  0.2551
   20MPD2    H3  319   4.660   4.542  13.990 -1.4766 -1.5221 -1.3273
   20MPD2     N  320   4.395   4.645  14.341 -0.0960 -0.4028 -0.2907
   20MPD2    H5  321   4.465   4.595  14.395 -1.9846 -2.2796  0.4127
   20MPD2    N1  322   4.304   0.077  13.889 -0.2940  0.1773 -0.2130
   20MPD2    H7  323   4.208   0.103  13.909 -1.2712 -1.5940 -2.5904
   21TMC2    C1  324   1.972   1.035  14.943 -0.4824  0.4597 -0.5531
   21TMC2    C2  325   1.977   1.168  14.903  0.0092  0.3005  0.0504
   21TMC2    C3  326   1.910   1.206  14.787  0.6891  0.4693  0.4013
   21TMC2    C4  327   1.885   0.947  14.885  0.5125  0.6389 -0.3311
   21TMC2    C5  328   1.797   0.993  14.795 -0.2800 -0.4340  0.5822
   21TMC2    C6  329   1.808   1.123  14.746 -0.8708  0.0534  1.4979
   21TMC2     C  330   2.080   0.972  15.014 -0.0213  0.7684  0.0223
   21TMC2     O  331   2.060   0.853  15.044 -0.3409 -0.5319 -0.0218
   21TMC2     H  332   2.028   1.236  14.970  1.3917 -1.8382  1.1600
   21TMC2    H1  333   1.885   0.841  14.909  1.1463  0.8774  0.7246
   21TMC2    H2  334   1.733   1.168  14.682  2.8952 -0.0672 -3.0137
   21TMC2    C7  335   1.703   0.896  14.747 -0.4539 -0.2341  0.5352
   21TMC2    C8  336   1.888   1.342  14.755 -0.1005 -0.2049  0.4253
   21TMC2    O1  337   1.738   0.780  14.748  0.1783 -0.2359  0.3504
   21TMC2    O2  338   1.918   1.433  14.834 -0.2463  0.0108  0.3650
   21TMC2    O5  339   1.892   1.348  14.624 -0.2612  0.7626  0.3391
   21TMC2    H5  340   1.890   1.263  14.576  1.3622  1.0966 -0.3306
   22MPD2     C  341   2.588   0.945  15.104 -0.8933  0.9531 -0.5587
   22MPD2    C1  342   2.502   0.841  15.069  0.8843 -0.0204 -0.1289
   22MPD2    C2  343   2.366   0.877  15.055  0.2564  0.2802 -0.3884
   22MPD2    C3  344   2.326   1.009  15.049 -0.1797 -0.5510 -0.2980
   22MPD2    C4  345   2.417   1.105  15.060  0.0699 -0.0890  0.0294
   22MPD2    C5  346   2.541   1.074  15.103 -0.0795 -0.8276  0.4045
   22MPD2     H  347   2.296   0.803  15.016 -0.3489  0.6401  0.0300
   22MPD2    H1  348   2.391   1.210  15.049 -0.6858 -0.1035  1.7739
   22MPD2    H2  349   2.691   0.920  15.125 -0.2703  1.5718 -2.8530
   22MPD2    H3  350   2.608   1.157  15.125  0.9911 -0.9972 -2.1555
   22MPD2     N  351   2.194   1.046  15.005  0.0096 -0.5483  0.0746
   22MPD2    H5  352   2.183   1.140  14.971 -1.1359  0.0599  2.1631
   22MPD2    N1  353   2.544   0.715  15.031 -0.2960  0.3217  0.4271
   22MPD2    H7  354   2.474   0.644  15.014 -0.4274  0.7749 -0.8808
   23TMC2    C1  355   2.921   1.904  14.973  0.5997  0.1788 -0.1467
   23TMC2    C2  356   2.886   2.030  15.006  0.1920  0.5097 -0.2528
   23TMC2    C3  357   2.761   2.053  15.051  0.0655  0.7676 -0.2267
   23TMC2    C4  358   2.830   1.804  14.990 -0.0196 -0.3657  0.3573
   23TMC2    C5  359   2.700   1.832  15.022  0.7789 -0.0815 -0.6710
   23TMC2    C6  360   2.663   1.957  15.054 -0.2990 -1.1168  0.7804
   23TMC2     C  361   3.061   1.874  14.985  0.0802 -0.1526 -0.3363
   23TMC2     O  362   3.091   1.757  14.963 -0.4632  0.1237 -0.4744
   23TMC2     H  363   2.951   2.117  15.002 -0.1849  0.9059  2.1208
   23TMC2    H1  364   2.874   1.706  14.975 -0.4976 -0.4458 -0.5454
   23TMC2    H2  365   2.572   1.986  15.106 -0.3086  2.3856 -1.1781
   23TMC2    C7  366   2.632   1.716  15.074 -0.4937 -0.3727 -0.2315
   23TMC2    C8  367   2.731   2.184  15.116 -0.3968  0.2663  0.5972
   23TMC2    O1  368   2.691   1.609  15.068 -0.4172  0.0374 -0.1555
   23TMC2    O2  369   2.618   2.218  15.143 -0.1350  0.3573  0.4898
   23TMC2    O5  370   2.839   2.212  15.187 -0.1325  0.6568 -0.3592
   23TMC2    H5  371   2.922   2.161  15.180 -0.2343  0.5831 -1.0163
   24MPD2     C  372   3.561   1.934  15.036 -0.0448 -0.3281  0.0019
   24MPD2    C1  373   3.489   1.816  15.026  0.2537 -0.0972 -0.1471
   24MPD2    C2  374   3.348   1.822  15.006 -0.2573  0.4109 -0.2476
   24MPD2    C3  375   3.292   1.948  15.010  0.1130 -0.6114 -0.5279
   24MPD2    C4  376   3.363   2.063  15.023  0.0365  0.7837  0.3989
   24MPD2    C5  377   3.500   2.060  15.028  0.0910  0.3132 -0.0611
   24MPD2     H  378   3.289   1.731  15.000 -2.4535  1.8661 -0.9166
   24MPD2    H1  379   3.310   2.158  15.027  2.4736  2.0799  1.3910
   24MPD2    H2  380   3.670   1.933  15.039 -0.0672 -2.1685 -0.0163
   24MPD2    H3  381   3.556   2.153  15.024  2.4777 -1.1092  0.2044
   24MPD2     N  382   3.154   1.975  15.007 -0.2295 -0.8119  0.2450
   24MPD2    H5  383   3.131   2.074  15.009  1.2230 -0.4747  0.4566
   24MPD2    N1  384   3.546   1.685  15.021  0.0533  0.1414 -0.1362
   24MPD2    H7  385   3.485   1.606  15.004  1.2756 -1.1172  1.2876
   25TMC2    C1  386   1.952   3.546  11.773  0.0237  0.1115  0.4909
   25TMC2    C2  387   2.060   3.630  11.779 -0.3025 -0.6441  0.8867
   25TMC2    C3  388   2.066   3.733  11.875  0.2500 -0.3942  0.3419
   25TMC2    C4  389   1.842   3.571  11.856  0.1895  0.3892 -0.2253
   25TMC2    C5  390   1.849   3.679  11.936  0.0542 -0.2512 -0.0494
   25TMC2    C6  391   1.953   3.769  11.945  0.5385  0.8175 -0.2259
   25TMC2     C  392   1.964   3.402  11.732 -0.0282  0.6033 -0.0595
   25TMC2     O  393   2.075   3.348  11.727  0.2781  0.5416  0.0773
   25TMC2     H  394   2.139   3.635  11.705 -1.0619  0.0988  0.1283
   25TMC2    H1  395   1.768   3.496  11.882  1.9812 -1.1053  0.5362
   25TMC2    H2  396   1.947   3.857  12.008 -0.9605  0.5560 -0.0101
   25TMC2    C7  397   1.745   3.705  12.031  0.1076 -0.0209 -0.1742
   25TMC2    C8  398   2.165   3.836  11.851  0.1467 -0.2611 -0.8407
   25TMC2    O1  399   1.774   3.780  12.120  0.5808  0.2771 -0.5005
   25TMC2    O2  400   2.234   3.830  11.750  0.0523  0.0155  0.0732
   25TMC2    O5  401   2.140   3.937  11.927  0.2111 -0.1808 -0.2427
   25TMC2    H5  402   2.112   3.906  12.015 -2.2300  0.3988 -0.8251
   26MPD2     C  403   1.737   2.971  11.591 -0.4477 -0.3887  0.4345
   26MPD2    C1  404   1.642   3.071  11.578 -0.5433 -0.4599 -0.1747
   26MPD2    C2  405   1.682   3.202  11.613 -0.0600 -0.3738 -0.1783
   26MPD2    C3  406   1.813   3.221  11.653  0.2598  0.4137  0.1534
   26MPD2    C4  407   1.907   3.118  11.660 -0.2750  0.5927 -0.4865
   26MPD2    C5  408   1.863   2.991  11.628  0.1508  0.2537 -0.4865
   26MPD2     H  409   1.612   3.284  11.614  0.0463 -0.3338  3.7816
   26MPD2    H1  410   2.010   3.116  11.694 -1.4036 -2.3197  2.7547
   26MPD2    H2  411   1.714   2.868  11.565 -0.7448  0.4461 -2.5801
   26MPD2    H3  412   1.931   2.909  11.646 -0.4286 -0.4169 -1.3175
   26MPD2     N  413   1.844   3.355  11.697 -0.2827 -0.0442  0.5318
   26MPD2    H5  414   1.770   3.425  11.691  0.1178  0.1042 -3.0517
   26MPD2    N1  415   1.512   3.027  11.537 -0.0901  0.0069  0.4501
   26MPD2    H7  416   1.505   2.928  11.517 -0.7765 -0.1290  1.3682
   27TMC2    C1  417   0.595   1.414  12.049 -0.1251 -0.1134  0.6947
   27TMC2    C2  418   0.713   1.463  12.007 -0.5461 -0.5079  0.1609
   27TMC2    C3  419   0.823   1.452  12.080  0.4703  0.1034 -0.2329
   27TMC2    C4  420   0.575   1.352  12.171 -0.2481 -0.4335 -0.4523
   27TMC2    C5  421   0.690   1.344  12.249  0.6288  0.3157 -0.9524
   27TMC2    C6  422   0.810   1.388  12.206  0.5406  0.0027  0.5280
   27TMC2     C  423   0.480   1.446  11.962  0.2770  0.5810 -0.5663
   27TMC2     O  424   0.500   1.487  11.850 -0.0236 -0.2423  0.6069
   27TMC2     H  425   0.723   1.506  11.908  1.0500 -1.4541 -0.0908
   27TMC2    H1  426   0.478   1.315  12.201 -0.6511  1.5514  0.7234
   27TMC2    H2  427   0.895   1.388  12.274 -0.2502  4.7608  1.5323
   27TMC2    C7  428   0.687   1.298  12.385 -0.0787  0.0047  0.1852
   27TMC2    C8  429   0.950   1.475  12.012 -0.5262  0.6308 -0.2229
   27TMC2    O1  430   0.787   1.252  12.429  0.7956  0.0515 -0.3349
   27TMC2    O2  431   0.956   1.567  11.935 -0.6838  0.1103  0.4391
   27TMC2    O5  432   1.047   1.426  12.091 -0.0132 -0.2951 -0.1227
   27TMC2    H5  433   1.022   1.334  12.115 -0.7241 -0.1810 -0.4190
   28MPD2     C  434   4.714   1.518  11.901  0.2000  0.0052 -0.2184
   28MPD2    C1  435   4.732   1.467  12.027 -0.4749  0.3949  0.5514
   28MPD2    C2  436   0.124   1.427  12.060  0.1946  0.3897 -0.3435
   28MPD2    C3  437   0.233   1.472  11.985  1.1736 -0.0189 -0.6440
   28MPD2    C4  438   0.207   1.517  11.857  0.4948  0.6526  0.9078
   28MPD2    C5  439   0.080   1.543  11.818 -0.1379  0.1432  0.6423
   28MPD2     H  440   0.145   1.371  12.150  0.0017 -1.6050 -1.5396
   28MPD2    H1  441   0.284   1.540  11.784 -0.4509  0.2994 -0.1984
   28MPD2    H2  442   4.616   1.555  11.871 -1.5107 -2.5537  2.2449
   28MPD2    H3  443   0.063   1.586  11.720 -1.4239 -1.2302  0.2588
   28MPD2     N  444   0.363   1.449  12.034 -0.7142  0.0776  0.2952
   28MPD2    H5  445   0.367   1.429  12.134 -0.9524 -0.1771  0.2529
   28MPD2    N1  446   4.620   1.448  12.114  0.3917 -0.1683 -0.5697
   28MPD2    H7  447   4.531   1.480  12.075 -0.3677 -0.0588  1.2596
   29TMC2    C1  448   0.360   4.101  14.309 -0.8188 -0.2228  1.0377
   29TMC2    C2  449   0.285   4.222  14.313  0.1171 -0.7741  0.3279
   29TMC2    C3  450   0.340   4.323  14.386 -0.0459  0.4327 -0.4202
   29TMC2    C4  451   0.475   4.095  14.378  0.0042 -0.2774 -0.4915
   29TMC2    C5  452   0.516   4.198  14.461  0.1647  0.3784 -0.6079
   29TMC2    C6  453   0.455   4.320  14.462 -0.3945 -0.2190 -0.1149
   29TMC2     C  454   0.299   3.970  14.277 -0.3238  0.7199  0.0706
   29TMC2     O  455   0.359   3.868  14.317 -0.7271 -0.4176  0.7831
   29TMC2     H  456   0.180   4.214  14.287  0.3147 -1.1971 -0.3496
   29TMC2    H1  457   0.526   3.999  14.376  0.3784 -0.0140 -3.5366
   29TMC2    H2  458   0.482   4.409  14.516 -1.8737  0.7566 -0.9801
   29TMC2    C7  459   0.654   4.195  14.492  0.5602 -0.7336  0.5886
   29TMC2    C8  460   0.248   4.423  14.419 -0.0222  1.0242 -0.8733
   29TMC2    O1  461   0.728   4.131  14.420  0.1258 -0.2712 -0.0494
   29TMC2    O2  462   0.158   4.452  14.339 -0.5241  0.3503 -0.1142
   29TMC2    O5  463   0.259   4.461  14.542 -0.3808 -0.3964  0.2227
   29TMC2    H5  464   0.333   4.431  14.600  1.0800  0.7701 -1.0369
   30MPD2     C  465   4.669   3.671  14.055 -0.3482 -0.4680 -0.6256
   30MPD2    C1  466   0.039   3.634  14.137 -0.4127  0.0410 -0.8988
   30MPD2    C2  467   0.120   3.733  14.184 -0.2776 -0.2429  0.5079
   30MPD2    C3  468   0.106   3.870  14.150 -0.4535  0.2527  0.0283
   30MPD2    C4  469   0.006   3.901  14.063 -0.3043 -0.0399 -0.2998
   30MPD2    C5  470   4.663   3.799  14.011  1.4401  1.0018 -0.9047
   30MPD2     H  471   0.198   3.699  14.252 -0.3288  0.6418  1.0130
   30MPD2    H1  472   4.715   4.000  14.026 -2.0028 -0.3017  0.2002
   30MPD2    H2  473   4.601   3.608  13.998  0.0273 -0.9284 -0.5688
   30MPD2    H3  474   4.593   3.817  13.931  2.3935  1.3431 -1.6612
   30MPD2     N  475   0.189   3.978  14.194 -0.1746 -0.2594 -0.6568
   30MPD2    H5  476   0.168   4.068  14.152  1.8063  0.9566  0.9671
   30MPD2    N1  477   0.072   3.494  14.150 -0.0244  0.7148 -0.1901
   30MPD2    H7  478   0.159   3.483  14.200 -0.9783  2.3975  1.8357
   31TMC2    C1  479   2.608   2.588  15.644 -0.6230  0.1226 -0.0531
   31TMC2    C2  480   2.474   2.630  15.638 -0.0700 -0.3483  1.1298
   31TMC2    C3  481   2.408   2.644  15.754 -0.6175  0.1586  0.4917
   31TMC2    C4  482   2.673   2.572  15.768  0.2965 -0.5880 -0.0258
   31TMC2    C5  483   2.593   2.570  15.878 -0.1512  0.1534 -0.1410
   31TMC2    C6  484   2.461   2.596  15.874  0.7160 -0.5211 -0.2288
   31TMC2     C  485   2.688   2.627  15.528 -0.4453 -0.0696  0.9968
   31TMC2     O  486   2.626   2.677  15.439 -0.1479  0.5058  0.4528
   31TMC2     H  487   2.425   2.657  15.545  0.5581  3.0780  1.7927
   31TMC2    H1  488   2.778   2.552  15.787  0.2548 -0.2148  0.5812
   31TMC2    H2  489   2.389   2.581  15.954 -1.0106  4.1875 -0.8807
   31TMC2    C7  490   2.639   2.492  15.990  0.3932  0.3461  0.9304
   31TMC2    C8  491   2.262   2.678  15.744  0.1601  0.0785  0.3403
   31TMC2    O1  492   2.722   2.400  15.986 -0.2158  0.9484  0.2723
   31TMC2    O2  493   2.213   2.697  15.638  0.1823  0.5088 -0.3773
   31TMC2    O5  494   2.244   2.756  15.852 -0.0323 -0.1663  0.3905
   31TMC2    H5  495   2.302   2.732  15.927  2.0239  0.0620 -1.1344
   32MPD2     C  496   3.112   2.626  15.224 -0.6052  0.3775 -0.3489
   32MPD2    C1  497   2.981   2.666  15.209  0.2198  0.7587  0.4747
   32MPD2    C2  498   2.884   2.653  15.302  0.6761  0.6561 -0.3102
   32MPD2    C3  499   2.911   2.598  15.423 -0.6483 -0.2909 -0.3711
   32MPD2    C4  500   3.037   2.536  15.437 -0.2641  0.1417  0.0629
   32MPD2    C5  501   3.138   2.557  15.342  0.3481  0.5747  0.1935
   32MPD2     H  502   2.779   2.676  15.287  0.5584 -1.4077 -2.5511
   32MPD2    H1  503   3.058   2.477  15.526  1.5617 -2.7881 -2.3405
   32MPD2    H2  504   3.190   2.635  15.150  1.5783  0.0697  1.9118
   32MPD2    H3  505   3.237   2.516  15.358 -0.0754 -0.9111 -0.9091
   32MPD2     N  506   2.820   2.583  15.532  0.5422 -0.0115 -0.4222
   32MPD2    H5  507   2.844   2.536  15.619  1.4797 -0.2388 -0.8091
   32MPD2    N1  508   2.955   2.725  15.082 -0.1725 -0.0882  0.0512
   32MPD2    H7  509   3.034   2.760  15.029  0.5699 -2.5584 -0.4680
   33TMC2    C1  510   2.321   0.192  10.138 -0.0014  0.5639  0.0374
   33TMC2    C2  511   2.227   0.200  10.040  0.2289 -0.5581  0.6652
   33TMC2    C3  512   2.241   0.284   9.931  0.9176 -0.5794  0.7834
   33TMC2    C4  513   2.435   0.266  10.121 -0.6045  0.2361  0.1594
   33TMC2    C5  514   2.446   0.342  10.015 -0.2027 -1.1682 -0.1827
   33TMC2    C6  515   2.350   0.362   9.915  0.3599 -0.0983  0.4142
   33TMC2     C  516   2.293   0.109  10.256  0.4062  0.7107 -0.3347
   33TMC2     O  517   2.176   0.084  10.273  0.2421  0.0768 -0.0123
   33TMC2     H  518   2.127   0.160  10.052  0.4014 -1.4505 -0.8203
   33TMC2    H1  519   2.514   0.256  10.195  0.4768  0.2820 -0.9794
   33TMC2    H2  520   2.374   0.415   9.823 -0.8188  0.2981  0.3292
   33TMC2    C7  521   2.566   0.424   9.988 -0.3425 -0.4991  0.3373
   33TMC2    C8  522   2.145   0.284   9.825 -0.1551  0.2549  0.1748
   33TMC2    O1  523   2.669   0.399  10.039 -0.5327 -0.0448  0.1011
   33TMC2    O2  524   2.104   0.186   9.767 -0.5464 -0.0354  0.5765
   33TMC2    O5  525   2.132   0.413   9.794 -0.4135  0.2563 -0.4203
   33TMC2    H5  526   2.158   0.465   9.873  0.7687 -0.1932 -0.5051
   34MPD2     C  527   2.398   4.618  10.691  0.0037  0.2880  0.3460
   34MPD2    C1  528   2.282   4.619  10.617 -0.4404  0.0920  0.2324
   34MPD2    C2  529   2.291   4.666  10.493 -0.3039 -0.3424  0.3988
   34MPD2    C3  530   2.404   0.001  10.444  0.4718  0.0387 -0.1929
   34MPD2    C4  531   2.515   4.733  10.525 -0.7472  0.4883  0.3577
   34MPD2    C5  532   2.510   4.663  10.641 -0.1306 -0.2451 -0.5705
   34MPD2     H  533   2.199   4.670  10.435 -0.6056  0.3227  0.9323
   34MPD2    H1  534   2.606   0.048  10.494 -0.1155 -0.8922  0.0353
   34MPD2    H2  535   2.389   4.592  10.796 -2.5166 -0.1329  0.0469
   34MPD2    H3  536   2.599   4.657  10.702 -1.0252  2.0382  0.9651
   34MPD2     N  537   2.405   0.076  10.316  0.4759  0.8887  0.1094
   34MPD2    H5  538   2.495   0.113  10.287  0.2700  2.0113  0.9260
   34MPD2    N1  539   2.161   4.572  10.670 -0.4513  0.7062 -0.2396
   34MPD2    H7  540   2.158   4.538  10.765  1.8900  0.6537 -0.1868
   35TMC2    C1  541   3.815   1.324  11.344 -0.6317 -1.0053 -0.0468
   35TMC2    C2  542   3.741   1.363  11.231 -0.3164  0.1677 -0.4540
   35TMC2    C3  543   3.608   1.320  11.229  0.0229 -0.9663 -0.1858
   35TMC2    C4  544   3.759   1.264  11.450 -0.3843  0.3259 -0.6428
   35TMC2    C5  545   3.622   1.242  11.446  0.2263  0.1595  0.2410
   35TMC2    C6  546   3.545   1.265  11.337 -0.5926  0.1312  0.1107
   35TMC2     C  547   3.959   1.356  11.334 -0.2621 -0.0993 -0.5976
   35TMC2     O  548   3.991   1.423  11.237 -0.1834  0.1474 -0.2226
   35TMC2     H  549   3.777   1.418  11.145  1.1442 -0.2616 -0.1183
   35TMC2    H1  550   3.817   1.251  11.540 -0.6216  1.2642 -0.3538
   35TMC2    H2  551   3.451   1.213  11.325  0.2346 -0.9064 -1.7126
   35TMC2    C7  552   3.560   1.186  11.561  0.0975  0.4125 -1.0540
   35TMC2    C8  553   3.535   1.322  11.101  0.5991  0.6746 -0.1917
   35TMC2    O1  554   3.624   1.138  11.654 -0.2600  0.1146  0.2037
   35TMC2    O2  555   3.594   1.306  10.993 -0.4779 -0.3415  0.2460
   35TMC2    O5  556   3.409   1.296  11.128 -0.4430  0.7539  0.0749
   35TMC2    H5  557   3.382   1.336  11.214  0.1379 -1.1284  1.1158
   36MPD2     C  558   4.448   1.362  11.488 -1.0604 -0.2370  0.1119
   36MPD2    C1  559   4.389   1.237  11.522  0.1544  0.3723 -0.5187
   36MPD2    C2  560   4.256   1.211  11.494 -0.5044  0.5219 -0.0906
   36MPD2    C3  561   4.178   1.308  11.428  0.0542  0.5042 -0.4506
   36MPD2    C4  562   4.236   1.426  11.389  0.7738 -0.2811 -0.2659
   36MPD2    C5  563   4.369   1.447  11.415 -0.0035 -0.0301  0.5717
   36MPD2     H  564   4.218   1.117  11.532  1.4519 -0.9527 -1.7985
   36MPD2    H1  565   4.174   1.504  11.347  0.4696 -0.7145 -0.6249
   36MPD2    H2  566   4.552   1.385  11.509 -0.7994  0.9631 -2.5477
   36MPD2    H3  567   4.414   1.542  11.387  0.2578  0.2662  1.9769
   36MPD2     N  568   4.037   1.293  11.423  0.7041  0.1534 -0.0373
   36MPD2    H5  569   3.989   1.229  11.486  0.8897 -0.5442 -0.5998
   36MPD2    N1  570   4.468   1.133  11.583  0.5339 -0.6387  0.5066
   36MPD2    H7  571   4.415   1.047  11.594  0.2455 -0.4203  0.8112
   37TMC2    C1  572   0.629   1.739  12.145  0.0100  0.4548 -0.2741
   37TMC2    C2  573   0.537   1.766  12.055 -0.1536  0.0949 -0.7734
   37TMC2    C3  574   0.579   1.803  11.932 -0.3659 -0.1489  0.1556
   37TMC2    C4  575   0.758   1.776  12.120 -1.1515  1.2769  0.3035
   37TMC2    C5  576   0.795   1.826  11.997 -1.0446 -0.3580 -0.3277
   37TMC2    C6  577   0.708   1.830  11.892  0.2323  0.5439 -0.0194
   37TMC2     C  578   0.586   1.698  12.274 -0.0346  0.1692  0.1821
   37TMC2     O  579   0.467   1.672  12.286 -0.2369  0.2650  0.1431
   37TMC2     H  580   0.434   1.736  12.069  0.8231 -1.7236  2.5922
   37TMC2    H1  581   0.829   1.783  12.201 -1.7001  0.8307  0.8286
   37TMC2    H2  582   0.727   1.858  11.789  1.5324  0.5922  0.2251
   37TMC2    C7  583   0.936   1.853  11.975  0.8299  0.4767 -0.3376
   37TMC2    C8  584   0.459   1.872  11.864 -0.3521  0.6840 -0.4866
   37TMC2    O1  585   1.016   1.823  12.060  0.0700  0.3875  0.3875
   37TMC2    O2  586   0.346   1.879  11.910  0.0502  0.4141  0.1344
   37TMC2    O5  587   0.508   1.978  11.798 -0.3536  0.2739 -0.3850
   37TMC2    H5  588   0.601   1.973  11.769 -0.1678 -0.7638  0.3805
   38MPD2     C  589   0.706   1.588  12.767 -0.1173 -0.1671 -0.5569
   38MPD2    C1  590   0.819   1.580  12.686 -0.3750  0.2065  0.3757
   38MPD2    C2  591   0.812   1.613  12.552 -0.1089 -0.3794  0.3725
   38MPD2    C3  592   0.687   1.641  12.494  0.2105 -1.0636  0.5731
   38MPD2    C4  593   0.575   1.654  12.571  0.0812  0.6406  1.0104
   38MPD2    C5  594   0.587   1.626  12.709 -0.2732 -1.0465 -0.7422
   38MPD2     H  595   0.907   1.618  12.499 -1.1676 -3.1496 -1.8306
   38MPD2    H1  596   0.484   1.696  12.529  0.0743 -1.4634 -1.0270
   38MPD2    H2  597   0.711   1.578  12.875 -0.3679 -1.4777 -0.6647
   38MPD2    H3  598   0.500   1.636  12.773  0.2079 -0.0948 -0.2336
   38MPD2     N  599   0.694   1.672  12.359 -0.4335  0.6848 -0.1705
   38MPD2    H5  600   0.787   1.682  12.320 -0.7882 -1.7795 -1.6916
   38MPD2    N1  601   0.953   1.556  12.735  0.3570 -0.3496  0.5681
   38MPD2    H7  602   1.024   1.539  12.664 -0.6254 -2.0614  0.0082
   39TMC2    C1  603   0.110   4.357   1.966  1.1602  0.4526  0.2952
   39TMC2    C2  604   0.079   4.484   1.920  0.0743 -0.1377  0.2387
   39TMC2    C3  605   0.170   4.579   1.943  0.2528 -0.2095 -0.2203
   39TMC2    C4  606   0.227   4.318   2.024 -0.1719  0.3628 -0.4144
   39TMC2    C5  607   0.323   4.415   2.029  0.3916 -0.1577  0.4637
   39TMC2    C6  608   0.299   4.553   1.988  0.2825 -0.6437  0.3385
   39TMC2     C  609   0.022   4.255   1.901 -0.0431 -0.1017  0.5202
   39TMC2     O  610   4.649   4.289   1.853 -0.1385 -0.0675 -0.9446
   39TMC2     H  611   4.717   4.508   1.880 -0.1447 -3.2561 -1.0826
   39TMC2    H1  612   0.242   4.214   2.048 -2.1899 -0.1019 -1.1526
   39TMC2    H2  613   0.375   4.630   1.978  0.4074 -1.0310 -1.6008
   39TMC2    C7  614   0.464   4.378   2.059  0.0506 -0.1694  0.6788
   39TMC2    C8  615   0.159   4.705   1.877  0.2810 -0.1072 -0.5664
   39TMC2    O1  616   0.479   4.257   2.083 -0.0180  0.1223 -0.1922
   39TMC2    O2  617   0.192   0.068   1.940  0.6707 -0.1406 -0.1460
   39TMC2    O5  618   0.195   4.674   1.750 -0.0115 -0.4132  0.1598
   39TMC2    H5  619   0.162   4.591   1.710 -0.6351  0.1062 -0.3979
   40MPD2     C  620   0.114   3.912   1.812  0.0292  0.5905  0.6344
   40MPD2    C1  621   0.025   4.012   1.833  0.5970 -0.6471  0.2493
   40MPD2    C2  622   4.630   3.997   1.796 -0.5842  0.4681 -0.1043
   40MPD2    C3  623   4.587   3.871   1.760  0.4205 -0.4621 -0.0313
   40MPD2    C4  624   4.678   3.780   1.736 -0.2395 -1.0520 -0.7746
   40MPD2    C5  625   0.075   3.792   1.765  0.8447 -0.0393  0.1698
   40MPD2     H  626   4.559   4.078   1.802  0.8020  1.6252  0.8884
   40MPD2    H1  627   4.655   3.674   1.727  1.5612 -1.3916 -1.4438
   40MPD2    H2  628   0.216   3.934   1.842 -0.4261  0.9156  1.8969
   40MPD2    H3  629   0.148   3.713   1.748  0.0383 -1.1369  1.8807
   40MPD2     N  630   4.453   3.841   1.727  1.2582  0.5298  0.3505
   40MPD2    H5  631   4.426   3.751   1.689 -4.0673  2.3125 -0.1869
   40MPD2    N1  632   0.081   4.132   1.879 -0.0270 -0.2534 -0.8042
   40MPD2    H7  633   0.176   4.116   1.911  0.2814  2.5867 -0.2783
   41TMC2    C1  634   2.648   1.720  14.079 -0.1110  0.7696  0.3568
   41TMC2    C2  635   2.531   1.749  14.014 -0.9359 -0.4049  0.1968
   41TMC2    C3  636   2.549   1.776  13.879  0.2945 -0.0532 -0.0083
   41TMC2    C4  637   2.773   1.712  14.018 -0.3046 -0.2544  0.5222
   41TMC2    C5  638   2.784   1.743  13.884 -0.1250  0.1973  0.4087
   41TMC2    C6  639   2.666   1.767  13.813 -0.3023  1.4664 -0.1197
   41TMC2     C  640   2.631   1.696  14.221 -0.1157  0.2348  0.1503
   41TMC2     O  641   2.520   1.660  14.257 -0.1063 -0.5420  0.2526
   41TMC2     H  642   2.433   1.742  14.059 -0.8352 -0.5276  0.3978
   41TMC2    H1  643   2.858   1.664  14.064  0.4338  0.0276 -0.5558
   41TMC2    H2  644   2.672   1.798  13.709 -1.2772  0.5740 -0.4437
   41TMC2    C7  645   2.914   1.758  13.834 -0.3414 -0.0532  0.4002
   41TMC2    C8  646   2.441   1.808  13.798 -0.1429  0.4624  0.4178
   41TMC2    O1  647   3.009   1.770  13.914  0.0736  0.4051  0.7048
   41TMC2    O2  648   2.445   1.899  13.717 -0.2516  0.2087  0.5890
   41TMC2    O5  649   2.333   1.728  13.814  0.6310  0.1379  0.1651
   41TMC2    H5  650   2.352   1.650  13.871 -1.3087  1.4317  2.5476
   42MPD2     C  651   2.698   1.607  14.489  0.1362  0.1813  0.6459
   42MPD2    C1  652   2.778   1.683  14.409 -0.0987 -0.1146  0.2116
   42MPD2    C2  653   2.904   1.720  14.453  0.7224 -0.0894  0.2914
   42MPD2    C3  654   2.954   1.678  14.580  1.0367  0.4080  0.1908
   42MPD2    C4  655   2.870   1.604  14.656  0.4168  0.0100 -0.5936
   42MPD2    C5  656   2.743   1.574  14.613  0.3653  0.5064 -0.4135
   42MPD2     H  657   2.971   1.770  14.383  1.4429 -1.2735  0.1250
   42MPD2    H1  658   2.892   1.590  14.761  0.1407 -1.4056 -0.7347
   42MPD2    H2  659   2.594   1.586  14.467 -0.4019  0.7882  2.5694
   42MPD2    H3  660   2.676   1.519  14.678  0.2086 -0.0558 -1.0542
   42MPD2     N  661   3.079   1.718  14.635 -0.1673  0.7743  0.3297
   42MPD2    H5  662   3.111   1.681  14.724  0.9428 -1.8356 -1.1398
   42MPD2    N1  663   2.747   1.722  14.280  0.3038  0.1440  0.5283
   42MPD2    H7  664   2.821   1.779  14.239  1.0389 -0.7522  0.5974
   43TMC2    C1  665   0.490   0.135   0.858  0.1825 -0.5964 -0.0753
   43TMC2    C2  666   0.402   0.240   0.853 -0.2292  0.3798  0.7384
   43TMC2    C3  667   0.375   0.301   0.975  0.3549 -0.0840 -0.1351
   43TMC2    C4  668   0.562   0.104   0.964  0.3264 -1.0070 -0.6398
   43TMC2    C5  669   0.541   0.178   1.081 -0.0170  0.2172 -0.4660
   43TMC2    C6  670   0.449   0.275   1.086  0.7382  0.3457  0.2919
   43TMC2     C  671   0.532   0.069   0.739 -0.5234 -0.4698 -0.8670
   43TMC2     O  672   0.637   0.005   0.738 -0.0690 -0.0994 -0.3134
   43TMC2     H  673   0.360   0.266   0.756  0.5174 -0.4702  0.1970
   43TMC2    H1  674   0.639   0.029   0.954  0.9837 -0.1849 -1.7035
   43TMC2    H2  675   0.438   0.335   1.176 -1.3762  0.5124 -0.0617
   43TMC2    C7  676   0.639   0.157   1.188  0.0649  0.3387  0.0201
   43TMC2    C8  677   0.270   0.405   0.974 -0.7559 -0.8178 -0.6336
   43TMC2    O1  678   0.745   0.109   1.149  0.4964  0.5868  0.2043
   43TMC2    O2  679   0.181   0.395   1.057  0.2656 -0.1215  0.0889
   43TMC2    O5  680   0.264   0.469   0.861 -0.7505 -0.5658 -0.5054
   43TMC2    H5  681   0.346   0.481   0.809 -1.7055 -0.2054 -1.9496
   44MPD2     C  682   0.467   4.691   0.240 -0.4452 -0.1883 -0.6839
   44MPD2    C1  683   0.557   4.643   0.332  0.1818 -0.0962 -0.4705
   44MPD2    C2  684   0.552   4.694   0.464  0.0070 -0.5106  0.6874
   44MPD2    C3  685   0.439   0.021   0.516 -0.0053  0.1975 -0.2193
   44MPD2    C4  686   0.342   0.049   0.430  0.8561  0.1539 -0.1984
   44MPD2    C5  687   0.357   0.021   0.297 -0.2363 -0.5782  0.6826
   44MPD2     H  688   0.622   4.656   0.537  1.3045  1.9877  0.7468
   44MPD2    H1  689   0.249   0.101   0.449  0.4856 -1.9087  3.5986
   44MPD2    H2  690   0.465   4.658   0.136 -0.9230  0.6631 -0.9489
   44MPD2    H3  691   0.274   0.050   0.235  0.7695  0.1291 -0.3377
   44MPD2     N  692   0.432   0.079   0.645 -0.3629  0.4433  0.1121
   44MPD2    H5  693   0.344   0.123   0.671 -0.5398 -0.0856  0.4137
   44MPD2    N1  694   0.648   4.546   0.303 -0.6382  0.6387 -0.6331
   44MPD2    H7  695   0.715   4.535   0.379 -0.1113 -0.0329 -1.2040
   45TMC2    C1  696   0.687   1.640   9.893 -0.0204 -0.5666  0.0018
   45TMC2    C2  697   0.800   1.587   9.836  0.1146 -0.4682  0.2104
   45TMC2    C3  698   0.914   1.660   9.843  0.0948  0.1359 -0.2783
   45TMC2    C4  699   0.693   1.766   9.959  0.2504 -0.1185  0.7529
   45TMC2    C5  700   0.810   1.834   9.962  0.4500  0.2232  0.2300
   45TMC2    C6  701   0.923   1.780   9.904  0.3192 -0.0704 -0.2847
   45TMC2     C  702   0.568   1.562   9.863 -0.1065 -0.1882  0.0842
   45TMC2     O  703   0.583   1.441   9.846 -0.3274  0.3702 -0.7039
   45TMC2     H  704   0.794   1.499   9.773 -1.0306  1.4007 -2.2911
   45TMC2    H1  705   0.601   1.813   9.991  0.1085  0.0849  0.0422
   45TMC2    H2  706   1.009   1.847   9.901  1.2455 -1.3396 -2.1213
   45TMC2    C7  707   0.826   1.961  10.038  0.3834 -0.8973 -0.7261
   45TMC2    C8  708   1.006   1.639   9.734  0.7199  0.2544  0.9905
   45TMC2    O1  709   0.937   2.015  10.037  0.0849  0.2826  0.8644
   45TMC2    O2  710   1.125   1.609   9.751 -0.7563  0.0573  0.0396
   45TMC2    O5  711   0.940   1.606   9.623  0.2299 -0.0770 -0.3556
   45TMC2    H5  712   0.847   1.639   9.618  0.4897  0.7179  0.0577
   46MPD2     C  713   0.295   1.469   9.781 -0.2469  0.7135  0.3628
   46MPD2    C1  714   0.329   1.601   9.805 -0.5539  0.1863  0.2325
   46MPD2    C2  715   0.243   1.706   9.793  0.4036  0.5917 -0.5686
   46MPD2    C3  716   0.114   1.675   9.752 -0.0062  0.5292  0.1922
   46MPD2    C4  717   0.078   1.541   9.714  0.6475 -0.2123  0.6674
   46MPD2    C5  718   0.168   1.439   9.729 -0.3949  0.7099  0.5017
   46MPD2     H  719   0.282   1.806   9.805  0.7174  0.6606 -2.1353
   46MPD2    H1  720   4.715   1.515   9.676  0.5971  0.4012  0.3846
   46MPD2    H2  721   0.362   1.386   9.800 -0.9006 -0.3969 -2.0478
   46MPD2    H3  722   0.143   1.335   9.708 -1.7411  1.1198  0.0791
   46MPD2     N  723   0.023   1.780   9.753 -0.4161  0.4629  0.0851
   46MPD2    H5  724   0.050   1.877   9.768  1.1513  0.3598 -2.0301
   46MPD2    N1  725   0.459   1.640   9.845 -0.1589 -0.0930  0.3675
   46MPD2    H7  726   0.466   1.741   9.852  0.7280 -0.1228 -0.1557
   47TMC2    C1  727   3.947   2.471   9.501 -0.0367  0.5981 -0.3291
   47TMC2    C2  728   3.965   2.376   9.408 -0.0403  0.0879 -0.0722
   47TMC2    C3  729   3.891   2.392   9.293  0.0392 -0.2486  0.0153
   47TMC2    C4  730   3.859   2.581   9.484  0.6358  0.7919 -0.1701
   47TMC2    C5  731   3.785   2.583   9.374 -0.0857 -0.1276 -0.0214
   47TMC2    C6  732   3.800   2.488   9.276 -0.5309  0.0934 -0.0975
   47TMC2     C  733   4.011   2.457   9.631  0.2398  0.0072 -0.2679
   47TMC2     O  734   4.075   2.555   9.673  0.0549 -0.3867 -0.3278
   47TMC2     H  735   4.050   2.308   9.409 -1.4773 -1.6936  2.4262
   47TMC2    H1  736   3.840   2.639   9.574 -1.0550 -2.5749  1.6219
   47TMC2    H2  737   3.750   2.496   9.180  2.3905 -3.2625 -1.9021
   47TMC2    C7  738   3.662   2.672   9.377  0.4668 -0.5818 -0.0078
   47TMC2    C8  739   3.902   2.291   9.192 -0.6784  0.8440  0.0038
   47TMC2    O1  740   3.644   2.720   9.490 -0.0092  0.0805 -0.1514
   47TMC2    O2  741   4.016   2.259   9.158 -0.3144 -0.2385 -0.3776
   47TMC2    O5  742   3.796   2.283   9.109  0.4647  0.2999 -0.3267
   47TMC2    H5  743   3.711   2.290   9.156  1.3810  0.8304  1.2542
   48MPD2     C  744   4.076   2.382   9.910 -0.2419  0.5807  0.1823
   48MPD2    C1  745   4.059   2.291   9.805  0.6738 -0.3031  0.0698
   48MPD2    C2  746   4.063   2.158   9.838  0.6868 -0.1250 -0.1318
   48MPD2    C3  747   4.080   2.114   9.974 -0.1052  0.2589  0.2417
   48MPD2    C4  748   4.111   2.210  10.065  0.3453  0.0672 -0.0578
   48MPD2    C5  749   4.104   2.339  10.040  0.1111 -0.0308 -0.1288
   48MPD2     H  750   4.055   2.089   9.755  1.1480 -0.0008 -0.2807
   48MPD2    H1  751   4.141   2.192  10.167 -1.1718  0.1363  0.4093
   48MPD2    H2  752   4.057   2.487   9.894 -3.1205 -0.1482 -1.1745
   48MPD2    H3  753   4.120   2.414  10.117  0.6495 -0.1666 -0.1132
   48MPD2     N  754   4.084   1.982  10.013  0.0767 -0.1833 -0.3855
   48MPD2    H5  755   4.108   1.909   9.947  1.0202 -0.3740  0.1787
   48MPD2    N1  756   4.015   2.327   9.676  0.1955  0.0014  0.0410
   48MPD2    H7  757   3.979   2.252   9.616 -0.4098 -0.7489  1.3334
   49TMC2    C1  758   0.446   3.627  10.367  0.4845 -0.6753  0.0221
   49TMC2    C2  759   0.532   3.541  10.430 -0.8034  0.2867 -0.2552
   49TMC2    C3  760   0.475   3.451  10.520  0.3664 -0.2036 -0.1407
   49TMC2    C4  761   0.310   3.625  10.395  0.3495  0.0304  0.3267
   49TMC2    C5  762   0.254   3.531  10.479  0.6468 -0.2137 -0.0982
   49TMC2    C6  763   0.334   3.440  10.540 -0.3933 -0.2693 -0.1869
   49TMC2     C  764   0.497   3.742  10.295  0.0910 -0.4407 -0.4011
   49TMC2     O  765   0.458   3.758  10.182  0.0366  0.1638 -0.2447
   49TMC2     H  766   0.638   3.530  10.407 -0.6440 -2.2264  1.6994
   49TMC2    H1  767   0.257   3.707  10.348  1.4790 -0.8795 -2.5081
   49TMC2    H2  768   0.294   3.355  10.594  0.4805  0.1947  1.1935
   49TMC2    C7  769   0.118   3.523  10.505  0.5143  0.0605  0.0582
   49TMC2    C8  770   0.565   3.347  10.554  0.5808  0.3188 -0.6764
   49TMC2    O1  771   0.088   3.448  10.600  0.1378 -0.3096 -0.4856
   49TMC2    O2  772   0.586   3.254  10.478 -0.3862  0.2424  0.2015
   49TMC2    O5  773   0.534   3.323  10.680 -0.5039 -0.3755  0.1307
   49TMC2    H5  774   0.504   3.407  10.720  0.5157 -0.4179  0.9843
   50MPD2     C  775   0.706   3.927  10.171  0.1109  0.6031  0.2058
   50MPD2    C1  776   0.706   3.884  10.302  0.2607  0.9801  0.3331
   50MPD2    C2  777   0.789   3.948  10.389  0.3138  0.0214  0.2962
   50MPD2    C3  778   0.867   4.054  10.343 -0.2493 -0.4831  0.1438
   50MPD2    C4  779   0.875   4.085  10.210 -0.5396  0.2828 -0.2016
   50MPD2    C5  780   0.796   4.013  10.119  0.2398 -0.1951 -0.5183
   50MPD2     H  781   0.793   3.924  10.494  0.7808 -0.1791  0.2332
   50MPD2    H1  782   0.940   4.156  10.162  0.4107  0.1923  0.9525
   50MPD2    H2  783   0.642   3.884  10.094  0.9966  0.1770 -0.2927
   50MPD2    H3  784   0.796   4.030  10.012  0.4680  0.5414 -0.4029
   50MPD2     N  785   0.946   4.140  10.426 -0.3196  0.0860  0.3515
   50MPD2    H5  786   1.001   4.209  10.375  0.8672 -0.0919  1.3824
   50MPD2    N1  787   0.611   3.790  10.354  0.8101 -0.0982 -0.3065
   50MPD2    H7  788   0.634   3.774  10.451  1.5248  0.7623 -0.3333
   51TMC2    C1  789   1.527   4.037   2.055 -0.0157  0.0452 -0.4863
   51TMC2    C2  790   1.445   4.141   2.095  0.3502 -0.2487  0.2042
   51TMC2    C3  791   1.511   4.249   2.143 -0.2859 -0.0093 -0.2442
   51TMC2    C4  792   1.662   4.040   2.053  0.8042 -0.0284  0.5980
   51TMC2    C5  793   1.722   4.156   2.086  0.3204 -0.1597 -0.8248
   51TMC2    C6  794   1.653   4.254   2.148  0.5337  0.4761  0.0502
   51TMC2     C  795   1.472   3.915   1.998  0.2380 -0.0163 -0.3419
   51TMC2     O  796   1.534   3.807   2.013 -0.0926  0.1443  0.1817
   51TMC2     H  797   1.338   4.131   2.105  0.6304 -1.0616  2.4486
   51TMC2    H1  798   1.727   3.960   2.021 -1.2591 -1.5532  0.1994
   51TMC2    H2  799   1.702   4.339   2.195 -0.4778 -0.4893  2.8317
   51TMC2    C7  800   1.866   4.174   2.068 -0.0801 -0.8845  0.2343
   51TMC2    C8  801   1.433   4.356   2.199  0.1409 -0.0480  0.6481
   51TMC2    O1  802   1.909   4.265   2.134  0.4402 -0.3155 -0.0596
   51TMC2    O2  803   1.332   4.339   2.262 -0.2721  0.1343 -0.1224
   51TMC2    O5  804   1.464   4.465   2.133 -0.3049 -0.7430  0.3189
   51TMC2    H5  805   1.547   4.458   2.082 -0.4421  1.2245 -0.1521
   52MPD2     C  806   1.074   3.689   1.752 -0.2956  0.7123 -0.3194
   52MPD2    C1  807   1.201   3.644   1.790 -0.6681  0.0457  0.5870
   52MPD2    C2  808   1.292   3.717   1.866  0.0048  0.1406 -0.0554
   52MPD2    C3  809   1.256   3.847   1.887 -0.2366  1.1041 -0.8588
   52MPD2    C4  810   1.128   3.886   1.859  0.0173 -0.4304  0.2377
   52MPD2    C5  811   1.027   3.808   1.803 -0.1868 -1.3656  0.6226
   52MPD2     H  812   1.384   3.671   1.900  0.4059 -0.2082 -1.5840
   52MPD2    H1  813   1.095   3.988   1.877  0.3888 -0.4305  0.9012
   52MPD2    H2  814   0.993   3.638   1.701  0.2245 -1.7041  1.2676
   52MPD2    H3  815   0.929   3.849   1.781 -0.2320 -0.6543  2.1375
   52MPD2     N  816   1.342   3.939   1.953  0.0491 -0.2146 -0.0114
   52MPD2    H5  817   1.302   4.032   1.948  1.8793  0.4797 -1.9794
   52MPD2    N1  818   1.251   3.511   1.758 -0.2498  0.4971  0.2783
   52MPD2    H7  819   1.346   3.478   1.772 -0.5313 -0.2004  0.5471
   53TMC2    C1  820   1.677   1.918  11.980  0.9659 -0.0419 -0.5173
   53TMC2    C2  821   1.798   1.853  11.978 -0.0266  0.7387 -0.9591
   53TMC2    C3  822   1.859   1.815  12.096  0.2087 -0.5142 -0.5103
   53TMC2    C4  823   1.628   1.956  12.103  0.2460 -0.3891 -0.7755
   53TMC2    C5  824   1.699   1.923  12.215  0.0213 -0.2930  0.0361
   53TMC2    C6  825   1.816   1.853  12.216  0.3730  0.2005  0.4885
   53TMC2     C  826   1.587   1.902  11.863  0.6124  0.2419 -0.1542
   53TMC2     O  827   1.646   1.892  11.757 -0.2054 -0.4177 -0.4424
   53TMC2     H  828   1.840   1.816  11.885  1.4907 -3.1505  1.2848
   53TMC2    H1  829   1.538   2.014  12.115  0.6743  0.1014  0.0455
   53TMC2    H2  830   1.865   1.819  12.307 -0.6506 -0.1154  0.9167
   53TMC2    C7  831   1.630   1.924  12.335  0.5997 -0.1318  0.1209
   53TMC2    C8  832   1.985   1.740  12.108  0.5681  0.5919  0.7900
   53TMC2    O1  833   1.509   1.955  12.329 -0.0828 -0.0468 -0.3676
   53TMC2    O2  834   2.067   1.756  12.195  0.2432 -0.5939  0.4869
   53TMC2    O5  835   1.995   1.649  12.008 -0.1917  0.0746 -0.0782
   53TMC2    H5  836   1.905   1.630  11.973  0.0753 -0.9303 -0.2050
   54MPD2     C  837   1.351   1.868  11.688 -0.2567 -0.2000 -0.7069
   54MPD2    C1  838   1.340   1.896  11.824  0.2610 -0.0831  0.1168
   54MPD2    C2  839   1.215   1.902  11.881  0.2477  0.0272  0.3497
   54MPD2    C3  840   1.101   1.896  11.805  0.7629 -0.1962 -0.7084
   54MPD2    C4  841   1.114   1.887  11.672  0.0901  0.3198 -0.4447
   54MPD2    C5  842   1.237   1.871  11.612  0.3409  0.1817  0.9920
   54MPD2     H  843   1.206   1.901  11.989 -1.5634  0.1000  0.2031
   54MPD2    H1  844   1.023   1.877  11.613 -0.5943 -1.9023  1.0255
   54MPD2    H2  845   1.447   1.853  11.640 -0.4231 -2.3497 -0.3479
   54MPD2    H3  846   1.239   1.853  11.506 -0.5165  0.3227  0.9540
   54MPD2     N  847   0.969   1.898  11.856  0.1542 -0.3229  0.4219
   54MPD2    H5  848   0.893   1.912  11.790  0.2335  0.6902  0.5440
   54MPD2    N1  849   1.454   1.906  11.905  0.1757 -0.5607 -0.2870
   54MPD2    H7  850   1.435   1.936  12.000 -1.3182  0.0734 -0.7850
   55TMC2    C1  851   3.415   4.186   1.313  0.5612  0.4497 -0.2956
   55TMC2    C2  852   3.546   4.150   1.315 -0.2218 -0.0206  0.2098
   55TMC2    C3  853   3.574   4.020   1.344  0.7834  0.3500 -0.0024
   55TMC2    C4  854   3.308   4.095   1.326 -0.2237 -0.0780  0.3687
   55TMC2    C5  855   3.341   3.969   1.350  0.2995  0.0798  0.1175
   55TMC2    C6  856   3.476   3.925   1.355 -0.8978  0.3983  0.2354
   55TMC2     C  857   3.381   4.304   1.239  0.7714 -0.2652  0.8726
   55TMC2     O  858   3.423   4.415   1.271 -0.0912  0.1020  0.9672
   55TMC2     H  859   3.628   4.221   1.308 -0.3450  0.2345  1.3301
   55TMC2    H1  860   3.211   4.135   1.298  0.4760  2.0276  0.9607
   55TMC2    H2  861   3.491   3.821   1.380 -2.8432  0.1374  0.3057
   55TMC2    C7  862   3.233   3.863   1.355  0.4591  1.1032 -0.0463
   55TMC2    C8  863   3.716   3.983   1.357 -0.6435 -0.8082  0.2802
   55TMC2    O1  864   3.277   3.749   1.336 -0.0285  0.1269 -0.7183
   55TMC2    O2  865   3.815   4.055   1.356 -0.0599 -0.0777  0.5840
   55TMC2    O5  866   3.734   3.851   1.352 -0.5019 -0.0919 -0.2406
   55TMC2    H5  867   3.654   3.796   1.344 -1.6172  1.4463  0.4556
   56MPD2     C  868   3.192   4.288   0.922  0.0959 -0.1184  0.0666
   56MPD2    C1  869   3.246   4.351   1.028  0.4205 -0.6810 -0.3216
   56MPD2    C2  870   3.239   4.487   1.030 -0.4450  0.0471 -0.3946
   56MPD2    C3  871   3.168   4.561   0.945  0.2724 -0.0485 -0.1262
   56MPD2    C4  872   3.110   4.494   0.837  0.0928 -0.3626 -0.4307
   56MPD2    C5  873   3.121   4.361   0.825 -0.0387 -1.3088  0.2028
   56MPD2     H  874   3.299   4.538   1.105  0.5380  1.5428 -2.2092
   56MPD2    H1  875   3.030   4.542   0.782  0.4722 -0.8222 -1.3660
   56MPD2    H2  876   3.169   4.182   0.921  2.7412 -0.6720  0.0996
   56MPD2    H3  877   3.070   4.314   0.743  1.3725  2.7244 -3.0209
   56MPD2     N  878   3.154   4.697   0.980 -0.4592 -0.0732  0.4456
   56MPD2    H5  879   3.177   4.722   1.075 -1.8115  0.3567  0.6538
   56MPD2    N1  880   3.313   4.268   1.125 -0.0795 -0.1681  0.6990
   56MPD2    H7  881   3.304   4.168   1.116 -1.1240  0.0609 -0.9348
   57TMC2    C1  882   1.942   0.572  13.553  0.9144 -0.6155  0.0138
   57TMC2    C2  883   1.900   0.460  13.488 -1.0438 -0.4707  0.2990
   57TMC2    C3  884   1.968   0.412  13.382 -0.3188 -0.3053  0.0277
   57TMC2    C4  885   2.054   0.632  13.525 -0.1671 -0.2339  0.5376
   57TMC2    C5  886   2.128   0.577  13.427  0.2700 -0.7499 -0.0011
   57TMC2    C6  887   2.085   0.473  13.354 -0.3881  0.3867 -1.2730
   57TMC2     C  888   1.872   0.630  13.661  0.7164 -0.0893  0.0040
   57TMC2     O  889   1.892   0.748  13.684  0.9630 -0.5780  0.2194
   57TMC2     H  890   1.803   0.415  13.506 -0.6373 -0.7949  1.6551
   57TMC2    H1  891   2.087   0.715  13.586 -2.4084  0.7619  0.4149
   57TMC2    H2  892   2.142   0.447  13.265  2.8122 -0.9708  1.1865
   57TMC2    C7  893   2.260   0.626  13.401 -0.5380 -0.4941 -0.2073
   57TMC2    C8  894   1.993   0.273  13.370  0.3917  0.4389  0.0221
   57TMC2    O1  895   2.275   0.748  13.419 -1.1586  0.4284 -0.0530
   57TMC2    O2  896   2.108   0.240  13.347  0.2272 -0.1328  0.0636
   57TMC2    O5  897   1.904   0.210  13.441  0.1731 -0.4484  0.0293
   57TMC2    H5  898   1.815   0.250  13.441 -0.0055 -0.8416 -0.5661
   58MPD2     C  899   1.643   0.605  14.115  0.7083  0.7229  0.1460
   58MPD2    C1  900   1.649   0.713  14.027 -0.4288  0.3308 -0.0565
   58MPD2    C2  901   1.702   0.688  13.904 -0.7220  0.5397  0.5028
   58MPD2    C3  902   1.745   0.564  13.864 -0.1854  0.2102 -0.1199
   58MPD2    C4  903   1.721   0.454  13.947  0.2359 -0.4456 -0.3205
   58MPD2    C5  904   1.664   0.476  14.069 -0.0774 -0.0480  0.2739
   58MPD2     H  905   1.702   0.769  13.832 -1.4040 -2.3550 -2.7422
   58MPD2    H1  906   1.737   0.354  13.910 -2.0607 -0.2947 -1.6868
   58MPD2    H2  907   1.604   0.615  14.215  1.9510  2.4365  0.4725
   58MPD2    H3  908   1.645   0.388  14.130 -1.8827 -0.5074 -0.9417
   58MPD2     N  909   1.807   0.538  13.737  0.1790  0.1197  0.4901
   58MPD2    H5  910   1.824   0.443  13.707 -1.3887 -0.3569  1.0994
   58MPD2    N1  911   1.602   0.839  14.066  0.4010  0.0374  0.0569
   58MPD2    H7  912   1.599   0.915  13.999 -3.0402 -0.7237 -0.6118
   59TMC2    C1  913   0.346   0.787  12.916 -0.6951 -0.6675 -0.8136
   59TMC2    C2  914   0.228   0.849  12.944  0.8425  0.3818  0.2938
   59TMC2    C3  915   0.180   0.945  12.859  0.8974  0.2425 -0.3064
   59TMC2    C4  916   0.403   0.802  12.787  0.4622  0.2576  0.2001
   59TMC2    C5  917   0.360   0.908  12.701 -0.9594 -0.2524 -0.3213
   59TMC2    C6  918   0.244   0.976  12.738  0.2145  0.9598 -0.2049
   59TMC2     C  919   0.380   0.664  12.988  0.5164  0.0044 -0.2696
   59TMC2     O  920   0.463   0.594  12.931 -0.1736  0.1501 -0.4108
   59TMC2     H  921   0.177   0.825  13.037 -0.4407 -0.4510 -0.6310
   59TMC2    H1  922   0.493   0.745  12.768  0.2621 -0.1258  0.3900
   59TMC2    H2  923   0.228   1.073  12.692 -1.0727 -0.3260 -2.4351
   59TMC2    C7  924   0.411   0.913  12.567 -0.1855 -1.0184 -0.2097
   59TMC2    C8  925   0.091   1.049  12.909  0.9193  0.3579  0.2688
   59TMC2    O1  926   0.516   0.849  12.548  0.1873 -0.3957 -0.3019
   59TMC2    O2  927   0.042   1.137  12.846  0.4413  0.2110 -0.1789
   59TMC2    O5  928   0.091   1.058  13.048 -0.1111 -0.3544  0.0148
   59TMC2    H5  929   0.139   0.982  13.087  0.8521  0.5671  0.6369
   60MPD2     C  930   0.378   0.425  13.167 -0.7045 -0.1453  0.3976
   60MPD2    C1  931   0.361   0.551  13.212 -0.1356  0.8010  0.2561
   60MPD2    C2  932   0.366   0.576  13.347 -0.5770 -0.2545 -0.7510
   60MPD2    C3  933   0.393   0.475  13.434  0.5249  0.1112  0.1839
   60MPD2    C4  934   0.413   0.350  13.392 -0.4903 -0.2380 -0.0926
   60MPD2    C5  935   0.404   0.322  13.256  0.0091  0.1574  0.5887
   60MPD2     H  936   0.358   0.682  13.367 -1.5827 -0.3444 -0.7091
   60MPD2    H1  937   0.437   0.268  13.459 -0.5109  2.2264  2.9118
   60MPD2    H2  938   0.370   0.408  13.060 -0.7217 -0.9625  0.5329
   60MPD2    H3  939   0.403   0.223  13.211 -4.0856  1.5362 -2.3828
   60MPD2     N  940   0.428   0.499  13.572  0.0500 -0.1949 -1.1830
   60MPD2    H5  941   0.469   0.421  13.621 -0.4191  1.7641  2.2859
   60MPD2    N1  942   0.341   0.660  13.121 -0.3775  0.3863 -0.1077
   60MPD2    H7  943   0.293   0.742  13.158 -2.8565 -0.1583 -2.0842
   61TMC2    C1  944   3.881   2.354  15.515 -0.4319  0.5116  0.6458
   61TMC2    C2  945   3.781   2.337  15.609 -0.1071  0.2213  0.2633
   61TMC2    C3  946   3.715   2.444  15.651  0.6403  0.3977  0.3399
   61TMC2    C4  947   3.915   2.481  15.473 -0.1011 -0.0244 -0.1984
   61TMC2    C5  948   3.840   2.588  15.519  0.6988  0.1988  0.5040
   61TMC2    C6  949   3.736   2.571  15.608  0.1557  0.2035  0.8443
   61TMC2     C  950   3.947   2.239  15.474  0.3602  0.9700  0.0748
   61TMC2     O  951   3.915   2.133  15.525 -0.2535 -0.2436 -0.5073
   61TMC2     H  952   3.756   2.241  15.653  2.6790 -0.3567  0.5753
   61TMC2    H1  953   4.009   2.500  15.421 -0.5240  1.5207 -0.4081
   61TMC2    H2  954   3.678   2.659  15.635  0.3566  0.8502 -0.8044
   61TMC2    C7  955   3.871   2.714  15.452 -0.1131  0.8013 -0.3592
   61TMC2    C8  956   3.590   2.419  15.718 -0.2379 -0.1791  0.1703
   61TMC2    O1  957   3.985   2.746  15.428  0.1088  0.2680 -0.2904
   61TMC2    O2  958   3.572   2.353  15.820 -0.4438 -0.5403  0.5883
   61TMC2    O5  959   3.498   2.500  15.666 -0.1074  0.6359  0.2042
   61TMC2    H5  960   3.515   2.558  15.589 -0.0600 -0.2700 -0.4594
   62MPD2     C  961   4.096   2.034  15.309 -0.2733  0.0535 -0.4707
   62MPD2    C1  962   4.111   2.169  15.299 -0.6604  0.1402  0.0865
   62MPD2    C2  963   4.187   2.221  15.202 -0.0769 -0.3620 -0.1355
   62MPD2    C3  964   4.255   2.142  15.116  0.0457 -0.1511 -0.2181
   62MPD2    C4  965   4.251   2.008  15.130 -0.7216  0.0478  0.6916
   62MPD2    C5  966   4.170   1.953  15.227 -0.2988  0.4538  0.7344
   62MPD2     H  967   4.174   2.327  15.188 -0.8739 -0.5473 -0.8155
   62MPD2    H1  968   4.306   1.946  15.059 -1.9544 -0.8543  0.5220
   62MPD2    H2  969   4.033   1.990  15.385 -1.4832  1.0513 -0.9130
   62MPD2    H3  970   4.170   1.845  15.242  1.7209  0.8896  3.7692
   62MPD2     N  971   4.333   2.199  15.009 -0.3985 -0.2611 -0.3000
   62MPD2    H5  972   4.350   2.133  14.934  1.0975 -0.5392  0.2931
   62MPD2    N1  973   4.044   2.260  15.381 -0.9636 -0.2412  0.2340
   62MPD2    H7  974   4.059   2.358  15.358 -1.8864 -0.6968 -2.3247
   63TMC2    C1  975   3.407   2.265  10.555 -0.0735  0.5458 -0.2716
   63TMC2    C2  976   3.334   2.378  10.559  0.4599 -0.0404 -0.1444
   63TMC2    C3  977   3.390   2.487  10.497 -0.0534 -0.6768  0.0023
   63TMC2    C4  978   3.531   2.264  10.499 -0.9561 -0.4119  0.0562
   63TMC2    C5  979   3.577   2.364  10.417  0.0943  0.9058 -0.0953
   63TMC2    C6  980   3.507   2.484  10.427 -0.3779 -0.7078  0.3817
   63TMC2     C  981   3.353   2.133  10.582 -0.5008  0.2257 -0.4917
   63TMC2     O  982   3.430   2.041  10.594 -0.3320  0.2904 -0.2922
   63TMC2     H  983   3.261   2.394  10.638  1.4065 -1.1071  0.9506
   63TMC2    H1  984   3.592   2.174  10.501 -1.9668 -1.1107 -0.4606
   63TMC2    H2  985   3.536   2.576  10.378 -0.5414 -0.2392  1.1643
   63TMC2    C7  986   3.605   2.313  10.278 -0.3146 -0.5561 -0.1600
   63TMC2    C8  987   3.324   2.613  10.529 -0.2632 -0.0634 -0.3650
   63TMC2    O1  988   3.596   2.192  10.261 -0.3343 -0.1464  0.6616
   63TMC2    O2  989   3.209   2.617  10.565 -0.5710 -0.0976 -0.1703
   63TMC2    O5  990   3.408   2.724  10.514 -0.3891  0.1012  0.9383
   63TMC2    H5  991   3.503   2.702  10.507 -0.6934 -0.5250 -1.1665
   64MPD2     C  992   2.975   1.792  10.670  0.1675  0.2349  0.4427
   64MPD2    C1  993   3.104   1.773  10.622  0.1298  0.3780  0.5221
   64MPD2    C2  994   3.186   1.883  10.595 -0.3804  0.0451  0.4327
   64MPD2    C3  995   3.140   2.012  10.610 -0.0858  0.5107  0.1334
   64MPD2    C4  996   3.013   2.030  10.655  0.1974 -0.0068  0.1837
   64MPD2    C5  997   2.931   1.921  10.683 -0.6901  0.2086  0.5428
   64MPD2     H  998   3.285   1.874  10.553 -0.1845 -1.0282  1.1111
   64MPD2    H1  999   2.964   2.125  10.672  0.0106  0.3156 -2.1475
   64MPD2    H2 1000   2.893   1.725  10.694  0.1998 -0.2600 -0.8367
   64MPD2    H3 1001   2.828   1.941  10.708  0.2003  3.0125  1.9715
   64MPD2     N 1002   3.215   2.131  10.593 -0.1568  0.0236 -0.4237
   64MPD2    H5 1003   3.166   2.217  10.615 -0.2786 -0.0340 -0.4724
   64MPD2    N1 1004   3.155   1.639  10.596  0.3579 -0.2921 -0.1035
   64MPD2    H7 1005   3.253   1.628  10.570  0.8535  1.5036  1.0037
   65TMC2    C1 1006   4.409   2.026  16.044  0.4646  1.1008 -0.3546
   65TMC2    C2 1007   4.319   2.007  15.945 -0.1650  0.0330  0.2807
   65TMC2    C3 1008   4.253   2.115  15.890 -0.0470 -0.2078  0.3832
   65TMC2    C4 1009   4.429   2.153  16.091  0.0824 -0.0752  0.0056
   65TMC2    C5 1010   4.365   2.261  16.030  0.2066 -0.1143 -0.4280
   65TMC2    C6 1011   4.274   2.242  15.931  0.3863 -1.0115 -0.5057
   65TMC2     C 1012   4.482   1.911  16.104 -0.0649 -0.7761  0.3085
   65TMC2     O 1013   4.525   1.934  16.216 -0.2002 -0.3244  0.1391
   65TMC2     H 1014   4.286   1.905  15.929  1.1507 -0.5132  1.1412
   65TMC2    H1 1015   4.489   2.158  16.181 -2.4940 -0.1599  1.7480
   65TMC2    H2 1016   4.200   2.312  15.897  1.4286  0.5223  0.3560
   65TMC2    C7 1017   4.410   2.387  16.058  0.2267 -0.5116 -0.6289
   65TMC2    C8 1018   4.135   2.087  15.806  0.5739  0.1077  0.0587
   65TMC2    O1 1019   4.453   2.403  16.172  0.5155  0.2484  0.7737
   65TMC2    O2 1020   4.102   1.970  15.812  0.1359 -0.1115  0.2013
   65TMC2    O5 1021   4.175   2.155  15.691 -0.1936  0.2067 -0.6485
   65TMC2    H5 1022   4.192   2.251  15.699 -0.9243  0.4127 -1.6373
   66MPD2     C 1023   4.627   1.663  16.172 -0.6158  0.2837  0.1946
   66MPD2    C1 1024   4.559   1.681  16.055  0.6998 -0.0567 -0.0230
   66MPD2    C2 1025   4.550   1.578  15.968 -0.7307 -0.2663 -0.7956
   66MPD2    C3 1026   4.607   1.455  15.994  0.2178 -0.3912  0.3923
   66MPD2    C4 1027   4.655   1.431  16.118 -0.4222 -0.6385  0.3985
   66MPD2    C5 1028   4.677   1.539  16.205  0.2794  0.8990  0.2936
   66MPD2     H 1029   4.506   1.597  15.871 -1.6950 -0.8031 -0.4666
   66MPD2    H1 1030   4.700   1.336  16.143  0.1574 -1.0657 -2.2469
   66MPD2    H2 1031   4.641   1.744  16.243 -1.1871  0.4205  0.1521
   66MPD2    H3 1032   0.006   1.535  16.293 -0.2933 -3.6007  0.5298
   66MPD2     N 1033   4.593   1.341  15.912 -0.7678 -0.0727  0.2133
   66MPD2    H5 1034   4.623   1.249  15.941  0.1926  0.3492  0.5800
   66MPD2    N1 1035   4.506   1.808  16.018 -0.2284  1.1521  0.2534
   66MPD2    H7 1036   4.466   1.811  15.924  1.5574 -2.4752 -0.5970
   67TMC2    C1 1037   4.533   1.231  14.311 -0.5215  0.1154 -0.5479
   67TMC2    C2 1038   4.525   1.367  14.331  0.6658  0.9406  0.2565
   67TMC2    C3 1039   4.618   1.420  14.417 -0.3501 -0.1619 -0.2749
   67TMC2    C4 1040   4.610   1.149  14.386  0.7830  0.1012 -0.4911
   67TMC2    C5 1041   4.686   1.208  14.480  0.7386  0.0725  0.2755
   67TMC2    C6 1042   4.694   1.345  14.499 -0.4107  0.4846 -0.4765
   67TMC2     C 1043   4.440   1.163  14.221  0.1701 -0.1063 -0.2000
   67TMC2     O 1044   4.483   1.055  14.178  0.0028  0.1139  1.0044
   67TMC2     H 1045   4.475   1.429  14.257 -1.6611  0.0973  1.1304
   67TMC2    H1 1046   4.618   1.043  14.364  0.9619 -0.3908  2.0484
   67TMC2    H2 1047   0.031   1.391  14.565  1.7924 -0.6913 -2.0618
   67TMC2    C7 1048   0.053   1.120  14.539  0.0995  0.6475 -0.5061
   67TMC2    C8 1049   4.612   1.564  14.438 -0.8480 -0.0859  0.0989
   67TMC2    O1 1050   0.063   1.010  14.490 -0.4937 -0.2682 -0.0393
   67TMC2    O2 1051   4.513   1.632  14.414  0.3146 -0.3338  0.7217
   67TMC2    O5 1052   4.726   1.604  14.503 -0.5771 -0.7231 -0.0453
   67TMC2    H5 1053   0.069   1.550  14.476 -0.0436  0.4594 -0.8945
   68MPD2     C 1054   4.216   1.063  14.043 -0.9152 -0.0214 -0.7750
   68MPD2    C1 1055   4.220   1.190  14.103  0.2717 -0.1748 -0.4566
   68MPD2    C2 1056   4.120   1.275  14.065  0.5911  0.3960  0.1595
   68MPD2    C3 1057   4.020   1.243  13.971 -0.4089  0.8056 -0.1691
   68MPD2    C4 1058   4.009   1.110  13.931 -1.3351 -0.0438  0.8794
   68MPD2    C5 1059   4.109   1.026  13.965 -0.3046 -0.1661  0.0056
   68MPD2     H 1060   4.109   1.373  14.111 -1.6531  0.2091  0.0281
   68MPD2    H1 1061   3.931   1.069  13.868 -0.1140 -0.6651 -0.2391
   68MPD2    H2 1062   4.281   0.982  14.074  1.2142  2.2837  0.7708
   68MPD2    H3 1063   4.111   0.928  13.919  1.2894 -0.3824  0.5216
   68MPD2     N 1064   3.913   1.327  13.929 -0.1642  0.1371 -0.7054
   68MPD2    H5 1065   3.839   1.274  13.883 -1.4247  0.6220  0.7640
   68MPD2    N1 1066   4.324   1.230  14.188 -0.3845  0.1340  0.0151
   68MPD2    H7 1067   4.305   1.320  14.232  0.7448  0.2904  0.1641
   69TMC2    C1 1068   1.609   2.389  12.769 -0.9732 -0.2872 -0.2374
   69TMC2    C2 1069   1.519   2.487  12.761 -0.6508 -0.3918  0.0107
   69TMC2    C3 1070   1.515   2.559  12.638  0.3206  0.0270  0.2626
   69TMC2    C4 1071   1.695   2.363  12.668 -0.0122  0.1214 -0.5241
   69TMC2    C5 1072   1.679   2.425  12.548  0.6998  0.4820  0.0223
   69TMC2    C6 1073   1.590   2.526  12.532 -0.2716 -0.5763 -0.1079
   69TMC2     C 1074   1.624   2.335  12.906 -0.1604  0.6803 -0.5876
   69TMC2     O 1075   1.529   2.340  12.984  0.0714  0.4757  0.8435
   69TMC2     H 1076   1.468   2.532  12.846  3.0105  1.8314  1.0677
   69TMC2    H1 1077   1.751   2.270  12.666  1.0368  0.7164  0.7659
   69TMC2    H2 1078   1.583   2.569  12.433  0.3193  1.1598  0.5938
   69TMC2    C7 1079   1.744   2.363  12.436 -0.0282  0.1898  0.1184
   69TMC2    C8 1080   1.398   2.640  12.631  0.6715 -0.3127  0.2218
   69TMC2    O1 1081   1.841   2.295  12.463 -0.3566 -0.2842 -0.2356
   69TMC2    O2 1082   1.313   2.651  12.721 -0.0697  0.9351  0.0333
   69TMC2    O5 1083   1.440   2.747  12.559  0.2309  0.7394  0.1107
   69TMC2    H5 1084   1.523   2.741  12.506 -0.4876 -1.5572 -0.7571
   70MPD2     C 1085   1.915   2.179  13.068  0.4249 -0.3346 -0.0525
   70MPD2    C1 1086   1.780   2.202  13.042 -0.3291 -0.8192 -0.8101
   70MPD2    C2 1087   1.690   2.148  13.134  0.1750 -0.3821  0.2147
   70MPD2    C3 1088   1.732   2.067  13.240  0.2350 -1.3319  0.2168
   70MPD2    C4 1089   1.864   2.051  13.265 -0.0925  0.3138 -0.1374
   70MPD2    C5 1090   1.955   2.108  13.180 -1.1550 -0.4073  0.0778
   70MPD2     H 1091   1.588   2.173  13.109 -0.4591 -3.2311 -0.0397
   70MPD2    H1 1092   1.889   1.987  13.349 -2.4697 -0.4449 -0.0212
   70MPD2    H2 1093   1.991   2.211  12.997 -0.6786  0.3026 -0.9539
   70MPD2    H3 1094   2.057   2.073  13.196 -0.7493  0.7267 -0.0154
   70MPD2     N 1095   1.649   1.980  13.319 -0.0713  0.3403 -0.5275
   70MPD2    H5 1096   1.703   1.917  13.377  2.4670  2.1336 -0.9338
   70MPD2    N1 1097   1.747   2.277  12.931  0.0453  0.1449 -0.0273
   70MPD2    H7 1098   1.820   2.292  12.862  0.0973  0.6042  0.1253
   71TMC2    C1 1099   4.564   3.281   2.137 -0.1581 -0.0399  0.4822
   71TMC2    C2 1100   4.651   3.325   2.241  0.3033  0.1138  0.2244
   71TMC2    C3 1101   4.599   3.411   2.337 -0.0878  0.1478  0.2380
   71TMC2    C4 1102   4.431   3.332   2.124 -0.2073  0.0682 -0.1724
   71TMC2    C5 1103   4.388   3.404   2.237  0.3026  0.1678 -0.3338
   71TMC2    C6 1104   4.472   3.453   2.331  0.6086  1.6118 -0.1721
   71TMC2     C 1105   4.608   3.175   2.052  0.2960  0.3192 -0.2941
   71TMC2     O 1106   4.697   3.111   2.100  0.0253 -0.1889  0.9271
   71TMC2     H 1107   0.014   3.282   2.257 -0.7150 -1.6473  1.8118
   71TMC2    H1 1108   4.371   3.294   2.041  1.8616 -1.9540 -0.7431
   71TMC2    H2 1109   4.442   3.523   2.407  2.7995  1.4318  0.8514
   71TMC2    C7 1110   4.247   3.434   2.250 -0.7368  0.1831  0.4871
   71TMC2    C8 1111   4.691   3.480   2.427 -0.8247  0.4041  0.0395
   71TMC2    O1 1112   4.216   3.492   2.354 -0.7605  0.3543  0.3329
   71TMC2    O2 1113   4.651   3.543   2.527 -0.3447  0.1231 -0.3769
   71TMC2    O5 1114   0.034   3.546   2.340 -0.0455  0.2475  0.0277
   71TMC2    H5 1115   0.020   3.529   2.244 -0.0291  2.2994 -0.3412
   72MPD2     C 1116   4.655   2.882   1.631  0.8252 -0.1222  0.5172
   72MPD2    C1 1117   4.618   3.012   1.599  0.3484  0.0819 -0.4830
   72MPD2    C2 1118   4.576   3.106   1.695  0.4432  0.2119 -0.3928
   72MPD2    C3 1119   4.588   3.073   1.829 -0.6827  0.3767  0.5783
   72MPD2    C4 1120   4.640   2.949   1.861 -0.3015 -0.0831 -0.7301
   72MPD2    C5 1121   4.667   2.854   1.763 -0.0196 -0.3444 -0.4890
   72MPD2     H 1122   4.531   3.198   1.658 -3.6127 -1.5941  0.0181
   72MPD2    H1 1123   4.656   2.911   1.961 -0.2845 -0.7373 -0.9781
   72MPD2    H2 1124   4.690   2.820   1.549 -0.3462 -1.2138  0.8473
   72MPD2    H3 1125   4.714   2.760   1.791  1.2067  0.6788  0.9229
   72MPD2     N 1126   4.554   3.169   1.929 -0.1879  0.1109 -0.0588
   72MPD2    H5 1127   4.507   3.256   1.906  0.4413  0.2791 -0.7193
   72MPD2    N1 1128   4.615   3.056   1.471  0.3482 -0.2701 -0.6007
   72MPD2    H7 1129   4.595   3.156   1.464  0.5256 -0.2432 -0.7094
   73TMC2    C1 1130   3.908   4.507  14.364 -0.1915  0.3543 -0.2744
   73TMC2    C2 1131   3.897   4.637  14.403 -0.7583  0.3458 -0.5091
   73TMC2    C3 1132   3.958   4.657  14.522 -0.8507  0.4110 -0.5538
   73TMC2    C4 1133   3.966   4.412  14.435 -0.2574  0.1944  0.4542
   73TMC2    C5 1134   4.013   4.440  14.560  0.1307  0.3593 -0.3234
   73TMC2    C6 1135   4.021   4.568  14.602 -0.8480  0.6922  0.3427
   73TMC2     C 1136   3.945   4.485  14.228  0.1353  0.2538  0.2040
   73TMC2     O 1137   4.015   4.388  14.213  0.3079 -0.1640 -0.3552
   73TMC2     H 1138   3.859   4.724  14.351 -0.0516 -1.0820 -3.4535
   73TMC2    H1 1139   3.958   4.305  14.415  0.3067 -0.0114  1.3372
   73TMC2    H2 1140   4.045   4.592  14.704  0.1742 -1.5692  0.6465
   73TMC2    C7 1141   4.142   4.384  14.575 -0.4891  0.9660 -0.0963
   73TMC2    C8 1142   3.954   0.060  14.573  0.8803 -0.2802  0.0122
   73TMC2    O1 1143   4.204   4.394  14.683  0.1278 -0.8869  0.2874
   73TMC2    O2 1144   3.905   0.089  14.681  0.3625 -0.4475  0.0378
   73TMC2    O5 1145   3.984   0.138  14.471  0.6024  0.1787  0.3219
   73TMC2    H5 1146   4.034   0.094  14.398 -1.9431 -0.1718 -1.2178
   74MPD2     C 1147   4.025   4.581  13.734 -0.4689 -0.0880  0.1092
   74MPD2    C1 1148   4.100   4.510  13.818 -0.1173 -0.2538  0.6915
   74MPD2    C2 1149   4.054   4.502  13.953 -0.1880 -0.3445 -0.4904
   74MPD2    C3 1150   3.941   4.577  13.998 -0.1059 -0.7934  0.1502
   74MPD2    C4 1151   3.881   4.652  13.902 -0.5865  0.1700  0.2083
   74MPD2    C5 1152   3.930   4.669  13.775  0.4339 -0.0890 -0.2151
   74MPD2     H 1153   4.096   4.424  14.015 -0.1354  1.0910  1.2860
   74MPD2    H1 1154   3.797   4.714  13.931 -0.1730 -0.2903  2.3436
   74MPD2    H2 1155   4.059   4.582  13.631  0.6801 -1.1032  0.4777
   74MPD2    H3 1156   3.889   0.011  13.711 -0.1994 -0.6341 -0.4550
   74MPD2     N 1157   3.899   4.579  14.132 -0.3117 -0.2291 -0.1050
   74MPD2    H5 1158   3.821   4.643  14.149  0.3425  1.0655 -2.0381
   74MPD2    N1 1159   4.220   4.449  13.778  0.0781  0.0643 -0.2255
   74MPD2    H7 1160   4.255   4.472  13.686  0.3542 -2.0289 -0.6541
   75TMC2    C1 1161   3.790   1.520  13.874  0.0560  0.1906  0.1353
   75TMC2    C2 1162   3.740   1.637  13.915 -0.4443 -0.4091  0.6426
   75TMC2    C3 1163   3.658   1.711  13.835 -0.4641 -0.3293 -0.8006
   75TMC2    C4 1164   3.764   1.462  13.750  0.2563  0.6753 -0.1066
   75TMC2    C5 1165   3.680   1.537  13.677 -0.2376 -0.4268  0.0577
   75TMC2    C6 1166   3.619   1.657  13.714 -0.6538 -0.4388 -0.5678
   75TMC2     C 1167   3.901   1.464  13.954  0.6573 -0.1254 -0.0747
   75TMC2     O 1168   3.972   1.539  14.017  0.2101 -0.5677 -0.5283
   75TMC2     H 1169   3.784   1.674  14.008 -0.4995  0.0642  0.4829
   75TMC2    H1 1170   3.798   1.362  13.724 -2.1972 -0.4866  1.2142
   75TMC2    H2 1171   3.559   1.712  13.643 -0.4562 -1.6218 -1.6483
   75TMC2    C7 1172   3.649   1.490  13.544  0.3911  0.4333 -0.5681
   75TMC2    C8 1173   3.671   1.853  13.825 -1.1848 -0.7663  0.2354
   75TMC2    O1 1174   3.538   1.518  13.506 -0.4633  0.3427 -0.0126
   75TMC2    O2 1175   3.590   1.914  13.760  0.2036 -0.1916  0.3432
   75TMC2    O5 1176   3.782   1.903  13.887 -0.3872  0.4324 -1.1561
   75TMC2    H5 1177   3.854   1.840  13.905 -2.4046 -0.8963  2.2228
   76TMC2    C1 1178   2.116   1.205  12.523 -0.1275  0.7788  0.0360
   76TMC2    C2 1179   2.012   1.124  12.479  0.3255 -0.4848 -0.6017
   76TMC2    C3 1180   1.981   1.014  12.547 -0.6101  0.5848  0.0310
   76TMC2    C4 1181   2.186   1.164  12.631  0.3225  0.6625  0.2496
   76TMC2    C5 1182   2.149   1.044  12.692  0.5799  0.3859  0.4684
   76TMC2    C6 1183   2.043   0.968  12.656 -0.2021  0.5416  0.1485
   76TMC2     C 1184   2.169   1.294  12.426 -0.5127  0.8632  0.0708
   76TMC2     O 1185   2.103   1.334  12.331  0.2105  0.3557  0.2658
   76TMC2     H 1186   1.964   1.141  12.384  0.8541 -0.1532 -0.8131
   76TMC2    H1 1187   2.262   1.232  12.670  1.2315 -0.2902  0.1523
   76TMC2    H2 1188   2.002   0.893  12.722 -1.4126  0.5841 -0.5356
   76TMC2    C7 1189   2.222   1.006  12.810 -0.1595  0.2820  0.0868
   76TMC2    C8 1190   1.880   0.926  12.490 -0.2245 -0.2345 -0.4487
   76TMC2    O1 1191   2.184   0.910  12.869 -0.5087  0.2024  0.1378
   76TMC2    O2 1192   1.794   0.962  12.406  0.5629 -0.0483  0.0573
   76TMC2    O5 1193   1.930   0.798  12.498 -0.5714  0.1054  0.2773
   76TMC2    H5 1194   2.013   0.792  12.551 -0.5134 -2.1479 -0.0658
   77MPD2     C 1195   2.540   1.528  12.167 -0.0638 -0.7569 -0.4477
   77MPD2    C1 1196   2.414   1.577  12.189 -0.0916  0.5218 -0.5133
   77MPD2    C2 1197   2.334   1.511  12.284  0.1373  1.1603 -0.3660
   77MPD2    C3 1198   2.380   1.399  12.351  0.5631  0.3708  0.2320
   77MPD2    C4 1199   2.507   1.359  12.326 -0.8192  0.0771 -0.3893
   77MPD2    C5 1200   2.587   1.422  12.238 -0.2286 -0.4114 -0.3356
   77MPD2     H 1201   2.234   1.549  12.304  1.3364  4.1296  0.0122
   77MPD2    H1 1202   2.544   1.269  12.373 -0.7976  0.6586  0.6959
   77MPD2    H2 1203   2.618   1.571  12.106  0.1720 -2.7832 -1.6038
   77MPD2    H3 1204   2.686   1.381  12.218  0.1349  1.2759 -1.9614
   77MPD2     N 1205   2.306   1.314  12.438 -0.1408 -0.1997 -0.4283
   77MPD2    H5 1206   2.360   1.247  12.491 -2.3053 -0.4634  1.4238
   77MPD2    N1 1207   2.372   1.699  12.133 -0.5368 -0.2403 -0.0128
   77MPD2    H7 1208   2.279   1.727  12.163  0.1898  1.6657  0.4567
   78TMC2    C1 1209   4.086   1.878   1.311  0.0174 -0.6181  0.1482
   78TMC2    C2 1210   3.952   1.911   1.285  0.1537  0.3057 -0.7994
   78TMC2    C3 1211   3.908   2.041   1.290  0.5239  0.4290  0.2183
   78TMC2    C4 1212   4.169   1.980   1.345  0.7367  0.5823  0.2525
   78TMC2    C5 1213   4.121   2.108   1.358 -0.3330  1.0436 -0.3896
   78TMC2    C6 1214   3.993   2.150   1.326 -0.3296  0.0891  0.4552
   78TMC2     C 1215   4.123   1.746   1.357 -0.2403  0.2873 -0.1264
   78TMC2     O 1216   4.208   1.750   1.445 -0.2890 -0.2793 -0.0532
   78TMC2     H 1217   3.882   1.836   1.251 -2.6799  2.1252  0.9960
   78TMC2    H1 1218   4.274   1.959   1.361  0.5738  1.5194  2.5398
   78TMC2    H2 1219   3.961   2.253   1.338  1.3071  0.8424 -1.6632
   78TMC2    C7 1220   4.229   2.205   1.374  0.7473 -0.2643 -0.3993
   78TMC2    C8 1221   3.770   2.064   1.284 -0.0608  0.3362 -0.2759
   78TMC2    O1 1222   4.327   2.166   1.443 -0.0278 -0.7369 -0.5056
   78TMC2    O2 1223   3.708   1.994   1.203 -0.1430 -0.2502 -0.3467
   78TMC2    O5 1224   3.738   2.077   1.410  0.1049  0.3964  0.1939
   78TMC2    H5 1225   3.815   2.093   1.468  0.4898 -1.4081  0.1942
   79MPD1     C 1226   4.067   1.239   1.344  0.0286  0.6424  0.0005
   79MPD1    C1 1227   4.124   1.323   1.441  0.3878  0.4087 -0.3696
   79MPD1    C2 1228   4.133   1.459   1.418 -0.1337  0.1190 -0.4672
   79MPD1    C3 1229   4.085   1.506   1.300  1.0592  0.1200  0.1542
   79MPD1    C4 1230   4.037   1.422   1.205  0.4560  0.8234 -0.5310
   79MPD1    C5 1231   4.031   1.291   1.223 -0.5746  0.2144 -0.2223
   79MPD1     H 1232   4.179   1.520   1.494 -1.1433  0.0509  0.1941
   79MPD1    H1 1233   3.997   1.459   1.111 -1.2445 -1.5340 -0.7380
   79MPD1    H2 1234   4.044   1.137   1.373 -1.3289  1.7533  2.8857
   79MPD1    H3 1235   3.992   1.224   1.147 -0.8310 -0.5758  0.6146
   79MPD1     N 1236   4.071   1.648   1.278 -0.1558  0.0565  0.3791
   79MPD1    H5 1237   4.011   1.675   1.201  0.4851 -1.6110 -0.7097
   79MPD1    N1 1238   4.143   1.273   1.571  0.1590  0.2878 -0.2053
   79MPD1    H6 1239   4.185   1.180   1.569 -2.5045 -0.9563  1.0226
   79MPD1    H7 1240   4.212   1.330   1.620  0.8622 -2.1687  1.6849
   80TMC2    C1 1241   1.760   1.217  12.162 -0.4970  0.2973  0.4109
   80TMC2    C2 1242   1.848   1.254  12.069 -0.1073 -0.0859  0.3882
   80TMC2    C3 1243   1.884   1.168  11.969  0.2577 -0.1544  0.0274
   80TMC2    C4 1244   1.707   1.090  12.159  0.0427 -0.1331 -0.1097
   80TMC2    C5 1245   1.737   1.006  12.056  0.7472  0.6105  0.0588
   80TMC2    C6 1246   1.835   1.041  11.964  0.5377 -0.7113 -0.2594
   80TMC2     C 1247   1.714   1.299  12.274  0.1886  0.1367  0.5076
   80TMC2     O 1248   1.619   1.252  12.337  0.0644  0.0587 -0.6076
   80TMC2     H 1249   1.893   1.353  12.068  0.3981 -0.3005  1.7066
   80TMC2    H1 1250   1.625   1.055  12.221 -0.2437  0.4319 -0.1731
   80TMC2    H2 1251   1.873   0.968  11.894  1.4513 -0.8336  0.3561
   80TMC2    C7 1252   1.711   0.862  12.059 -0.3735  0.1128 -0.3420
   80TMC2    C8 1253   1.936   1.216  11.836 -1.2921  0.2773  0.0754
   80TMC2    O1 1254   1.715   0.802  11.952  0.7179 -0.5524 -0.0709
   80TMC2    O2 1255   1.909   1.163  11.729 -0.1361 -0.7448  0.1420
   80TMC2    O5 1256   1.999   1.330  11.851  0.5667 -0.4382 -0.1905
   80TMC2    H5 1257   2.048   1.335  11.935 -1.6187 -0.4890  1.0835
   81MPD2     C 1258   1.884   1.564  12.460 -0.0271  0.7916  0.0421
   81MPD2    C1 1259   1.784   1.481  12.419  0.4611  0.1409  0.0713
   81MPD2    C2 1260   1.665   1.485  12.492  0.3925 -0.0047  0.3289
   81MPD2    C3 1261   1.666   1.554  12.609 -0.5954  0.4197  0.5313
   81MPD2    C4 1262   1.770   1.626  12.654  0.2994 -0.0762 -0.0442
   81MPD2    C5 1263   1.876   1.640  12.573  1.0192  0.2043 -0.3458
   81MPD2     H 1264   1.572   1.433  12.471 -0.8565  1.9987  0.8699
   81MPD2    H1 1265   1.773   1.683  12.746 -0.9918  1.1322 -0.7465
   81MPD2    H2 1266   1.970   1.582  12.397 -0.0609 -1.2131 -0.5684
   81MPD2    H3 1267   1.960   1.700  12.607 -0.5843  2.0199  0.3681
   81MPD2     N 1268   1.557   1.553  12.694 -0.2481  0.0357  0.0985
   81MPD2    H5 1269   1.574   1.602  12.781 -4.1319  3.4194 -1.0264
   81MPD2    N1 1270   1.799   1.398  12.310 -0.3319  0.6071  0.1264
   81MPD2    H7 1271   1.890   1.406  12.265 -1.0458  0.5626 -1.3355
   82TMC2    C1 1272   0.222   4.604  11.751  0.6417  0.4723 -0.4550
   82TMC2    C2 1273   0.328   4.571  11.829  0.3264 -1.3966  0.0002
   82TMC2    C3 1274   0.309   4.457  11.904 -0.5195  0.0010  0.8507
   82TMC2    C4 1275   0.107   4.527  11.740 -0.0463 -0.6920  0.1677
   82TMC2    C5 1276   0.101   4.407  11.809 -0.1834  0.1388  0.1578
   82TMC2    C6 1277   0.199   4.375  11.892  0.2218 -0.3936  0.2561
   82TMC2     C 1278   0.227   4.723  11.668  0.1102  0.8268 -0.4458
   82TMC2     O 1279   0.179   4.718  11.558  0.2649 -0.4757  0.2956
   82TMC2     H 1280   0.414   4.633  11.853  0.2501 -1.9547  1.7477
   82TMC2    H1 1281   0.025   4.554  11.674  1.6220  2.1268 -0.7465
   82TMC2    H2 1282   0.188   4.282  11.947  0.1152 -0.0994  0.7363
   82TMC2    C7 1283   4.710   4.352  11.844 -0.4027 -0.4373 -0.0227
   82TMC2    C8 1284   0.425   4.427  11.988  0.2253  0.3936  0.4634
   82TMC2    O1 1285   4.710   4.309  11.959 -0.1883 -0.7613  0.8723
   82TMC2    O2 1286   0.544   4.449  11.955 -0.0309  0.8924  0.5211
   82TMC2    O5 1287   0.381   4.351  12.091  0.2730  0.3270 -0.3442
   82TMC2    H5 1288   0.285   4.368  12.101 -0.4618 -2.3602 -2.8075
   83MPD2     C 1289   0.181   0.498  11.679  0.0426 -0.4085 -0.2265
   83MPD2    C1 1290   0.104   0.405  11.619 -0.1138 -0.2322 -0.0003
   83MPD2    C2 1291   0.141   0.270  11.625  0.1919 -0.4760  0.2300
   83MPD2    C3 1292   0.252   0.229  11.702  0.2842 -0.2502 -0.3407
   83MPD2    C4 1293   0.327   0.327  11.767 -0.4060  0.0520  0.4568
   83MPD2    C5 1294   0.288   0.460  11.753  0.3790  0.1332 -0.0437
   83MPD2     H 1295   0.081   0.190  11.583 -1.4067  0.4916  0.6729
   83MPD2    H1 1296   0.414   0.310  11.830  0.7930 -1.7939 -1.7388
   83MPD2    H2 1297   0.147   0.601  11.685 -0.7032 -0.7291  1.2255
   83MPD2    H3 1298   0.346   0.528  11.814  1.0213 -1.0983  0.7174
   83MPD2     N 1299   0.290   0.093  11.722 -0.4283  0.1126  0.0857
   83MPD2    H5 1300   0.337   0.084  11.812 -1.5565  1.2365  0.7888
   83MPD2    N1 1301   4.723   0.440  11.545 -0.3504 -0.3776  0.3425
   83MPD2    H7 1302   4.713   0.540  11.539 -1.2338 -0.4689  0.2819
   84TMC2    C1 1303   1.076   4.342  10.830 -0.0217  0.8070  0.1894
   84TMC2    C2 1304   1.159   4.428  10.759  0.7964 -0.5156  0.0322
   84TMC2    C3 1305   1.182   4.405  10.628 -0.0419  0.2129  0.1432
   84TMC2    C4 1306   1.013   4.243  10.764  0.6422 -0.2193 -0.0813
   84TMC2    C5 1307   1.042   4.219  10.637  0.1649  0.0486 -0.3742
   84TMC2    C6 1308   1.128   4.301  10.561  0.4584  0.1409 -0.9477
   84TMC2     C 1309   1.031   4.383  10.962 -0.4272 -0.5618 -0.1106
   84TMC2     O 1310   1.073   4.488  11.006 -0.1921 -0.0643  0.0650
   84TMC2     H 1311   1.200   4.509  10.818 -1.7277 -0.2486  1.4235
   84TMC2    H1 1312   0.922   4.201  10.806  0.0062  2.4097  1.2364
   84TMC2    H2 1313   1.175   4.264  10.471 -0.0859 -0.2245 -1.0890
   84TMC2    C7 1314   0.954   4.129  10.563 -0.1151 -0.4711  0.3721
   84TMC2    C8 1315   1.269   4.494  10.567  0.1544  0.2561 -0.0971
   84TMC2    O1 1316   0.881   4.066  10.638  0.1006 -0.1440 -0.2961
   84TMC2    O2 1317   1.332   4.583  10.622 -0.2840  0.2710 -0.6862
   84TMC2    O5 1318   1.244   4.483  10.434 -0.3405  0.4355  0.8014
   84TMC2    H5 1319   1.180   4.414  10.404  1.2443 -1.4816  1.8100
   85TMC2    C1 1320   2.143   3.204  15.987  0.2676  0.7447  0.2721
   85TMC2    C2 1321   2.018   3.181  15.932  0.5273 -0.3527  0.6613
   85TMC2    C3 1322   1.974   3.276  15.847  0.5495  0.7040 -0.2645
   85TMC2    C4 1323   2.215   3.317  15.957 -0.2928 -0.8060  0.3955
   85TMC2    C5 1324   2.170   3.412  15.866  0.5904 -0.1088 -0.0844
   85TMC2    C6 1325   2.049   3.388  15.813 -0.1704 -0.2699 -0.1703
   85TMC2     C 1326   2.178   3.115  16.102  0.8899 -0.4703 -0.1301
   85TMC2     O 1327   2.266   3.163  16.171 -0.4214 -0.6286  0.2517
   85TMC2     H 1328   1.958   3.099  15.971  0.8951 -1.1725 -0.4953
   85TMC2    H1 1329   2.299   3.339  16.023 -1.3666 -0.1018  1.5179
   85TMC2    H2 1330   2.025   3.430  15.717  0.9700 -1.5467 -1.0164
   85TMC2    C7 1331   2.264   3.514  15.813  0.5850 -0.2411 -0.4440
   85TMC2    C8 1332   1.830   3.287  15.827 -0.4454 -0.3897 -0.2799
   85TMC2    O1 1333   2.216   3.604  15.745  0.2707 -0.3376  0.0686
   85TMC2    O2 1334   1.757   3.193  15.861  0.0532 -0.2903  0.7149
   85TMC2    O5 1335   1.781   3.412  15.822 -0.0117  0.5309  0.3160
   85TMC2    H5 1336   1.838   3.492  15.828 -1.2195  1.4383 -0.3433
   86MPD2     C 1337   2.150   2.704  16.411 -0.0821  0.5144 -0.4288
   86MPD2    C1 1338   2.073   2.680  16.301 -0.0291 -0.4829 -0.3206
   86MPD2    C2 1339   2.064   2.769  16.197 -0.6855  0.6111  0.1269
   86MPD2    C3 1340   2.123   2.895  16.209  0.4105 -0.1256  0.2132
   86MPD2    C4 1341   2.194   2.927  16.322  0.3290  0.0166  0.6253
   86MPD2    C5 1342   2.211   2.833  16.423 -0.3879  0.4219  0.5794
   86MPD2     H 1343   1.998   2.756  16.112  1.6950 -0.3004 -1.5676
   86MPD2    H1 1344   2.245   3.022  16.335  0.4588 -0.1133  1.0618
   86MPD2    H2 1345   2.166   2.636  16.494 -0.6242  2.3666  1.1820
   86MPD2    H3 1346   2.269   2.869  16.507 -2.6231  1.3868  1.7024
   86MPD2     N 1347   2.127   2.989  16.101 -0.4896 -0.0839 -0.0681
   86MPD2    H5 1348   2.084   2.957  16.015  1.3307  1.3389 -1.5136
   86MPD2    N1 1349   1.988   2.566  16.293  0.0647 -0.0646  0.0759
   86MPD2    H7 1350   1.943   2.551  16.203 -1.5297  1.1234  0.6775
   87TMC2    C1 1351   0.061   1.085   1.231  0.1942 -0.7641 -0.7138
   87TMC2    C2 1352   0.095   0.997   1.323  0.3495 -0.4052  0.5739
   87TMC2    C3 1353   0.126   1.044   1.446  0.1707  0.2236 -0.1928
   87TMC2    C4 1354   0.062   1.220   1.245 -0.2243 -0.3648  0.6400
   87TMC2    C5 1355   0.095   1.268   1.370 -0.1633 -0.5121 -0.4948
   87TMC2    C6 1356   0.136   1.178   1.472  0.1521  0.0452 -0.5013
   87TMC2     C 1357   4.729   1.026   1.114  0.0283  0.0860 -0.5063
   87TMC2     O 1358   4.669   0.919   1.133 -0.4449  0.8196 -0.8058
   87TMC2     H 1359   0.100   0.889   1.308 -0.7832 -0.4364  0.4531
   87TMC2    H1 1360   0.020   1.288   1.172 -0.6141 -0.9172  0.3459
   87TMC2    H2 1361   0.182   1.221   1.560 -0.2002  2.3814 -1.4610
   87TMC2    C7 1362   0.108   1.413   1.379  0.2708 -0.4454 -0.3797
   87TMC2    C8 1363   0.175   0.953   1.539 -0.1689  0.5285 -0.9073
   87TMC2    O1 1364   0.067   1.481   1.284 -0.1127  0.2706  0.1217
   87TMC2    O2 1365   0.178   0.836   1.518  0.3282 -0.1847 -0.8801
   87TMC2    O5 1366   0.270   1.005   1.620  0.3515 -0.1587 -0.3046
   87TMC2    H5 1367   0.287   1.099   1.600 -1.2444  0.3853  0.9083
   88MPD2     C 1368   0.157   1.589   1.696  0.8310  0.3409 -0.5116
   88MPD2    C1 1369   0.121   1.575   1.564  0.2046 -0.8195 -0.0250
   88MPD2    C2 1370   0.058   1.670   1.499 -0.6936  0.2607  0.1621
   88MPD2    C3 1371   0.060   1.793   1.548 -0.7983 -0.3803  0.1770
   88MPD2    C4 1372   0.095   1.820   1.680  0.6452 -0.5285  0.1777
   88MPD2    C5 1373   0.142   1.714   1.751 -0.5312  0.0557  0.3259
   88MPD2     H 1374   0.026   1.665   1.395  1.0283  1.4690 -0.4477
   88MPD2    H1 1375   0.095   1.918   1.725  0.2183 -0.5394  0.2011
   88MPD2    H2 1376   0.200   1.505   1.749  1.4010  1.1905  0.3667
   88MPD2    H3 1377   0.174   1.733   1.853 -0.4066  0.2359  0.2526
   88MPD2     N 1378   0.021   1.889   1.455 -0.4627 -0.9532 -0.0250
   88MPD2    H5 1379   4.710   1.862   1.369 -1.1177 -0.7603  0.2607
   88MPD2    N1 1380   0.145   1.448   1.508 -0.1573  0.1366  0.1207
   88MPD2    H7 1381   0.187   1.380   1.571  1.3362  0.5514 -0.4203
   89TMC2    C1 1382   1.101   0.154   1.900  0.2223 -0.2555  0.1610
   89TMC2    C2 1383   1.074   0.259   1.982 -0.8811 -0.2009  0.7855
   89TMC2    C3 1384   1.104   0.382   1.938 -0.0954  0.2539  0.6867
   89TMC2    C4 1385   1.172   0.165   1.785 -0.4228 -0.6084 -0.1902
   89TMC2    C5 1386   1.187   0.290   1.732 -0.0170  0.8549  0.2210
   89TMC2    C6 1387   1.157   0.402   1.812  0.2697  0.3349 -0.4832
   89TMC2     C 1388   1.066   0.014   1.938  0.0079 -0.3648  0.1082
   89TMC2     O 1389   1.135   4.655   1.898 -0.1202  0.3016 -0.0489
   89TMC2     H 1390   1.014   0.247   2.071 -2.5531 -1.6832 -0.5405
   89TMC2    H1 1391   1.194   0.080   1.721 -0.8948 -1.1004  0.3084
   89TMC2    H2 1392   1.154   0.501   1.769  1.1268 -0.7230 -3.0064
   89TMC2    C7 1393   1.261   0.305   1.606 -0.3324  0.1206  0.5009
   89TMC2    C8 1394   1.059   0.492   2.013  0.2246  0.3383  0.3921
   89TMC2    O1 1395   1.258   0.209   1.531 -0.2794 -0.1593 -0.3444
   89TMC2    O2 1396   0.971   0.494   2.098  0.2973 -0.2691  0.2034
   89TMC2    O5 1397   1.118   0.601   1.969  0.9213  0.2762  0.5186
   89TMC2    H5 1398   1.199   0.570   1.923  0.6498  0.0287  0.2129
   90MPD2     C 1399   0.772   4.357   2.088  0.1127  0.1667 -0.1661
   90MPD2    C1 1400   0.691   4.468   2.078  0.5168  0.0233 -0.0311
   90MPD2    C2 1401   0.755   4.589   2.056  0.5540  0.3166 -0.3437
   90MPD2    C3 1402   0.892   4.604   2.039  0.4507 -0.5212  0.2548
   90MPD2    C4 1403   0.975   4.486   2.052  0.4492  0.3417  0.1252
   90MPD2    C5 1404   0.913   4.362   2.078  0.3423 -0.1832 -0.3495
   90MPD2     H 1405   0.691   4.676   2.059  0.2054  0.0522 -0.1012
   90MPD2    H1 1406   1.083   4.487   2.037  0.4493 -0.1597  0.0696
   90MPD2    H2 1407   0.719   4.265   2.109  0.0151 -0.0467 -1.3305
   90MPD2    H3 1408   0.974   4.274   2.096 -0.2367 -0.7143 -1.0131
   90MPD2     N 1409   0.945   4.731   1.996 -0.6577  0.5114 -0.1125
   90MPD2    H5 1410   0.879   0.073   1.994 -0.7624  0.3889 -1.8003
   90MPD2    N1 1411   0.547   4.482   2.092  0.6729  0.0668 -0.1068
   90MPD2    H7 1412   0.507   4.576   2.087  1.9130  0.5754 -0.4961
   91TMC2    C1 1413   2.093   3.743  16.536  0.2356  0.3337 -0.4923
   91TMC2    C2 1414   2.181   3.717  16.637 -0.0525  0.1562  0.1113
   91TMC2    C3 1415   2.149   3.608  16.712 -0.7279  0.0914 -0.1940
   91TMC2    C4 1416   1.981   3.676  16.511 -0.4491  0.6095 -0.2337
   91TMC2    C5 1417   1.942   3.581  16.599 -0.0553 -0.3932 -0.4496
   91TMC2    C6 1418   2.032   3.545  16.701 -0.4403 -0.1319 -0.0912
   91TMC2     C 1419   2.120   3.858  16.457 -0.4231  0.1296  0.2288
   91TMC2     O 1420   2.026   3.906  16.400  0.1494 -0.1428 -0.5911
   91TMC2     H 1421   2.262   3.785  16.663 -1.3778  1.5858  0.4800
   91TMC2    H1 1422   1.934   3.695  16.415  0.1785  2.6749 -0.1336
   91TMC2    H2 1423   2.013   3.451  16.753  0.3552 -0.0734  0.3036
   91TMC2    C7 1424   1.809   3.524  16.597  0.1141  0.3846 -0.2995
   91TMC2    C8 1425   2.236   3.576  16.829 -0.4760 -0.0353  0.1216
   91TMC2    O1 1426   1.786   3.432  16.670  0.3211 -0.0020 -0.4537
   91TMC2    O2 1427   2.183   3.537  16.934 -0.2969 -0.0578 -0.3038
   91TMC2    O5 1428   2.372   3.605  16.810 -0.0854  0.7965  0.7084
   91TMC2    H5 1429   2.378   3.628  16.715 -1.7792 -0.1144  0.3876
   92MPD2     C 1430   2.256   4.109  16.416 -0.0411  0.8749 -0.2277
   92MPD2    C1 1431   2.320   3.985  16.382 -1.1326 -0.3895 -0.1374
   92MPD2    C2 1432   2.456   3.982  16.360 -0.2840  0.0120 -0.4807
   92MPD2    C3 1433   2.530   4.100  16.367  0.0511 -0.2938  0.1266
   92MPD2    C4 1434   2.469   4.219  16.388 -0.0359 -0.2410  0.0487
   92MPD2    C5 1435   2.337   4.224  16.416  1.1641  0.2925  0.7824
   92MPD2     H 1436   2.499   3.883  16.350 -0.2260  0.0154 -0.2601
   92MPD2    H1 1437   2.532   4.307  16.389 -0.7207  0.2065  2.5973
   92MPD2    H2 1438   2.152   4.125  16.439 -0.3630 -2.0316  0.3035
   92MPD2    H3 1439   2.285   4.317  16.438  1.2324 -0.0019  2.2005
   92MPD2     N 1440   2.666   4.106  16.349 -0.0550  0.0093 -0.4617
   92MPD2    H5 1441   2.716   4.193  16.364  0.9723 -1.0275  2.1183
   92MPD2    N1 1442   2.253   3.871  16.424 -0.0214  0.0537 -0.8161
   92MPD2    H7 1443   2.318   3.796  16.442 -2.7121 -1.8546  1.0736
   93TMC2    C1 1444   3.735   3.815  13.859  0.1019  0.2637 -0.0037
   93TMC2    C2 1445   3.704   3.949  13.888  0.4261 -0.9808 -0.1771
   93TMC2    C3 1446   3.800   4.042  13.881 -0.8791  0.0828  0.2682
   93TMC2    C4 1447   3.865   3.785  13.815  0.0973  0.6599 -0.5477
   93TMC2    C5 1448   3.959   3.888  13.806  0.2347 -1.3837 -0.2820
   93TMC2    C6 1449   3.930   4.016  13.845  0.8769  0.0975  0.2631
   93TMC2     C 1450   3.640   3.706  13.869  0.4550  0.0158  0.1674
   93TMC2     O 1451   3.675   3.593  13.845 -0.0951  0.2219  0.0719
   93TMC2     H 1452   3.603   3.988  13.894  0.9287  0.1394  1.2665
   93TMC2    H1 1453   3.896   3.683  13.793 -1.3946 -0.1035  0.9551
   93TMC2    H2 1454   4.012   4.085  13.856  1.5608 -0.6403 -0.1821
   93TMC2    C7 1455   4.095   3.852  13.765  0.2543 -0.1636  0.0791
   93TMC2    C8 1456   3.761   4.177  13.911  0.6243  0.2910  0.2062
   93TMC2    O1 1457   4.130   3.737  13.775  0.6392  0.1066  0.0277
   93TMC2    O2 1458   3.652   4.210  13.955 -0.2071  0.3845  0.2508
   93TMC2    O5 1459   3.842   4.267  13.851  0.5366  0.5335 -0.1916
   93TMC2    H5 1460   3.910   4.212  13.807  0.0962 -0.6174  0.5778
   94MPD2     C 1461   3.397   3.532  13.909  0.0752  0.8100 -0.8617
   94MPD2    C1 1462   3.409   3.660  13.948  0.0735  0.5732 -0.7446
   94MPD2    C2 1463   3.311   3.722  14.029  0.3975  0.0660 -0.5607
   94MPD2    C3 1464   3.202   3.653  14.064 -0.0507 -0.5812  0.5222
   94MPD2    C4 1465   3.191   3.521  14.029  0.5383 -0.1518 -0.2264
   94MPD2    C5 1466   3.293   3.457  13.962 -0.5482  0.2497  0.6121
   94MPD2     H 1467   3.312   3.827  14.056  2.2360 -0.4792  1.5066
   94MPD2    H1 1468   3.096   3.470  14.047  0.9283 -1.1405 -0.9245
   94MPD2    H2 1469   3.469   3.487  13.842  0.0721 -0.5006  0.0344
   94MPD2    H3 1470   3.281   3.356  13.926  0.7644  0.4048 -0.2770
   94MPD2     N 1471   3.093   3.718  14.123  0.5506 -0.3689 -0.0259
   94MPD2    H5 1472   3.011   3.660  14.115  1.3591 -1.3924 -0.8468
   94MPD2    N1 1473   3.521   3.744  13.927  0.1910  0.3755  0.2546
   94MPD2    H7 1474   3.503   3.839  13.960 -1.6866 -0.2657  1.0267
   95TMC2    C1 1475   4.133   0.962  16.625  0.0374  0.1377  0.4624
   95TMC2    C2 1476   4.060   0.867  16.692  0.1489 -1.2003 -0.4530
   95TMC2    C3 1477   3.998   0.906  16.799 -0.6649  0.2262  0.7150
   95TMC2    C4 1478   4.161   1.084  16.676  0.5618  0.5279 -0.2164
   95TMC2    C5 1479   4.088   1.123  16.784 -0.5255 -0.5958  0.5860
   95TMC2    C6 1480   4.013   1.032  16.856 -0.1785  1.0033 -0.7720
   95TMC2     C 1481   4.160   0.938  16.489 -0.0995 -0.1642  0.2739
   95TMC2     O 1482   4.262   0.994  16.444 -0.3823  0.2682 -0.2188
   95TMC2     H 1483   4.058   0.761  16.670 -1.2585 -1.5200  1.2473
   95TMC2    H1 1484   4.235   1.154  16.639  0.5141  1.7260  1.9511
   95TMC2    H2 1485   3.951   1.062  16.940 -0.1772  0.6323 -0.6421
   95TMC2    C7 1486   4.141   1.236  16.864 -0.9798 -0.0219 -0.4858
   95TMC2    C8 1487   3.946   0.809  16.886  0.1730 -0.3656 -0.0207
   95TMC2    O1 1488   4.069   1.313  16.921  0.2668  0.2888  0.9513
   95TMC2    O2 1489   3.934   0.839  17.007  0.4355 -0.1077  0.7799
   95TMC2    O5 1490   3.867   0.719  16.824 -0.0470 -0.3316  0.0737
   95TMC2    H5 1491   3.882   0.721  16.727 -0.0680  1.7460  0.1203
   96MPD2     C 1492   4.017   0.767  16.028 -0.6033  0.0218 -0.5977
   96MPD2    C1 1493   4.131   0.823  16.063  0.3009  0.1652 -0.3474
   96MPD2    C2 1494   4.150   0.854  16.200 -1.2568  0.6586  0.1125
   96MPD2    C3 1495   4.060   0.823  16.291  0.2412  0.2239  0.1765
   96MPD2    C4 1496   3.955   0.745  16.252 -1.0538 -0.2688 -0.7232
   96MPD2    C5 1497   3.936   0.722  16.120  0.0410  0.1937 -0.9448
   96MPD2     H 1498   4.242   0.906  16.225 -0.9946 -0.3498  1.2070
   96MPD2    H1 1499   3.882   0.710  16.324 -1.9247 -0.0902 -1.5347
   96MPD2    H2 1500   3.977   0.760  15.927 -0.4308  0.8960 -0.7271
   96MPD2    H3 1501   3.850   0.666  16.086  1.0121 -0.5031 -2.2458
   96MPD2     N 1502   4.063   0.858  16.429 -0.2854  0.0226  0.2545
   96MPD2    H5 1503   3.986   0.826  16.486 -0.5059 -0.3602 -0.2522
   96MPD2    N1 1504   4.220   0.869  15.964 -0.4186 -0.2589 -0.6911
   96MPD2    H7 1505   4.178   0.873  15.872  1.0602  4.1550 -1.1786
   97TMC2    C1 1506   2.052   3.438   0.701 -0.3429 -0.1950  0.3950
   97TMC2    C2 1507   1.939   3.390   0.639 -0.0254  0.1798  0.0813
   97TMC2    C3 1508   1.944   3.387   0.502 -0.1483  0.5446 -0.0268
   97TMC2    C4 1509   2.154   3.497   0.631 -0.0652  0.3515  0.2336
   97TMC2    C5 1510   2.146   3.496   0.492 -0.0057  0.1821  0.2802
   97TMC2    C6 1511   2.046   3.433   0.426  0.0727  0.5166 -0.3640
   97TMC2     C 1512   2.033   3.465   0.846  0.5785  0.1169 -0.1958
   97TMC2     O 1513   1.920   3.460   0.896  0.3081  0.1342 -0.2029
   97TMC2     H 1514   1.861   3.344   0.699  0.0281  2.3272  1.7918
   97TMC2    H1 1515   2.234   3.558   0.672 -0.4369  0.6017  0.5842
   97TMC2    H2 1516   2.042   3.414   0.319 -2.6758 -1.3528  0.0961
   97TMC2    C7 1517   2.247   3.569   0.416  0.4173 -0.0708 -1.1205
   97TMC2    C8 1518   1.831   3.324   0.425  0.0607  0.9475 -0.5128
   97TMC2    O1 1519   2.360   3.578   0.461  0.1283  0.3250 -0.2976
   97TMC2    O2 1520   1.833   3.288   0.308 -0.4272 -0.1394  0.4177
   97TMC2    O5 1521   1.714   3.363   0.481 -0.5261 -0.2619  0.4108
   97TMC2    H5 1522   1.721   3.409   0.567 -2.1686 -1.2292  1.0461
   98MPD2     C 1523   2.220   3.583   1.318  0.5557  0.0676  0.5298
   98MPD2    C1 1524   2.093   3.564   1.274  0.5671 -0.3045  0.5827
   98MPD2    C2 1525   2.065   3.545   1.137 -0.0849 -0.6882 -0.2776
   98MPD2    C3 1526   2.167   3.538   1.038  0.1219  1.1156 -0.2245
   98MPD2    C4 1527   2.296   3.572   1.083 -0.2285  0.0261 -0.5637
   98MPD2    C5 1528   2.319   3.595   1.219 -0.0548  0.7783 -0.3906
   98MPD2     H 1529   1.961   3.534   1.110 -0.5547  0.5770  0.9559
   98MPD2    H1 1530   2.385   3.577   1.021 -0.8177 -1.3893 -1.5176
   98MPD2    H2 1531   2.245   3.594   1.423 -2.7760  1.4858  1.1950
   98MPD2    H3 1532   2.417   3.625   1.253 -1.0387  3.1614  0.3662
   98MPD2     N 1533   2.152   3.506   0.898 -0.3222  0.6543  0.1355
   98MPD2    H5 1534   2.232   3.514   0.837  0.5866  1.6878  1.4545
   98MPD2    N1 1535   1.984   3.591   1.365  0.3826  0.3867 -0.2644
   98MPD2    H7 1536   2.006   3.620   1.459 -0.7891 -0.2068  0.1979
   99TMC2    C1 1537   0.538   0.287   2.022  0.3484 -0.0332  0.6184
   99TMC2    C2 1538   0.610   0.336   2.130 -0.3766  0.4347  0.1770
   99TMC2    C3 1539   0.548   0.413   2.232  0.2925 -0.0612  0.1529
   99TMC2    C4 1540   0.403   0.313   2.015  0.1596  0.0953  0.3968
   99TMC2    C5 1541   0.348   0.384   2.116  0.2508  0.4752  0.0370
   99TMC2    C6 1542   0.414   0.432   2.226  0.4383  0.5649 -0.1073
   99TMC2     C 1543   0.616   0.211   1.926  0.3361  0.1202 -0.4007
   99TMC2     O 1544   0.727   0.170   1.962 -0.2433  0.2231  0.0067
   99TMC2     H 1545   0.716   0.314   2.132 -0.8624 -1.9033  0.6657
   99TMC2    H1 1546   0.350   0.291   1.923 -2.3164 -0.2553  1.8995
   99TMC2    H2 1547   0.353   0.481   2.300 -2.2594 -0.1822 -1.8574
   99TMC2    C7 1548   0.232   0.459   2.084  0.6293 -0.8830  0.3830
   99TMC2    C8 1549   0.616   0.457   2.347 -0.4943  0.2918  0.4655
   99TMC2    O1 1550   0.208   0.562   2.144 -0.5289 -0.3976 -0.3508
   99TMC2    O2 1551   0.580   0.557   2.404 -0.9250 -0.4141  0.2420
   99TMC2    O5 1552   0.711   0.371   2.394 -0.0163  0.3075  0.5657
   99TMC2    H5 1553   0.720   0.284   2.349 -2.9297  0.7921 -1.0306
  100MPD2     C 1554   0.774   0.130   1.676  0.1541 -0.3182  0.0228
  100MPD2    C1 1555   0.644   0.173   1.681 -0.7688  0.2374  0.5721
  100MPD2    C2 1556   0.587   0.191   1.554 -0.7461 -0.5436  0.1334
  100MPD2    C3 1557   0.667   0.169   1.435 -0.1600  0.2005  0.3479
  100MPD2    C4 1558   0.798   0.126   1.448  0.0524  0.3920 -0.3361
  100MPD2    C5 1559   0.850   0.112   1.565  0.2111  0.2469 -0.3076
  100MPD2     H 1560   0.484   0.227   1.550 -1.4480 -2.5293  0.3009
  100MPD2    H1 1561   0.859   0.114   1.359  1.1317 -1.6887  0.7003
  100MPD2    H2 1562   0.818   0.105   1.772  0.2949  1.0507  0.3149
  100MPD2    H3 1563   0.947   0.065   1.573  0.0534  0.2783  1.9387
  100MPD2     N 1564   0.600   0.192   1.311 -0.5506 -0.6918 -0.2869
  100MPD2    H5 1565   0.512   0.244   1.304 -0.6266 -0.5362  1.8782
  100MPD2    N1 1566   0.573   0.206   1.799 -0.4424  0.9114  0.6366
  100MPD2    H7 1567   0.479   0.239   1.782 -0.7038 -0.6494 -0.9315
  101TMC2    C1 1568   0.934   1.453  13.983 -0.7987  0.6691 -0.0588
  101TMC2    C2 1569   0.864   1.500  14.087  1.6002  0.2774 -0.1834
  101TMC2    C3 1570   0.818   1.627  14.068 -0.0922 -0.1584 -0.1417
  101TMC2    C4 1571   0.954   1.517  13.863 -0.8035 -1.0112 -0.1405
  101TMC2    C5 1572   0.894   1.636  13.850  0.3818 -0.5441  0.4015
  101TMC2    C6 1573   0.824   1.695  13.948 -0.0118  0.8695 -0.5212
  101TMC2     C 1574   0.947   1.306  13.981 -0.0931 -0.1682  0.1496
  101TMC2     O 1575   0.897   1.238  14.069  0.2388  0.4075  0.1497
  101TMC2     H 1576   0.827   1.438  14.168 -0.9963  1.4442 -0.4618
  101TMC2    H1 1577   0.997   1.468  13.776  0.4022 -1.0946  0.4945
  101TMC2    H2 1578   0.788   1.794  13.925  0.6103  1.7715  2.3935
  101TMC2    C7 1579   0.887   1.679  13.712  0.2894  0.1293  0.3586
  101TMC2    C8 1580   0.735   1.678  14.178  0.2532  0.5208  0.5582
  101TMC2    O1 1581   0.985   1.664  13.647 -0.0211 -0.2157  0.3852
  101TMC2    O2 1582   0.624   1.731  14.166 -0.2535 -0.2465  0.7887
  101TMC2    O5 1583   0.819   1.716  14.274 -0.1854 -0.0704 -0.4611
  101TMC2    H5 1584   0.900   1.661  14.269  0.7128  1.1510  0.5522
  102MPD2     C 1585   1.115   1.090  13.732  0.5501  0.7371  0.5296
  102MPD2    C1 1586   1.037   1.123  13.837 -0.0386  0.0352 -0.6935
  102MPD2    C2 1587   0.959   1.019  13.896  0.6536  0.7065 -0.2190
  102MPD2    C3 1588   0.956   0.890  13.843  0.0029 -0.3370  0.1738
  102MPD2    C4 1589   1.042   0.864  13.738  0.7388  0.1073 -0.2327
  102MPD2    C5 1590   1.126   0.964  13.682 -0.7166 -0.6742  0.3245
  102MPD2     H 1591   0.881   1.045  13.967  1.2859 -1.8087  1.4153
  102MPD2    H1 1592   1.041   0.765  13.693  2.9310 -0.0553  0.0642
  102MPD2    H2 1593   1.172   1.172  13.689  0.6077  0.7808  0.6910
  102MPD2    H3 1594   1.197   0.934  13.606  0.2675 -0.6183  1.2299
  102MPD2     N 1595   0.853   0.803  13.893 -0.7500  0.1293  0.1094
  102MPD2    H5 1596   0.785   0.848  13.954 -0.2195  0.0862  0.7251
  102MPD2    N1 1597   1.023   1.257  13.875 -0.4855  0.0782  0.0008
  102MPD2    H7 1598   1.068   1.328  13.817 -1.5408  0.7837  0.0530
  103TMC2    C1 1599   2.897   1.373  12.923 -0.9417 -0.1709  0.0184
  103TMC2    C2 1600   2.929   1.474  12.836  0.6111  0.3873  0.3985
  103TMC2    C3 1601   3.005   1.573  12.880 -0.3366  0.5086 -0.2730
  103TMC2    C4 1602   2.942   1.377  13.054 -0.3683  0.0902 -0.2410
  103TMC2    C5 1603   2.999   1.488  13.106 -0.6144  0.0515  0.5866
  103TMC2    C6 1604   3.030   1.588  13.017 -0.3790  0.3279  0.2845
  103TMC2     C 1605   2.802   1.271  12.883 -0.6430 -0.2232 -0.4245
  103TMC2     O 1606   2.740   1.297  12.788 -0.1800 -0.1910  0.2899
  103TMC2     H 1607   2.916   1.464  12.728  2.6425 -1.6866  0.3371
  103TMC2    H1 1608   2.905   1.307  13.129 -0.8611  1.0014  0.3615
  103TMC2    H2 1609   3.058   1.687  13.052  0.4787  0.4104 -0.6132
  103TMC2    C7 1610   2.998   1.522  13.247  0.2754 -0.1803 -0.1269
  103TMC2    C8 1611   3.049   1.683  12.797 -0.2639  0.1222  0.0184
  103TMC2    O1 1612   2.919   1.456  13.315 -0.0615  0.2040 -0.5127
  103TMC2    O2 1613   3.014   1.702  12.682  0.1034  0.3966 -0.8524
  103TMC2    O5 1614   3.161   1.730  12.845 -0.1076  0.0400  0.9022
  103TMC2    H5 1615   3.196   1.699  12.932  1.1064  2.8831  1.4237
  104MPD2     C 1616   2.663   0.984  13.063 -0.2276  0.6508  0.0525
  104MPD2    C1 1617   2.668   1.086  12.973  0.7643  0.3149 -0.6896
  104MPD2    C2 1618   2.560   1.097  12.890  0.2596  0.8762 -0.4136
  104MPD2    C3 1619   2.446   1.023  12.909 -0.4221  0.5024  0.1631
  104MPD2    C4 1620   2.441   0.924  13.003  0.2669 -0.2496  0.2859
  104MPD2    C5 1621   2.553   0.899  13.077  1.0169 -0.1582 -0.1182
  104MPD2     H 1622   2.558   1.185  12.826 -0.3838  0.9297 -0.3174
  104MPD2    H1 1623   2.355   0.859  13.013  0.6188 -0.8545 -0.6407
  104MPD2    H2 1624   2.751   0.961  13.122 -0.0404  0.0321 -0.4748
  104MPD2    H3 1625   2.554   0.813  13.143 -2.8051 -0.6114 -0.6925
  104MPD2     N 1626   2.343   1.062  12.823  0.3648 -0.1546 -1.0409
  104MPD2    H5 1627   2.372   1.133  12.757 -2.0994  2.3837  0.5834
  104MPD2    N1 1628   2.787   1.164  12.967 -0.6055  0.1561  0.2742
  104MPD2    H7 1629   2.851   1.152  13.045  0.6243  0.9485 -0.6112
  105TMC2    C1 1630   4.732   0.447   0.562 -0.3300 -0.1691  0.4238
  105TMC2    C2 1631   4.649   0.345   0.526  0.2890  0.3438 -0.3144
  105TMC2    C3 1632   4.521   0.380   0.496  0.5528 -0.8217  0.5812
  105TMC2    C4 1633   4.692   0.568   0.591  0.6259 -0.7951  0.5045
  105TMC2    C5 1634   4.563   0.601   0.559 -0.6984 -0.3737 -0.1209
  105TMC2    C6 1635   4.476   0.507   0.511  0.2156  0.3958 -0.3632
  105TMC2     C 1636   0.140   0.424   0.530 -0.7022 -0.4317 -0.1542
  105TMC2     O 1637   0.175   0.309   0.554 -0.3398 -0.7539  0.1114
  105TMC2     H 1638   4.682   0.250   0.486 -1.5763  0.1794 -1.4562
  105TMC2    H1 1639   0.037   0.635   0.621  0.7466 -0.4887 -0.4837
  105TMC2    H2 1640   4.370   0.523   0.491  0.4213  0.0137 -1.7511
  105TMC2    C7 1641   4.523   0.738   0.581 -0.5856 -0.1807 -0.2984
  105TMC2    C8 1642   4.437   0.291   0.422  0.0747 -0.2952  0.6609
  105TMC2    O1 1643   4.438   0.796   0.520  0.1529 -0.0180  0.3456
  105TMC2    O2 1644   4.371   0.204   0.477 -0.2497  0.2561 -0.0645
  105TMC2    O5 1645   4.520   0.267   0.315  0.1121  0.7897  0.2318
  105TMC2    H5 1646   4.554   0.351   0.277  1.5515  0.2268  0.3092
  106MPD2     C 1647   0.598   0.504   0.311  0.1932 -0.4468  0.5793
  106MPD2    C1 1648   0.513   0.604   0.279  0.5486  0.3564  0.3701
  106MPD2    C2 1649   0.394   0.626   0.348 -0.6901 -0.2048  0.1523
  106MPD2    C3 1650   0.338   0.531   0.426  0.5246  0.3956 -0.3295
  106MPD2    C4 1651   0.418   0.423   0.445  0.6775 -0.3463  0.1700
  106MPD2    C5 1652   0.547   0.409   0.391  0.9446 -0.0074  0.4112
  106MPD2     H 1653   0.336   0.715   0.327 -1.1618 -0.2526  1.2523
  106MPD2    H1 1654   0.393   0.344   0.516 -1.7512  1.3390  1.2107
  106MPD2    H2 1655   0.683   0.484   0.245  1.9592 -0.0975  2.7497
  106MPD2    H3 1656   0.602   0.323   0.427 -0.3182 -0.7082  0.6580
  106MPD2     N 1657   0.209   0.535   0.475 -0.1567  0.1997 -0.7085
  106MPD2    H5 1658   0.155   0.619   0.458  0.0019  0.2471 -0.9796
  106MPD2    N1 1659   0.536   0.700   0.181 -0.2143 -0.4831  0.4637
  106MPD2    H7 1660   0.467   0.774   0.174  0.2248 -0.1417 -0.2210
  107TMC2    C1 1661   0.722   0.124  11.761  0.5962  0.3112 -0.0592
  107TMC2    C2 1662   0.821   0.212  11.725 -0.6322 -0.1242 -0.1843
  107TMC2    C3 1663   0.870   0.190  11.603 -0.4331 -0.1158 -0.3297
  107TMC2    C4 1664   0.664   0.030  11.684  0.4723 -0.2872  0.5098
  107TMC2    C5 1665   0.722   0.007  11.561 -0.1580 -0.2699 -0.8518
  107TMC2    C6 1666   0.814   0.096  11.515 -0.0734 -0.0097 -0.4008
  107TMC2     C 1667   0.671   0.122  11.901  0.2696 -0.8772 -0.3730
  107TMC2     O 1668   0.565   0.069  11.924  0.1196  0.2492 -0.3875
  107TMC2     H 1669   0.860   0.298  11.778  0.0448 -1.0843  0.9032
  107TMC2    H1 1670   0.597   4.688  11.718  0.6098  0.2627  2.0310
  107TMC2    H2 1671   0.861   0.090  11.418  0.8016 -1.2438  0.0952
  107TMC2    C7 1672   0.688   4.616  11.495  0.0311 -0.1873 -0.1307
  107TMC2    C8 1673   0.969   0.282  11.546 -0.0914 -0.4218  0.7089
  107TMC2    O1 1674   0.609   4.544  11.550  0.5379 -0.4704  0.1802
  107TMC2    O2 1675   0.983   0.298  11.427  0.8034 -0.0196 -0.0682
  107TMC2    O5 1676   1.046   0.330  11.643 -0.5708  0.0805  0.0934
  107TMC2    H5 1677   1.032   0.303  11.736 -1.0971 -0.2771 -0.0842
  108MPD2     C 1678   0.890   0.198  12.189 -0.1344 -0.9099 -0.2558
  108MPD2    C1 1679   0.780   0.137  12.125 -0.6385 -0.1947 -0.1678
  108MPD2    C2 1680   0.708   0.050  12.191  0.3398  0.5188 -0.4785
  108MPD2    C3 1681   0.722   0.044  12.332  0.5284 -0.6776  0.4015
  108MPD2    C4 1682   0.824   0.108  12.393 -0.4474 -0.1480  0.2988
  108MPD2    C5 1683   0.919   0.173  12.319  1.0062  0.1950 -0.8994
  108MPD2     H 1684   0.628   4.733  12.138  0.4292 -3.0413  2.8701
  108MPD2    H1 1685   0.847   0.090  12.497 -1.4862 -1.0359  0.3805
  108MPD2    H2 1686   0.947   0.272  12.134 -0.3229 -1.8128 -1.6529
  108MPD2    H3 1687   1.007   0.216  12.367 -0.1033  1.1294  0.2836
  108MPD2     N 1688   0.639   4.698  12.405 -0.4953 -0.6478  0.2154
  108MPD2    H5 1689   0.669   4.694  12.502  2.2997 -1.6946 -0.7111
  108MPD2    N1 1690   0.772   0.165  11.986  0.6793  0.2106  0.2391
  108MPD2    H7 1691   0.853   0.213  11.947  0.1511  0.9592  0.0808
  109TMC2    C1 1692   0.568   3.487   1.204 -0.2901 -0.8290 -0.7211
  109TMC2    C2 1693   0.478   3.519   1.300  0.0924 -0.2643  0.4280
  109TMC2    C3 1694   0.513   3.593   1.408  0.4822  0.3256 -0.3599
  109TMC2    C4 1695   0.699   3.523   1.223 -0.5632  0.5868  0.8025
  109TMC2    C5 1696   0.740   3.608   1.323 -0.3078 -0.1342  1.1909
  109TMC2    C6 1697   0.646   3.649   1.413 -0.2640 -0.0934  0.1444
  109TMC2     C 1698   0.540   3.391   1.102 -0.3294 -0.9071 -0.1177
  109TMC2     O 1699   0.599   3.395   0.993 -0.6574 -0.2362  0.0106
  109TMC2     H 1700   0.374   3.495   1.278  0.4732 -1.4553 -0.0784
  109TMC2    H1 1701   0.773   3.490   1.151  0.0354  3.9579 -0.1002
  109TMC2    H2 1702   0.668   3.699   1.507  2.4130  2.1871 -1.7060
  109TMC2    C7 1703   0.875   3.655   1.325 -0.6277  0.0128  0.5612
  109TMC2    C8 1704   0.416   3.641   1.501 -0.0103  0.0351 -0.6963
  109TMC2    O1 1705   0.970   3.587   1.284 -0.4967  0.6565  0.3499
  109TMC2    O2 1706   0.419   3.729   1.581  0.0152 -0.0685 -0.5742
  109TMC2    O5 1707   0.343   3.527   1.522  0.0989 -0.2352 -0.4825
  109TMC2    H5 1708   0.377   3.467   1.453 -0.1465  0.6838 -1.4179
  110MPD2     C 1709   0.271   2.979   0.957  0.2851 -0.2828  0.7556
  110MPD2    C1 1710   0.302   2.972   1.091  0.0202  1.1360 -0.1602
  110MPD2    C2 1711   0.366   3.074   1.151 -0.7237  1.3204  0.3318
  110MPD2    C3 1712   0.415   3.179   1.080 -0.2904 -0.8390 -0.5422
  110MPD2    C4 1713   0.384   3.195   0.945 -0.0332 -0.6570 -0.3396
  110MPD2    C5 1714   0.306   3.094   0.892  0.3792  0.6239  0.4419
  110MPD2     H 1715   0.352   3.077   1.258 -1.8588  1.2198  0.1874
  110MPD2    H1 1716   0.409   3.284   0.888 -0.2232  0.2997  1.0943
  110MPD2    H2 1717   0.216   2.907   0.898  0.5811  1.1529 -1.2615
  110MPD2    H3 1718   0.283   3.095   0.786  0.0298  0.6283  0.5192
  110MPD2     N 1719   0.470   3.283   1.157  0.4722 -0.7335  0.2182
  110MPD2    H5 1720   0.451   3.284   1.257  2.2963 -0.7635  0.5646
  110MPD2    N1 1721   0.255   2.864   1.171  0.2267 -0.5775  0.0895
  110MPD2    H7 1722   0.187   2.804   1.126  0.9430 -1.1942 -0.1776
  111TMC2    C1 1723   0.216   2.106  12.148 -0.6456  0.4782  0.2112
  111TMC2    C2 1724   0.098   2.129  12.221 -0.4044 -0.6910 -0.4484
  111TMC2    C3 1725   0.093   2.086  12.352  0.3191  0.1241 -0.1536
  111TMC2    C4 1726   0.321   2.045  12.200 -0.4095  0.2780  0.0486
  111TMC2    C5 1727   0.316   2.012  12.337 -0.4544 -0.4065  0.3898
  111TMC2    C6 1728   0.202   2.025  12.409  0.9007  0.6197 -0.3093
  111TMC2     C 1729   0.243   2.177  12.022 -0.6254 -1.2004 -0.7170
  111TMC2     O 1730   0.361   2.201  12.001  0.0885 -0.3586  1.3306
  111TMC2     H 1731   0.025   2.200  12.183  1.0783  0.3594 -1.3172
  111TMC2    H1 1732   0.407   2.024  12.137 -1.0134 -1.5944 -0.1315
  111TMC2    H2 1733   0.186   2.009  12.515 -0.7096  0.8969 -0.5014
  111TMC2    C7 1734   0.443   1.987  12.404  0.4634 -0.1896  0.3262
  111TMC2    C8 1735   4.700   2.090  12.423 -0.4227  0.0768 -0.0956
  111TMC2    O1 1736   0.441   1.951  12.520 -0.9053 -0.0448  0.0352
  111TMC2    O2 1737   4.690   2.091  12.543  0.2803 -0.6793  0.3055
  111TMC2    O5 1738   4.605   2.096  12.326 -0.0899 -0.6746  0.2625
  111TMC2    H5 1739   4.647   2.067  12.242  1.8226  1.5337  0.4609
  112MPD2     C 1740   0.153   2.422  11.581 -0.8994 -0.4905  0.0399
  112MPD2    C1 1741   0.266   2.371  11.631  0.2391  0.2219 -0.0085
  112MPD2    C2 1742   0.259   2.289  11.744 -0.1643 -0.4482 -0.8696
  112MPD2    C3 1743   0.141   2.262  11.809 -0.2022 -0.1145  0.3313
  112MPD2    C4 1744   0.034   2.332  11.756 -0.1806  0.7220 -0.1489
  112MPD2    C5 1745   0.040   2.405  11.645  0.9981  0.0647 -0.3747
  112MPD2     H 1746   0.353   2.248  11.781  0.9277  0.9630 -2.0381
  112MPD2    H1 1747   4.674   2.330  11.809  0.8281  1.4184  1.6930
  112MPD2    H2 1748   0.160   2.491  11.497  1.2548 -2.7504 -1.6256
  112MPD2    H3 1749   4.681   2.450  11.614  0.4065 -1.6971 -1.1308
  112MPD2     N 1750   0.134   2.208  11.940 -1.2002 -0.1579 -0.4662
  112MPD2    H5 1751   0.040   2.204  11.980 -0.8010 -0.6584  0.4208
  112MPD2    N1 1752   0.386   2.420  11.573  0.2595 -0.2420 -0.3281
  112MPD2    H7 1753   0.363   2.481  11.495  1.5637  1.4560  0.6182
  113TMC2    C1 1754   4.123   0.534   1.098 -0.2214 -0.8795  0.4705
  113TMC2    C2 1755   4.074   0.671   1.093  0.6536  0.0061 -0.5595
  113TMC2    C3 1756   3.952   0.678   1.032  0.2021 -0.2945 -0.0811
  113TMC2    C4 1757   4.048   0.425   1.075 -0.0723  0.4053 -0.4218
  113TMC2    C5 1758   3.932   0.437   1.008  0.6944  0.2288 -0.5579
  113TMC2    C6 1759   3.885   0.564   0.985  0.2461  0.8571  0.0651
  113TMC2     C 1760   4.254   0.529   1.170 -0.6495 -0.2357  0.3920
  113TMC2     O 1761   4.283   0.636   1.221  0.4466  0.2970  0.2729
  113TMC2     H 1762   4.120   0.766   1.115 -1.2231  0.6749  0.3849
  113TMC2    H1 1763   4.094   0.331   1.103 -0.3901 -0.2027 -1.9246
  113TMC2    H2 1764   3.791   0.575   0.931 -0.7053 -0.6199  1.4163
  113TMC2    C7 1765   3.850   0.324   0.968 -0.9338  0.1805 -0.2936
  113TMC2    C8 1766   3.919   0.817   0.989  0.1190  0.1236 -0.2797
  113TMC2    O1 1767   3.763   0.344   0.886  0.1998  0.0705  0.7983
  113TMC2    O2 1768   3.967   0.907   1.057 -0.4291  0.3433  0.4930
  113TMC2    O5 1769   3.800   0.819   0.937  0.2606  0.0038  0.0070
  113TMC2    H5 1770   3.781   0.750   0.870  0.9710 -0.2649  0.0766
  114MPD2     C 1771   4.655   0.296   1.385  0.4875 -0.5505 -0.0491
  114MPD2    C1 1772   4.609   0.430   1.404  0.0890 -0.2879 -0.2958
  114MPD2    C2 1773   4.486   0.461   1.335  0.1389 -0.0790 -1.1689
  114MPD2    C3 1774   4.426   0.370   1.256  0.4418  0.7074  0.2582
  114MPD2    C4 1775   4.477   0.240   1.246 -0.0521 -0.0481 -0.0234
  114MPD2    C5 1776   4.589   0.203   1.313 -0.9247 -0.4640 -0.8891
  114MPD2     H 1777   4.440   0.557   1.357  0.3321 -0.4824  1.0411
  114MPD2    H1 1778   4.417   0.166   1.195  0.1126 -0.6393  0.6343
  114MPD2    H2 1779   0.011   0.268   1.438  1.3533 -0.4511 -1.4965
  114MPD2    H3 1780   4.623   0.101   1.307  2.9934  0.8908 -1.5523
  114MPD2     N 1781   4.317   0.400   1.174  0.2776  0.3114  0.9999
  114MPD2    H5 1782   4.284   0.330   1.108  2.0246 -0.6747  1.1557
  114MPD2    N1 1783   4.663   0.519   1.494 -0.5814 -0.4854  0.5364
  114MPD2    H7 1784   4.615   0.607   1.506  0.8357  0.3784 -0.2755
  115TMC2    C1 1785   0.087   3.156   0.158 -0.2722  0.1794 -0.0951
  115TMC2    C2 1786   0.215   3.107   0.142 -0.1445  0.3827 -0.4178
  115TMC2    C3 1787   0.312   3.200   0.137 -0.6012 -0.3099  0.6733
  115TMC2    C4 1788   0.051   3.284   0.143  0.6736  0.4399  0.5518
  115TMC2    C5 1789   0.148   3.375   0.121 -0.0815 -0.4187 -0.3674
  115TMC2    C6 1790   0.286   3.333   0.124  0.4275 -0.2845 -0.2641
  115TMC2     C 1791   4.710   3.066   0.166  0.0471  0.1786 -0.7746
  115TMC2     O 1792   4.616   3.118   0.227 -0.0159 -0.1969 -0.1491
  115TMC2     H 1793   0.236   3.002   0.160 -3.9626 -0.3259 -0.1066
  115TMC2    H1 1794   4.684   3.321   0.137  0.6407  0.1986 -0.3381
  115TMC2    H2 1795   0.366   3.404   0.103 -0.6944  0.9525 -0.3706
  115TMC2    C7 1796   0.116   3.516   0.081  0.5649 -0.0541  0.1594
  115TMC2    C8 1797   0.454   3.164   0.132  0.9774 -0.2521  0.0480
  115TMC2    O1 1798   0.002   3.556   0.107 -0.6986 -0.6665 -0.2174
  115TMC2    O2 1799   0.492   3.050   0.106  0.1090 -0.4687  0.3724
  115TMC2    O5 1800   0.526   3.259   0.196  0.0396 -0.3970 -0.5831
  115TMC2    H5 1801   0.470   3.316   0.254  0.1982 -0.2470 -0.5784
  116MPD2     C 1802   4.424   2.642   0.068  0.0608  0.4514  0.4316
  116MPD2    C1 1803   4.536   2.637  17.725  0.7469  0.0827  0.5505
  116MPD2    C2 1804   4.635   2.739  17.733  0.1684 -0.4307 -0.1283
  116MPD2    C3 1805   4.625   2.844   0.085  0.4225 -1.0562  0.0176
  116MPD2    C4 1806   4.509   2.849   0.163 -0.0835  0.2782  0.0402
  116MPD2    C5 1807   4.416   2.749   0.157  0.6904  0.5152  0.0021
  116MPD2     H 1808   4.720   2.749  17.666  0.1116 -0.5052 -0.2115
  116MPD2    H1 1809   4.498   2.925   0.239  3.3743  1.0733 -0.2685
  116MPD2    H2 1810   4.342   2.572   0.062  0.7604 -0.2307 -1.2188
  116MPD2    H3 1811   4.327   2.769   0.216 -1.2444  0.9187 -3.0893
  116MPD2     N 1812   4.726   2.948   0.091 -0.1643 -0.5150  0.0557
  116MPD2    H5 1813   0.075   2.938   0.036 -1.3427  0.5555 -1.9311
  116MPD2    N1 1814   4.541   2.532  17.630 -0.5063 -0.1285 -0.3509
  116MPD2    H7 1815   4.457   2.475  17.631 -1.1503  0.8293 -0.6180
  117TMC2    C1 1816   3.248   4.545  14.226 -0.8129 -0.3892  0.1551
  117TMC2    C2 1817   3.299   4.475  14.327  0.1272 -1.2116 -0.9559
  117TMC2    C3 1818   3.434   4.483  14.350  0.4337 -0.3721 -0.8279
  117TMC2    C4 1819   3.323   4.621  14.138  0.0324 -0.0272  0.1199
  117TMC2    C5 1820   3.454   4.645  14.171  0.5714 -0.4429  0.2625
  117TMC2    C6 1821   3.512   4.579  14.279 -0.0603  0.1138 -0.1339
  117TMC2     C 1822   3.122   4.509  14.179 -0.4081 -0.0424 -0.0998
  117TMC2     O 1823   3.076   4.403  14.216 -0.1099  0.3900  0.7362
  117TMC2     H 1824   3.236   4.406  14.382  3.3894 -2.2274  1.5175
  117TMC2    H1 1825   3.282   4.659  14.045  2.8925  1.4477 -0.5339
  117TMC2    H2 1826   3.613   4.604  14.311  0.3332 -4.1079  1.8118
  117TMC2    C7 1827   3.529   0.020  14.120 -0.3033  0.5228 -0.7059
  117TMC2    C8 1828   3.485   4.431  14.476 -0.2640 -0.1762 -0.3554
  117TMC2    O1 1829   3.652   0.013  14.146 -0.3598 -0.1428 -0.0964
  117TMC2    O2 1830   3.423   4.409  14.579  0.2199 -0.9154 -0.1241
  117TMC2    O5 1831   3.609   4.390  14.454  0.1077  0.9465 -0.2626
  117TMC2    H5 1832   3.624   4.380  14.357  1.9530  2.8189 -0.1663
  118MPD2     C 1833   3.402   0.304  13.910  0.3019  0.9118 -0.2910
  118MPD2    C1 1834   3.495   0.221  13.966 -0.0481 -0.1612 -0.5190
  118MPD2    C2 1835   3.632   0.243  13.935 -0.5738  0.4194  0.0388
  118MPD2    C3 1836   3.662   0.329  13.826  0.5048 -0.5476 -0.3719
  118MPD2    C4 1837   3.568   0.407  13.770  1.0233  0.8382  0.4552
  118MPD2    C5 1838   3.442   0.399  13.820  0.3844 -0.3679  0.9170
  118MPD2     H 1839   3.712   0.180  13.972 -2.2863 -0.8562  1.5363
  118MPD2    H1 1840   3.590   0.478  13.691  1.3976 -0.6956 -0.8458
  118MPD2    H2 1841   3.295   0.299  13.928  0.3484  1.2454  0.0759
  118MPD2    H3 1842   3.369   0.458  13.765  0.5798 -0.3001  0.7286
  118MPD2     N 1843   3.791   0.336  13.773 -0.1551 -0.4298  0.2206
  118MPD2    H5 1844   3.803   0.402  13.698  1.5414 -2.4846 -1.3172
  118MPD2    N1 1845   3.454   0.115  14.055  0.1316 -0.4221  0.3776
  118MPD2    H7 1846   3.355   0.120  14.074  0.3241 -0.6891  1.4713
  119TMC2    C1 1847   1.298   0.612  13.818 -0.4666  0.2024 -0.2906
  119TMC2    C2 1848   1.299   0.550  13.697 -0.0970  0.1662  0.3841
  119TMC2    C3 1849   1.316   0.421  13.690 -0.0740 -0.4405  0.5740
  119TMC2    C4 1850   1.317   0.538  13.936  0.1025  0.0029 -0.5390
  119TMC2    C5 1851   1.346   0.405  13.918  0.3645 -0.3583  0.3042
  119TMC2    C6 1852   1.346   0.344  13.798 -0.2632 -0.5031 -1.1695
  119TMC2     C 1853   1.345   0.746  13.831  0.3030  0.1237  0.4018
  119TMC2     O 1854   1.317   0.804  13.939  1.0536 -0.4132 -0.3137
  119TMC2     H 1855   1.299   0.604  13.603  0.1006  0.3129  0.4682
  119TMC2    H1 1856   1.340   0.589  14.029 -1.6957  0.3794 -0.2812
  119TMC2    H2 1857   1.354   0.236  13.787 -1.8724 -0.8544  0.9927
  119TMC2    C7 1858   1.353   0.322  14.034  0.8372  0.0914  0.0990
  119TMC2    C8 1859   1.338   0.355  13.560 -0.6958 -0.0006 -0.6152
  119TMC2    O1 1860   1.433   0.230  14.033  0.2056 -0.2228  0.1595
  119TMC2    O2 1861   1.429   0.270  13.545  0.1927  0.3932 -0.2471
  119TMC2    O5 1862   1.256   0.415  13.475 -0.2979 -0.1063  0.7283
  119TMC2    H5 1863   1.182   0.473  13.505  1.3058  1.4787  1.6559
  120MPD2     C 1864   1.606   1.162  13.694 -0.1373  0.0726 -0.2937
  120MPD2    C1 1865   1.505   1.147  13.787 -0.2428  0.7581  0.4086
  120MPD2    C2 1866   1.442   1.021  13.799  0.4361  0.4385  0.6681
  120MPD2    C3 1867   1.495   0.905  13.733  0.3587  0.2664  0.3314
  120MPD2    C4 1868   1.602   0.922  13.648 -0.2385  0.6994  0.4195
  120MPD2    C5 1869   1.649   1.050  13.626  0.2280 -0.0845  0.3308
  120MPD2     H 1870   1.356   1.007  13.863 -0.0102  0.4232  0.0693
  120MPD2    H1 1871   1.651   0.841  13.596  0.6693  1.0502  0.7362
  120MPD2    H2 1872   1.670   1.250  13.690  0.0873 -0.0992 -0.4800
  120MPD2    H3 1873   1.730   1.062  13.554  1.9727  2.2129  2.6811
  120MPD2     N 1874   1.440   0.776  13.739 -0.1700 -0.7883 -0.7927
  120MPD2    H5 1875   1.472   0.708  13.671  0.5377 -1.3753  0.1491
  120MPD2    N1 1876   1.465   1.257  13.864 -0.8287 -0.0925 -0.4898
  120MPD2    H7 1877   1.489   1.347  13.823 -1.3525  0.4025  0.2730
  121TMC2    C1 1878   2.991   2.627  14.660  0.2747  0.7287 -0.5616
  121TMC2    C2 1879   3.094   2.562  14.726  0.6490 -0.2598 -0.5242
  121TMC2    C3 1880   3.066   2.434  14.774  0.6764  0.1143  0.3771
  121TMC2    C4 1881   2.863   2.580  14.665  0.7188 -0.1543 -0.4718
  121TMC2    C5 1882   2.844   2.453  14.717 -0.7545 -0.8417 -0.1589
  121TMC2    C6 1883   2.944   2.376  14.770 -0.2474 -0.0682  0.0832
  121TMC2     C 1884   3.021   2.759  14.604  0.7610  0.2930  0.0646
  121TMC2     O 1885   3.129   2.812  14.645  0.0610  0.1303  0.1172
  121TMC2     H 1886   3.191   2.607  14.743  0.0694  0.0603  1.8720
  121TMC2    H1 1887   2.784   2.647  14.635 -1.6644 -1.9701  1.7689
  121TMC2    H2 1888   2.931   2.275  14.808  1.5927  0.3161  1.7135
  121TMC2    C7 1889   2.713   2.403  14.724  0.1470  0.0448 -0.3014
  121TMC2    C8 1890   3.172   2.362  14.841 -0.4562  0.5355 -0.7317
  121TMC2    O1 1891   2.685   2.329  14.817 -0.3377  0.1341 -0.3010
  121TMC2    O2 1892   3.249   2.408  14.922 -0.2317  0.4884  0.4698
  121TMC2    O5 1893   3.181   2.243  14.781 -0.2067 -0.0542 -0.0924
  121TMC2    H5 1894   3.115   2.220  14.713 -0.3007  0.0251 -0.0275
  122MPD2     C 1895   2.992   3.024  14.465 -0.8113 -0.2461 -0.0381
  122MPD2    C1 1896   2.910   2.919  14.447 -0.6769 -0.2858  0.1565
  122MPD2    C2 1897   2.811   2.928  14.346 -0.2822  0.2615  0.2213
  122MPD2    C3 1898   2.806   3.034  14.260 -0.5171  0.1345  0.0812
  122MPD2    C4 1899   2.886   3.145  14.290 -0.3802  0.1866  0.5657
  122MPD2    C5 1900   2.978   3.137  14.389  0.4430 -0.0421  0.5498
  122MPD2     H 1901   2.742   2.846  14.328 -0.3946  0.3607  0.1918
  122MPD2    H1 1902   2.888   3.239  14.237 -2.2157  0.4327  0.9121
  122MPD2    H2 1903   3.059   3.018  14.550 -3.0141 -0.8444  1.6670
  122MPD2    H3 1904   3.032   3.229  14.409 -0.6060  0.3535  1.5565
  122MPD2     N 1905   2.730   3.039  14.143 -0.2264 -0.2785  0.1433
  122MPD2    H5 1906   2.719   3.128  14.095  1.5771  1.0914  2.2836
  122MPD2    N1 1907   2.925   2.795  14.512 -0.1038  0.1894 -0.2290
  122MPD2    H7 1908   2.867   2.713  14.494  1.0085 -0.3813 -1.1538
  123TMC2    C1 1909   0.782   0.609  11.519  0.0674 -0.0941  0.0238
  123TMC2    C2 1910   0.853   0.622  11.638  0.2384  0.4720 -0.2531
  123TMC2    C3 1911   0.987   0.665  11.632 -0.0487  0.1571 -0.0171
  123TMC2    C4 1912   0.845   0.642  11.394 -0.0155 -0.2579 -0.6953
  123TMC2    C5 1913   0.975   0.669  11.394 -0.0126  0.1104  0.1537
  123TMC2    C6 1914   1.048   0.686  11.512 -0.6422  0.3060  0.1302
  123TMC2     C 1915   0.679   0.503  11.515 -0.2394 -0.5227 -0.2859
  123TMC2     O 1916   0.623   0.480  11.618 -0.3730  0.6528  0.3809
  123TMC2     H 1917   0.806   0.613  11.735  0.6021  4.6962  0.3137
  123TMC2    H1 1918   0.790   0.635  11.300 -2.7037 -2.1146  0.9906
  123TMC2    H2 1919   1.155   0.703  11.505 -1.1833  2.9146 -1.6281
  123TMC2    C7 1920   1.041   0.633  11.274  0.4272  0.4514 -0.3714
  123TMC2    C8 1921   1.070   0.658  11.751 -0.3710  0.1917 -0.0202
  123TMC2    O1 1922   0.986   0.540  11.216  0.2594 -0.3150  0.5019
  123TMC2    O2 1923   1.065   0.585  11.852  0.3442 -0.0858  0.5767
  123TMC2    O5 1924   1.173   0.738  11.723  0.8904 -0.1333 -0.4101
  123TMC2    H5 1925   1.151   0.806  11.655  2.3344  0.8234  0.0893
  124MPD2     C 1926   0.461   0.103  11.279  0.1355  0.1472 -0.4758
  124MPD2    C1 1927   0.562   0.152  11.198 -0.5526  0.1085  1.0289
  124MPD2    C2 1928   0.641   0.255  11.252  0.4455  0.2955 -0.3030
  124MPD2    C3 1929   0.612   0.315  11.371 -1.0716 -0.6280 -0.1928
  124MPD2    C4 1930   0.507   0.261  11.448  0.5065 -0.3191 -0.2840
  124MPD2    C5 1931   0.433   0.160  11.396  0.0725 -0.2619 -0.4084
  124MPD2     H 1932   0.724   0.300  11.199 -0.3271  2.0444 -0.0211
  124MPD2    H1 1933   0.479   0.293  11.548  1.2476 -0.9525  0.1304
  124MPD2    H2 1934   0.405   0.014  11.252  0.0216 -0.4707  1.7732
  124MPD2    H3 1935   0.354   0.116  11.456 -0.7607  0.6473 -0.8466
  124MPD2     N 1936   0.695   0.423  11.405 -0.2831  0.5711  0.0471
  124MPD2    H5 1937   0.769   0.437  11.337 -1.5764 -0.5846 -1.5970
  124MPD2    N1 1938   0.580   0.109  11.071 -0.8284  0.2262  0.8438
  124MPD2    H7 1939   0.498   0.067  11.027  1.7544 -2.6290 -1.1899
  125TMC2    C1 1940   2.821   2.998   9.607 -0.0296  0.3600 -0.1414
  125TMC2    C2 1941   2.825   2.877   9.673 -0.2026 -0.0013 -0.3468
  125TMC2    C3 1942   2.934   2.800   9.648  0.0713 -0.1388 -0.0512
  125TMC2    C4 1943   2.911   3.045   9.520 -0.2162  0.3826  0.6208
  125TMC2    C5 1944   3.014   2.955   9.490 -0.2413 -0.3268  0.0415
  125TMC2    C6 1945   3.018   2.830   9.556  0.5726  0.3194 -0.1183
  125TMC2     C 1946   2.692   3.070   9.603 -0.0761 -0.5181  0.2003
  125TMC2     O 1947   2.708   3.184   9.577 -0.3614  0.9955  0.0270
  125TMC2     H 1948   2.759   2.844   9.752  1.2934  0.1893  0.9839
  125TMC2    H1 1949   2.899   3.140   9.469  0.6268 -0.7623 -1.7088
  125TMC2    H2 1950   3.087   2.749   9.534  1.6690  1.8043 -2.0966
  125TMC2    C7 1951   3.095   2.981   9.373 -0.4538 -0.6841 -0.0029
  125TMC2    C8 1952   2.949   2.674   9.719 -0.0105 -0.4118 -0.2222
  125TMC2    O1 1953   3.065   3.060   9.284 -0.1728 -0.0120  0.0447
  125TMC2    O2 1954   3.057   2.628   9.754 -0.3141  0.0971  0.0897
  125TMC2    O5 1955   2.845   2.600   9.675  0.2245 -0.2839  0.1906
  125TMC2    H5 1956   2.777   2.659   9.636  0.7141  1.4928  2.0524
  126MPD1     C 1957   2.200   3.137   9.708  0.5633 -0.3437 -0.2248
  126MPD1    C1 1958   2.231   3.014   9.753  0.6621  0.1237  0.1485
  126MPD1    C2 1959   2.363   2.968   9.730 -1.2687  0.1768  0.2872
  126MPD1    C3 1960   2.458   3.048   9.670 -0.8372 -0.1659  0.2673
  126MPD1    C4 1961   2.420   3.175   9.634 -0.3124 -0.0910  0.3908
  126MPD1    C5 1962   2.298   3.220   9.654  0.2337  0.2750 -0.5504
  126MPD1     H 1963   2.386   2.867   9.764 -0.4578  0.4594  0.5761
  126MPD1    H1 1964   2.480   3.250   9.584  0.1389 -0.6865  0.0342
  126MPD1    H2 1965   2.102   3.183   9.714  1.5921  1.5230  2.2175
  126MPD1    H3 1966   2.272   3.315   9.609  0.9991  2.5063  3.7356
  126MPD1     N 1967   2.587   3.002   9.650  0.3790  0.3820 -0.7270
  126MPD1    H5 1968   2.593   2.902   9.664  2.3922  0.5567 -0.2065
  126MPD1    N1 1969   2.135   2.933   9.823 -0.4254  0.2966  0.5630
  126MPD1    H6 1970   2.119   2.954   9.921  2.2533  0.8941  0.8597
  126MPD1    H7 1971   2.174   2.839   9.823  1.4157  1.0578 -2.2251
  127TMC2    C1 1972   3.363   0.978   9.916  0.9706 -0.7222  0.0164
  127TMC2    C2 1973   3.409   0.852   9.902  0.1488 -1.1284  0.1392
  127TMC2    C3 1974   3.318   0.746   9.899 -0.3529 -0.5175  0.0132
  127TMC2    C4 1975   3.227   1.011   9.922 -0.0419 -0.3374 -0.4833
  127TMC2    C5 1976   3.141   0.900   9.929 -0.3666  0.8813  0.1705
  127TMC2    C6 1977   3.188   0.770   9.917 -0.0643  0.3421  0.9147
  127TMC2     C 1978   3.446   1.089   9.887 -0.3705 -0.1137 -0.2098
  127TMC2     O 1979   3.413   1.194   9.950  0.4094  0.0794  0.3580
  127TMC2     H 1980   3.514   0.828   9.909  0.7400  1.8920  1.5904
  127TMC2    H1 1981   3.188   1.112   9.923  1.6072  0.3167 -1.3308
  127TMC2    H2 1982   3.124   0.683   9.920  2.1219 -1.2707  0.9067
  127TMC2    C7 1983   2.993   0.918   9.930  0.5172 -0.4276 -0.1334
  127TMC2    C8 1984   3.369   0.622   9.958  0.1207  0.0125  0.1002
  127TMC2    O1 1985   2.969   1.016   9.861 -0.1824  0.1683 -0.4127
  127TMC2    O2 1986   3.482   0.585   9.932 -0.2952 -0.9139  0.0749
  127TMC2    O5 1987   3.290   0.585  10.061  0.2482  0.7782  0.4977
  127TMC2    H5 1988   3.206   0.633  10.074  0.1321  0.3736  1.2399
  128MPD2     C 1989   3.769   1.076   9.715  0.6325  0.2909  0.3380
  128MPD2    C1 1990   3.683   1.121   9.808 -0.3362 -0.3194  0.5171
  128MPD2    C2 1991   3.709   1.231   9.892 -0.6371 -0.2495 -0.4814
  128MPD2    C3 1992   3.821   1.312   9.872 -0.9733 -0.4493  0.1485
  128MPD2    C4 1993   3.909   1.268   9.781  0.2404 -0.0876 -0.0239
  128MPD2    C5 1994   3.885   1.149   9.706 -0.5835 -0.2072 -0.4837
  128MPD2     H 1995   3.638   1.272   9.962 -1.2755  1.5743 -2.2065
  128MPD2    H1 1996   4.004   1.317   9.764  1.2079 -2.0616 -0.3250
  128MPD2    H2 1997   3.734   0.999   9.647 -1.3500 -0.8167  2.6307
  128MPD2    H3 1998   3.960   1.108   9.640  0.6156  1.3177 -0.0522
  128MPD2     N 1999   3.845   1.423   9.961  0.5656  0.4031  0.2832
  128MPD2    H5 2000   3.784   1.426  10.042 -2.1515 -0.9391 -1.7287
  128MPD2    N1 2001   3.558   1.053   9.809 -0.0477  0.2529 -0.9847
  128MPD2    H7 2002   3.547   0.969   9.752  1.3345 -1.7099  1.6677
  129TMC2    C1 2003   1.612   2.253   1.506  0.0084  0.0602 -0.1208
  129TMC2    C2 2004   1.719   2.335   1.521  0.5866  0.3691  0.7989
  129TMC2    C3 2005   1.837   2.281   1.544 -0.2035 -0.6924  0.0824
  129TMC2    C4 2006   1.623   2.117   1.525 -0.0657  0.4033 -0.7522
  129TMC2    C5 2007   1.749   2.067   1.543  0.0717  0.0164 -0.4351
  129TMC2    C6 2008   1.857   2.148   1.558  0.7510  0.9287  0.6420
  129TMC2     C 2009   1.466   2.294   1.510 -0.0595 -0.8299 -0.6387
  129TMC2     O 2010   1.390   2.213   1.558  0.0852 -0.1603  0.6096
  129TMC2     H 2011   1.715   2.443   1.519 -2.4803  0.2468 -1.3405
  129TMC2    H1 2012   1.540   2.048   1.507 -0.5090  0.8568 -0.4529
  129TMC2    H2 2013   1.950   2.108   1.596 -0.0353  1.0486  2.7069
  129TMC2    C7 2014   1.764   1.920   1.528  0.4835 -0.0915 -0.4816
  129TMC2    C8 2015   1.943   2.374   1.523  0.1402  0.5053  0.2338
  129TMC2    O1 2016   1.664   1.853   1.537  0.3853 -0.1662 -0.3996
  129TMC2    O2 2017   1.919   2.492   1.508 -0.0750 -0.2249  0.0431
  129TMC2    O5 2018   2.060   2.313   1.553 -0.2012  1.1912 -0.4034
  129TMC2    H5 2019   2.056   2.219   1.524  0.0260  1.2068 -0.4879
  130MPD2     C 2020   1.203   2.449   1.541 -0.0180  0.2046  0.4684
  130MPD2    C1 2021   1.324   2.500   1.507  0.1605  0.0514 -0.2710
  130MPD2    C2 2022   1.334   2.636   1.499  0.2510 -0.3452  0.3495
  130MPD2    C3 2023   1.228   2.718   1.533 -0.4147  0.3076 -0.4465
  130MPD2    C4 2024   1.106   2.664   1.561  0.6079 -0.0207 -0.1048
  130MPD2    C5 2025   1.096   2.527   1.567 -0.7931 -0.4569  0.3588
  130MPD2     H 2026   1.430   2.683   1.480  0.7747 -1.8940 -0.7717
  130MPD2    H1 2027   1.022   2.722   1.596  0.0282 -0.3131 -1.0316
  130MPD2    H2 2028   1.182   2.343   1.553  1.5508 -0.1168  0.4090
  130MPD2    H3 2029   1.007   2.481   1.608 -1.1796  0.2787  0.3478
  130MPD2     N 2030   1.250   2.852   1.512  0.5423 -0.4400 -0.0256
  130MPD2    H5 2031   1.342   2.872   1.476  0.4948  0.2129  0.2079
  130MPD2    N1 2032   1.447   2.428   1.484 -0.7979 -0.1238  0.1771
  130MPD2    H7 2033   1.528   2.485   1.459  0.0077 -1.8320 -1.0647
  131TMC2    C1 2034   0.966   1.036  10.797  0.1512  0.5469  0.6257
  131TMC2    C2 2035   0.866   1.113  10.851 -0.6968 -0.3892 -0.6272
  131TMC2    C3 2036   0.879   1.250  10.854 -0.5952 -0.0586 -0.5789
  131TMC2    C4 2037   1.087   1.099  10.781 -0.1719 -0.2691  0.3213
  131TMC2    C5 2038   1.102   1.230  10.801 -0.0082  0.3782  0.7426
  131TMC2    C6 2039   0.997   1.314  10.837 -0.5902  0.2609 -0.7740
  131TMC2     C 2040   0.951   0.896  10.763 -0.5583  0.1326  0.7454
  131TMC2     O 2041   0.873   0.836  10.833 -0.7734  0.5532 -0.1161
  131TMC2     H 2042   0.767   1.072  10.871 -0.1239 -1.2788  0.3661
  131TMC2    H1 2043   1.176   1.053  10.741 -2.1690 -3.2109 -0.7197
  131TMC2    H2 2044   1.002   1.420  10.858 -2.0975 -0.2892  2.3519
  131TMC2    C7 2045   1.235   1.282  10.810  0.5263 -0.1502  0.9510
  131TMC2    C8 2046   0.753   1.332  10.846  0.1771 -0.1874  0.2590
  131TMC2    O1 2047   1.319   1.215  10.865 -0.6056  0.4880  0.4450
  131TMC2    O2 2048   0.765   1.448  10.888  0.2465  0.0713 -0.3609
  131TMC2    O5 2049   0.685   1.293  10.739  0.3607 -0.2141 -0.1740
  131TMC2    H5 2050   0.658   1.198  10.745 -1.4164  0.3310  0.4654
  132MPD2     C 2051   1.040   0.720  10.457 -0.4443  0.5346  0.1135
  132MPD2    C1 2052   0.996   0.731  10.583 -0.7412 -0.9547 -0.1485
  132MPD2    C2 2053   0.915   0.628  10.637 -0.6583 -0.4830 -0.7658
  132MPD2    C3 2054   0.888   0.515  10.563 -0.0976  0.1150  0.1901
  132MPD2    C4 2055   0.935   0.509  10.429 -0.2921  0.2765  0.1673
  132MPD2    C5 2056   0.991   0.617  10.375  0.6402  0.6107  0.7421
  132MPD2     H 2057   0.864   0.646  10.731 -1.4386 -0.4586 -1.1932
  132MPD2    H1 2058   0.904   0.435  10.356 -0.1705 -0.5555  0.9591
  132MPD2    H2 2059   1.098   0.801  10.415  1.6039  0.7487  3.2911
  132MPD2    H3 2060   1.017   0.623  10.270  0.2729 -0.7943  0.5805
  132MPD2     N 2061   0.822   0.408  10.620 -0.2572  0.8179 -0.3271
  132MPD2    H5 2062   0.795   0.408  10.717 -0.1463  0.5046 -0.2957
  132MPD2    N1 2063   1.013   0.855  10.646  0.1820 -0.1157  0.4426
  132MPD2    H7 2064   1.057   0.927  10.589 -2.5166 -0.1244 -1.6477
  133TMC2    C1 2065   0.598   2.369   9.805 -0.1063  0.5659 -0.3365
  133TMC2    C2 2066   0.653   2.252   9.764 -0.3920  0.3891  1.0267
  133TMC2    C3 2067   0.789   2.240   9.776 -0.4310  0.1106 -0.2992
  133TMC2    C4 2068   0.667   2.478   9.849  0.7651 -0.0035 -0.0841
  133TMC2    C5 2069   0.801   2.458   9.867 -0.2666 -0.1417  0.7916
  133TMC2    C6 2070   0.860   2.335   9.832  0.3983 -0.0725 -0.8091
  133TMC2     C 2071   0.452   2.354   9.814 -1.0254 -0.3751 -0.3566
  133TMC2     O 2072   0.410   2.240   9.811 -0.2823 -0.4490  0.1217
  133TMC2     H 2073   0.599   2.180   9.704  2.2148 -1.7579  1.2477
  133TMC2    H1 2074   0.616   2.568   9.882  2.2841  1.0364 -0.5222
  133TMC2    H2 2075   0.965   2.318   9.853 -0.0196 -0.7814  0.6719
  133TMC2    C7 2076   0.890   2.552   9.933 -0.6976 -0.1069  0.7757
  133TMC2    C8 2077   0.839   2.115   9.726  0.1625  0.5992  0.4508
  133TMC2    O1 2078   0.999   2.512   9.948 -0.3555 -0.2931  0.3724
  133TMC2    O2 2079   0.782   2.010   9.725  0.4303 -0.2663  0.2931
  133TMC2    O5 2080   0.913   2.155   9.621 -0.0806  0.3001  0.3582
  133TMC2    H5 2081   0.916   2.253   9.614  1.4825  0.2117 -0.2624
  134MPD2     C 2082   0.197   2.624   9.883  0.6433 -0.3351  0.0985
  134MPD2    C1 2083   0.243   2.492   9.858 -0.3571 -0.1706 -1.5085
  134MPD2    C2 2084   0.159   2.389   9.846  0.0471 -0.1666  0.2608
  134MPD2    C3 2085   0.025   2.415   9.843 -0.3631 -0.1102 -0.0632
  134MPD2    C4 2086   4.705   2.543   9.867 -1.2060  0.1730  0.8370
  134MPD2    C5 2087   0.059   2.646   9.883 -0.1903  0.5396  0.5981
  134MPD2     H 2088   0.191   2.290   9.815 -2.5818 -0.7612 -0.5563
  134MPD2    H1 2089   4.599   2.564   9.866 -0.9518  1.4773  1.3836
  134MPD2    H2 2090   0.265   2.709   9.874 -0.5756  0.8038  1.6741
  134MPD2    H3 2091   0.025   2.748   9.890 -0.5083  0.4074  0.9625
  134MPD2     N 2092   4.661   2.315   9.827 -0.2701  0.1408 -0.2330
  134MPD2    H5 2093   4.567   2.346   9.848  0.2529  2.7834 -1.7046
  134MPD2    N1 2094   0.386   2.474   9.840 -0.6262 -0.3137  0.3575
  134MPD2    H7 2095   0.444   2.557   9.839  0.3765 -1.0097 -1.8437
  135TMC2    C1 2096   2.569   3.303   9.951 -1.2690 -0.6147  0.5840
  135TMC2    C2 2097   2.439   3.297   9.990 -0.7405  0.1504 -0.0880
  135TMC2    C3 2098   2.397   3.182  10.042 -0.0641 -0.6815 -0.2498
  135TMC2    C4 2099   2.657   3.194   9.957 -0.1356  0.5026 -0.3625
  135TMC2    C5 2100   2.607   3.086  10.026 -0.3678 -0.3253 -0.8644
  135TMC2    C6 2101   2.480   3.084  10.076 -0.2371 -0.2542 -0.8757
  135TMC2     C 2102   2.610   3.430   9.883 -0.6643  0.1328 -0.1901
  135TMC2     O 2103   2.550   3.531   9.895  0.2338  0.0908 -0.5008
  135TMC2     H 2104   2.371   3.381   9.976  0.1620  0.4796 -2.5706
  135TMC2    H1 2105   2.763   3.197   9.935  0.5086 -0.5008  2.5436
  135TMC2    H2 2106   2.439   2.988  10.104  1.6536  0.0623  2.9987
  135TMC2    C7 2107   2.690   2.968  10.032 -0.3790  0.1102 -0.4346
  135TMC2    C8 2108   2.263   3.149  10.072  0.2344 -0.3283 -0.3224
  135TMC2    O1 2109   2.793   2.971   9.969  0.0558 -0.2309  0.5618
  135TMC2    O2 2110   2.224   3.033  10.080 -0.2384  0.0611  0.3514
  135TMC2    O5 2111   2.186   3.262  10.097 -0.0398  0.3636  0.0035
  135TMC2    H5 2112   2.236   3.339  10.132 -0.4977  0.5779  0.1891
  136MPD2     C 2113   2.745   3.634   9.725 -0.0687  1.1587  0.1971
  136MPD2    C1 2114   2.780   3.497   9.727 -0.3809 -0.3553  0.4866
  136MPD2    C2 2115   2.883   3.455   9.646 -0.1616 -0.4536 -0.0313
  136MPD2    C3 2116   2.957   3.548   9.568 -0.7884 -0.5789 -0.4346
  136MPD2    C4 2117   2.905   3.676   9.558  0.0232  0.0934 -0.5325
  136MPD2    C5 2118   2.803   3.717   9.633  0.5258  0.1829  0.1860
  136MPD2     H 2119   2.902   3.349   9.637  3.5587  0.2648 -0.7369
  136MPD2    H1 2120   2.943   3.752   9.490  1.9624 -0.3029  0.1232
  136MPD2    H2 2121   2.669   3.679   9.787 -1.2453  0.3568 -0.6741
  136MPD2    H3 2122   2.773   3.821   9.629  0.2417  0.0132 -2.2901
  136MPD2     N 2123   3.067   3.506   9.475  0.4068  0.6958  0.3560
  136MPD2    H5 2124   3.090   3.573   9.403  1.3184  0.6880  0.6288
  136MPD2    N1 2125   2.721   3.405   9.809 -0.0788  0.1573  0.2356
  136MPD2    H7 2126   2.748   3.307   9.805 -2.0953 -0.4070  0.2810
  137TMC2    C1 2127   2.059   1.538   9.508  0.3042  0.2939  0.5312
  137TMC2    C2 2128   2.067   1.497   9.377  0.7230 -0.1809  0.1971
  137TMC2    C3 2129   2.017   1.582   9.284  0.4092 -0.6488 -1.2884
  137TMC2    C4 2130   2.014   1.667   9.542 -0.7317 -0.3675  0.2363
  137TMC2    C5 2131   1.982   1.757   9.442  0.0343  0.3209  0.8416
  137TMC2    C6 2132   1.984   1.715   9.312  0.0065  0.2864 -0.1953
  137TMC2     C 2133   2.116   1.453   9.616  0.1162  0.5612 -0.3709
  137TMC2     O 2134   2.132   1.514   9.721  0.0590 -0.0594 -0.3041
  137TMC2     H 2135   2.103   1.400   9.344  0.9440 -0.5268  1.4515
  137TMC2    H1 2136   2.030   1.711   9.640  2.5095 -1.5807  0.2601
  137TMC2    H2 2137   1.952   1.781   9.232  0.0331 -0.6514 -0.9843
  137TMC2    C7 2138   1.922   1.880   9.471  0.0328 -0.5234 -0.4586
  137TMC2    C8 2139   2.001   1.533   9.150  0.3610 -0.2986  0.5228
  137TMC2    O1 2140   1.915   1.957   9.376  0.2521 -0.5240 -0.1837
  137TMC2    O2 2141   1.962   1.417   9.133  0.1263 -0.5294  0.2172
  137TMC2    O5 2142   2.074   1.605   9.058  0.1379 -0.6205  0.7111
  137TMC2    H5 2143   2.130   1.673   9.101 -0.6555  0.3319  0.2294
  138MPD2     C 2144   2.112   1.097   9.670 -0.0058 -0.8203  0.3642
  138MPD2    C1 2145   2.174   1.221   9.679 -0.2638  0.9182 -0.6386
  138MPD2    C2 2146   2.264   1.244   9.784  0.2728 -0.7723 -0.4474
  138MPD2    C3 2147   2.286   1.155   9.884 -0.0448  0.3683 -0.1779
  138MPD2    C4 2148   2.225   1.036   9.878 -0.1917  0.0180  0.8573
  138MPD2    C5 2149   2.135   1.009   9.770  0.9541  0.2274  0.5154
  138MPD2     H 2150   2.318   1.337   9.797 -0.3500 -0.3944 -0.5610
  138MPD2    H1 2151   2.223   0.966   9.961  1.9716  1.5540  2.1718
  138MPD2    H2 2152   2.033   1.071   9.601 -0.8410 -0.5760  1.2351
  138MPD2    H3 2153   2.082   0.915   9.772  0.8034  0.2946 -0.8195
  138MPD2     N 2154   2.376   1.197   9.989 -0.2434 -0.7006 -0.1907
  138MPD2    H5 2155   2.422   1.286   9.973  0.3745 -0.7942  1.0410
  138MPD2    N1 2156   2.122   1.320   9.591  0.2805 -0.5510  0.1381
  138MPD2    H7 2157   2.077   1.283   9.508  1.5536 -0.4076 -0.5970
  139TMC2    C1 2158   2.967   0.493  13.682 -0.0029  1.1657  0.5378
  139TMC2    C2 2159   3.027   0.601  13.633  0.2440  1.2084  0.3956
  139TMC2    C3 2160   2.964   0.719  13.620 -0.3860  0.5121  0.2816
  139TMC2    C4 2161   2.835   0.488  13.716 -0.2071 -0.4260 -1.3314
  139TMC2    C5 2162   2.768   0.604  13.676 -0.8316 -0.3219 -0.2380
  139TMC2    C6 2163   2.826   0.723  13.637 -0.1311 -0.3672  0.2307
  139TMC2     C 2164   3.046   0.373  13.678 -0.4522 -0.6297 -0.0494
  139TMC2     O 2165   3.159   0.382  13.634  0.2523  0.3553 -0.0694
  139TMC2     H 2166   3.130   0.595  13.600  1.0077 -2.1362  3.4848
  139TMC2    H1 2167   2.794   0.405  13.772 -0.9598  1.3733  0.8259
  139TMC2    H2 2168   2.760   0.806  13.611  1.1188  0.1921 -1.1431
  139TMC2    C7 2169   2.627   0.604  13.712 -0.3373 -0.7714 -0.1400
  139TMC2    C8 2170   3.021   0.822  13.536  0.6454 -0.5726 -0.1489
  139TMC2    O1 2171   2.588   0.718  13.743  0.4469  0.8012 -0.2425
  139TMC2    O2 2172   2.967   0.864  13.436  0.2298 -0.0810  0.5811
  139TMC2    O5 2173   3.149   0.821  13.568 -0.6188 -0.1955 -0.0708
  139TMC2    H5 2174   3.151   0.787  13.660  1.9780  0.0136 -0.0237
  140MPD2     C 2175   2.952   0.022  13.727  0.2396 -0.5049  0.1341
  140MPD2    C1 2176   3.035   0.134  13.703  0.0376  0.1490  0.6943
  140MPD2    C2 2177   3.173   0.121  13.709 -0.2589 -0.0774 -0.0619
  140MPD2    C3 2178   3.227   4.731  13.722 -0.2785 -1.0972  0.2854
  140MPD2    C4 2179   3.142   4.623  13.732 -0.4506 -0.7857 -0.1221
  140MPD2    C5 2180   3.010   4.632  13.731 -0.2831 -0.0401 -0.0204
  140MPD2     H 2181   3.246   0.197  13.682  0.6419 -0.0377  2.4823
  140MPD2    H1 2182   3.174   4.521  13.748  1.0687 -0.3125 -0.1295
  140MPD2    H2 2183   2.843   0.025  13.727  0.2968  1.5727  2.6949
  140MPD2    H3 2184   2.948   4.545  13.746  0.3883 -0.5217 -0.0757
  140MPD2     N 2185   3.376   4.717  13.725 -0.2866 -0.5052 -0.1780
  140MPD2    H5 2186   3.427   0.069  13.723  0.1574 -0.6979  2.1999
  140MPD2    N1 2187   2.976   0.258  13.689 -0.0734 -0.7072 -0.3107
  140MPD2    H7 2188   2.875   0.248  13.702  0.0638 -1.7378  0.0007
  141TMC2    C1 2189   3.297   1.826  14.642 -0.5081 -0.4290 -0.1942
  141TMC2    C2 2190   3.379   1.714  14.642 -0.0394  0.5445  0.4627
  141TMC2    C3 2191   3.519   1.732  14.638 -0.4979 -0.3620 -0.7206
  141TMC2    C4 2192   3.355   1.947  14.647  0.0068  0.2527 -0.0470
  141TMC2    C5 2193   3.494   1.958  14.660  0.2687 -0.0938 -0.6045
  141TMC2    C6 2194   3.580   1.847  14.658 -0.1204 -0.0888 -0.6612
  141TMC2     C 2195   3.164   1.815  14.581 -0.3133 -0.3992 -0.6503
  141TMC2     O 2196   3.133   1.893  14.496  0.2279 -0.4230 -0.7011
  141TMC2     H 2197   3.338   1.613  14.638  0.9898  0.2070 -1.4552
  141TMC2    H1 2198   3.296   2.037  14.663 -0.2424  0.4177 -1.9247
  141TMC2    H2 2199   3.688   1.855  14.648  0.1837  0.0856  2.4774
  141TMC2    C7 2200   3.550   2.085  14.619  0.2457  0.2345 -0.4987
  141TMC2    C8 2201   3.613   1.623  14.639  1.0012  0.2769  0.6694
  141TMC2    O1 2202   3.472   2.165  14.562 -0.1098  0.1881 -0.1570
  141TMC2    O2 2203   3.714   1.632  14.704 -0.4043 -0.4808  0.4029
  141TMC2    O5 2204   3.552   1.513  14.585 -0.2512  0.4190  0.3927
  141TMC2    H5 2205   3.491   1.522  14.509  0.6696 -0.1803 -0.4096
  142TMC2    C1 2206   1.094   0.146  10.570  0.1382 -0.0788  0.6674
  142TMC2    C2 2207   1.169   0.185  10.463 -0.9973 -0.7848  0.4915
  142TMC2    C3 2208   1.255   0.285  10.470  0.5533 -0.4258 -0.0181
  142TMC2    C4 2209   1.092   0.224  10.680  0.4093 -0.1612 -0.3955
  142TMC2    C5 2210   1.170   0.333  10.685 -0.1980  0.4576 -0.0620
  142TMC2    C6 2211   1.258   0.367  10.582  0.0449 -0.0992 -0.0951
  142TMC2     C 2212   1.009   0.027  10.551 -1.1499 -0.1665 -0.2692
  142TMC2     O 2213   0.997   4.729  10.433  0.3680  0.2991  0.5148
  142TMC2     H 2214   1.167   0.123  10.374 -1.1339  1.5428 -1.1209
  142TMC2    H1 2215   1.022   0.205  10.760 -1.5355  1.5592 -1.6908
  142TMC2    H2 2216   1.345   0.425  10.611  0.3248 -1.5417  1.9661
  142TMC2    C7 2217   1.167   0.423  10.800 -0.6963  0.3178 -0.9506
  142TMC2    C8 2218   1.361   0.288  10.370  0.5574 -0.3660 -0.0011
  142TMC2    O1 2219   1.121   0.374  10.905 -0.0644 -0.0599  0.2913
  142TMC2    O2 2220   1.383   0.209  10.284  0.2439  0.0612  0.4651
  142TMC2    O5 2221   1.449   0.394  10.403 -0.4363 -0.1471  0.5307
  142TMC2    H5 2222   1.406   0.456  10.466 -4.6774  0.5931 -3.0837
  143MPD2     C 2223   0.671   4.417  10.723  0.0664  0.3440  0.4808
  143MPD2    C1 2224   0.712   4.440  10.596  0.5339 -0.7773 -0.2567
  143MPD2    C2 2225   0.810   4.534  10.576 -0.1061 -0.2425 -0.0688
  143MPD2    C3 2226   0.861   4.609  10.681  0.1028 -0.0465 -0.2511
  143MPD2    C4 2227   0.828   4.576  10.813 -0.2249  0.0356  0.0435
  143MPD2    C5 2228   0.732   4.480  10.832  0.1592  0.1037  0.2480
  143MPD2     H 2229   0.836   4.574  10.479 -1.4066  1.2481  0.1995
  143MPD2    H1 2230   0.861   4.631  10.900 -1.7196 -0.0473  0.6697
  143MPD2    H2 2231   0.597   4.341  10.742  1.4375 -1.2812 -0.6809
  143MPD2    H3 2232   0.687   4.461  10.929 -1.4948  0.7546 -0.3887
  143MPD2     N 2233   0.963   4.710  10.670 -0.2308  0.6358 -0.4784
  143MPD2    H5 2234   1.010   0.010  10.752 -0.0473 -1.0149  0.1219
  143MPD2    N1 2235   0.641   4.381  10.486  0.1686 -0.3422 -0.5058
  143MPD2    H7 2236   0.560   4.325  10.510 -1.4776  1.0892 -2.7850
  144TMC2    C1 2237   4.332   3.805   0.939  0.4956 -0.2779  0.6325
  144TMC2    C2 2238   4.365   3.674   0.961  0.5536  0.1715 -0.1288
  144TMC2    C3 2239   4.464   3.654   1.055  0.3771 -0.2978  0.9147
  144TMC2    C4 2240   4.403   3.907   0.990 -0.1078  0.5928 -0.8724
  144TMC2    C5 2241   4.513   3.882   1.067 -0.0838 -0.3456  0.9091
  144TMC2    C6 2242   4.547   3.760   1.100 -0.1085  0.1673  0.3387
  144TMC2     C 2243   4.261   3.830   0.817  0.0623 -0.4135 -0.1689
  144TMC2     O 2244   4.265   3.748   0.727  0.2848 -0.1644  0.4812
  144TMC2     H 2245   4.314   3.586   0.925 -0.1151  0.1837  0.7984
  144TMC2    H1 2246   4.396   4.008   0.951 -1.3967  0.7157 -0.3257
  144TMC2    H2 2247   4.633   3.737   1.162  1.5559 -0.5380 -2.2312
  144TMC2    C7 2248   4.618   3.983   1.069 -0.1393  0.0345 -0.2316
  144TMC2    C8 2249   4.491   3.515   1.093 -0.4208 -0.0159 -0.0346
  144TMC2    O1 2250   4.722   3.958   1.013 -0.0682  0.0290 -0.4738
  144TMC2    O2 2251   4.451   3.423   1.025  0.1308  0.1697 -0.1290
  144TMC2    O5 2252   4.512   3.518   1.223  0.4923 -0.5726  0.0156
  144TMC2    H5 2253   4.503   3.604   1.270  0.4235 -0.7066  0.2449
  145MPD2     C 2254   3.808   4.009   0.651  0.2912 -0.2613  0.0835
  145MPD2    C1 2255   3.896   3.911   0.607  0.2918 -0.1758 -0.1277
  145MPD2    C2 2256   4.021   3.895   0.661 -0.2832  0.0690 -0.4338
  145MPD2    C3 2257   4.065   3.970   0.770  0.2309  0.6086 -0.6900
  145MPD2    C4 2258   3.971   4.068   0.821 -0.7655  1.0018  0.1073
  145MPD2    C5 2259   3.849   4.088   0.755  0.3511 -0.9649  0.3930
  145MPD2     H 2260   4.089   3.823   0.615  2.5217  0.3371  3.2515
  145MPD2    H1 2261   3.994   4.127   0.909  2.3751  1.4568 -1.0071
  145MPD2    H2 2262   3.711   4.031   0.608 -0.2361 -1.4536  0.6510
  145MPD2    H3 2263   3.788   4.174   0.780  0.5641 -0.3973 -1.0592
  145MPD2     N 2264   4.184   3.939   0.837 -0.0811  0.6650  0.3749
  145MPD2    H5 2265   4.196   3.980   0.929 -0.8685  0.1154  0.7227
  145MPD2    N1 2266   3.874   3.840   0.489 -0.0456  0.6324  0.6582
  145MPD2    H7 2267   3.933   3.761   0.465 -0.5851  0.0873  1.0909
  146TMC2    C1 2268   4.496   2.406  12.657  0.3298  0.0398  0.6619
  146TMC2    C2 2269   4.390   2.373  12.575 -0.6155 -0.2910  0.3071
  146TMC2    C3 2270   4.401   2.395  12.442  0.5245 -0.2358 -0.3612
  146TMC2    C4 2271   4.614   2.454  12.603  0.6551 -0.1838  0.1323
  146TMC2    C5 2272   4.620   2.464  12.464  0.5136 -0.3546  0.3529
  146TMC2    C6 2273   4.516   2.438  12.381 -0.0765 -0.6080 -0.3815
  146TMC2     C 2274   4.471   2.456  12.789  0.5596  0.7404 -0.5996
  146TMC2     O 2275   4.350   2.472  12.821 -0.6570  0.0286 -0.1587
  146TMC2     H 2276   4.297   2.342  12.621 -0.3696 -0.0204  0.9912
  146TMC2    H1 2277   4.696   2.500  12.657  1.1039 -0.1643 -0.5649
  146TMC2    H2 2278   4.520   2.440  12.273 -1.3218  1.8243 -0.3742
  146TMC2    C7 2279   0.021   2.462  12.405 -0.3796 -0.0585 -0.3499
  146TMC2    C8 2280   4.284   2.373  12.357 -0.2845 -0.4790  0.0025
  146TMC2    O1 2281   0.029   2.490  12.287 -0.5983 -0.3093 -0.4720
  146TMC2    O2 2282   4.251   2.447  12.263 -0.1548 -0.5721 -0.4239
  146TMC2    O5 2283   4.275   2.241  12.365 -0.4917 -0.5689 -0.3955
  146TMC2    H5 2284   4.312   2.205  12.449  1.1192  0.4776 -0.6457
  147MPD2     C 2285   0.527   2.352  12.416  0.3449 -0.8573 -0.3104
  147MPD2    C1 2286   0.473   2.334  12.542  0.1266  0.1262  0.4410
  147MPD2    C2 2287   0.342   2.371  12.566 -0.5426 -0.2260  0.2389
  147MPD2    C3 2288   0.257   2.408  12.461  0.4812 -0.2470 -0.2904
  147MPD2    C4 2289   0.310   2.416  12.333 -0.0550  0.8693  0.1193
  147MPD2    C5 2290   0.449   2.403  12.319 -0.5503  0.1566  1.0143
  147MPD2     H 2291   0.303   2.363  12.667  3.3699 -0.2251  1.7348
  147MPD2    H1 2292   0.258   2.442  12.241  1.3650  1.7907 -0.4330
  147MPD2    H2 2293   0.633   2.339  12.400  0.1690  0.2253 -2.3019
  147MPD2    H3 2294   0.494   2.417  12.221 -2.3216 -1.7558 -0.0531
  147MPD2     N 2295   0.118   2.424  12.490 -1.0968 -0.3260 -0.0979
  147MPD2    H5 2296   0.089   2.410  12.586  1.8841  2.0223  1.1637
  147MPD2    N1 2297   0.565   2.296  12.636  0.7005  0.2774  0.4487
  147MPD2    H7 2298   0.662   2.292  12.608  0.2367 -1.3447 -0.9009
  148TMC2    C1 2299   0.593   1.612  10.648  0.7886 -0.3369 -0.9167
  148TMC2    C2 2300   0.639   1.717  10.726 -0.2505  0.3849 -0.8635
  148TMC2    C3 2301   0.773   1.734  10.740  0.0015  0.7473  0.0933
  148TMC2    C4 2302   0.685   1.532  10.584 -0.2693 -0.4268  0.4118
  148TMC2    C5 2303   0.821   1.561  10.596  0.4425 -0.3022  0.4991
  148TMC2    C6 2304   0.874   1.665  10.671  0.3019  0.0439 -0.0618
  148TMC2     C 2305   0.447   1.599  10.626 -0.9359  0.2860  0.1160
  148TMC2     O 2306   0.365   1.686  10.631  0.4516 -0.1911 -0.1933
  148TMC2     H 2307   0.571   1.788  10.772 -0.4567  0.7381 -1.7149
  148TMC2    H1 2308   0.656   1.459  10.509  1.5860 -1.7525  0.9858
  148TMC2    H2 2309   0.978   1.677  10.699  0.2845  0.2091 -0.0712
  148TMC2    C7 2310   0.922   1.465  10.558 -0.1100  0.2159  0.3176
  148TMC2    C8 2311   0.819   1.820  10.845 -0.1252  0.3702 -0.4775
  148TMC2    O1 2312   1.039   1.487  10.587 -0.0118 -0.5740 -0.2544
  148TMC2    O2 2313   0.753   1.839  10.944 -0.7681 -0.1908 -0.1499
  148TMC2    O5 2314   0.901   1.905  10.786 -0.0458  0.3375 -0.3804
  148TMC2    H5 2315   0.937   1.863  10.704  1.0229  1.7748 -0.6666
  149MPD2     C 2316   0.189   1.512  10.496  0.1232  0.7087  0.2484
  149MPD2    C1 2317   0.284   1.428  10.542 -0.1993 -0.2929 -0.2528
  149MPD2    C2 2318   0.254   1.298  10.552  0.4944  0.0109 -0.1256
  149MPD2    C3 2319   0.131   1.243  10.515  0.4516 -0.5745  0.5420
  149MPD2    C4 2320   0.039   1.329  10.452 -0.6794 -0.1174  0.1666
  149MPD2    C5 2321   0.072   1.466  10.438  0.0990  0.0931  0.4096
  149MPD2     H 2322   0.337   1.234  10.578  0.6555 -0.1545 -1.0625
  149MPD2    H1 2323   4.686   1.292  10.401 -0.4526 -0.8947  0.3269
  149MPD2    H2 2324   0.219   1.614  10.477 -0.8168  0.9774  0.2164
  149MPD2    H3 2325   0.005   1.533  10.387  0.2976 -0.4044 -0.5040
  149MPD2     N 2326   0.102   1.105  10.512  0.8085  0.0072 -0.2203
  149MPD2    H5 2327   0.007   1.085  10.484  0.8859 -0.8666  0.1480
  149MPD2    N1 2328   0.415   1.469  10.590 -0.4405 -0.1927  0.2216
  149MPD2    H7 2329   0.489   1.402  10.609  0.0581  0.3016  0.0265
  150TMC2    C1 2330   2.893   0.674  12.384  0.2477  0.1346  0.6674
  150TMC2    C2 2331   2.872   0.774  12.290  0.2055  0.4088 -0.5477
  150TMC2    C3 2332   2.978   0.836  12.234  0.3509 -0.9932  0.6958
  150TMC2    C4 2333   3.013   0.648  12.429  0.8627 -0.0475  0.0256
  150TMC2    C5 2334   3.123   0.702  12.363  1.3403  0.1083 -0.5671
  150TMC2    C6 2335   3.106   0.798  12.268  0.1633  0.2963 -0.5962
  150TMC2     C 2336   2.788   0.591  12.436  0.7871 -0.0398 -0.2648
  150TMC2     O 2337   2.814   0.513  12.532 -0.4531  0.1012 -0.3700
  150TMC2     H 2338   2.774   0.800  12.251 -1.3509 -1.4918  2.0929
  150TMC2    H1 2339   3.026   0.582  12.515 -1.2543  4.2241  3.6095
  150TMC2    H2 2340   3.193   0.824  12.208  0.4020 -0.2529 -0.4822
  150TMC2    C7 2341   3.264   0.660  12.388  0.9499  1.1812  0.1887
  150TMC2    C8 2342   2.958   0.904  12.108  0.0157 -0.9360  0.2783
  150TMC2    O1 2343   3.344   0.694  12.304  0.2533  0.5267  0.4572
  150TMC2    O2 2344   3.046   0.979  12.075 -0.0661 -0.2079  0.7585
  150TMC2    O5 2345   2.920   0.808  12.025 -0.3185 -0.1160 -0.2266
  150TMC2    H5 2346   2.908   0.719  12.065 -0.2312  0.3999  0.9287
  151MPD2     C 2347   2.293   0.451  12.484 -0.0052 -0.1617  0.5847
  151MPD2    C1 2348   2.311   0.511  12.365  0.8999 -0.1355 -0.1118
  151MPD2    C2 2349   2.442   0.552  12.324  0.2295  0.1317 -0.1387
  151MPD2    C3 2350   2.550   0.546  12.409  0.5861  0.2350  0.0361
  151MPD2    C4 2351   2.530   0.476  12.524 -0.4248 -0.4587 -0.0580
  151MPD2    C5 2352   2.401   0.435  12.561  0.2674  0.1204  0.0680
  151MPD2     H 2353   2.453   0.597  12.226  0.6150  1.7950  0.6519
  151MPD2    H1 2354   2.611   0.453  12.592  0.4081  1.5192 -0.3830
  151MPD2    H2 2355   2.195   0.415  12.512 -0.1180 -1.5662 -1.5857
  151MPD2    H3 2356   2.390   0.382  12.655  3.5828  0.9280  0.9148
  151MPD2     N 2357   2.673   0.602  12.366 -0.4805  0.8063  0.5749
  151MPD2    H5 2358   2.669   0.655  12.279 -0.0059 -0.6585 -0.3426
  151MPD2    N1 2359   2.202   0.518  12.278 -0.1084  0.1350  0.0968
  151MPD2    H7 2360   2.116   0.474  12.310 -0.0843  0.3012  0.3875
  152TMC2    C1 2361   2.509   0.583  12.888 -0.1031  0.3632  1.3510
  152TMC2    C2 2362   2.606   0.506  12.942 -0.0172 -0.3467  0.1744
  152TMC2    C3 2363   2.733   0.544  12.918 -0.4270 -0.5602 -0.1397
  152TMC2    C4 2364   2.536   0.684  12.796 -0.0397  0.0579  0.3597
  152TMC2    C5 2365   2.667   0.716  12.772 -0.0397  0.5209 -0.0240
  152TMC2    C6 2366   2.767   0.646  12.830  0.0645 -0.0542 -0.9466
  152TMC2     C 2367   2.367   0.540  12.892  0.2090 -0.6982 -0.5315
  152TMC2     O 2368   2.289   0.629  12.866  0.5538 -0.1235 -0.6919
  152TMC2     H 2369   2.593   0.446  13.031  2.3335  2.0582  2.1331
  152TMC2    H1 2370   2.452   0.737  12.752  1.0739  2.0475  0.6195
  152TMC2    H2 2371   2.872   0.658  12.806 -0.3471  2.9009 -1.2675
  152TMC2    C7 2372   2.693   0.816  12.668  0.2825  0.2095 -0.2993
  152TMC2    C8 2373   2.839   0.476  12.991 -0.1195 -0.4230  0.8760
  152TMC2    O1 2374   2.606   0.842  12.589  0.2937 -0.0449 -0.0092
  152TMC2    O2 2375   2.819   0.366  13.046 -0.1236 -0.0709 -0.1514
  152TMC2    O5 2376   2.924   0.566  13.045 -0.0346  0.4039 -0.7335
  152TMC2    H5 2377   2.905   0.657  13.015 -1.1640  0.0031 -1.2302
  153MPD2     C 2378   2.232   0.203  12.960  0.4984 -0.2837 -0.4560
  153MPD2    C1 2379   2.226   0.338  12.930  0.2517 -0.2523 -0.4137
  153MPD2    C2 2380   2.102   0.395  12.925 -0.7214  0.3687  0.1328
  153MPD2    C3 2381   1.986   0.323  12.957  0.0058 -0.0050  0.5210
  153MPD2    C4 2382   1.999   0.190  12.989 -0.0629  0.0539 -0.5007
  153MPD2    C5 2383   2.118   0.125  12.986  0.4960  0.2779 -0.0598
  153MPD2     H 2384   2.093   0.502  12.909  0.3287  0.7145  1.8878
  153MPD2    H1 2385   1.910   0.133  13.013  0.4873 -0.2612  0.7751
  153MPD2    H2 2386   2.326   0.148  12.963 -0.1480 -1.5478 -2.9992
  153MPD2    H3 2387   2.125   0.017  12.997 -1.0516  0.2062  0.3191
  153MPD2     N 2388   1.860   0.387  12.933 -0.3890 -0.4807 -0.5923
  153MPD2    H5 2389   1.872   0.477  12.889  0.8065  0.4946  1.7011
  153MPD2    N1 2390   2.350   0.405  12.916 -0.5395  0.5371  0.1467
  153MPD2    H7 2391   2.431   0.350  12.941  0.5641  1.9523 -0.3304
  154TMC2    C1 2392   4.526   0.190   0.805  0.0822 -0.2511  0.2189
  154TMC2    C2 2393   4.452   0.095   0.736 -0.0340  0.6326 -0.4845
  154TMC2    C3 2394   4.513   4.715   0.701  0.6918 -0.0066  0.0850
  154TMC2    C4 2395   4.658   0.185   0.821  0.2706 -0.0123 -0.0636
  154TMC2    C5 2396   4.714   0.067   0.797 -0.0262  0.0472 -0.0075
  154TMC2    C6 2397   4.640   4.696   0.741  0.2099  0.6950 -0.5852
  154TMC2     C 2398   4.471   0.321   0.829  0.7136  0.6013  0.0408
  154TMC2     O 2399   4.538   0.402   0.887 -1.2685 -0.3756  0.4661
  154TMC2     H 2400   4.345   0.107   0.740  0.0735  1.1475  1.2096
  154TMC2    H1 2401   4.710   0.269   0.865 -1.2886  1.0646 -0.2950
  154TMC2    H2 2402   4.699   4.610   0.712  0.3810  1.1186 -1.5153
  154TMC2    C7 2403   0.096   0.029   0.878 -0.7802  0.1151 -0.7409
  154TMC2    C8 2404   4.441   4.616   0.630 -0.6455  0.1190  0.3660
  154TMC2    O1 2405   0.157   4.673   0.826  0.5709  0.2139  0.4429
  154TMC2    O2 2406   4.468   4.496   0.628 -0.1442  0.4660 -0.2292
  154TMC2    O5 2407   4.363   4.682   0.534 -0.3028 -0.2267 -0.2197
  154TMC2    H5 2408   4.368   0.045   0.530 -2.4573 -0.1244 -0.3685
  155MPD2     C 2409   4.156   0.443   0.687 -0.0785 -0.3533 -0.2003
  155MPD2    C1 2410   4.273   0.461   0.756 -0.4618  0.0872  0.6220
  155MPD2    C2 2411   4.315   0.582   0.807  0.2225 -0.1862  0.4452
  155MPD2    C3 2412   4.227   0.692   0.792 -0.3762  0.2903 -0.3242
  155MPD2    C4 2413   4.109   0.678   0.730 -0.0265 -0.3534 -0.5851
  155MPD2    C5 2414   4.076   0.555   0.673  0.0667 -0.1860 -0.3529
  155MPD2     H 2415   4.406   0.589   0.865  1.3331 -1.5289 -1.1586
  155MPD2    H1 2416   4.036   0.758   0.720 -1.1395 -1.0882  1.8122
  155MPD2    H2 2417   4.125   0.348   0.643 -1.9212 -0.3615  1.1293
  155MPD2    H3 2418   3.980   0.551   0.622 -0.7753 -1.9302  1.3753
  155MPD2     N 2419   4.267   0.817   0.849 -0.2028  0.6771  0.2711
  155MPD2    H5 2420   4.348   0.825   0.909  0.4266  0.5273 -0.5594
  155MPD2    N1 2421   4.350   0.339   0.768  0.4973 -0.0284  0.9676
  155MPD2    H7 2422   4.309   0.259   0.722  0.2893  1.4511 -1.3882
  156TMC2    C1 2423   2.749   2.685  12.045  0.6255  0.9275 -0.0759
  156TMC2    C2 2424   2.740   2.551  12.077 -0.4751 -0.6552 -1.0460
  156TMC2    C3 2425   2.651   2.478  12.011  0.2763 -0.5827 -0.1582
  156TMC2    C4 2426   2.695   2.737  11.935 -0.0001  0.3718  0.3807
  156TMC2    C5 2427   2.611   2.657  11.867 -0.6758 -0.5055  0.3396
  156TMC2    C6 2428   2.585   2.531  11.900 -0.1272 -0.1517  0.1368
  156TMC2     C 2429   2.746   2.780  12.155 -0.5866  1.6825  0.4274
  156TMC2     O 2430   2.698   2.891  12.137  0.4502 -0.7046 -0.4221
  156TMC2     H 2431   2.763   2.501  12.171 -2.8749  1.3633  0.6104
  156TMC2    H1 2432   2.693   2.842  11.909  3.0491  0.4092  0.2064
  156TMC2    H2 2433   2.541   2.460  11.831 -0.4976  0.1586  0.0542
  156TMC2    C7 2434   2.511   2.741  11.786  0.1992 -0.9503  0.1533
  156TMC2    C8 2435   2.641   2.341  12.035  0.0063 -0.3399  0.3936
  156TMC2    O1 2436   2.525   2.863  11.773 -0.2193  0.0328 -0.0532
  156TMC2    O2 2437   2.730   2.271  12.089 -0.0957 -0.0730 -0.0751
  156TMC2    O5 2438   2.521   2.294  11.997  0.1099  0.0767 -0.0549
  156TMC2    H5 2439   2.455   2.367  11.996  0.4193  0.3569  0.0221
  157MPD2     C 2440   2.927   2.755  12.480  0.1051  0.4597 -0.0670
  157MPD2    C1 2441   2.829   2.800  12.392  0.1414  0.4987  0.1566
  157MPD2    C2 2442   2.751   2.908  12.431 -0.2201 -0.1999  0.3655
  157MPD2    C3 2443   2.769   2.969  12.551  0.0164 -1.3850  0.2468
  157MPD2    C4 2444   2.859   2.924  12.641  0.6755 -0.8043  0.0213
  157MPD2    C5 2445   2.934   2.816  12.606 -0.3338  0.9715  0.0241
  157MPD2     H 2446   2.674   2.932  12.359 -0.2552 -0.2600  0.3831
  157MPD2    H1 2447   2.868   2.956  12.745 -0.5331 -1.0046  0.1796
  157MPD2    H2 2448   2.993   2.674  12.453 -1.6397  0.1861 -3.4616
  157MPD2    H3 2449   3.000   2.768  12.678 -0.6028  0.5134 -0.0345
  157MPD2     N 2450   2.678   3.071  12.575 -0.4789 -0.0891 -0.1027
  157MPD2    H5 2451   2.604   3.083  12.507 -0.0438 -2.0542 -0.9158
  157MPD2    N1 2452   2.810   2.736  12.267 -0.2560  0.5115 -0.1806
  157MPD2    H7 2453   2.866   2.653  12.253 -2.4278 -0.8964 -0.4529
  158TMC2    C1 2454   2.434   1.581  13.497 -0.2797  0.3388  0.4910
  158TMC2    C2 2455   2.430   1.697  13.419 -0.1777  0.3455  0.0562
  158TMC2    C3 2456   2.311   1.760  13.391 -0.2958  0.3448  0.3596
  158TMC2    C4 2457   2.316   1.548  13.552 -0.6622 -0.1078 -0.2686
  158TMC2    C5 2458   2.207   1.622  13.535 -0.4231  0.2502  0.0686
  158TMC2    C6 2459   2.198   1.730  13.454  1.1436  0.6141 -0.0641
  158TMC2     C 2460   2.559   1.544  13.569 -0.1312  1.3311  0.4283
  158TMC2     O 2461   2.661   1.608  13.542 -0.4146 -0.2260 -0.1977
  158TMC2     H 2462   2.521   1.729  13.369  0.8968 -0.8815  1.2422
  158TMC2    H1 2463   2.309   1.455  13.607 -0.7856  0.0890  0.0442
  158TMC2    H2 2464   2.117   1.801  13.465  1.4179  0.7995  0.7326
  158TMC2    C7 2465   2.086   1.597  13.619 -0.2018  0.1876  0.1570
  158TMC2    C8 2466   2.322   1.893  13.335 -1.0285 -0.9023 -0.3401
  158TMC2    O1 2467   1.998   1.679  13.604  0.1493 -0.4769  0.7151
  158TMC2    O2 2468   2.432   1.952  13.330  0.1358 -0.5061  0.2447
  158TMC2    O5 2469   2.222   1.886  13.244  0.6579  0.4362 -0.4374
  158TMC2    H5 2470   2.156   1.821  13.275 -0.5292  0.9632 -1.8645
  159MPD2     C 2471   2.867   1.377  13.943 -0.6031  1.1336  0.8111
  159MPD2    C1 2472   2.740   1.364  13.980 -0.3617 -0.5098 -0.3283
  159MPD2    C2 2473   2.646   1.380  13.883 -0.3586 -0.5843  0.5435
  159MPD2    C3 2474   2.667   1.416  13.753  0.5487 -0.5078 -0.5253
  159MPD2    C4 2475   2.795   1.428  13.710  0.1116  0.1985 -0.1975
  159MPD2    C5 2476   2.892   1.406  13.807 -0.8002 -0.1344 -0.2678
  159MPD2     H 2477   2.542   1.368  13.911 -0.2957  1.8045  1.7681
  159MPD2    H1 2478   2.828   1.466  13.614  0.4866 -0.8196 -0.4733
  159MPD2    H2 2479   2.950   1.363  14.012  0.5018  0.3056 -0.6909
  159MPD2    H3 2480   2.997   1.406  13.780 -1.1456 -0.9722 -1.5779
  159MPD2     N 2481   2.552   1.447  13.672  0.1689  0.2511 -0.2010
  159MPD2    H5 2482   2.466   1.401  13.702  0.4477 -0.4917 -0.5424
  159MPD2    N1 2483   2.708   1.340  14.111  0.5429  0.2166  0.4746
  159MPD2    H7 2484   2.779   1.354  14.182  0.1668  2.5997  0.3818
  160TMC2    C1 2485   2.443   0.039   1.821 -0.5539 -0.0332 -0.6051
  160TMC2    C2 2486   2.360   4.693   1.884 -0.5515  0.4469 -0.3761
  160TMC2    C3 2487   2.364   4.559   1.865  0.4109 -0.7269  0.3357
  160TMC2    C4 2488   2.523   4.722   1.725  0.2125  0.4737  0.4634
  160TMC2    C5 2489   2.536   4.584   1.715  0.1647 -0.7156 -0.0508
  160TMC2    C6 2490   2.446   4.499   1.781 -0.2547  0.5189 -0.5881
  160TMC2     C 2491   2.437   0.184   1.829  0.1264 -0.7918  0.4577
  160TMC2     O 2492   2.395   0.239   1.928  0.0678  0.2050 -0.4120
  160TMC2     H 2493   2.280   4.732   1.946  0.6757  1.3806  0.6310
  160TMC2    H1 2494   2.593   0.049   1.671  1.3472 -0.3912  0.9474
  160TMC2    H2 2495   2.458   4.391   1.784 -4.6218  0.0363 -0.5951
  160TMC2    C7 2496   2.654   4.529   1.650 -0.2361  0.1599 -0.2383
  160TMC2    C8 2497   2.245   4.494   1.911  0.3685  0.4177  0.8167
  160TMC2    O1 2498   2.650   4.408   1.633  0.2449  0.0675  0.2432
  160TMC2    O2 2499   2.203   4.501   2.025 -0.2564 -0.3267 -0.3236
  160TMC2    O5 2500   2.179   4.439   1.813  0.3125 -0.0887 -0.7826
  160TMC2    H5 2501   2.220   4.414   1.728 -1.9966  0.0967 -1.9651
  161MPD2     C 2502   2.405   0.468   1.765  0.6122  0.0337 -0.3669
  161MPD2    C1 2503   2.450   0.372   1.675 -0.5997 -0.0546 -0.7953
  161MPD2    C2 2504   2.489   0.423   1.545 -0.2570  0.5511 -0.1201
  161MPD2    C3 2505   2.484   0.561   1.523 -0.8757  0.7757  0.2545
  161MPD2    C4 2506   2.450   0.650   1.622 -0.0648 -0.2579  0.7207
  161MPD2    C5 2507   2.411   0.603   1.745 -0.4849  0.1307 -0.1185
  161MPD2     H 2508   2.514   0.349   1.469 -1.1947  0.6573 -0.5393
  161MPD2    H1 2509   2.437   0.755   1.602  0.7025 -0.2886  0.1070
  161MPD2    H2 2510   2.367   0.437   1.861  0.1487 -1.7542 -1.1303
  161MPD2    H3 2511   2.376   0.673   1.820  1.0887  0.5542  0.2144
  161MPD2     N 2512   2.515   0.612   1.390  0.1327 -0.5891 -0.7444
  161MPD2    H5 2513   2.506   0.712   1.377 -0.2903 -0.5162  0.1507
  161MPD2    N1 2514   2.453   0.236   1.699 -0.1554 -0.3802  0.0894
  161MPD2    H7 2515   2.495   0.172   1.632  0.4639  0.7972 -0.6408
  162TMC2    C1 2516   0.700   1.776   1.469 -0.1085 -0.1299  0.0347
  162TMC2    C2 2517   0.662   1.837   1.582 -0.2292 -0.2262 -0.2534
  162TMC2    C3 2518   0.629   1.759   1.690  0.0094 -0.2800 -0.1433
  162TMC2    C4 2519   0.729   1.641   1.459 -0.2477 -0.3965 -0.0190
  162TMC2    C5 2520   0.717   1.568   1.571 -0.2427 -0.2524  0.2164
  162TMC2    C6 2521   0.667   1.624   1.685  0.6111 -0.8274 -0.1978
  162TMC2     C 2522   0.710   1.859   1.346 -0.1287  0.1964 -0.4619
  162TMC2     O 2523   0.645   1.962   1.336 -0.0509 -0.5174  0.2483
  162TMC2     H 2524   0.651   1.945   1.579 -1.3863 -0.3176  0.9558
  162TMC2    H1 2525   0.757   1.595   1.365  0.6648  1.2857 -0.5816
  162TMC2    H2 2526   0.654   1.564   1.775 -0.2308  0.0294  0.2502
  162TMC2    C7 2527   0.755   1.425   1.570  0.1591  0.0382  0.2052
  162TMC2    C8 2528   0.589   1.815   1.818 -0.0571 -0.9877  0.0131
  162TMC2    O1 2529   0.678   1.345   1.626  0.8098  0.0090 -0.6199
  162TMC2    O2 2530   0.578   1.759   1.925  0.1719 -0.5373 -0.6993
  162TMC2    O5 2531   0.522   1.930   1.789  0.1293 -0.2058  0.1580
  162TMC2    H5 2532   0.511   1.946   1.693 -0.0242  0.9770  0.3718
  163MPD2     C 2533   0.774   1.919   0.849 -0.7051  0.1171  0.3168
  163MPD2    C1 2534   0.809   1.789   0.879 -0.5546 -0.0043  1.2959
  163MPD2    C2 2535   0.818   1.758   1.018 -0.0724  0.2190 -0.1248
  163MPD2    C3 2536   0.794   1.851   1.115  0.0157  0.0641  0.1497
  163MPD2    C4 2537   0.758   1.985   1.080 -0.1162 -0.1443 -0.2166
  163MPD2    C5 2538   0.740   2.013   0.945 -0.7921  0.4286  0.7067
  163MPD2     H 2539   0.836   1.655   1.047  2.1170  1.0111  1.3417
  163MPD2    H1 2540   0.725   2.067   1.142  2.5765  2.3278 -2.0700
  163MPD2    H2 2541   0.757   1.954   0.748  1.0525 -0.3217 -0.1337
  163MPD2    H3 2542   0.720   2.114   0.910  1.5351  0.7691  0.2976
  163MPD2     N 2543   0.787   1.800   1.244 -0.5122  0.0284 -0.2252
  163MPD2    H5 2544   0.830   1.710   1.263 -0.1284 -0.4895 -3.5620
  163MPD2    N1 2545   0.829   1.698   0.772 -0.4778 -0.1980 -0.4743
  163MPD2    H7 2546   0.815   1.730   0.677  1.3354 -0.6422 -0.8916
  164TMC2    C1 2547   1.451   0.973  11.339 -0.1216  0.0597  0.2050
  164TMC2    C2 2548   1.541   0.969  11.246 -0.1506 -0.4189 -0.4235
  164TMC2    C3 2549   1.552   1.074  11.160 -0.3217  0.1096 -0.0740
  164TMC2    C4 2550   1.361   1.071  11.343  0.0292  1.1149 -0.0510
  164TMC2    C5 2551   1.362   1.170  11.254 -0.2476 -0.0952  0.5100
  164TMC2    C6 2552   1.461   1.176  11.154 -0.0828 -0.6677 -0.7812
  164TMC2     C 2553   1.420   0.860  11.420  0.0295  0.1565 -0.0621
  164TMC2     O 2554   1.330   0.866  11.504 -0.7120  0.1250  0.1731
  164TMC2     H 2555   1.626   0.903  11.257 -0.2435 -0.5997 -0.8061
  164TMC2    H1 2556   1.300   1.080  11.433  0.3401 -0.7823  0.3430
  164TMC2    H2 2557   1.461   1.245  11.071 -0.7418 -0.1238 -0.3314
  164TMC2    C7 2558   1.251   1.271  11.257  0.2860  0.9342  0.0928
  164TMC2    C8 2559   1.675   1.091  11.089 -0.3076 -0.0561  0.1615
  164TMC2    O1 2560   1.174   1.279  11.353 -0.2639  0.5578 -0.2539
  164TMC2    O2 2561   1.702   1.198  11.038  0.2461  0.6737 -0.7147
  164TMC2    O5 2562   1.693   0.980  11.020 -0.2005  0.2353 -0.9043
  164TMC2    H5 2563   1.657   0.896  11.054  0.1578  0.9843  1.3387
  165TMC2    C1 2564   2.466   4.351   2.226 -0.1305  0.1164  0.1683
  165TMC2    C2 2565   2.459   4.394   2.354 -0.2507  0.3097 -0.2678
  165TMC2    C3 2566   2.530   4.505   2.391  0.0768 -0.3255 -1.0864
  165TMC2    C4 2567   2.541   4.413   2.132 -0.4496  0.0565 -0.0282
  165TMC2    C5 2568   2.613   4.520   2.171  0.5776 -0.3046 -0.6643
  165TMC2    C6 2569   2.608   4.570   2.299 -0.4883 -0.0808  0.6125
  165TMC2     C 2570   2.370   4.249   2.193 -0.0775 -0.3142  0.3354
  165TMC2     O 2571   2.291   4.197   2.277 -0.7355  0.2956 -0.1159
  165TMC2     H 2572   2.406   4.335   2.429 -0.5154  3.7994  2.2870
  165TMC2    H1 2573   2.545   4.378   2.030 -2.8354  1.3517 -0.5586
  165TMC2    H2 2574   2.666   4.657   2.330  0.6473 -0.6422  0.0677
  165TMC2    C7 2575   2.702   4.581   2.067  0.4226  0.6398 -0.3279
  165TMC2    C8 2576   2.542   4.534   2.530  0.6665 -0.4727  0.6408
  165TMC2    O1 2577   2.733   4.511   1.972  0.5086 -0.2586  0.0795
  165TMC2    O2 2578   2.645   4.572   2.585 -0.1683  0.1710 -0.2300
  165TMC2    O5 2579   2.419   4.551   2.574  0.8943  0.1196 -0.4152
  165TMC2    H5 2580   2.356   4.553   2.499 -0.7944 -1.4291  0.9832
  166MPD2     C 2581   2.098   4.032   1.815 -0.1242  0.0877  0.4379
  166MPD2    C1 2582   2.057   4.096   1.932 -0.3567 -0.5639  0.1828
  166MPD2    C2 2583   2.152   4.154   2.013  0.0894 -0.4667 -0.4134
  166MPD2    C3 2584   2.281   4.153   1.983 -0.0284 -0.2673  0.2110
  166MPD2    C4 2585   2.321   4.085   1.866  1.0918 -0.0706 -0.1034
  166MPD2    C5 2586   2.228   4.027   1.787 -0.6584 -0.3050  1.3263
  166MPD2     H 2587   2.120   4.212   2.099 -0.2155  0.1997 -0.9754
  166MPD2    H1 2588   2.424   4.078   1.832  0.5685  0.0874 -1.7210
  166MPD2    H2 2589   2.030   3.995   1.740  0.6060 -1.0851  0.3632
  166MPD2    H3 2590   2.266   3.983   1.696 -0.8014  1.0439  0.6235
  166MPD2     N 2591   2.378   4.216   2.060  0.0538 -0.0734  0.6966
  166MPD2    H5 2592   2.461   4.242   2.007  0.2554 -0.6252  0.7374
  166MPD2    N1 2593   1.921   4.106   1.961 -0.3856  0.3422 -0.4700
  166MPD2    H7 2594   1.870   4.046   1.897  0.1734 -1.5781  0.8811
  167TMC2    C1 2595   0.796   1.332  13.117 -0.4175  0.2039 -0.1917
  167TMC2    C2 2596   0.799   1.399  13.237 -0.4017 -0.7385  0.2616
  167TMC2    C3 2597   0.896   1.369  13.323  0.6986  0.0183 -0.0378
  167TMC2    C4 2598   0.892   1.232  13.089 -0.3643 -0.4357 -0.2695
  167TMC2    C5 2599   0.986   1.197  13.186 -0.1805 -0.0355  0.1653
  167TMC2    C6 2600   0.986   1.266  13.305  0.0767 -0.5156 -0.2419
  167TMC2     C 2601   0.672   1.340  13.036 -0.0782  0.3274  0.1146
  167TMC2     O 2602   0.571   1.385  13.100  0.3044 -0.6967 -0.7643
  167TMC2     H 2603   0.733   1.484  13.246  1.5253  0.9682 -1.6659
  167TMC2    H1 2604   0.884   1.185  12.992  0.4627 -2.6303  0.7271
  167TMC2    H2 2605   1.071   1.234  13.365  1.7692  1.5531 -1.5720
  167TMC2    C7 2606   1.035   1.065  13.197 -1.0092 -0.5666  0.0005
  167TMC2    C8 2607   0.864   1.374  13.468  0.7785 -0.2532 -0.0939
  167TMC2    O1 2608   1.022   1.007  13.304  0.0913 -0.5025  0.2708
  167TMC2    O2 2609   0.757   1.326  13.504  0.4042  0.6256 -0.2607
  167TMC2    O5 2610   0.987   1.360  13.522  0.0905  0.0720  0.2093
  167TMC2    H5 2611   1.056   1.416  13.481  1.4321 -0.2055  2.0736
  168MPD2     C 2612   0.456   1.282  12.845 -0.0354 -0.1389 -0.2523
  168MPD2    C1 2613   0.584   1.278  12.813  0.6323 -0.0133 -1.0901
  168MPD2    C2 2614   0.627   1.269  12.679  0.1048  0.3683  0.5491
  168MPD2    C3 2615   0.533   1.289  12.579  0.4000 -0.1630 -0.2001
  168MPD2    C4 2616   0.402   1.301  12.611  0.1848  0.6200 -0.0037
  168MPD2    C5 2617   0.367   1.291  12.742 -0.0660 -0.7468  0.3345
  168MPD2     H 2618   0.732   1.285  12.656 -0.4283  2.1796 -0.6374
  168MPD2    H1 2619   0.329   1.312  12.531  2.3005  1.5444 -1.7965
  168MPD2    H2 2620   0.424   1.271  12.948  3.8180  0.7501  1.0499
  168MPD2    H3 2621   0.266   1.311  12.776 -0.5380 -2.7132  0.0578
  168MPD2     N 2622   0.560   1.305  12.442 -0.3478 -0.5717 -0.2526
  168MPD2    H5 2623   0.487   1.345  12.385  0.4275  0.9142 -0.1931
  168MPD2    N1 2624   0.689   1.288  12.911 -0.2508 -0.3660 -0.8785
  168MPD2    H7 2625   0.782   1.276  12.873  0.7573  1.1678  1.1173
  169MPD1     C 2626   4.095   0.385   8.891  0.4279  0.5804 -0.0526
  169MPD1    C1 2627   4.153   0.390   9.015 -0.6155 -0.3306  0.7315
  169MPD1    C2 2628   4.070   0.437   9.112 -0.6232  0.0152  0.3359
  169MPD1    C3 2629   3.933   0.457   9.088  0.0558 -0.2372 -0.9981
  169MPD1    C4 2630   3.881   0.449   8.965 -0.0212 -0.2318 -0.3106
  169MPD1    C5 2631   3.964   0.417   8.860 -0.1603 -0.1631 -0.1353
  169MPD1     H 2632   4.112   0.452   9.211 -1.6802  1.2427  0.5933
  169MPD1    H1 2633   3.775   0.453   8.943  0.3760 -0.9322 -2.3881
  169MPD1    H2 2634   4.148   0.349   8.804  1.4033  1.1128  0.3274
  169MPD1    H3 2635   3.925   0.415   8.759  1.1694 -2.2928 -0.6200
  169MPD1     N 2636   3.856   0.472   9.204  0.1534  0.0672 -0.5228
  169MPD1    H5 2637   3.907   0.447   9.287  0.6345 -0.6072 -1.0217
  169MPD1    N1 2638   4.293   0.368   9.033 -0.8440  0.0027  0.6480
  169MPD1    H6 2639   4.338   0.323   8.954 -1.4574  1.4932 -0.5526
  169MPD1    H7 2640   4.318   0.317   9.118  0.1015 -1.9312 -0.7903
  170MPD1     C 2641   0.741   3.543  13.573 -0.3906  0.9843  0.0729
  170MPD1    C1 2642   0.773   3.536  13.710 -0.0431 -1.0142 -0.3285
  170MPD1    C2 2643   0.855   3.636  13.765 -0.2516  0.0442 -0.3799
  170MPD1    C3 2644   0.903   3.742  13.693  0.4472  0.1749  0.0963
  170MPD1    C4 2645   0.874   3.746  13.558 -0.0160  0.2289 -0.5400
  170MPD1    C5 2646   0.783   3.657  13.504  0.5339 -0.3668  0.2923
  170MPD1     H 2647   0.889   3.624  13.868 -0.5787  1.5419 -0.0908
  170MPD1    H1 2648   0.915   3.819  13.490  1.4876  0.6826  0.8628
  170MPD1    H2 2649   0.680   3.463  13.533  1.0980 -0.6392  1.0318
  170MPD1    H3 2650   0.753   3.682  13.403 -1.4373 -1.1829  0.6698
  170MPD1     N 2651   0.993   3.833  13.750  0.2757  0.5061 -0.4430
  170MPD1    H5 2652   1.000   3.819  13.851  0.6810  1.9048 -0.2733
  170MPD1    N1 2653   0.756   3.420  13.791 -0.2581  0.7850 -0.5312
  170MPD1    H6 2654   0.678   3.360  13.765  0.2758  0.4877 -1.4363
  170MPD1    H7 2655   0.739   3.457  13.884 -1.5261  0.6902 -0.7244
  171MPD1     C 2656   4.731   4.582  15.284 -0.1941  0.6208 -0.1045
  171MPD1    C1 2657   0.121   4.519  15.288 -0.1132  0.0766  0.5112
  171MPD1    C2 2658   0.179   4.484  15.410  0.2590 -0.0474  0.6349
  171MPD1    C3 2659   0.115   4.518  15.527  0.3960  0.8211 -0.1455
  171MPD1    C4 2660   4.727   4.580  15.518 -0.3553 -0.4395 -0.5718
  171MPD1    C5 2661   4.669   4.607  15.404  1.3678 -0.2013 -0.5548
  171MPD1     H 2662   0.270   4.424  15.409 -0.5515 -1.2575 -0.0245
  171MPD1    H1 2663   4.672   4.610  15.607  0.0603  0.1785 -0.5262
  171MPD1    H2 2664   4.692   4.613  15.188  0.7686 -0.1678 -0.7521
  171MPD1    H3 2665   4.574   4.660  15.407  2.9399  2.5993  0.5504
  171MPD1     N 2666   0.160   4.472  15.646  0.1740  0.5357 -0.0226
  171MPD1    H5 2667   0.092   4.470  15.721 -2.3779 -1.7460 -2.4067
  171MPD1    N1 2668   0.159   4.454  15.166 -0.3737 -0.4075 -0.4567
  171MPD1    H6 2669   0.126   4.500  15.082 -2.1992 -0.2590  0.3361
  171MPD1    H7 2670   0.260   4.451  15.151 -0.7037  0.6077 -2.8314
  172MPD1     C 2671   4.400   3.893   0.013 -0.3287  0.6191  0.0535
  172MPD1    C1 2672   4.484   3.825   0.102 -0.4485  0.1775  0.4443
  172MPD1    C2 2673   4.503   3.874   0.229  0.9016 -0.3081  0.5378
  172MPD1    C3 2674   4.469   3.998   0.261 -0.4992 -0.3211  0.6164
  172MPD1    C4 2675   4.401   4.072   0.172 -0.4049 -0.2480 -0.3370
  172MPD1    C5 2676   4.374   4.024   0.045 -0.0898  0.6863  0.5156
  172MPD1     H 2677   4.567   3.817   0.295 -0.9977 -1.7584  1.1142
  172MPD1    H1 2678   4.365   4.173   0.183  1.3169  0.1433  1.7000
  172MPD1    H2 2679   4.377   3.852  17.654  0.4914 -1.6833  0.8352
  172MPD1    H3 2680   4.323   4.083  17.710  0.5712 -0.1769 -0.6285
  172MPD1     N 2681   4.498   4.052   0.391  0.3021  0.1188 -0.3010
  172MPD1    H5 2682   4.471   4.150   0.399 -0.6952 -0.2605  0.8732
  172MPD1    N1 2683   4.502   3.690   0.063 -0.2152  0.5862  0.1747
  172MPD1    H6 2684   4.522   3.686  17.703  0.0646 -0.0790  0.2580
  172MPD1    H7 2685   4.579   3.637   0.102  0.8908  0.4664 -2.2184
  173MPD1     C 2686   1.157   4.282  14.115  0.5222 -0.2777  0.2865
  173MPD1    C1 2687   1.020   4.298  14.129 -0.0861 -0.5091  0.4005
  173MPD1    C2 2688   0.953   4.206  14.212 -0.0619 -0.7579  0.8566
  173MPD1    C3 2689   1.030   4.115  14.289 -0.3590 -0.5541 -0.6224
  173MPD1    C4 2690   1.166   4.112  14.271 -0.6433  0.4458  0.5826
  173MPD1    C5 2691   1.231   4.193  14.182  0.2688 -0.7441 -0.5116
  173MPD1     H 2692   0.847   4.213  14.232 -0.2431 -1.2406  0.0437
  173MPD1    H1 2693   1.221   4.049  14.340 -0.3142 -0.4326 -0.4706
  173MPD1    H2 2694   1.218   4.338  14.044 -0.3444 -0.2859 -0.4522
  173MPD1    H3 2695   1.337   4.178  14.169  0.5614  0.3284  0.6627
  173MPD1     N 2696   0.967   4.028  14.384  0.0872  0.7632 -0.8591
  173MPD1    H5 2697   0.873   4.055  14.412  1.0235  2.9949  0.0685
  173MPD1    N1 2698   0.948   4.376  14.033 -0.1600  0.2536  0.4717
  173MPD1    H6 2699   0.995   4.465  14.015  2.9669 -1.3349  0.6577
  173MPD1    H7 2700   0.855   4.400  14.065  0.2540  2.2119  0.2469
  174MPD1     C 2701   1.546   3.422  14.738 -0.0511 -0.5890  0.2891
  174MPD1    C1 2702   1.443   3.391  14.820 -0.6150  0.0116 -0.1100
  174MPD1    C2 2703   1.317   3.456  14.805 -0.5965  0.5417 -0.0730
  174MPD1    C3 2704   1.287   3.523  14.681 -0.3254 -0.6862 -0.2154
  174MPD1    C4 2705   1.387   3.534  14.591  0.0173  0.1605  0.4394
  174MPD1    C5 2706   1.515   3.495  14.627 -0.4466 -0.5390 -0.0268
  174MPD1     H 2707   1.233   3.446  14.872  0.0693  0.3662  0.7344
  174MPD1    H1 2708   1.368   3.600  14.507 -1.6273  0.1208  0.7777
  174MPD1    H2 2709   1.649   3.396  14.758  1.0867  3.4535 -0.5108
  174MPD1    H3 2710   1.597   3.528  14.564 -0.3007 -0.3461  0.2617
  174MPD1     N 2711   1.157   3.576  14.643  0.0164  0.0544  0.1733
  174MPD1    H5 2712   1.152   3.620  14.552 -0.9690 -0.4972 -0.0449
  174MPD1    N1 2713   1.475   3.316  14.938  0.4200 -0.4180  0.1859
  174MPD1    H6 2714   1.553   3.253  14.919  0.6329  0.6925 -2.6754
  174MPD1    H7 2715   1.395   3.258  14.964 -0.2261 -0.1228 -1.1395
  175MPD1     C 2716   4.076   4.662  15.817 -0.7057 -0.2544  0.1263
  175MPD1    C1 2717   3.939   4.669  15.853 -0.9255 -0.5516 -0.0048
  175MPD1    C2 2718   3.912   4.696  15.986 -0.2493  0.5668  0.2564
  175MPD1    C3 2719   4.012   4.700  16.084 -0.0779 -1.0781 -0.7193
  175MPD1    C4 2720   4.143   4.680  16.047  0.7102  0.2440  0.2747
  175MPD1    C5 2721   4.179   4.662  15.913  0.0138  0.0837 -0.5287
  175MPD1     H 2722   3.808   4.711  16.013 -0.3762 -0.1032  0.1329
  175MPD1    H1 2723   4.229   4.678  16.113 -0.3202  0.4541  1.6146
  175MPD1    H2 2724   4.100   4.660  15.712  0.6882 -2.8794  0.4783
  175MPD1    H3 2725   4.282   4.657  15.880  0.4213  1.0964  0.6116
  175MPD1     N 2726   3.993   4.731  16.224 -0.8138  0.1167  0.4043
  175MPD1    H5 2727   4.082   0.000  16.273 -0.4417  0.5551 -0.3038
  175MPD1    N1 2728   3.845   4.660  15.751 -0.4549 -0.0859 -0.5153
  175MPD1    H6 2729   3.884   4.599  15.679  0.4935  0.0391 -0.1119
  175MPD1    H7 2730   3.750   4.636  15.777 -0.5794  0.4646 -0.4730
  176MPD1     C 2731   0.595   2.402   0.542  0.0312  0.2318  0.4475
  176MPD1    C1 2732   0.569   2.429   0.405  0.1657 -0.2156  0.0003
  176MPD1    C2 2733   0.655   2.521   0.343  0.0322  0.0852  0.2876
  176MPD1    C3 2734   0.754   2.596   0.411  1.2524  0.7508 -0.0361
  176MPD1    C4 2735   0.769   2.573   0.550  0.7606 -1.0596 -0.2281
  176MPD1    C5 2736   0.686   2.481   0.612  0.4533  0.0058  0.0680
  176MPD1     H 2737   0.655   2.540   0.237  0.6721  0.5256  0.3626
  176MPD1    H1 2738   0.833   2.638   0.609  2.1796 -1.1907 -1.6214
  176MPD1    H2 2739   0.542   2.331   0.605  2.4540 -1.9910 -0.0094
  176MPD1    H3 2740   0.695   2.466   0.719 -0.7261 -1.8115 -0.0746
  176MPD1     N 2741   0.824   2.693   0.333 -0.0666  0.5416 -0.1207
  176MPD1    H5 2742   0.814   2.698   0.232  2.6772  0.5312 -0.3919
  176MPD1    N1 2743   0.475   2.350   0.339  0.3838 -0.3413 -0.3376
  176MPD1    H6 2744   0.423   2.405   0.272  0.0357  1.9794  1.8127
  176MPD1    H7 2745   0.402   2.313   0.400 -0.1880  0.9522 -0.2562
  177MPD1     C 2746   3.916   1.575  10.919 -0.3734  0.1960  0.0905
  177MPD1    C1 2747   4.016   1.655  10.880 -0.2681  0.3034  0.8779
  177MPD1    C2 2748   4.037   1.674  10.746 -0.4719 -0.4980  0.2899
  177MPD1    C3 2749   3.953   1.608  10.653 -0.1142 -0.2652  0.1099
  177MPD1    C4 2750   3.851   1.531  10.701 -0.7755  0.2530 -0.7227
  177MPD1    C5 2751   3.833   1.517  10.833 -0.1288 -0.7133 -0.8592
  177MPD1     H 2752   4.118   1.731  10.704  0.3424 -0.1455  2.3319
  177MPD1    H1 2753   3.779   1.474  10.643 -0.3944 -0.8040 -0.1651
  177MPD1    H2 2754   3.885   1.562  11.022 -0.3462  0.1062  0.0869
  177MPD1    H3 2755   3.744   1.466  10.868 -0.2336  0.8654  1.2024
  177MPD1     N 2756   3.983   1.623  10.518 -0.6644  0.4872  0.4016
  177MPD1    H5 2757   4.078   1.656  10.500 -0.9638  1.0649 -0.1502
  177MPD1    N1 2758   4.107   1.710  10.978 -0.0394  0.1051  0.0605
  177MPD1    H6 2759   4.160   1.792  10.947  0.1736 -0.5164 -1.2118
  177MPD1    H7 2760   4.061   1.736  11.065  2.2616 -0.7066  1.5032
  178MPD1     C 2761   1.150   2.583   0.578 -0.3392 -0.6811  0.3156
  178MPD1    C1 2762   1.247   2.684   0.578 -0.0962  0.3753  0.2201
  178MPD1    C2 2763   1.313   2.713   0.467 -0.7601  0.4969 -0.4551
  178MPD1    C3 2764   1.287   2.651   0.349 -0.9858  0.1047 -0.1263
  178MPD1    C4 2765   1.183   2.565   0.344 -0.2267 -0.7925  0.1769
  178MPD1    C5 2766   1.111   2.529   0.456 -0.1069  0.5239 -0.2163
  178MPD1     H 2767   1.383   2.796   0.460  1.4179 -1.2630  0.6186
  178MPD1    H1 2768   1.160   2.509   0.254 -2.4537  0.1710  0.1646
  178MPD1    H2 2769   1.097   2.547   0.665 -0.3800  2.6577  1.6703
  178MPD1    H3 2770   1.031   2.456   0.447 -1.0094  1.4657  0.2590
  178MPD1     N 2771   1.348   2.677   0.221  0.2733  0.2497 -0.2255
  178MPD1    H5 2772   1.321   2.615   0.145  0.5064  0.3461 -0.3874
  178MPD1    N1 2773   1.269   2.759   0.693  0.0759 -0.3440  0.3095
  178MPD1    H6 2774   1.325   2.843   0.678 -1.8517  1.1161  1.2867
  178MPD1    H7 2775   1.189   2.800   0.741  1.3049 -0.6725  2.6198
  179MPD1     C 2776   0.782   1.524  16.026 -0.2009  0.2427  0.1796
  179MPD1    C1 2777   0.897   1.455  16.061 -0.3862  0.2207 -0.0110
  179MPD1    C2 2778   0.901   1.321  16.106  0.8890  0.2390  0.6568
  179MPD1    C3 2779   0.781   1.252  16.107  0.4707  0.7760 -1.7787
  179MPD1    C4 2780   0.668   1.320  16.069 -0.0083 -0.0909 -0.3862
  179MPD1    C5 2781   0.663   1.450  16.032  0.0910  0.4028  0.2295
  179MPD1     H 2782   0.992   1.273  16.140 -0.0299 -3.0083 -1.4442
  179MPD1    H1 2783   0.576   1.267  16.090 -0.7729  1.0947 -0.7168
  179MPD1    H2 2784   0.783   1.627  15.994  1.7404 -0.1811 -1.1322
  179MPD1    H3 2785   0.574   1.502  16.000 -0.8571 -3.2572 -3.0335
  179MPD1     N 2786   0.764   1.115  16.142  0.0437 -0.4317 -0.7050
  179MPD1    H5 2787   0.670   1.077  16.146  0.1886 -0.6213  0.9022
  179MPD1    N1 2788   1.020   1.527  16.053 -0.7423 -0.1534  0.4472
  179MPD1    H6 2789   1.032   1.619  16.011  2.3348  0.2266  2.1608
  179MPD1    H7 2790   1.104   1.471  16.061 -0.4764  0.3111  0.9040
  180MPD1     C 2791   1.059   2.536  15.695 -0.2999 -0.2948  0.3887
  180MPD1    C1 2792   1.186   2.554  15.640 -0.1866  0.0824  0.1676
  180MPD1    C2 2793   1.206   2.505  15.505  0.0120  0.1706  0.7120
  180MPD1    C3 2794   1.099   2.473  15.425  0.2523 -0.7959  0.7928
  180MPD1    C4 2795   0.980   2.453  15.489  0.4246 -0.9145 -0.5269
  180MPD1    C5 2796   0.963   2.477  15.623 -0.1224  0.5107 -0.3494
  180MPD1     H 2797   1.303   2.521  15.459  0.5213 -0.6703  1.4971
  180MPD1    H1 2798   0.894   2.414  15.437 -0.0672 -0.2628 -0.2027
  180MPD1    H2 2799   1.044   2.560  15.800 -2.9186 -3.2325  0.6960
  180MPD1    H3 2800   0.862   2.462  15.660 -0.4342  1.5566 -0.7540
  180MPD1     N 2801   1.106   2.472  15.282  0.0007  0.2031 -0.2044
  180MPD1    H5 2802   1.193   2.494  15.234  0.6323  0.5979  1.1331
  180MPD1    N1 2803   1.289   2.598  15.725 -0.3429  0.1745 -0.3388
  180MPD1    H6 2804   1.363   2.627  15.661 -0.0215 -0.9623 -0.4840
  180MPD1    H7 2805   1.263   2.682  15.777  0.5532 -0.4385  1.1068
  181MPD1     C 2806   1.935   3.682  10.864 -0.2331 -0.4133  0.7212
  181MPD1    C1 2807   2.032   3.726  10.944  0.2088  0.0692  0.7154
  181MPD1    C2 2808   2.153   3.768  10.888 -0.0872  0.9461  0.4134
  181MPD1    C3 2809   2.165   3.762  10.747 -0.5634 -0.0488  0.6372
  181MPD1    C4 2810   2.053   3.720  10.668 -0.3664  0.0309 -0.1061
  181MPD1    C5 2811   1.940   3.677  10.731 -0.0732 -0.4989  0.1874
  181MPD1     H 2812   2.233   3.786  10.959 -0.1623  1.2653  0.4155
  181MPD1    H1 2813   2.060   3.728  10.560  1.7692 -2.5030 -0.1464
  181MPD1    H2 2814   1.849   3.635  10.910 -1.2935  2.6724  1.8946
  181MPD1    H3 2815   1.851   3.647  10.676 -0.3499  1.1138 -0.2445
  181MPD1     N 2816   2.284   3.811  10.684  0.4740 -0.0311  0.1510
  181MPD1    H5 2817   2.298   3.793  10.585 -0.8090 -1.3566  0.1991
  181MPD1    N1 2818   2.034   3.684  11.076  0.0835  0.0581  0.1664
  181MPD1    H6 2819   1.940   3.705  11.109 -0.1961 -3.1352  1.4030
  181MPD1    H7 2820   2.107   3.733  11.127  0.5901  0.5015 -0.9929
  182MPD1     C 2821   4.672   3.823   2.135  0.1521 -0.1002 -0.3445
  182MPD1    C1 2822   4.639   3.711   2.064  0.3719 -0.0626  0.4544
  182MPD1    C2 2823   4.502   3.687   2.062 -0.6666 -0.2668 -0.0576
  182MPD1    C3 2824   4.407   3.784   2.094  0.1486  0.3422  0.4428
  182MPD1    C4 2825   4.442   3.899   2.147  0.0539 -0.8685  0.8806
  182MPD1    C5 2826   4.574   3.912   2.172 -0.5935  0.3884 -0.5357
  182MPD1     H 2827   4.481   3.591   2.017  2.6773 -1.7614  1.5684
  182MPD1    H1 2828   4.376   3.980   2.178  1.0379  0.8419 -1.4724
  182MPD1    H2 2829   0.044   3.834   2.154  0.0468  2.3979 -1.2991
  182MPD1    H3 2830   4.599   4.007   2.218 -2.4697  1.4408 -1.6554
  182MPD1     N 2831   4.269   3.772   2.060  0.0933 -0.4319 -0.6597
  182MPD1    H5 2832   4.207   3.848   2.087  0.8383  0.8982 -2.7089
  182MPD1    N1 2833   4.732   3.602   2.053 -0.0735  0.6042  0.0411
  182MPD1    H6 2834   0.093   3.634   2.043  0.7645 -2.0665 -0.6546
  182MPD1    H7 2835   4.699   3.535   1.984 -0.2594  0.9100 -0.1683
  183MPD1     C 2836   4.424   4.274   9.930 -0.4774 -0.5458 -0.2385
  183MPD1    C1 2837   4.397   4.158   9.864  0.5227  0.1115 -1.2017
  183MPD1    C2 2838   4.263   4.117   9.862 -0.1567  0.5837  0.6902
  183MPD1    C3 2839   4.159   4.193   9.918  0.3586 -0.2299 -0.0703
  183MPD1    C4 2840   4.190   4.318   9.972 -0.1176  0.4978  0.0478
  183MPD1    C5 2841   4.321   4.349   9.978 -0.3228  0.7507  0.0658
  183MPD1     H 2842   4.249   4.022   9.812  2.0217  2.1014 -2.8209
  183MPD1    H1 2843   4.112   4.382  10.012 -0.1974  0.5483 -0.1886
  183MPD1    H2 2844   4.526   4.298   9.958 -0.6895  0.6558 -0.4975
  183MPD1    H3 2845   4.349   4.445  10.019 -1.0326 -0.1344  2.6402
  183MPD1     N 2846   4.027   4.141   9.904 -0.3634  0.1294  0.2468
  183MPD1    H5 2847   4.016   4.050   9.859  0.4369  0.8482 -1.3944
  183MPD1    N1 2848   4.501   4.061   9.840 -0.1158 -0.3636 -0.2627
  183MPD1    H6 2849   4.478   3.989   9.772  3.8835  0.6257 -2.6480
  183MPD1    H7 2850   4.579   4.109   9.797 -0.4592  0.3745 -0.0550
  184MPD1     C 2851   3.023   0.953   9.381  0.2715  0.3771  0.1629
  184MPD1    C1 2852   3.045   1.019   9.500  0.5163 -0.1772 -0.1911
  184MPD1    C2 2853   3.155   1.096   9.519 -0.2732  0.2872  0.5253
  184MPD1    C3 2854   3.256   1.101   9.425 -0.5038 -0.0690 -0.2263
  184MPD1    C4 2855   3.241   1.023   9.311  0.2599  0.7057  0.1995
  184MPD1    C5 2856   3.125   0.957   9.290  0.1534 -0.1847  0.5489
  184MPD1     H 2857   3.161   1.151   9.612  1.8488 -0.6681  0.9636
  184MPD1    H1 2858   3.318   1.018   9.235 -0.6020 -0.5022 -0.5968
  184MPD1    H2 2859   2.930   0.902   9.357 -0.6137  1.9852  0.2031
  184MPD1    H3 2860   3.109   0.901   9.199  0.8270 -1.2760  1.1157
  184MPD1     N 2861   3.380   1.173   9.444  0.1535 -0.0689  0.1943
  184MPD1    H5 2862   3.444   1.175   9.365  0.9105 -0.7347  0.8004
  184MPD1    N1 2863   2.931   1.044   9.582 -0.1688 -0.7028  0.2955
  184MPD1    H6 2864   2.854   0.982   9.559  0.1673 -0.4121 -1.6498
  184MPD1    H7 2865   2.958   1.024   9.678 -0.5862 -1.1018  0.3280
  185MPD1     C 2866   4.060   0.784   9.143  0.8603 -0.5121  0.2106
  185MPD1    C1 2867   4.120   0.863   9.244  0.5367 -0.3397  0.8406
  185MPD1    C2 2868   4.048   0.969   9.298 -0.0666 -0.0036  0.0898
  185MPD1    C3 2869   3.914   0.991   9.266 -0.8644  0.8214 -0.6072
  185MPD1    C4 2870   3.856   0.902   9.172 -0.0050 -0.4974  0.5518
  185MPD1    C5 2871   3.933   0.807   9.104  0.0487  0.0812 -0.4049
  185MPD1     H 2872   4.097   1.037   9.368 -0.4002  0.3501 -0.0158
  185MPD1    H1 2873   3.752   0.912   9.145 -0.2142  0.7459  1.8543
  185MPD1    H2 2874   4.109   0.707   9.084  0.8370 -0.5144  0.1944
  185MPD1    H3 2875   3.879   0.746   9.032  2.3441 -1.5483 -0.7482
  185MPD1     N 2876   3.837   1.096   9.308  0.0300 -0.4761  0.3141
  185MPD1    H5 2877   3.741   1.075   9.282  0.4710 -0.8354 -1.0206
  185MPD1    N1 2878   4.260   0.850   9.272  0.2932 -0.2506 -0.6048
  185MPD1    H6 2879   4.282   0.851   9.371 -2.0161  0.7541 -0.1143
  185MPD1    H7 2880   4.290   0.757   9.242  0.3538 -0.7824  1.1130
  186MPD1     C 2881   2.180   1.001  15.909 -0.2756 -0.5251 -0.0258
  186MPD1    C1 2882   2.064   0.964  15.971 -0.3985 -0.8391  0.4782
  186MPD1    C2 2883   2.011   1.054  16.056 -0.3268  0.2031 -0.0295
  186MPD1    C3 2884   2.054   1.182  16.061  0.5110 -0.5237 -0.3538
  186MPD1    C4 2885   2.161   1.226  15.986  0.3015  0.0993 -0.2843
  186MPD1    C5 2886   2.229   1.127  15.918  0.2213  0.1483 -1.8772
  186MPD1     H 2887   1.938   1.012  16.124 -0.2928 -0.1943 -0.2398
  186MPD1    H1 2888   2.191   1.330  15.974 -1.7051  0.4589 -2.3385
  186MPD1    H2 2889   2.240   0.923  15.865  1.4400 -0.3299  1.9794
  186MPD1    H3 2890   2.324   1.141  15.868  2.0409 -1.5536  1.0568
  186MPD1     N 2891   1.991   1.273  16.153  0.0079 -0.0004 -0.3932
  186MPD1    H5 2892   2.019   1.370  16.147 -2.1777  0.7395  1.4588
  186MPD1    N1 2893   2.022   0.833  15.968  0.5546  0.2336  0.3707
  186MPD1    H6 2894   1.921   0.822  15.975  0.5232  0.1866 -0.1551
  186MPD1    H7 2895   2.046   0.775  15.888 -0.9144 -0.2488  0.2752
  187MPD1     C 2896   1.632   3.460   0.102 -0.3091 -0.2542  0.2379
  187MPD1    C1 2897   1.532   3.359   0.112  0.0976  0.3833 -0.4962
  187MPD1    C2 2898   1.421   3.362   0.026 -0.0820  0.3711 -0.0544
  187MPD1    C3 2899   1.401   3.479  17.692 -0.4032 -0.1877 -0.7570
  187MPD1    C4 2900   1.483   3.586  17.698  0.4170 -0.1622 -0.2495
  187MPD1    C5 2901   1.596   3.572   0.030  0.3431  0.1405  0.2804
  187MPD1     H 2902   1.349   3.281   0.023 -1.0316  1.2199  0.0315
  187MPD1    H1 2903   1.461   3.668  17.631 -1.3169 -0.1670  0.3124
  187MPD1    H2 2904   1.733   3.445   0.140  0.3664 -1.4918 -2.0370
  187MPD1    H3 2905   1.667   3.653   0.015 -1.5001  1.3268 -2.0125
  187MPD1     N 2906   1.297   3.487  17.589 -0.5628  0.6255  0.4842
  187MPD1    H5 2907   1.311   3.562  17.523 -0.9601  0.1054 -0.1968
  187MPD1    N1 2908   1.566   3.250   0.189  0.3043 -0.3310  0.6382
  187MPD1    H6 2909   1.612   3.289   0.271  0.9978  0.2725 -0.0454
  187MPD1    H7 2910   1.483   3.211   0.234  0.2466  1.1923  1.8563
  188MPD1     C 2911   0.684   3.084  11.070 -0.9818 -0.1938  0.6455
  188MPD1    C1 2912   0.702   2.956  11.105 -0.4845  0.5013 -0.5254
  188MPD1    C2 2913   0.713   2.861  11.009 -0.2824 -0.2042  0.0729
  188MPD1    C3 2914   0.672   2.904  10.876  0.7001  0.1954  0.4685
  188MPD1    C4 2915   0.642   3.034  10.846 -0.0273 -0.3374 -0.8003
  188MPD1    C5 2916   0.670   3.124  10.941  0.0387 -0.5788  0.2846
  188MPD1     H 2917   0.726   2.756  11.033  0.5257 -0.4712 -1.5590
  188MPD1    H1 2918   0.628   3.067  10.744  0.1120  0.7709 -0.4726
  188MPD1    H2 2919   0.690   3.158  11.149 -2.5646  1.0692 -0.4175
  188MPD1    H3 2920   0.660   3.231  10.926 -0.7366 -0.8849 -1.3422
  188MPD1     N 2921   0.650   2.808  10.773 -0.1751  0.0230 -0.8255
  188MPD1    H5 2922   0.614   2.842  10.684  1.7775  0.3058 -1.5097
  188MPD1    N1 2923   0.715   2.911  11.240 -0.2921  0.1664  0.6449
  188MPD1    H6 2924   0.777   2.831  11.256 -0.2262  0.3109  1.1179
  188MPD1    H7 2925   0.742   2.984  11.305 -0.0103 -0.5395  1.3241
  189MPD1     C 2926   3.117   3.773   0.950  0.6481  0.0688  0.3783
  189MPD1    C1 2927   3.136   3.726   0.822 -0.7209 -0.2948  0.1482
  189MPD1    C2 2928   3.078   3.795   0.716  0.1063 -0.3077 -1.2066
  189MPD1    C3 2929   2.992   3.902   0.741 -0.5925  0.3482 -0.0469
  189MPD1    C4 2930   2.966   3.945   0.869 -0.1410 -0.1783  0.1794
  189MPD1    C5 2931   3.032   3.880   0.968  0.1548 -0.1885 -0.4318
  189MPD1     H 2932   3.098   3.768   0.613 -1.1258 -1.4337 -1.1621
  189MPD1    H1 2933   2.907   4.035   0.881 -0.4802 -0.5476  1.2879
  189MPD1    H2 2934   3.158   3.726   1.039 -0.8686 -0.1767  0.9458
  189MPD1    H3 2935   3.013   3.911   1.070  1.6652  1.0467 -0.5040
  189MPD1     N 2936   2.942   3.970   0.629  0.6805  0.7725  0.2517
  189MPD1    H5 2937   2.960   3.934   0.536 -1.4685 -1.3543  0.6684
  189MPD1    N1 2938   3.238   3.631   0.805  0.0420 -0.0043  0.0691
  189MPD1    H6 2939   3.217   3.579   0.719 -1.4528  2.2196 -0.9063
  189MPD1    H7 2940   3.238   3.570   0.887  0.4515 -1.1645 -0.7825
  190MPD1     C 2941   0.612   2.182  15.549  0.2067  0.3445 -0.0784
  190MPD1    C1 2942   0.653   2.237  15.669  0.3029 -0.9434 -0.3807
  190MPD1    C2 2943   0.778   2.194  15.708  0.1328  0.2935 -0.6576
  190MPD1    C3 2944   0.876   2.137  15.622 -0.3479  0.1268 -0.6636
  190MPD1    C4 2945   0.824   2.081  15.504  0.1782  0.2844  0.0242
  190MPD1    C5 2946   0.692   2.108  15.468 -0.5363  0.2129  1.0252
  190MPD1     H 2947   0.808   2.224  15.808 -2.3230 -1.6805  0.6916
  190MPD1    H1 2948   0.885   2.027  15.432  1.2028 -0.6548  1.6129
  190MPD1    H2 2949   0.512   2.214  15.522 -0.4079 -1.2512  0.3155
  190MPD1    H3 2950   0.658   2.056  15.380  3.8829 -1.0071  0.0311
  190MPD1     N 2951   1.009   2.126  15.669  0.2104  0.3953  0.7076
  190MPD1    H5 2952   1.031   2.157  15.763  0.4247 -0.7007  1.0177
  190MPD1    N1 2953   0.565   2.304  15.753  0.3793 -0.0484 -0.2572
  190MPD1    H6 2954   0.613   2.347  15.832  0.0054 -2.5835  1.3504
  190MPD1    H7 2955   0.511   2.375  15.703 -1.0507 -0.9478  0.0098
  191MPD1     C 2956   0.677   3.952  13.283 -0.8753 -0.2942 -0.2576
  191MPD1    C1 2957   0.564   3.919  13.218 -0.3211  0.3721 -0.2604
  191MPD1    C2 2958   0.566   3.945  13.081  0.0897  0.6074 -0.1708
  191MPD1    C3 2959   0.678   3.981  13.011  0.0231 -0.4214 -0.3577
  191MPD1    C4 2960   0.798   3.987  13.080 -0.3371  0.0298  0.1016
  191MPD1    C5 2961   0.795   3.987  13.219  1.2688  0.2500  0.6972
  191MPD1     H 2962   0.472   3.932  13.028 -0.4668 -1.5144  1.3255
  191MPD1    H1 2963   0.894   4.006  13.033  1.6852 -0.6450  3.9799
  191MPD1    H2 2964   0.686   3.959  13.391 -1.2947 -4.3820  0.0362
  191MPD1    H3 2965   0.879   4.010  13.284  2.9675 -0.9494 -1.0904
  191MPD1     N 2966   0.675   3.982  12.868 -0.4890  0.5540  0.1622
  191MPD1    H5 2967   0.766   3.982  12.824 -0.3925 -0.9330  0.3578
  191MPD1    N1 2968   0.449   3.895  13.287 -0.0812  0.2408 -0.1118
  191MPD1    H6 2969   0.378   3.839  13.241 -0.5731  0.8850 -0.1320
  191MPD1    H7 2970   0.468   3.860  13.381  1.7349  1.6890  0.0466
  192MPD1     C 2971   0.121   3.558  12.042 -0.5110 -0.5036  0.1781
  192MPD1    C1 2972   0.119   3.541  12.173  1.0738  0.0717 -0.2864
  192MPD1    C2 2973   0.205   3.615  12.254  0.4609  0.8759  0.3610
  192MPD1    C3 2974   0.298   3.702  12.198 -0.2399 -0.1943 -0.0306
  192MPD1    C4 2975   0.297   3.714  12.057  0.2613 -0.2946  0.4696
  192MPD1    C5 2976   0.204   3.641  11.979 -0.6262 -0.2561  0.4899
  192MPD1     H 2977   0.179   3.610  12.360  1.0051  0.7665  0.4884
  192MPD1    H1 2978   0.369   3.774  12.002  0.5681  1.0567  2.3416
  192MPD1    H2 2979   0.052   3.493  11.990  1.5560 -1.1163 -1.8208
  192MPD1    H3 2980   0.213   3.640  11.871  1.5396  0.9109  0.6506
  192MPD1     N 2981   0.386   3.788  12.258  0.7712 -0.1149 -0.5616
  192MPD1    H5 2982   0.432   3.862  12.206  1.9525  0.2754  1.0133
  192MPD1    N1 2983   0.010   3.461  12.229 -0.2598  0.0195 -0.1653
  192MPD1    H6 2984   0.039   3.416  12.315 -0.7892  0.1803  0.0982
  192MPD1    H7 2985   4.720   3.386  12.165 -0.3350 -1.3429  1.4784
  193MPD1     C 2986   4.644   4.244  17.445  0.0889 -0.5041  0.4889
  193MPD1    C1 2987   4.600   4.367  17.481 -0.5259  0.6005  0.0242
  193MPD1    C2 2988   4.686   4.470  17.468  0.4133 -0.1944 -0.2930
  193MPD1    C3 2989   0.066   4.448  17.391  0.0735  0.3136  0.2948
  193MPD1    C4 2990   0.104   4.325  17.354  0.0524  0.5711  0.0322
  193MPD1    C5 2991   0.025   4.222  17.378 -0.2073 -0.2954  0.0249
  193MPD1     H 2992   4.670   4.566  17.515  1.1631  1.1044 -2.6896
  193MPD1    H1 2993   0.192   4.304  17.293  0.2129  0.4184  0.3178
  193MPD1    H2 2994   4.580   4.157  17.454  0.1620 -0.5079  0.9768
  193MPD1    H3 2995   0.064   4.123  17.357 -0.1041 -0.7395  2.2477
  193MPD1     N 2996   0.165   4.547  17.368 -0.1042 -0.4384 -0.2262
  193MPD1    H5 2997   0.253   4.521  17.326 -0.5132 -0.3633 -1.1331
  193MPD1    N1 2998   4.485   4.380  17.564 -0.0809  0.0429 -0.4222
  193MPD1    H6 2999   4.418   4.312  17.529  0.4083  0.4586 -2.1725
  193MPD1    H7 3000   4.438   4.471  17.565 -2.3417 -1.1470  1.5147
  194MPD1     C 3001   4.647   2.210  17.726 -0.2759 -0.6007 -0.1727
  194MPD1    C1 3002   4.702   2.088  17.690  0.4535  0.7134 -0.4489
  194MPD1    C2 3003   4.614   1.983  17.668 -0.5223  0.1459 -0.0386
  194MPD1    C3 3004   4.472   1.998  17.691  0.3966  0.9916 -0.2590
  194MPD1    C4 3005   4.431   2.123   0.004  0.4378 -0.2614  0.9257
  194MPD1    C5 3006   4.516   2.227   0.021  1.0393  0.2393 -0.3423
  194MPD1     H 3007   4.646   1.891  17.621 -1.3316  0.1804 -0.6552
  194MPD1    H1 3008   4.326   2.141   0.027 -0.0708 -0.1411 -1.4445
  194MPD1    H2 3009   4.705   2.301  17.732 -2.7489  0.9950 -0.9200
  194MPD1    H3 3010   4.472   2.322   0.051  1.9602  0.4256  0.4277
  194MPD1     N 3011   4.378   1.897  17.690  0.1657  0.7771 -0.1244
  194MPD1    H5 3012   4.285   1.932  17.711  0.8199  2.1650  0.4956
  194MPD1    N1 3013   0.105   2.072  17.662  0.4754 -0.1796 -0.0005
  194MPD1    H6 3014   0.159   2.132  17.725 -0.5367  3.1349 -2.2614
  194MPD1    H7 3015   0.134   1.977  17.683  0.1433  0.1905  2.1383
  195MPD1     C 3016   0.055   4.320   0.050  0.1246 -0.0474  0.1168
  195MPD1    C1 3017   0.185   4.308  17.731 -0.1085  0.0905 -0.4099
  195MPD1    C2 3018   0.271   4.216   0.051  0.2093  0.4195 -0.3980
  195MPD1    C3 3019   0.222   4.125   0.140  0.7012  0.0214 -0.1915
  195MPD1    C4 3020   0.095   4.130   0.195 -0.2709  0.4776  0.4850
  195MPD1    C5 3021   0.017   4.225   0.146  0.7868 -0.3251  0.1539
  195MPD1     H 3022   0.372   4.210   0.012  1.0958  1.3058  1.7603
  195MPD1    H1 3023   0.071   4.050   0.264  1.1057  0.3470  0.8000
  195MPD1    H2 3024   4.729   4.407   0.028  0.3158 -0.0068 -0.2574
  195MPD1    H3 3025   4.656   4.254   0.187  0.6036  2.0208 -1.8970
  195MPD1     N 3026   0.310   4.027   0.200  0.0298  0.6435 -0.1652
  195MPD1    H5 3027   0.263   3.985   0.279  0.9099  0.1031  0.0663
  195MPD1    N1 3028   0.235   4.408  17.646  0.6550  0.7083  0.3391
  195MPD1    H6 3029   0.311   4.379  17.585  1.5072  0.2383  1.6171
  195MPD1    H7 3030   0.160   4.430  17.580 -0.3794 -1.4790  0.7766
  196MPD1     C 3031   4.265   2.914   0.587  0.1681 -0.3186 -0.5185
  196MPD1    C1 3032   4.374   2.991   0.568 -0.4420  0.8518 -0.2162
  196MPD1    C2 3033   4.452   3.025   0.672 -0.5555  0.5455  0.1126
  196MPD1    C3 3034   4.417   2.982   0.802 -0.6838  0.2843 -0.5310
  196MPD1    C4 3035   4.308   2.903   0.821  0.5681 -0.0380 -0.6028
  196MPD1    C5 3036   4.225   2.871   0.715 -0.6617  0.1770 -0.6129
  196MPD1     H 3037   4.545   3.075   0.647 -0.1194  0.0102  0.6650
  196MPD1    H1 3038   4.286   2.872   0.923 -1.3241  0.5273 -0.8287
  196MPD1    H2 3039   4.210   2.863   0.509  1.5208 -2.1817 -0.2538
  196MPD1    H3 3040   4.141   2.804   0.720 -1.1059  0.6944 -1.1234
  196MPD1     N 3041   4.504   3.019   0.911  0.5306  0.5532  0.3306
  196MPD1    H5 3042   4.480   2.974   0.999 -1.3498 -1.5462 -1.2615
  196MPD1    N1 3043   4.411   3.039   0.441 -0.2626 -0.5109  0.2901
  196MPD1    H6 3044   4.361   2.992   0.366  1.2051  0.8641 -1.5468
  196MPD1    H7 3045   4.511   3.046   0.423 -0.5228 -0.1681 -0.9911
  197MPD1     C 3046   3.798   0.826   0.105  0.1353 -0.0389  0.7101
  197MPD1    C1 3047   3.894   0.923   0.081 -0.6129  0.3109 -0.2073
  197MPD1    C2 3048   3.963   0.911  17.706  0.3564 -0.6403 -0.0557
  197MPD1    C3 3049   3.972   0.785  17.633  0.4210 -0.2742  0.4969
  197MPD1    C4 3050   3.877   0.688  17.665 -0.1675  0.3184  0.0073
  197MPD1    C5 3051   3.789   0.712   0.032  0.3404 -0.1271  0.1057
  197MPD1     H 3052   4.021   0.996  17.671 -0.2435  0.5146  1.7657
  197MPD1    H1 3053   3.890   0.587  17.629  0.4445 -0.1188  1.4580
  197MPD1    H2 3054   3.733   0.840   0.191  0.6512 -2.4195  1.4850
  197MPD1    H3 3055   3.722   0.633   0.063  1.7239 -1.1436  0.5052
  197MPD1     N 3056   4.050   0.770  17.513  0.3207  0.1352 -0.1785
  197MPD1    H5 3057   4.028   0.689  17.456  2.4788 -0.4274 -0.2119
  197MPD1    N1 3058   3.887   1.045   0.147 -0.6185 -0.3604 -0.7716
  197MPD1    H6 3059   3.971   1.101   0.137 -0.7282 -0.1907 -0.7397
  197MPD1    H7 3060   3.875   1.028   0.247 -3.2535 -0.8821 -1.1733
  198MPD1     C 3061   1.226   3.446  15.174 -0.6521 -0.1109  0.0144
  198MPD1    C1 3062   1.344   3.500  15.219 -0.3804 -0.4263 -0.3725
  198MPD1    C2 3063   1.332   3.556  15.349 -0.2262  0.0011 -0.7358
  198MPD1    C3 3064   1.219   3.553  15.426 -0.2258  0.3892  0.9505
  198MPD1    C4 3065   1.111   3.493  15.372  0.6289  0.4371  0.2158
  198MPD1    C5 3066   1.114   3.459  15.240  0.3356 -0.3348  0.0416
  198MPD1     H 3067   1.417   3.603  15.396  0.4530 -0.6509 -1.3010
  198MPD1    H1 3068   1.014   3.480  15.418  0.6068  0.3575  0.1477
  198MPD1    H2 3069   1.222   3.403  15.075  1.1377 -0.7065  0.1879
  198MPD1    H3 3070   1.025   3.416  15.197  0.4729 -2.2787  1.6823
  198MPD1     N 3071   1.220   3.611  15.554 -0.1011 -0.6280  0.8239
  198MPD1    H5 3072   1.313   3.632  15.587  0.0179 -1.6046  1.1219
  198MPD1    N1 3073   1.459   3.513  15.145 -0.4307 -0.0502  0.2562
  198MPD1    H6 3074   1.541   3.508  15.206 -0.0560  0.2266 -0.2258
  198MPD1    H7 3075   1.469   3.434  15.082 -3.2196 -1.0725  1.0928
  199MPD1     C 3076   3.178   4.097  10.441 -0.5419 -0.0686  0.4952
  199MPD1    C1 3077   3.252   4.200  10.409 -0.8381  0.3750  0.0334
  199MPD1    C2 3078   3.182   4.305  10.345 -0.7269  0.3170  0.5797
  199MPD1    C3 3079   3.052   4.296  10.295 -0.1063 -0.0158 -0.5366
  199MPD1    C4 3080   2.978   4.186  10.333  0.0325 -0.1126  0.1239
  199MPD1    C5 3081   3.047   4.084  10.397  0.1710  0.2301 -0.2352
  199MPD1     H 3082   3.232   4.400  10.330 -0.9328  0.1047 -1.3779
  199MPD1    H1 3083   2.878   4.173  10.293 -0.4474 -1.8896  1.9431
  199MPD1    H2 3084   3.217   4.012  10.496  0.1191 -0.9755 -1.3838
  199MPD1    H3 3085   3.002   3.994  10.437  1.9710  0.0588  1.3964
  199MPD1     N 3086   2.990   4.408  10.231  0.0312 -0.1156 -1.1508
  199MPD1    H5 3087   2.888   4.411  10.224  0.0935 -0.3346 -2.2970
  199MPD1    N1 3088   3.379   4.230  10.468 -0.4009 -0.4087 -0.2658
  199MPD1    H6 3089   3.434   4.290  10.407  0.8467 -2.3151 -1.0136
  199MPD1    H7 3090   3.432   4.152  10.506 -0.3462 -0.3595 -0.2411
  200MPD1     C 3091   1.675   0.393  14.749  0.3609 -0.6177  0.2399
  200MPD1    C1 3092   1.772   0.419  14.664 -0.3393 -0.1246  0.7354
  200MPD1    C2 3093   1.832   0.306  14.604 -0.1841  1.0504  0.6389
  200MPD1    C3 3094   1.791   0.176  14.612 -0.1676 -0.0768  0.6593
  200MPD1    C4 3095   1.687   0.153  14.695 -0.1786 -0.0385 -0.0937
  200MPD1    C5 3096   1.631   0.262  14.763  0.1273 -0.1264  0.7409
  200MPD1     H 3097   1.916   0.336  14.543  0.0793  1.7228  1.3313
  200MPD1    H1 3098   1.648   0.054  14.716  0.3359  0.1686  1.7976
  200MPD1    H2 3099   1.612   0.461  14.804  0.0041 -1.1236  0.4587
  200MPD1    H3 3100   1.549   0.235  14.827 -1.1455  0.8559 -0.4539
  200MPD1     N 3101   1.851   0.081  14.529  0.2331 -0.2105  0.6442
  200MPD1    H5 3102   1.944   0.101  14.495 -0.5547  0.5548 -1.1201
  200MPD1    N1 3103   1.842   0.533  14.669 -0.3164 -0.0197 -0.3230
  200MPD1    H6 3104   1.787   0.614  14.698  1.4758  1.1570 -0.1752
  200MPD1    H7 3105   1.890   0.548  14.580  2.6657  0.4645  1.3489
  201MPD1     C 3106   3.445   3.183  13.734 -0.0577  0.2779  0.1108
  201MPD1    C1 3107   3.425   3.051  13.703 -0.3140 -0.5354  0.1088
  201MPD1    C2 3108   3.539   2.969  13.690 -0.0111 -0.1197 -0.3444
  201MPD1    C3 3109   3.674   3.013  13.684 -0.1213 -0.4518 -0.3082
  201MPD1    C4 3110   3.683   3.148  13.696  0.0746 -0.3581  0.2147
  201MPD1    C5 3111   3.575   3.233  13.730 -0.3621 -0.4096  0.1497
  201MPD1     H 3112   3.520   2.866  13.662 -0.6073  0.5054 -2.2122
  201MPD1    H1 3113   3.777   3.202  13.697 -0.3512  0.4013 -2.3930
  201MPD1    H2 3114   3.367   3.251  13.767  0.6811  1.6901 -1.0542
  201MPD1    H3 3115   3.602   3.335  13.754  0.7434  0.1474 -3.5965
  201MPD1     N 3116   3.773   2.923  13.658  0.0335  0.5903  0.2785
  201MPD1    H5 3117   3.745   2.828  13.634 -2.9961  1.6112 -0.1598
  201MPD1    N1 3118   3.295   2.995  13.709 -0.0126  0.1156  0.1445
  201MPD1    H6 3119   3.281   2.904  13.666  0.0509  0.0472  0.2666
  201MPD1    H7 3120   3.216   3.059  13.701 -1.1914 -1.0604  2.4948
  202MPD1     C 3121   4.624   3.806   9.537  0.4377  0.2867 -0.4514
  202MPD1    C1 3122   4.718   3.759   9.626  0.3495 -0.5061  0.0176
  202MPD1    C2 3123   4.676   3.688   9.733  0.3275 -0.0313 -0.0002
  202MPD1    C3 3124   4.541   3.691   9.774 -0.7788  0.4114 -0.3258
  202MPD1    C4 3125   4.450   3.763   9.695 -0.6295 -0.1561 -0.1864
  202MPD1    C5 3126   4.496   3.816   9.585  0.5922  1.4020 -0.2871
  202MPD1     H 3127   0.022   3.654   9.796 -0.0133  1.0275  1.0099
  202MPD1    H1 3128   4.346   3.766   9.723 -0.9081  2.0156 -1.4267
  202MPD1    H2 3129   4.654   3.847   9.441  1.5901 -0.0830 -0.2590
  202MPD1    H3 3130   4.430   3.872   9.520  0.3320  1.0149 -0.3589
  202MPD1     N 3131   4.500   3.612   9.881  0.0165 -0.5422  0.4368
  202MPD1    H5 3132   4.401   3.628   9.897 -0.1184  1.8592 -2.7525
  202MPD1    N1 3133   0.107   3.722   9.561 -0.1374  0.2164 -0.2842
  202MPD1    H6 3134   0.181   3.708   9.630  1.5833  1.6262 -1.8377
  202MPD1    H7 3135   0.137   3.781   9.484  0.8654 -1.5737 -1.2743
  203MPD1     C 3136   2.173   3.798  12.629  0.4376 -0.0458 -0.2651
  203MPD1    C1 3137   2.262   3.755  12.531 -0.3545 -0.0352  0.7874
  203MPD1    C2 3138   2.382   3.698  12.579 -0.2600  0.0185 -0.4165
  203MPD1    C3 3139   2.403   3.682  12.714 -0.2512  0.0390  0.1265
  203MPD1    C4 3140   2.311   3.710  12.805  0.4511 -0.1061  0.1535
  203MPD1    C5 3141   2.193   3.770  12.763  0.2491 -0.2824 -0.3549
  203MPD1     H 3142   2.469   3.686  12.515  0.1845  2.2216 -0.2098
  203MPD1    H1 3143   2.315   3.685  12.910 -0.5508  0.2796  0.2898
  203MPD1    H2 3144   2.076   3.838  12.603 -0.2030 -0.6701  1.1286
  203MPD1    H3 3145   2.107   3.789  12.827 -0.7151  1.4833 -2.2010
  203MPD1     N 3146   2.527   3.621  12.743 -0.3105 -0.0726 -0.0692
  203MPD1    H5 3147   2.579   3.593  12.661 -1.2504 -0.9009 -0.3901
  203MPD1    N1 3148   2.260   3.788  12.393  0.2631  0.0726  0.3659
  203MPD1    H6 3149   2.280   3.888  12.384  0.6337 -0.2155 -1.9548
  203MPD1    H7 3150   2.350   3.759  12.354 -1.4271 -2.1549 -1.8319
  204MPD1     C 3151   2.301   0.703  17.248 -0.4540 -0.1454 -0.6324
  204MPD1    C1 3152   2.384   0.727  17.141 -0.3062  0.4364  0.6242
  204MPD1    C2 3153   2.517   0.749  17.164 -0.1821  0.1791  0.0566
  204MPD1    C3 3154   2.566   0.769  17.296 -0.5344 -0.5928 -0.2879
  204MPD1    C4 3155   2.473   0.762  17.401  0.7087  0.0592 -0.1201
  204MPD1    C5 3156   2.345   0.724  17.377  0.0649 -0.6113  0.4179
  204MPD1     H 3157   2.585   0.766  17.081  1.4917 -1.1006  1.1682
  204MPD1    H1 3158   2.501   0.777  17.504  0.3464 -0.5645  0.0700
  204MPD1    H2 3159   2.195   0.692  17.227 -0.3905  1.1483 -1.6606
  204MPD1    H3 3160   2.282   0.715  17.464 -2.2295  1.1692 -1.0580
  204MPD1     N 3161   2.707   0.775  17.312 -0.0394 -0.6085  0.1520
  204MPD1    H5 3162   2.756   0.763  17.225 -0.1792  3.4748 -0.5034
  204MPD1    N1 3163   2.343   0.707  17.005 -0.7943 -0.1506  0.4715
  204MPD1    H6 3164   2.242   0.720  17.006 -0.8424 -0.4628 -1.1908
  204MPD1    H7 3165   2.386   0.771  16.938  1.0139 -2.7079 -0.7782
  205MPD1     C 3166   3.092   4.080  17.355  0.0325 -0.1138  0.4671
  205MPD1    C1 3167   3.134   4.020  17.480  0.7820  0.9959  0.2359
  205MPD1    C2 3168   3.187   4.096  17.584 -0.0493  0.3396  0.4208
  205MPD1    C3 3169   3.194   4.231  17.571 -0.5306  0.0145  0.2851
  205MPD1    C4 3170   3.157   4.293  17.454 -0.6979  0.1576 -0.6719
  205MPD1    C5 3171   3.113   4.220  17.350  0.1128  0.5217  0.2238
  205MPD1     H 3172   3.221   4.052  17.677  3.7973  0.0254 -1.1500
  205MPD1    H1 3173   3.152   4.400  17.444  1.5017  0.3164 -0.0149
  205MPD1    H2 3174   3.063   4.024  17.267  1.2905  0.9625 -0.6220
  205MPD1    H3 3175   3.074   4.275  17.265 -0.5460 -1.5602 -0.8136
  205MPD1     N 3176   3.227   4.320  17.674  0.4061  0.1133 -0.0475
  205MPD1    H5 3177   3.238   4.414  17.637 -2.0803  0.8570  1.1181
  205MPD1    N1 3178   3.134   3.882  17.487 -0.1147  0.2399  0.0249
  205MPD1    H6 3179   3.049   3.836  17.456  0.2037 -1.6462  1.9663
  205MPD1    H7 3180   3.175   3.836  17.568  0.3794 -0.4809 -0.6303
  206MPD1     C 3181   2.650   1.621  15.660  0.5394 -0.3471 -0.2132
  206MPD1    C1 3182   2.756   1.574  15.735 -0.1910  0.6487  0.3239
  206MPD1    C2 3183   2.768   1.630  15.860  0.6443  0.6578  0.8167
  206MPD1    C3 3184   2.673   1.705  15.912 -0.3565 -0.5598 -0.4231
  206MPD1    C4 3185   2.556   1.750  15.844 -0.1120 -0.2435  0.7584
  206MPD1    C5 3186   2.554   1.709  15.713  0.3692 -0.3301 -0.2579
  206MPD1     H 3187   2.854   1.604  15.920  2.0162 -0.9288 -1.8913
  206MPD1    H1 3188   2.485   1.819  15.887  0.0944 -0.1610  0.9681
  206MPD1    H2 3189   2.632   1.602  15.555 -2.9467 -0.4514  0.4147
  206MPD1    H3 3190   2.468   1.730  15.650  1.7563 -0.5112 -2.2062
  206MPD1     N 3191   2.675   1.740  16.048 -0.1802 -0.5109  0.0855
  206MPD1    H5 3192   2.602   1.804  16.078  0.9880  0.4382  0.8856
  206MPD1    N1 3193   2.862   1.501  15.672  0.4447  0.7241 -0.3837
  206MPD1    H6 3194   2.909   1.431  15.730 -0.1069 -0.2988 -1.1886
  206MPD1    H7 3195   2.831   1.448  15.591 -0.5581 -1.8428  1.6653
  207MPD1     C 3196   0.452   4.729   9.576 -0.0990 -0.0449  0.2683
  207MPD1    C1 3197   0.351   4.648   9.617 -0.5666  0.8175  0.6505
  207MPD1    C2 3198   0.374   4.546   9.706 -0.2922  0.3417  0.4072
  207MPD1    C3 3199   0.499   4.529   9.763 -0.0927  0.3052  0.3070
  207MPD1    C4 3200   0.603   4.611   9.714  0.4735 -0.7814  0.4436
  207MPD1    C5 3201   0.577   4.703   9.614 -0.1292 -0.0635  0.3596
  207MPD1     H 3202   0.294   4.487   9.749 -2.3018  0.5183 -3.1441
  207MPD1    H1 3203   0.703   4.597   9.754  0.9712  1.9871  0.2112
  207MPD1    H2 3204   0.433   0.072   9.503 -0.9337  1.9403  2.6485
  207MPD1    H3 3205   0.652   0.040   9.583 -0.6215  0.2357 -0.1454
  207MPD1     N 3206   0.515   4.441   9.874  0.1241 -0.6516 -0.0202
  207MPD1    H5 3207   0.609   4.433   9.910  0.1053  1.6884  0.5129
  207MPD1    N1 3208   0.221   4.692   9.589  0.1404  0.7120 -0.6005
  207MPD1    H6 3209   0.150   4.620   9.596 -1.4387  2.1492 -1.7272
  207MPD1    H7 3210   0.220   4.735   9.496  0.1076  3.9371  0.8886
  208MPD1     C 3211   3.652   3.385   0.263 -0.1152 -0.0186  0.0180
  208MPD1    C1 3212   3.533   3.455   0.281 -0.2051  0.4504 -0.1293
  208MPD1    C2 3213   3.520   3.516   0.407  0.4499  0.5865  0.2561
  208MPD1    C3 3214   3.616   3.508   0.497 -0.4711  0.6914 -0.8314
  208MPD1    C4 3215   3.730   3.443   0.474 -0.4346 -0.2339 -0.2210
  208MPD1    C5 3216   3.755   3.388   0.352 -0.0006  0.6939  0.2915
  208MPD1     H 3217   3.426   3.559   0.439  0.5476  1.6798 -0.9165
  208MPD1    H1 3218   3.811   3.436   0.545 -0.6072  1.2916  0.1299
  208MPD1    H2 3219   3.660   3.329   0.170 -0.4913 -0.4288  0.2331
  208MPD1    H3 3220   3.850   3.338   0.337  0.8968  2.7356 -0.6859
  208MPD1     N 3221   3.595   3.565   0.624  0.0167  0.6800 -0.3907
  208MPD1    H5 3222   3.540   3.649   0.635  0.5271  1.0738 -0.8740
  208MPD1    N1 3223   3.420   3.422   0.200 -0.0940  0.0915 -0.6359
  208MPD1    H6 3224   3.436   3.400   0.102 -0.2443  1.2303 -0.9055
  208MPD1    H7 3225   3.352   3.497   0.201 -0.2715 -0.0628 -1.7379
  209MPD1     C 3226   3.837   3.756  11.158  0.5410 -0.2706 -0.1435
  209MPD1    C1 3227   3.876   3.632  11.122  0.2135  0.1494 -0.2830
  209MPD1    C2 3228   3.993   3.627  11.054  0.6612  0.5337  0.0846
  209MPD1    C3 3229   4.081   3.730  11.031 -0.0489  0.7150 -1.0043
  209MPD1    C4 3230   4.040   3.854  11.081 -0.3959 -0.1385 -0.2771
  209MPD1    C5 3231   3.915   3.865  11.140  0.2016  0.3026  0.1637
  209MPD1     H 3232   4.037   3.535  11.016 -0.9356  0.3364 -1.3064
  209MPD1    H1 3233   4.099   3.943  11.061 -2.7143  0.9166 -2.3663
  209MPD1    H2 3234   3.739   3.767  11.205  0.4263 -1.7373 -0.0164
  209MPD1    H3 3235   3.865   3.959  11.163 -0.5367 -0.0298 -0.0760
  209MPD1     N 3236   4.196   3.716  10.959  0.8623 -0.5185  0.2663
  209MPD1    H5 3237   4.211   3.620  10.931  1.5396 -0.1113 -0.7586
  209MPD1    N1 3238   3.793   3.519  11.136 -0.6579  0.6196  0.3511
  209MPD1    H6 3239   3.831   3.424  11.136 -0.5641  0.6579  0.3421
  209MPD1    H7 3240   3.714   3.532  11.199 -0.2472  1.7162  0.6414
  210MPD1     C 3241   0.377   3.299  11.086 -0.3863 -0.0055  0.5756
  210MPD1    C1 3242   0.312   3.400  11.152  0.6629 -0.5691 -0.4618
  210MPD1    C2 3243   0.206   3.460  11.086 -0.1431  0.1273  0.2675
  210MPD1    C3 3244   0.163   3.416  10.960  0.1771 -0.0038  0.1100
  210MPD1    C4 3245   0.238   3.319  10.903 -0.4941  0.1399  0.5740
  210MPD1    C5 3246   0.337   3.256  10.960 -0.4736  0.3696 -0.3580
  210MPD1     H 3247   0.149   3.538  11.136  0.4025 -0.1402  1.3073
  210MPD1    H1 3248   0.199   3.284  10.808  0.5964  1.2708 -0.2967
  210MPD1    H2 3249   0.467   3.251  11.122  1.5495  1.6504 -2.0684
  210MPD1    H3 3250   0.386   3.176  10.906  0.2001 -0.3437  1.3234
  210MPD1     N 3251   0.043   3.472  10.898  0.1350 -0.4003  0.0951
  210MPD1    H5 3252   0.042   3.462  10.797  2.5364  0.3017 -0.0264
  210MPD1    N1 3253   0.370   3.447  11.271  0.1334  0.0636 -0.3162
  210MPD1    H6 3254   0.312   3.503  11.333  0.9881 -2.3179  2.6537
  210MPD1    H7 3255   0.407   3.369  11.325 -0.7632 -0.1146  0.0439
  211MPD1     C 3256   3.579   3.555  16.030 -0.3140 -0.4612 -0.0621
  211MPD1    C1 3257   3.625   3.677  16.087 -0.2995  0.3087 -0.9126
  211MPD1    C2 3258   3.536   3.776  16.132  0.3289 -0.1159  0.2116
  211MPD1    C3 3259   3.394   3.749  16.127 -0.0917  0.1327 -0.5893
  211MPD1    C4 3260   3.358   3.628  16.067  0.4099 -0.3135  0.1699
  211MPD1    C5 3261   3.443   3.535  16.022  0.6097  0.2208  0.5504
  211MPD1     H 3262   3.571   3.860  16.192  1.9982 -1.3986  1.0291
  211MPD1    H1 3263   3.252   3.606  16.061  0.7088 -2.3217  2.3211
  211MPD1    H2 3264   3.640   3.475  15.990 -0.5620 -0.9089  0.4561
  211MPD1    H3 3265   3.399   3.446  15.978  0.4939  1.1708 -1.2899
  211MPD1     N 3266   3.305   3.846  16.168 -0.3593  0.1566 -0.1693
  211MPD1    H5 3267   3.354   3.932  16.189 -1.2034  0.6941 -0.3790
  211MPD1    N1 3268   3.761   3.713  16.092  0.0931 -0.1880  0.5156
  211MPD1    H6 3269   3.822   3.633  16.081 -0.5097 -0.4398 -1.1269
  211MPD1    H7 3270   3.780   3.766  16.176  1.3877  0.6760 -0.3206
  212MPD1     C 3271   2.890   2.415  16.755  0.3402 -0.5370  0.0059
  212MPD1    C1 3272   2.849   2.446  16.878  0.0205  0.4061  0.1864
  212MPD1    C2 3273   2.729   2.393  16.919 -0.4175  0.3813  0.4070
  212MPD1    C3 3274   2.668   2.294  16.848 -0.0136 -0.3040 -0.4724
  212MPD1    C4 3275   2.718   2.264  16.725  0.6419 -0.6315  0.3754
  212MPD1    C5 3276   2.827   2.324  16.676 -0.6189  0.6508  0.0865
  212MPD1     H 3277   2.692   2.413  17.019  1.1930  1.1085  0.8507
  212MPD1    H1 3278   2.663   2.192  16.665 -2.0982  1.5800  0.2409
  212MPD1    H2 3279   2.968   2.475  16.708  0.6303 -2.3055 -1.7840
  212MPD1    H3 3280   2.862   2.300  16.576 -1.3068 -1.8688  0.4440
  212MPD1     N 3281   2.557   2.218  16.896 -0.5762  0.5362  0.1540
  212MPD1    H5 3282   2.527   2.147  16.830 -0.1111 -0.9988  1.5979
  212MPD1    N1 3283   2.907   2.554  16.943 -0.1402 -0.6933  0.4050
  212MPD1    H6 3284   2.899   2.558  17.045  1.7320 -3.4590  0.6563
  212MPD1    H7 3285   3.007   2.560  16.927 -0.4325  0.8940 -0.8022
  213MPD1     C 3286   0.707   2.525  16.027  0.2919  0.4055  0.2696
  213MPD1    C1 3287   0.586   2.475  16.043 -0.4997  0.3513 -0.2939
  213MPD1    C2 3288   0.480   2.549  15.997 -0.6298  0.5764 -0.5381
  213MPD1    C3 3289   0.499   2.656  15.917 -0.8932  0.6078 -0.2258
  213MPD1    C4 3290   0.630   2.699  15.889 -0.4476  0.2348 -0.2493
  213MPD1    C5 3291   0.740   2.629  15.939 -0.3233  0.2713 -0.4191
  213MPD1     H 3292   0.377   2.518  16.010  0.2258 -1.0044  2.4122
  213MPD1    H1 3293   0.638   2.778  15.816 -0.4411  0.1778 -0.3110
  213MPD1    H2 3294   0.788   2.470  16.075  2.5855  0.5174 -3.4463
  213MPD1    H3 3295   0.843   2.661  15.927 -0.1843 -0.6189 -1.6214
  213MPD1     N 3296   0.383   2.700  15.847 -0.3500  0.2893 -0.2262
  213MPD1    H5 3297   0.299   2.644  15.859 -0.9198  1.5887  1.7528
  213MPD1    N1 3298   0.560   2.394  16.159 -0.0858  0.2354 -0.2575
  213MPD1    H6 3299   0.485   2.327  16.146 -0.6834  0.8738 -0.0423
  213MPD1    H7 3300   0.641   2.335  16.179 -0.8437 -0.4285  0.8126
  214MPD1     C 3301   4.518   2.122  15.673  0.0772 -0.1656 -0.2850
  214MPD1    C1 3302   4.486   2.214  15.572  0.1481  0.1707  0.0159
  214MPD1    C2 3303   4.563   2.330  15.564  0.2040  0.6966  0.8281
  214MPD1    C3 3304   4.651   2.372  15.663 -0.9203 -0.3284  0.2341
  214MPD1    C4 3305   4.671   2.284  15.763  0.7188  0.0143  0.1997
  214MPD1    C5 3306   4.614   2.162  15.760  0.1321  0.3107  0.1994
  214MPD1     H 3307   4.566   2.387  15.472 -1.7471  0.1722  0.4357
  214MPD1    H1 3308   0.015   2.312  15.831  1.0612 -1.0821  0.2525
  214MPD1    H2 3309   4.466   2.028  15.690  0.5157 -0.1339  1.1839
  214MPD1    H3 3310   4.644   2.092  15.838 -0.0671 -0.3436 -0.3170
  214MPD1     N 3311   4.716   2.493  15.661 -0.8881  0.3997 -0.3950
  214MPD1    H5 3312   0.034   2.506  15.747  0.3141  1.1911 -1.2556
  214MPD1    N1 3313   4.405   2.161  15.476 -0.8075 -0.2392  0.0225
  214MPD1    H6 3314   4.363   2.236  15.422 -1.2216 -0.1043  0.5336
  214MPD1    H7 3315   4.325   2.120  15.524 -1.2790 -0.1395 -0.6723
  215MPD1     C 3316   3.861   3.870  11.618 -0.0044  0.3549 -0.2072
  215MPD1    C1 3317   3.950   3.772  11.656  0.5236  0.3128 -0.4789
  215MPD1    C2 3318   4.081   3.787  11.607 -1.0007 -0.0493 -1.1184
  215MPD1    C3 3319   4.115   3.877  11.512  0.0121 -0.5732 -0.1135
  215MPD1    C4 3320   4.024   3.969  11.479  0.4934  0.5489 -0.1962
  215MPD1    C5 3321   3.899   3.965  11.524  0.0151 -0.6048 -0.1650
  215MPD1     H 3322   4.161   3.722  11.642 -1.4560 -0.3788 -0.6973
  215MPD1    H1 3323   4.045   4.063  11.428 -1.1259  0.5876 -0.8159
  215MPD1    H2 3324   3.757   3.875  11.648 -0.2816  0.3679 -1.1657
  215MPD1    H3 3325   3.839   4.054  11.511 -1.6190 -1.5654  0.7350
  215MPD1     N 3326   4.250   3.876  11.475 -0.7809 -0.7495 -0.1412
  215MPD1    H5 3327   4.305   3.801  11.517  0.7411  1.3692  1.6483
  215MPD1    N1 3328   3.925   3.688  11.765  0.2879 -0.5543 -0.0208
  215MPD1    H6 3329   3.972   3.598  11.763  0.7467 -0.3558  2.0817
  215MPD1    H7 3330   3.826   3.669  11.779  0.1675 -2.5970 -3.5348
  216MPD1     C 3331   2.606   0.911  16.798 -0.1261 -0.2260 -0.1082
  216MPD1    C1 3332   2.492   0.960  16.851 -0.3043 -0.0846  0.4446
  216MPD1    C2 3333   2.502   1.019  16.976 -0.3383 -0.1621 -0.1499
  216MPD1    C3 3334   2.633   1.041  17.035  0.6992 -0.4937  0.2399
  216MPD1    C4 3335   2.746   0.986  16.974  0.1260  0.5476 -0.1710
  216MPD1    C5 3336   2.732   0.913  16.860 -0.1204 -0.5257  0.1372
  216MPD1     H 3337   2.412   1.052  17.027 -0.6310 -0.4952 -0.4522
  216MPD1    H1 3338   2.845   1.012  17.009  0.9534 -0.6604 -1.5813
  216MPD1    H2 3339   2.595   0.867  16.700 -2.6466  1.4042 -0.5523
  216MPD1    H3 3340   2.818   0.869  16.812 -0.6499 -1.0564 -0.3165
  216MPD1     N 3341   2.636   1.115  17.155 -1.3091 -0.7544  0.1267
  216MPD1    H5 3342   2.545   1.128  17.198 -2.0696 -1.9284 -1.1521
  216MPD1    N1 3343   2.370   0.920  16.802 -0.3694  0.7236  0.2863
  216MPD1    H6 3344   2.368   0.909  16.701  0.7381 -0.7043  0.4237
  216MPD1    H7 3345   2.292   0.980  16.830 -1.7449 -2.4646  3.3592
  217MPD1     C 3346   3.047   3.668   8.667 -0.1768  0.3106  0.2969
  217MPD1    C1 3347   3.179   3.693   8.701 -0.6127 -0.1664  0.0779
  217MPD1    C2 3348   3.230   3.624   8.806 -0.0058 -0.9316  0.1100
  217MPD1    C3 3349   3.149   3.551   8.889 -0.6501 -0.1398 -0.5337
  217MPD1    C4 3350   3.015   3.534   8.860  0.5761 -0.2912  0.4395
  217MPD1    C5 3351   2.970   3.594   8.748  0.7940  0.0486 -0.5278
  217MPD1     H 3352   3.335   3.632   8.833 -0.4782  2.3628  0.9358
  217MPD1    H1 3353   2.954   3.475   8.928 -1.5912  0.0586 -1.2158
  217MPD1    H2 3354   2.996   3.712   8.582  0.1516 -0.9058 -0.5307
  217MPD1    H3 3355   2.863   3.580   8.733  0.6928 -0.3970  0.6553
  217MPD1     N 3356   3.194   3.490   9.005  0.3402 -0.1237 -0.7179
  217MPD1    H5 3357   3.132   3.433   9.062 -1.4872  0.5379 -2.0404
  217MPD1    N1 3358   3.267   3.760   8.615 -0.5246  0.7125 -0.3043
  217MPD1    H6 3359   3.231   3.826   8.546 -2.6498  2.1523  2.1827
  217MPD1    H7 3360   3.349   3.795   8.665 -0.5729 -0.2969  0.4889
  218MPD1     C 3361   3.905   4.233  13.262 -0.7001 -0.7501  0.3362
  218MPD1    C1 3362   4.020   4.286  13.322  0.1835  0.2599  0.1311
  218MPD1    C2 3363   4.134   4.210  13.318  0.2077 -0.4307 -0.1621
  218MPD1    C3 3364   4.128   4.079  13.274 -0.0897 -0.7517 -0.5736
  218MPD1    C4 3365   4.010   4.027  13.230  0.1037 -0.2676 -0.0531
  218MPD1    C5 3366   3.902   4.107  13.217 -0.4863  0.1442 -0.0874
  218MPD1     H 3367   4.221   4.231  13.378 -0.0485 -2.5446  0.9296
  218MPD1    H1 3368   4.004   3.931  13.180  2.6220 -0.5665  0.2331
  218MPD1    H2 3369   3.816   4.292  13.246  0.5875  1.2518  0.5157
  218MPD1    H3 3370   3.813   4.071  13.168 -0.0274 -1.8650  0.5836
  218MPD1     N 3371   4.249   4.010  13.272 -0.5840 -0.5622 -0.4215
  218MPD1    H5 3372   4.335   4.064  13.276  0.2373 -1.8941  0.1941
  218MPD1    N1 3373   4.009   4.387  13.419 -0.3516  0.6562 -0.4347
  218MPD1    H6 3374   4.101   4.430  13.428  0.2476 -1.0780  1.7264
  218MPD1    H7 3375   3.937   4.456  13.399 -0.0500  0.5613 -1.9017
  219MPD1     C 3376   0.246   4.409  13.250  0.0211 -0.0932 -0.8679
  219MPD1    C1 3377   0.288   4.281  13.284 -0.4924  0.2180 -0.0774
  219MPD1    C2 3378   0.201   4.175  13.270  0.3616  0.2216 -0.0417
  219MPD1    C3 3379   0.074   4.196  13.223  0.4777 -0.9520  0.6509
  219MPD1    C4 3380   0.034   4.321  13.186 -0.0721 -0.6280  0.4693
  219MPD1    C5 3381   0.113   4.427  13.212  0.1853  0.0776  0.0887
  219MPD1     H 3382   0.238   4.080  13.307  0.8222 -1.1004 -3.8697
  219MPD1    H1 3383   4.671   4.339  13.143 -0.4578 -1.1085  1.1599
  219MPD1    H2 3384   0.314   4.492  13.261  0.0744 -0.0981 -1.1716
  219MPD1    H3 3385   0.073   4.527  13.198  0.0159  0.0353  0.2705
  219MPD1     N 3386   4.718   4.086  13.224  0.4423 -0.7168  0.0092
  219MPD1    H5 3387   4.629   4.116  13.187 -1.4116 -1.7118  3.6321
  219MPD1    N1 3388   0.417   4.263  13.343 -0.0792 -0.0425 -0.2769
  219MPD1    H6 3389   0.461   4.172  13.329  1.1963  0.2832  1.6636
  219MPD1    H7 3390   0.477   4.334  13.302  0.4663 -0.2892  0.0867
  220MPD1     C 3391   4.381   0.278   9.870  0.3077  0.0968 -0.3390
  220MPD1    C1 3392   4.475   0.232   9.954  0.8135 -0.2579 -0.2450
  220MPD1    C2 3393   4.434   0.143  10.042 -0.4463  0.0206  0.3164
  220MPD1    C3 3394   4.309   0.098  10.060  0.3529  0.4904  0.2017
  220MPD1    C4 3395   4.206   0.149   9.987  0.3821  0.5885  0.1221
  220MPD1    C5 3396   4.248   0.244   9.891 -0.2364  0.3507  0.3469
  220MPD1     H 3397   4.506   0.092  10.106 -1.6961 -1.6495  0.4119
  220MPD1    H1 3398   4.103   0.116   9.991 -0.2057  2.5435  1.2385
  220MPD1    H2 3399   4.414   0.345   9.792  0.4589  0.2279 -0.1647
  220MPD1    H3 3400   4.183   0.297   9.822 -1.0254 -1.1705 -0.0725
  220MPD1     N 3401   4.285   4.732  10.153  0.3445 -0.7701 -0.4841
  220MPD1    H5 3402   4.365   4.707  10.210  0.5715  0.1775 -0.3979
  220MPD1    N1 3403   4.611   0.250   9.926 -0.1703 -0.0667  0.3394
  220MPD1    H6 3404   4.633   0.341   9.888 -1.8053 -0.1355 -0.7926
  220MPD1    H7 3405   4.669   0.245  10.009 -1.5148 -0.3333  1.2660
  221MPD1     C 3406   2.695   2.753  16.458  0.2858 -0.8703 -0.2916
  221MPD1    C1 3407   2.757   2.701  16.565 -0.3679  0.8745  0.4170
  221MPD1    C2 3408   2.883   2.750  16.605  0.1786 -0.2727 -0.3915
  221MPD1    C3 3409   2.950   2.839  16.523 -0.5439 -0.2964 -0.6586
  221MPD1    C4 3410   2.883   2.886  16.409 -0.2536 -0.1287  0.0518
  221MPD1    C5 3411   2.756   2.844  16.379  0.3767  0.9046 -0.0805
  221MPD1     H 3412   2.919   2.719  16.702 -1.5278  0.0716  0.3614
  221MPD1    H1 3413   2.910   2.965  16.340  0.3642 -1.1052 -0.8197
  221MPD1    H2 3414   2.593   2.730  16.430  0.4840  1.0700 -2.5924
  221MPD1    H3 3415   2.703   2.877  16.290 -2.8609 -3.1902  0.3616
  221MPD1     N 3416   3.081   2.890  16.550  0.5428 -0.2352 -0.2799
  221MPD1    H5 3417   3.124   2.949  16.480  0.4144 -1.7604 -1.6425
  221MPD1    N1 3418   2.682   2.621  16.644 -0.2997 -0.2510  0.9557
  221MPD1    H6 3419   2.733   2.558  16.707 -1.6709  0.2702  2.5792
  221MPD1    H7 3420   2.614   2.570  16.588  2.8055 -0.3316 -2.7469
  222MPD1     C 3421   1.168   1.788   0.942  0.0380 -0.0458 -0.0223
  222MPD1    C1 3422   1.190   1.884   0.846  0.1747  0.1303  0.5416
  222MPD1    C2 3423   1.318   1.936   0.823 -0.1883  0.3132  0.2848
  222MPD1    C3 3424   1.420   1.902   0.908 -0.9285  0.2230  0.1168
  222MPD1    C4 3425   1.401   1.807   1.008  0.4502  0.1809 -0.6113
  222MPD1    C5 3426   1.275   1.755   1.016  0.0315  0.2260 -0.0798
  222MPD1     H 3427   1.342   1.985   0.730 -1.3871  0.1273 -0.1171
  222MPD1    H1 3428   1.473   1.770   1.080  1.7500  1.3654 -1.2906
  222MPD1    H2 3429   1.069   1.746   0.957 -0.3589  0.3850 -1.4734
  222MPD1    H3 3430   1.250   1.672   1.082 -1.2948  1.0653  0.4738
  222MPD1     N 3431   1.543   1.972   0.886 -1.1361 -0.2660 -1.0294
  222MPD1    H5 3432   1.617   1.928   0.940 -0.8523 -0.3433 -1.4782
  222MPD1    N1 3433   1.090   1.912   0.752 -0.0044 -0.8145 -0.3799
  222MPD1    H6 3434   1.108   2.007   0.718 -0.5540 -0.7206 -0.4156
  222MPD1    H7 3435   0.997   1.908   0.792 -0.5860 -0.6724 -1.7203
  223MPD1     C 3436   2.509   1.859   0.856  0.1343 -0.6859  0.0920
  223MPD1    C1 3437   2.510   1.972   0.773 -0.1588  0.3769 -0.5816
  223MPD1    C2 3438   2.388   2.032   0.760 -0.1084  0.7909  0.2206
  223MPD1    C3 3439   2.269   1.975   0.798 -0.3273  0.5242 -0.0554
  223MPD1    C4 3440   2.274   1.851   0.867  0.0251 -0.0351 -0.3433
  223MPD1    C5 3441   2.396   1.799   0.898 -0.4638  0.1110 -0.6595
  223MPD1     H 3442   2.370   2.126   0.708  1.0231 -0.0465 -1.6865
  223MPD1    H1 3443   2.185   1.797   0.898  0.9580 -2.2609 -1.5292
  223MPD1    H2 3444   2.606   1.814   0.876 -0.0707 -0.8552  0.6933
  223MPD1    H3 3445   2.395   1.719   0.971 -0.5243  0.3249 -0.4251
  223MPD1     N 3446   2.152   2.041   0.759  0.5568 -0.3384 -0.2631
  223MPD1    H5 3447   2.156   2.131   0.713 -0.3190 -0.3576 -0.3922
  223MPD1    N1 3448   2.624   2.037   0.730 -0.3719  0.2917 -0.5223
  223MPD1    H6 3449   2.605   2.063   0.634 -0.0222 -0.2524 -0.7402
  223MPD1    H7 3450   2.704   1.974   0.742 -1.4272 -1.2035 -1.2694
  224MPD1     C 3451   3.320   4.153   9.479  0.3770 -1.0610 -0.3387
  224MPD1    C1 3452   3.437   4.077   9.504 -0.9542 -0.9057  0.2800
  224MPD1    C2 3453   3.409   3.957   9.568  0.0139 -0.2704 -0.0083
  224MPD1    C3 3454   3.282   3.929   9.622 -0.2498  0.2201 -0.0679
  224MPD1    C4 3455   3.186   4.025   9.620  0.3293 -0.3809  0.5867
  224MPD1    C5 3456   3.200   4.138   9.536 -0.0413  0.1911 -0.4715
  224MPD1     H 3457   3.492   3.888   9.572 -0.2110 -0.4175  2.3534
  224MPD1    H1 3458   3.089   3.997   9.660  0.4078  0.0583  1.1015
  224MPD1    H2 3459   3.310   4.244   9.420  0.9589 -1.5417 -1.1792
  224MPD1    H3 3460   3.117   4.203   9.513 -0.1593 -0.2066 -1.1794
  224MPD1     N 3461   3.255   3.808   9.697  0.6062  0.3296  0.4707
  224MPD1    H5 3462   3.173   3.809   9.757 -0.6801  0.0974 -1.2567
  224MPD1    N1 3463   3.561   4.112   9.443 -0.4322 -0.9652  0.0320
  224MPD1    H6 3464   3.631   4.059   9.495  0.7979  2.2058  1.6044
  224MPD1    H7 3465   3.576   4.210   9.467  1.7797 -1.0511 -1.0549
  225MPD1     C 3466   0.149   3.828  12.875  0.1617  1.1116  0.2066
  225MPD1    C1 3467   0.058   3.729  12.898 -0.3006  0.8880  0.3136
  225MPD1    C2 3468   4.655   3.757  12.886 -0.3092  0.7699 -0.2813
  225MPD1    C3 3469   4.612   3.890  12.866  0.1701 -0.0770  0.0890
  225MPD1    C4 3470   4.707   3.986  12.851 -0.0719  0.4191  0.2401
  225MPD1    C5 3471   0.105   3.954  12.855  0.5013 -0.8859 -0.3780
  225MPD1     H 3472   4.587   3.673  12.896 -0.0712  0.4569 -1.3561
  225MPD1    H1 3473   4.679   4.085  12.815  1.9897  0.3552 -1.5340
  225MPD1    H2 3474   0.254   3.801  12.871 -0.6707 -1.9456 -0.6353
  225MPD1    H3 3475   0.173   4.035  12.835  0.5602 -1.0281 -0.7537
  225MPD1     N 3476   4.475   3.930  12.870 -0.3511 -0.2169  0.1664
  225MPD1    H5 3477   4.460   4.030  12.863 -2.0512 -0.5269 -0.5102
  225MPD1    N1 3478   0.100   3.595  12.892 -0.7921  0.3620 -0.4828
  225MPD1    H6 3479   0.199   3.588  12.915 -0.5931 -0.0455 -1.4364
  225MPD1    H7 3480   0.045   3.548  12.963 -2.2201  2.9720  0.1344
  226MPD1     C 3481   3.625   0.192   9.288  0.0302  0.0966  0.3796
  226MPD1    C1 3482   3.609   0.145   9.411 -0.8518  0.1253 -0.2916
  226MPD1    C2 3483   3.482   0.124   9.460  0.1323 -0.1786  0.8606
  226MPD1    C3 3484   3.365   0.158   9.390 -0.5265  0.4034  0.2261
  226MPD1    C4 3485   3.387   0.215   9.267 -0.3151 -0.5627  0.0823
  226MPD1    C5 3486   3.515   0.230   9.216 -0.4281  0.2028 -0.0483
  226MPD1     H 3487   3.461   0.079   9.557 -0.1932  1.5799  1.6148
  226MPD1    H1 3488   3.308   0.246   9.200 -0.4156  0.1027  0.5042
  226MPD1    H2 3489   3.728   0.206   9.256 -0.6161  3.7655 -0.0577
  226MPD1    H3 3490   3.524   0.280   9.121 -1.1927  2.5790  1.1297
  226MPD1     N 3491   3.242   0.141   9.454 -0.2588  0.0973  0.0889
  226MPD1    H5 3492   3.250   0.098   9.545 -0.2495 -0.4829 -0.1898
  226MPD1    N1 3493   3.709   0.090   9.490  0.4498  0.0557 -0.0540
  226MPD1    H6 3494   3.678   0.087   9.588 -0.6349  0.2846 -0.3822
  226MPD1    H7 3495   3.793   0.146   9.475  0.3357  0.2216 -0.0815
  227MPD1     C 3496   2.443   0.721   9.440  0.6448  0.3390 -0.1303
  227MPD1    C1 3497   2.515   0.677   9.330 -0.3364  0.1925  0.0372
  227MPD1    C2 3498   2.582   0.558   9.331  0.1317 -0.1439 -0.9999
  227MPD1    C3 3499   2.577   0.475   9.444 -0.2700 -0.3932  0.5775
  227MPD1    C4 3500   2.507   0.524   9.551  0.0830  0.6670 -0.3147
  227MPD1    C5 3501   2.440   0.643   9.553  0.1655 -0.0896  0.0383
  227MPD1     H 3502   2.636   0.537   9.239 -1.7521  1.5482 -2.5069
  227MPD1    H1 3503   2.503   0.457   9.635 -0.6532  0.9922 -0.0957
  227MPD1    H2 3504   2.394   0.817   9.448 -1.4546 -0.8925  1.7160
  227MPD1    H3 3505   2.393   0.675   9.646  2.5357  1.0274  0.8360
  227MPD1     N 3506   2.664   0.362   9.449 -0.5584 -0.7460 -0.2535
  227MPD1    H5 3507   2.710   0.341   9.361 -0.5808 -0.5590 -0.3096
  227MPD1    N1 3508   2.551   0.770   9.226  0.0934  0.7067 -0.0926
  227MPD1    H6 3509   2.476   0.836   9.209 -0.1092  0.4137 -0.3255
  227MPD1    H7 3510   2.574   0.728   9.136  0.8233  2.0244 -0.5171
  228MPD1     C 3511   1.360   2.290  12.421 -0.2904  0.1683  0.4779
  228MPD1    C1 3512   1.242   2.350  12.379  0.3123  0.2393 -0.5515
  228MPD1    C2 3513   1.137   2.367  12.470 -0.1150 -0.6154  0.0929
  228MPD1    C3 3514   1.148   2.326  12.601 -0.8675  0.2968 -0.3254
  228MPD1    C4 3515   1.275   2.278  12.642  0.2932 -0.2467  0.0249
  228MPD1    C5 3516   1.375   2.255  12.549 -0.3099 -0.7108  0.2949
  228MPD1     H 3517   1.041   2.397  12.430  0.3456  1.5803  0.6371
  228MPD1    H1 3518   1.306   2.240  12.739  1.2637  3.5003  1.2087
  228MPD1    H2 3519   1.437   2.245  12.359 -0.8162  0.2763 -0.2437
  228MPD1    H3 3520   1.469   2.212  12.580  1.2303  1.6717 -1.0396
  228MPD1     N 3521   1.042   2.329  12.692 -0.3628  0.8199 -0.2014
  228MPD1    H5 3522   0.965   2.394  12.680 -1.9101 -1.1562 -0.9811
  228MPD1    N1 3523   1.222   2.367  12.234  0.2213  0.0897  0.0369
  228MPD1    H6 3524   1.148   2.433  12.216  1.3548  1.2163 -0.4734
  228MPD1    H7 3525   1.300   2.415  12.190  0.7356  1.4439  2.4257
  229MPD1     C 3526   0.539   1.592  15.681 -0.2221 -0.7242  0.0132
  229MPD1    C1 3527   0.671   1.619  15.682 -0.1761  0.4630 -0.8709
  229MPD1    C2 3528   0.760   1.522  15.712 -0.2348 -0.2459 -0.8360
  229MPD1    C3 3529   0.723   1.390  15.723  0.2831 -0.1174  0.6887
  229MPD1    C4 3530   0.591   1.358  15.702 -0.0214  0.4868  0.0600
  229MPD1    C5 3531   0.502   1.461  15.675  0.2180 -0.4722  0.2763
  229MPD1     H 3532   0.863   1.545  15.739 -0.9453  0.7948  0.9623
  229MPD1    H1 3533   0.546   1.259  15.708 -0.2828  0.4823 -2.0294
  229MPD1    H2 3534   0.459   1.665  15.686 -0.3247 -0.9187  1.2645
  229MPD1    H3 3535   0.397   1.434  15.664  0.5679 -2.7880  2.6580
  229MPD1     N 3536   0.814   1.279  15.745 -0.2631  0.0319  0.1778
  229MPD1    H5 3537   0.767   1.190  15.753 -1.7596  0.6433 -1.8668
  229MPD1    N1 3538   0.712   1.753  15.672 -0.1963 -0.0433 -0.0549
  229MPD1    H6 3539   0.810   1.757  15.644 -0.1544  3.5686  0.6349
  229MPD1    H7 3540   0.656   1.801  15.602 -0.6186 -1.8762 -0.9809
  230MPD1     C 3541   1.809   1.419  15.914  0.2011  1.1888  0.1798
  230MPD1    C1 3542   1.706   1.492  15.956 -0.2276  0.4666  0.6653
  230MPD1    C2 3543   1.588   1.426  15.935 -0.2155 -0.0428 -0.1011
  230MPD1    C3 3544   1.565   1.311  15.868  0.2910 -0.0029 -0.5847
  230MPD1    C4 3545   1.670   1.235  15.841  0.0229  0.2671 -0.4697
  230MPD1    C5 3546   1.792   1.285  15.878 -0.1763 -0.6788  0.3631
  230MPD1     H 3547   1.502   1.485  15.964 -0.6723 -1.1591  0.8314
  230MPD1    H1 3548   1.659   1.139  15.792 -0.1892 -0.9496  1.9608
  230MPD1    H2 3549   1.913   1.444  15.929 -0.3863  2.7890  1.5745
  230MPD1    H3 3550   1.874   1.219  15.853  0.0430 -0.5636  0.7723
  230MPD1     N 3551   1.440   1.253  15.864  0.0979 -0.1445  0.0460
  230MPD1    H5 3552   1.365   1.315  15.895  1.3054  0.8413  1.0182
  230MPD1    N1 3553   1.722   1.616  16.014  0.7952  0.5951 -0.2593
  230MPD1    H6 3554   1.804   1.664  15.976  1.5043 -0.9277 -0.6639
  230MPD1    H7 3555   1.644   1.679  15.995  0.1452 -0.3154 -0.6316
  231MPD1     C 3556   4.280   3.143  15.721  0.1146 -0.2223  1.3605
  231MPD1    C1 3557   4.283   3.104  15.588  0.2186  0.3824 -0.3031
  231MPD1    C2 3558   4.404   3.109  15.527  0.4948  0.4899  0.3462
  231MPD1    C3 3559   4.511   3.182  15.577  0.4475 -0.3217  0.2071
  231MPD1    C4 3560   4.504   3.234  15.703  0.1222 -0.1848  0.9341
  231MPD1    C5 3561   4.390   3.200  15.776 -0.0408  0.2756  0.3151
  231MPD1     H 3562   4.411   3.071  15.426 -0.9184  0.4989  0.2548
  231MPD1    H1 3563   4.590   3.279  15.753 -0.8240  0.8488  1.6330
  231MPD1    H2 3564   4.188   3.141  15.778 -0.1029  1.3122  1.0698
  231MPD1    H3 3565   4.394   3.221  15.883 -0.9347 -0.7045  0.5425
  231MPD1     N 3566   4.615   3.200  15.482  0.0579 -0.0710 -0.0541
  231MPD1    H5 3567   4.588   3.161  15.392 -0.1000  0.8441 -0.4075
  231MPD1    N1 3568   4.169   3.033  15.541 -0.0256  0.3679 -0.2237
  231MPD1    H6 3569   4.162   3.053  15.442  1.5740 -0.4361 -0.4918
  231MPD1    H7 3570   4.081   3.072  15.578 -0.6306  1.8816 -3.2939
  232MPD1     C 3571   2.156   0.503   0.092  0.4009 -0.6575 -0.1171
  232MPD1    C1 3572   2.086   0.447   0.194 -0.6451 -0.1439 -0.3966
  232MPD1    C2 3573   1.965   0.382   0.175 -0.8469 -0.0208 -0.1239
  232MPD1    C3 3574   1.903   0.380   0.049  0.3453 -0.8103 -0.9585
  232MPD1    C4 3575   1.979   0.438  17.682 -0.0260 -0.1705 -0.0888
  232MPD1    C5 3576   2.101   0.498  17.704  0.9721  0.3148  0.6813
  232MPD1     H 3577   1.918   0.342   0.264  1.1828  0.4993  1.2038
  232MPD1    H1 3578   1.940   0.436  17.581 -0.8762  0.2660  0.2293
  232MPD1    H2 3579   2.248   0.555   0.117  0.6264 -0.9400 -0.3420
  232MPD1    H3 3580   2.159   0.547  17.626 -1.5545 -0.1561 -1.4683
  232MPD1     N 3581   1.775   0.325   0.039  0.5239 -0.0642 -0.1242
  232MPD1    H5 3582   1.739   0.279   0.122  0.7686 -0.7681 -0.4099
  232MPD1    N1 3583   2.154   0.433   0.319 -0.4915  0.5782 -0.2096
  232MPD1    H6 3584   2.232   0.497   0.337 -0.0375  0.1112 -0.5140
  232MPD1    H7 3585   2.095   0.445   0.401 -1.1456 -1.1626 -0.4416
  233MPD1     C 3586   2.508   4.156   2.659 -0.5525 -0.1710 -0.2111
  233MPD1    C1 3587   2.621   4.237   2.661 -0.3247  0.8061  0.9665
  233MPD1    C2 3588   2.712   4.207   2.565 -0.2865 -0.4535 -0.3295
  233MPD1    C3 3589   2.696   4.123   2.457 -0.1111 -0.1437 -0.1429
  233MPD1    C4 3590   2.571   4.057   2.446  0.2074  0.1193 -0.5040
  233MPD1    C5 3591   2.489   4.068   2.558 -0.6801  0.5972  0.4486
  233MPD1     H 3592   2.808   4.256   2.568 -0.0809 -0.8018 -1.1525
  233MPD1    H1 3593   2.549   3.992   2.362 -0.2263  1.3835 -1.3657
  233MPD1    H2 3594   2.446   4.156   2.747 -0.3183 -0.2153 -0.0480
  233MPD1    H3 3595   2.404   4.000   2.557 -0.9687  0.9481  0.8603
  233MPD1     N 3596   2.790   4.108   2.357 -0.0308  0.6377 -0.2632
  233MPD1    H5 3597   2.763   4.058   2.273  0.8265 -0.4847  0.1268
  233MPD1    N1 3598   2.665   4.312   2.779 -0.1210 -0.1634  0.2766
  233MPD1    H6 3599   2.583   4.363   2.810 -1.5525 -0.8140 -2.4572
  233MPD1    H7 3600   2.735   4.383   2.755  0.1439 -0.1389  1.1165
  234MPD1     C 3601   0.092   2.901  10.144  0.5448 -1.1949  0.2337
  234MPD1    C1 3602   0.033   2.993  10.061  0.0286  0.0155 -0.4823
  234MPD1    C2 3603   4.645   2.973  10.003  0.4198  0.1537 -0.3808
  234MPD1    C3 3604   4.567   2.861  10.044 -0.6310  0.2171  0.4359
  234MPD1    C4 3605   4.633   2.764  10.120  0.4153  0.2108  0.3115
  234MPD1    C5 3606   0.019   2.791  10.182 -0.7742  0.0757  0.1328
  234MPD1     H 3607   4.607   3.030   9.919 -0.6695  1.6229  1.1001
  234MPD1    H1 3608   4.583   2.668  10.131 -0.9141  0.8867  0.2649
  234MPD1    H2 3609   0.191   2.906  10.190  1.4198  0.7270 -1.8677
  234MPD1    H3 3610   0.068   2.714  10.241  1.3858  0.7305 -0.8066
  234MPD1     N 3611   4.439   2.852   9.988 -0.2806 -0.3623  0.9614
  234MPD1    H5 3612   4.407   2.937   9.945  1.7866 -0.2245 -0.3248
  234MPD1    N1 3613   0.108   3.097  10.011 -0.0857 -0.5846 -0.0991
  234MPD1    H6 3614   0.056   3.179   9.980 -0.2878 -1.4812 -2.0744
  234MPD1    H7 3615   0.174   3.130  10.082  0.7814 -1.6799 -0.4013
  235MPD1     C 3616   0.162   4.439  10.261  0.5735  0.0125 -0.6912
  235MPD1    C1 3617   0.210   4.556  10.209  0.5039 -0.4992 -0.7365
  235MPD1    C2 3618   0.292   4.642  10.282  0.1490  0.3682 -0.8304
  235MPD1    C3 3619   0.334   4.599  10.415 -0.5868 -0.1318 -0.0190
  235MPD1    C4 3620   0.299   4.476  10.453  0.8933  0.3219 -0.2957
  235MPD1    C5 3621   0.216   4.394  10.373 -0.4112  0.5942  0.4053
  235MPD1     H 3622   0.309   0.007  10.244  1.4299  0.1389 -0.8589
  235MPD1    H1 3623   0.334   4.425  10.542  1.8015  1.5653  0.0663
  235MPD1    H2 3624   0.091   4.386  10.198  0.6470 -1.8025  0.7771
  235MPD1    H3 3625   0.173   4.305  10.418  2.7718 -1.1413  0.0684
  235MPD1     N 3626   0.409   4.697  10.492 -0.4194 -0.2850 -0.3289
  235MPD1    H5 3627   0.431   0.050  10.447  0.5594 -0.6767 -0.6061
  235MPD1    N1 3628   0.161   4.593  10.084 -0.0442  0.4728 -0.1622
  235MPD1    H6 3629   0.214   4.663  10.033 -0.5837  0.3128 -0.9517
  235MPD1    H7 3630   0.145   4.523  10.012  2.8545  1.7084 -1.9794
  236MPD1     C 3631   4.228   0.639  10.139 -0.0691  0.0655 -0.0209
  236MPD1    C1 3632   4.294   0.541  10.204 -0.0940 -0.0960 -0.4507
  236MPD1    C2 3633   4.390   0.576  10.297  0.4534 -0.0638 -0.0409
  236MPD1    C3 3634   4.428   0.702  10.313  0.3717  0.7972  0.2941
  236MPD1    C4 3635   4.368   0.798  10.235 -0.0573 -0.0392 -0.1810
  236MPD1    C5 3636   4.270   0.767  10.146  0.5159 -0.1820 -0.4470
  236MPD1     H 3637   4.429   0.498  10.361  0.4487 -0.6562 -0.7633
  236MPD1    H1 3638   4.410   0.897  10.231 -0.2969  0.0304 -0.9483
  236MPD1    H2 3639   4.144   0.617  10.073  0.6247 -1.0711 -0.5231
  236MPD1    H3 3640   4.230   0.840  10.077  0.0903 -0.6053 -0.6493
  236MPD1     N 3641   4.528   0.745  10.402 -0.2750  0.2739 -0.1149
  236MPD1    H5 3642   4.541   0.846  10.408  1.1596  0.0408  0.5702
  236MPD1    N1 3643   4.253   0.408  10.185 -0.2999  0.3286  0.2890
  236MPD1    H6 3644   4.315   0.347  10.238  1.7114  0.9521 -1.3460
  236MPD1    H7 3645   4.231   0.373  10.092  1.9246 -0.6656  0.1276
  237MPD1     C 3646   0.705   4.355  15.363 -0.1804  0.5530  0.2270
  237MPD1    C1 3647   0.699   4.258  15.462 -0.0237  0.2464  0.2206
  237MPD1    C2 3648   0.582   4.187  15.480 -0.0542 -0.5902  0.0476
  237MPD1    C3 3649   0.473   4.207  15.402 -0.0787  0.0221 -0.4950
  237MPD1    C4 3650   0.477   4.308  15.306  0.4001  0.5575  0.0583
  237MPD1    C5 3651   0.593   4.383  15.283 -0.2237  0.6080  0.1241
  237MPD1     H 3652   0.577   4.112  15.558 -2.9195  0.1938  0.6055
  237MPD1    H1 3653   0.390   4.323  15.243 -0.6897 -1.5943  1.0403
  237MPD1    H2 3654   0.792   4.416  15.342 -0.6928  1.4212  0.6298
  237MPD1    H3 3655   0.601   4.455  15.202 -0.9664  0.3958 -0.1421
  237MPD1     N 3656   0.354   4.140  15.398  0.0525 -0.7063 -0.2816
  237MPD1    H5 3657   0.279   4.167  15.335  0.0900  1.6423  0.6820
  237MPD1    N1 3658   0.812   4.231  15.530 -0.0703 -0.2818  0.2721
  237MPD1    H6 3659   0.882   4.303  15.548  0.3167 -0.9424  1.4452
  237MPD1    H7 3660   0.797   4.180  15.617  0.1841  1.3952  1.2895
  238MPD1     C 3661   1.874   2.571  15.047 -0.1660 -0.2999  0.7179
  238MPD1    C1 3662   1.769   2.521  15.124 -0.2709  0.8950  0.0719
  238MPD1    C2 3663   1.644   2.566  15.106  0.3006  0.6021 -0.0734
  238MPD1    C3 3664   1.618   2.663  15.014  0.0316 -0.1838  0.0552
  238MPD1    C4 3665   1.726   2.720  14.942  0.0958 -0.8473  0.1926
  238MPD1    C5 3666   1.857   2.679  14.965 -0.1023 -0.1073  0.4208
  238MPD1     H 3667   1.555   2.525  15.152  1.0701 -0.0188  0.8570
  238MPD1    H1 3668   1.701   2.808  14.884 -0.2524 -1.6177 -0.8168
  238MPD1    H2 3669   1.973   2.526  15.057  1.0296  2.4424  1.1414
  238MPD1    H3 3670   1.948   2.716  14.920  0.5498 -2.6438 -0.3322
  238MPD1     N 3671   1.486   2.713  14.994 -0.4118 -0.8217 -0.0424
  238MPD1    H5 3672   1.488   2.791  14.929 -1.9612 -0.4719  0.3228
  238MPD1    N1 3673   1.793   2.401  15.202  0.3526  0.1180  0.6253
  238MPD1    H6 3674   1.730   2.392  15.282 -0.0811 -0.8669  0.1774
  238MPD1    H7 3675   1.888   2.383  15.235  0.7005  2.0867  0.7109
  239MPD1     C 3676   1.957   3.396  15.151  0.0813 -0.7203 -0.1343
  239MPD1    C1 3677   2.037   3.405  15.037 -0.3101 -0.0526 -1.2025
  239MPD1    C2 3678   1.991   3.479  14.925 -0.7663  0.4947 -0.5645
  239MPD1    C3 3679   1.880   3.557  14.942 -0.3389 -0.0620 -0.1359
  239MPD1    C4 3680   1.815   3.566  15.069 -0.1011  0.2142 -0.8503
  239MPD1    C5 3681   1.854   3.482  15.170  0.8494 -0.3123  0.0182
  239MPD1     H 3682   2.050   3.490  14.834 -0.7471 -2.3108 -0.9002
  239MPD1    H1 3683   1.729   3.630  15.084  0.3766  0.5083  0.6920
  239MPD1    H2 3684   1.993   3.335  15.233 -0.3583  1.4396  1.6795
  239MPD1    H3 3685   1.813   3.482  15.270 -2.7969 -1.5989 -1.4429
  239MPD1     N 3686   1.827   3.644  14.842  0.6382 -0.0985 -0.0791
  239MPD1    H5 3687   1.747   3.698  14.873  0.2236 -0.9152  0.2666
  239MPD1    N1 3688   2.144   3.319  15.012  0.5611 -0.4533 -0.6924
  239MPD1    H6 3689   2.212   3.353  14.944 -0.5939 -0.2086 -1.7168
  239MPD1    H7 3690   2.202   3.295  15.093  1.5727 -2.2627 -1.9388
  240MPD1     C 3691   1.568   2.954  14.011  0.4014 -1.3117  0.8616
  240MPD1    C1 3692   1.434   2.958  13.979  0.1869 -0.0697  0.3086
  240MPD1    C2 3693   1.346   3.011  14.070  0.1709 -0.1498  1.0051
  240MPD1    C3 3694   1.390   3.048  14.196 -0.3048 -0.4359 -0.6146
  240MPD1    C4 3695   1.522   3.074  14.211 -0.1110 -0.7576  0.5873
  240MPD1    C5 3696   1.611   3.010  14.133  0.0914  0.1362 -0.0383
  240MPD1     H 3697   1.240   3.002  14.052  0.3442  0.7409 -0.4727
  240MPD1    H1 3698   1.567   3.114  14.301  2.5109 -1.2996 -0.4929
  240MPD1    H2 3699   1.634   2.901  13.943 -0.6796  0.2005 -1.3384
  240MPD1    H3 3700   1.717   3.014  14.157 -0.3534 -2.9810  2.3334
  240MPD1     N 3701   1.293   3.088  14.299 -0.4274  0.1471 -0.4248
  240MPD1    H5 3702   1.194   3.078  14.281 -0.6002  0.7288  0.1916
  240MPD1    N1 3703   1.383   2.912  13.857 -0.4937  0.3357 -0.3199
  240MPD1    H6 3704   1.291   2.870  13.866 -0.7874  1.1630  0.4888
  240MPD1    H7 3705   1.444   2.846  13.808 -0.6123  0.0611 -0.0982
  241MPD1     C 3706   0.975   3.090  15.350  0.2675  0.3702 -0.0982
  241MPD1    C1 3707   1.103   3.067  15.301 -0.0052 -0.0470 -0.1331
  241MPD1    C2 3708   1.116   3.086  15.168  0.1901  0.3578 -0.0375
  241MPD1    C3 3709   1.017   3.135  15.086  0.8650  0.0871  0.0958
  241MPD1    C4 3710   0.887   3.170  15.138 -0.3857 -0.0876  0.5461
  241MPD1    C5 3711   0.871   3.138  15.267 -0.2549 -0.3556 -0.1780
  241MPD1     H 3712   1.213   3.062  15.126 -0.0997 -0.1515 -0.4178
  241MPD1    H1 3713   0.799   3.207  15.087  0.7799 -0.1260 -1.4902
  241MPD1    H2 3714   0.956   3.072  15.455 -0.2584 -0.3081 -0.3116
  241MPD1    H3 3715   0.778   3.150  15.322 -0.5905 -0.2806 -0.7567
  241MPD1     N 3716   1.043   3.169  14.949  0.3822  0.5501  0.3956
  241MPD1    H5 3717   0.973   3.217  14.894  1.2418 -2.9453 -3.6542
  241MPD1    N1 3718   1.186   2.977  15.369 -0.5125  0.9508  0.5125
  241MPD1    H6 3719   1.173   2.988  15.469  1.8913  0.4175  0.8789
  241MPD1    H7 3720   1.283   2.999  15.347 -0.1898 -0.3632  0.6493
  242MPD1     C 3721   1.071   1.881  16.054  0.1733 -0.5897 -0.2230
  242MPD1    C1 3722   1.191   1.819  16.066  0.0529 -0.3300  0.1046
  242MPD1    C2 3723   1.249   1.755  15.956 -0.0906 -0.4558  0.4448
  242MPD1    C3 3724   1.186   1.760  15.831  0.4998 -1.1545  0.4813
  242MPD1    C4 3725   1.061   1.819  15.825  0.1863 -0.3633  0.3997
  242MPD1    C5 3726   1.006   1.874  15.934 -0.2418 -0.5139 -0.2568
  242MPD1     H 3727   1.340   1.697  15.971  0.1339 -0.1178  0.3820
  242MPD1    H1 3728   1.007   1.838  15.733  1.5560 -2.0259 -0.7480
  242MPD1    H2 3729   1.024   1.922  16.143  2.4214  0.7318  0.3552
  242MPD1    H3 3730   0.909   1.918  15.916 -0.3956 -0.2299  1.2977
  242MPD1     N 3731   1.231   1.695  15.719  0.5117  0.0809  0.3117
  242MPD1    H5 3732   1.162   1.700  15.644 -0.4347  1.1013  1.2387
  242MPD1    N1 3733   1.253   1.813  16.187  0.1197  0.0859  0.2785
  242MPD1    H6 3734   1.272   1.715  16.208  3.7228  0.5767 -0.5974
  242MPD1    H7 3735   1.190   1.845  16.260  0.7226 -2.0423  1.7191
  243MPD1     C 3736   2.460   0.638   0.381 -0.3636 -0.3008 -0.7133
  243MPD1    C1 3737   2.462   0.503   0.394  1.3791  0.1924 -0.9677
  243MPD1    C2 3738   2.530   0.434   0.299  0.3258  0.5584 -0.5238
  243MPD1    C3 3739   2.567   0.492   0.178 -0.0707 -0.0630  0.5887
  243MPD1    C4 3740   2.543   0.625   0.159  0.2868 -0.2780 -0.0668
  243MPD1    C5 3741   2.495   0.695   0.262  1.0121  0.7763  0.0185
  243MPD1     H 3742   2.544   0.329   0.323 -0.1260  0.3786 -1.0498
  243MPD1    H1 3743   2.577   0.681   0.072 -2.1898 -0.3395 -1.0728
  243MPD1    H2 3744   2.432   0.706   0.460  1.9112  1.0947 -1.1342
  243MPD1    H3 3745   2.483   0.802   0.264 -0.0924  0.6371  0.8504
  243MPD1     N 3746   2.643   0.410   0.091 -0.0449  0.0750  0.2872
  243MPD1    H5 3747   2.634   0.314   0.122  1.3492 -0.1075  0.1338
  243MPD1    N1 3748   2.444   0.439   0.516  0.2310 -0.2575 -0.1228
  243MPD1    H6 3749   2.370   0.486   0.567 -1.2672 -1.4671 -1.1806
  243MPD1    H7 3750   2.408   0.344   0.506  1.3432 -0.7486  0.5539
  244MPD1     C 3751   2.967   4.384   0.276  0.4316 -0.5597 -0.2162
  244MPD1    C1 3752   2.955   4.501   0.339 -0.2712  0.2227  0.9797
  244MPD1    C2 3753   2.902   4.607   0.272  0.1603  0.2101 -0.0481
  244MPD1    C3 3754   2.885   4.602   0.132  0.5030 -0.2817 -0.2483
  244MPD1    C4 3755   2.894   4.480   0.073  0.1156 -0.0857  0.1117
  244MPD1    C5 3756   2.924   4.369   0.149  0.3590 -0.1197  0.4013
  244MPD1     H 3757   2.899   4.704   0.320  0.8654 -0.0142  0.4439
  244MPD1    H1 3758   2.864   4.460  17.710 -1.0158 -0.4492  0.5210
  244MPD1    H2 3759   2.999   4.296   0.330 -1.1586 -0.1939  1.3256
  244MPD1    H3 3760   2.938   4.271   0.104 -0.4357  0.1784 -0.4753
  244MPD1     N 3761   2.852   4.718   0.055 -0.0282  0.1425 -0.1295
  244MPD1    H5 3762   2.846   0.068   0.110  0.2437  0.9059 -1.2544
  244MPD1    N1 3763   2.977   4.516   0.481 -0.0419 -0.2048 -0.4073
  244MPD1    H6 3764   3.057   4.463   0.516  0.1932  0.5674  0.2289
  244MPD1    H7 3765   3.006   4.612   0.494  0.5638 -0.4781  0.2788
  245MPD1     C 3766   4.123   0.700  13.178 -0.0310 -0.3972 -0.0031
  245MPD1    C1 3767   4.027   0.788  13.206  0.5144  0.1787  0.2974
  245MPD1    C2 3768   4.034   0.860  13.327 -0.7039 -1.3855  0.5976
  245MPD1    C3 3769   4.150   0.866  13.399 -0.7175  0.3529  0.4146
  245MPD1    C4 3770   4.251   0.783  13.365  0.4185 -0.2840 -0.7712
  245MPD1    C5 3771   4.243   0.702  13.254  0.0820  0.2716 -0.2544
  245MPD1     H 3772   3.948   0.919  13.356  0.5931  0.7070  0.2259
  245MPD1    H1 3773   4.338   0.767  13.426  0.1803  1.4868  0.0521
  245MPD1    H2 3774   4.111   0.630  13.097  2.4251  1.7810 -2.2554
  245MPD1    H3 3775   4.318   0.626  13.238 -0.5138 -0.6381  1.1993
  245MPD1     N 3776   4.159   0.953  13.513  0.2973  0.5357 -0.7047
  245MPD1    H5 3777   4.079   1.014  13.525  0.0074 -0.0483  0.2963
  245MPD1    N1 3778   3.905   0.777  13.137  0.2175 -1.1508 -0.2901
  245MPD1    H6 3779   3.843   0.857  13.149  1.0029 -0.8115  1.4774
  245MPD1    H7 3780   3.921   0.764  13.037 -0.2284  0.2164 -0.5375
  246MPD1     C 3781   1.039   3.018  10.099 -0.3181 -0.0827  0.4854
  246MPD1    C1 3782   0.929   3.029  10.022 -0.6657 -0.1319 -0.0562
  246MPD1    C2 3783   0.876   2.915   9.967 -0.4548  0.0639 -0.8404
  246MPD1    C3 3784   0.916   2.788   9.994  0.1823 -0.4528  0.0522
  246MPD1    C4 3785   1.025   2.773  10.074 -0.1821 -0.1765 -0.2849
  246MPD1    C5 3786   1.090   2.890  10.120 -0.2116  0.2528  0.8916
  246MPD1     H 3787   0.784   2.919   9.910 -0.9452  0.7947 -0.0036
  246MPD1    H1 3788   1.053   2.677  10.116  2.1302  1.1903  1.3145
  246MPD1    H2 3789   1.080   3.094  10.164 -0.5012  0.4190  0.0098
  246MPD1    H3 3790   1.160   2.876  10.202  1.0960 -0.7922 -0.3977
  246MPD1     N 3791   0.841   2.675   9.939  0.1969  0.1976  0.2093
  246MPD1    H5 3792   0.742   2.690   9.921  0.1284 -0.8783 -0.3494
  246MPD1    N1 3793   0.885   3.158   9.982  0.3463 -0.6812 -0.5493
  246MPD1    H6 3794   0.920   3.236  10.037 -0.1990 -1.1837  0.5211
  246MPD1    H7 3795   0.784   3.163   9.992  0.3350 -1.1641 -0.3899
  247MPD1     C 3796   4.548   1.513  16.996  0.1725 -0.3596 -0.4474
  247MPD1    C1 3797   4.413   1.549  16.976 -0.4569  0.4142 -0.2867
  247MPD1    C2 3798   4.323   1.458  16.947 -0.1164  0.8428 -0.1379
  247MPD1    C3 3799   4.366   1.322  16.923  0.0918  0.3374 -0.1546
  247MPD1    C4 3800   4.499   1.296  16.935  0.2196 -0.6143  0.3042
  247MPD1    C5 3801   4.583   1.390  16.975  0.3683  0.6550  0.5602
  247MPD1     H 3802   4.221   1.495  16.940  0.5413  2.4736 -0.9503
  247MPD1    H1 3803   4.545   1.203  16.902  1.3114 -0.4934  1.4822
  247MPD1    H2 3804   4.619   1.589  17.027  0.2958 -0.4890 -0.4129
  247MPD1    H3 3805   4.687   1.361  16.985 -0.3869 -1.5254  2.0710
  247MPD1     N 3806   4.279   1.223  16.866  0.1657 -0.0276  0.2085
  247MPD1    H5 3807   4.316   1.138  16.826 -0.0224  1.0081 -2.1768
  247MPD1    N1 3808   4.375   1.678  17.023 -0.5333  0.7006  0.2788
  247MPD1    H6 3809   4.455   1.736  16.999 -0.9495 -0.5267 -3.9982
  247MPD1    H7 3810   4.288   1.709  16.981 -0.8373 -1.7914 -0.9326
  248MPD1     C 3811   0.349   4.690   1.313 -0.5596 -0.0686  0.3015
  248MPD1    C1 3812   0.278   0.073   1.315  0.0008  0.2538  0.9925
  248MPD1    C2 3813   0.190   0.111   1.220 -0.5969  0.4238 -0.7227
  248MPD1    C3 3814   0.199   0.048   1.100  0.4590  0.2606 -0.4513
  248MPD1    C4 3815   0.265   4.657   1.093 -0.7035 -0.2015  1.0368
  248MPD1    C5 3816   0.345   4.615   1.202  0.0611  0.5230 -0.0747
  248MPD1     H 3817   0.126   0.197   1.239 -1.0632  0.0246 -0.5064
  248MPD1    H1 3818   0.262   4.590   1.007  2.4328 -0.1016  0.8510
  248MPD1    H2 3819   0.416   4.657   1.391 -1.7398 -2.1894  0.4239
  248MPD1    H3 3820   0.401   4.523   1.192 -0.9336  0.0429 -1.2213
  248MPD1     N 3821   0.113   0.091   0.996  0.1737 -0.4241  0.3814
  248MPD1    H5 3822   0.054   0.170   1.021  0.3616 -0.8121  2.0158
  248MPD1    N1 3823   0.266   0.135   1.442  0.8066  0.1730 -0.4558
  248MPD1    H6 3824   0.330   0.120   1.520  0.8662 -3.4229 -1.2345
  248MPD1    H7 3825   0.254   0.236   1.437  0.1583  0.2310  2.0499
  249MPD1     C 3826   4.351   3.608  10.461 -0.0675  0.0987  0.2438
  249MPD1    C1 3827   4.417   3.690  10.371 -0.2735  0.5147  0.5123
  249MPD1    C2 3828   4.556   3.686  10.364 -0.2289 -0.1392 -0.4190
  249MPD1    C3 3829   4.633   3.600  10.435  0.2310  0.8249  0.4060
  249MPD1    C4 3830   4.560   3.507  10.520  0.1516 -0.2278 -0.1914
  249MPD1    C5 3831   4.427   3.513  10.529 -0.2565 -0.8642  1.2060
  249MPD1     H 3832   4.604   3.740  10.283 -0.2169  1.8216  0.9162
  249MPD1    H1 3833   4.605   3.426  10.576 -0.3569  1.2032  2.2869
  249MPD1    H2 3834   4.245   3.615  10.483  0.2200  1.5781  1.2035
  249MPD1    H3 3835   4.374   3.447  10.596 -3.5350  1.2078  0.6476
  249MPD1     N 3836   0.038   3.601  10.423  0.7123  0.5320  0.2583
  249MPD1    H5 3837   0.080   3.659  10.351 -1.3113  0.6866 -0.7763
  249MPD1    N1 3838   4.338   3.797  10.314  0.3028 -0.0818 -0.2322
  249MPD1    H6 3839   4.246   3.758  10.293  0.0241 -0.3461  1.4273
  249MPD1    H7 3840   4.388   3.834  10.234 -1.3404 -0.6247 -1.5122
  250MPD2     C 3841   2.959   4.129  13.507 -0.0727  0.1096 -0.5383
  250MPD2    C1 3842   2.862   4.210  13.466 -0.2241  0.6560 -0.4839
  250MPD2    C2 3843   2.732   4.160  13.440  0.0190  0.0008 -0.0188
  250MPD2    C3 3844   2.701   4.026  13.440  0.1963 -0.0866 -0.4317
  250MPD2    C4 3845   2.809   3.949  13.475 -0.8115  0.3376  0.8038
  250MPD2    C5 3846   2.935   3.997  13.517 -0.2102  0.4503  0.2203
  250MPD2     H 3847   2.656   4.229  13.406 -0.8177 -1.9071 -2.0728
  250MPD2    H1 3848   2.797   3.846  13.507  1.0495 -0.2301 -0.2985
  250MPD2    H2 3849   3.061   4.155  13.533 -1.2076  3.2936  0.6810
  250MPD2    H3 3850   3.012   3.925  13.541  0.2762 -0.3074 -3.6133
  250MPD2     N 3851   2.576   3.967  13.458  0.8239 -0.4608 -0.2499
  250MPD2    H5 3852   2.574   3.866  13.449 -0.2169 -0.3311 -1.4730
  250MPD2    N1 3853   2.903   4.346  13.449 -0.3201 -0.1958  0.7766
  250MPD2    H7 3854   3.003   4.362  13.444 -0.5540  0.3676 -2.2641
  251TMC3    C1 3855   2.878   4.576  13.381 -0.0023  0.3188  0.0151
  251TMC3    C2 3856   2.791   4.684  13.371 -0.3615 -0.2722 -1.1275
  251TMC3    C3 3857   2.839   0.077  13.364  0.0712 -0.1196 -0.2737
  251TMC3    C4 3858   3.009   4.595  13.380  0.0026  0.2040 -0.2225
  251TMC3    C5 3859   3.057   4.729  13.382 -1.2898 -0.4443  0.0779
  251TMC3    C6 3860   2.973   0.104  13.365  0.1923 -0.4034 -0.2833
  251TMC3     C 3861   2.816   4.447  13.418  0.0294  0.0255 -0.4803
  251TMC3     O 3862   2.694   4.456  13.422  0.8084  0.2216 -0.4471
  251TMC3     H 3863   2.687   4.658  13.351  0.0468  0.0973 -3.6960
  251TMC3    H1 3864   3.083   4.516  13.371  0.7017  0.7928  0.3946
  251TMC3    H2 3865   3.013   0.202  13.390  0.4531 -0.9544  1.4635
  251TMC3    C7 3866   3.198   0.006  13.371 -0.2701 -0.2658 -0.6760
  251TMC3    C8 3867   2.736   0.178  13.358 -0.4489  0.6729  0.3188
  251TMC3    O1 3868   3.264   4.642  13.388  0.2654 -0.3227  0.2573
  251TMC3    O2 3869   2.627   0.138  13.402 -0.3753 -0.4945  0.6865
  252TMC3    C1 3870   3.653   0.506   9.339  0.3428  0.3801  0.2533
  252TMC3    C2 3871   3.735   0.543   9.439  0.9903 -0.3459 -0.7414
  252TMC3    C3 3872   3.686   0.580   9.560  0.2947 -0.7581  0.6194
  252TMC3    C4 3873   3.521   0.508   9.353  0.2831  0.0706 -0.3541
  252TMC3    C5 3874   3.473   0.542   9.476  0.2109  0.3285 -0.0708
  252TMC3    C6 3875   3.548   0.565   9.582 -0.2346  0.8398 -0.2830
  252TMC3     C 3876   3.716   0.492   9.205  0.1980  0.9489  0.7276
  252TMC3     O 3877   3.638   0.500   9.116  0.2620  0.0222  0.3681
  252TMC3     H 3878   3.834   0.574   9.408 -0.0096  0.9739 -2.5559
  252TMC3    H1 3879   3.451   0.504   9.271 -1.8240  0.3396  1.4450
  252TMC3    H2 3880   3.499   0.595   9.674  0.6124 -2.2007  1.1713
  252TMC3    C7 3881   3.335   0.560   9.490 -0.2900  0.7343  0.7486
  252TMC3    C8 3882   3.779   0.662   9.637  1.0895  0.5859 -0.1687
  252TMC3    O1 3883   3.273   0.612   9.401 -0.5341  0.0351  0.1615
  252TMC3    O2 3884   3.879   0.697   9.583 -0.6938 -0.4674  1.1367
  253MPD2     C 3885   4.173   4.179  15.326 -0.4033 -0.4450  0.2474
  253MPD2    C1 3886   4.036   4.159  15.336 -0.3822 -0.0606 -0.3364
  253MPD2    C2 3887   3.983   4.185  15.465  0.2335  0.6453  0.0054
  253MPD2    C3 3888   4.051   4.235  15.573 -0.0875  0.0730 -0.3514
  253MPD2    C4 3889   4.181   4.254  15.558  0.4619  0.0720  0.1980
  253MPD2    C5 3890   4.241   4.220  15.438 -0.4375 -0.6545  0.0547
  253MPD2     H 3891   3.877   4.163  15.471  0.6055 -1.1388  0.0100
  253MPD2    H1 3892   4.246   4.297  15.633  0.6079  0.9695 -0.4387
  253MPD2    H2 3893   4.220   4.169  15.229 -1.7196 -0.3754 -0.3935
  253MPD2    H3 3894   4.345   4.250  15.425 -0.5411 -0.4955 -0.4175
  253MPD2     N 3895   3.995   4.271  15.699 -0.0219  0.7052  0.5728
  253MPD2    H5 3896   4.065   4.281  15.771  0.5126 -1.3061  0.3266
  253MPD2    N1 3897   3.944   4.129  15.234  0.1743 -0.1289  0.3641
  253MPD2    H7 3898   3.849   4.103  15.258  0.1488  0.1084  0.5206
  254TMC3    C1 3899   3.842   4.331  15.865 -0.3028 -0.5484  0.2685
  254TMC3    C2 3900   3.709   4.351  15.897  0.8694 -0.1662 -0.3189
  254TMC3    C3 3901   3.672   4.333  16.029 -0.0589  0.9708  0.4132
  254TMC3    C4 3902   3.939   4.298  15.963 -0.4290  1.0376  1.0416
  254TMC3    C5 3903   3.887   4.291  16.090 -0.3281  0.2984  0.2464
  254TMC3    C6 3904   3.759   4.302  16.129 -0.1031  0.6278 -0.1397
  254TMC3     C 3905   3.864   4.307  15.724  0.1665  0.3075  0.2506
  254TMC3     O 3906   3.765   4.314  15.644 -0.5175 -0.3169  0.0248
  254TMC3     H 3907   3.628   4.360  15.826 -1.5103 -1.9203  2.1968
  254TMC3    H1 3908   4.045   4.284  15.944 -0.7586 -1.3086  0.9462
  254TMC3    H2 3909   3.736   4.312  16.235  0.5642  0.4081  0.0268
  254TMC3    C7 3910   3.978   4.282  16.205 -0.5208  0.5249 -0.2717
  254TMC3    C8 3911   3.572   4.422  16.076 -0.0161 -0.2119  0.4988
  254TMC3    O1 3912   3.927   4.230  16.304 -0.9094 -0.2582 -0.2148
  254TMC3    O2 3913   3.534   4.402  16.196 -0.5524  0.4742  0.2949
  255MPD2     C 3914   2.374   1.732  10.854 -0.2616 -0.6336  1.0003
  255MPD2    C1 3915   2.454   1.787  10.757 -0.3974  0.9417  0.5864
  255MPD2    C2 3916   2.499   1.705  10.658  0.9785  0.2789  0.0718
  255MPD2    C3 3917   2.486   1.572  10.649 -0.1926  0.0392 -0.0093
  255MPD2    C4 3918   2.420   1.519  10.760  0.1600  0.6703 -0.3570
  255MPD2    C5 3919   2.355   1.597  10.849 -0.9533 -0.0390 -0.4998
  255MPD2     H 3920   2.545   1.748  10.570 -2.8472 -0.0730 -2.1263
  255MPD2    H1 3921   2.384   1.417  10.755  3.6225 -0.6064  0.7540
  255MPD2    H2 3922   2.341   1.792  10.938 -0.7532  2.9249 -1.6857
  255MPD2    H3 3923   2.292   1.559  10.929 -1.3922  2.4875  0.3670
  255MPD2     N 3924   2.526   1.496  10.536 -0.2850  0.3942  0.0312
  255MPD2    H5 3925   2.591   1.540  10.471  0.8447 -1.2497  0.0653
  255MPD2    N1 3926   2.469   1.921  10.755 -0.4319  0.0232 -0.0741
  255MPD2    H7 3927   2.411   1.977  10.816  2.0575  1.0390  1.3704
  256TMC3    C1 3928   2.539   2.144  10.686 -0.1726 -0.2024 -0.2081
  256TMC3    C2 3929   2.625   2.205  10.597 -0.3635  0.4960 -0.8132
  256TMC3    C3 3930   2.586   2.312  10.525  0.5266 -0.5376  0.3322
  256TMC3    C4 3931   2.412   2.197  10.701 -1.1630 -0.6436  0.4689
  256TMC3    C5 3932   2.380   2.305  10.622  0.1072 -0.2272  0.6063
  256TMC3    C6 3933   2.460   2.365  10.531  0.2165  0.1985 -0.6174
  256TMC3     C 3934   2.558   1.996  10.680  0.2174  0.1570 -0.3699
  256TMC3     O 3935   2.632   1.955  10.588 -0.2697  0.4660  0.5519
  256TMC3     H 3936   2.729   2.173  10.591  0.3650  2.7197  0.2790
  256TMC3    H1 3937   2.326   2.151  10.749 -0.1374 -1.7182  1.2858
  256TMC3    H2 3938   2.422   2.451  10.478 -1.7406  0.2582  0.8973
  256TMC3    C7 3939   2.234   2.322  10.599  0.1624  0.2965 -0.6799
  256TMC3    C8 3940   2.689   2.363  10.427  0.6620 -0.0305  0.3141
  256TMC3    O1 3941   2.201   2.346  10.486  0.0659  0.5638 -0.4128
  256TMC3    O2 3942   2.793   2.307  10.403 -0.0029  0.0912  0.1422
  257MPD2     C 3943   1.480   4.662  13.453 -0.0566 -0.2467 -0.6964
  257MPD2    C1 3944   1.449   4.554  13.373 -0.1219  0.3794 -0.2607
  257MPD2    C2 3945   1.423   4.430  13.432 -0.7271  0.3215  0.6110
  257MPD2    C3 3946   1.414   4.423  13.569 -0.2679  1.0071 -0.0935
  257MPD2    C4 3947   1.443   4.533  13.648 -0.1050 -0.3212  0.2211
  257MPD2    C5 3948   1.483   4.652  13.592 -0.4441 -0.8922  0.2669
  257MPD2     H 3949   1.399   4.344  13.370 -0.6405  0.5673  0.2379
  257MPD2    H1 3950   1.432   4.526  13.755 -2.1963 -1.5901 -0.0641
  257MPD2    H2 3951   1.504   0.024  13.412  1.4451 -0.8310 -1.1710
  257MPD2    H3 3952   1.499   0.004  13.654  0.7831 -1.4004  0.6739
  257MPD2     N 3953   1.372   4.304  13.629  0.5000 -0.3374  0.6937
  257MPD2    H5 3954   1.318   4.237  13.575 -0.2349 -0.9555  2.2047
  257MPD2    N1 3955   1.435   4.571  13.236 -0.4055 -0.1372  0.3412
  257MPD2    H7 3956   1.489   4.646  13.194  0.8188 -1.9212 -1.2896
  258TMC3    C1 3957   1.319   4.159  13.808 -0.4369 -0.0357  0.1993
  258TMC3    C2 3958   1.205   4.119  13.744 -1.2999  0.2606  0.4974
  258TMC3    C3 3959   1.150   3.999  13.785  0.1135 -1.0128 -0.7930
  258TMC3    C4 3960   1.372   4.090  13.902 -0.3732 -0.1624 -0.4093
  258TMC3    C5 3961   1.320   3.969  13.939 -0.0171 -0.0514  0.0165
  258TMC3    C6 3962   1.204   3.925  13.887 -0.1750 -0.5205 -0.1840
  258TMC3     C 3963   1.402   4.265  13.758  0.5528  0.0705 -0.2324
  258TMC3     O 3964   1.504   4.297  13.824 -0.0059 -0.8008  0.6341
  258TMC3     H 3965   1.167   4.187  13.668 -1.4312 -1.3894 -0.9073
  258TMC3    H1 3966   1.454   4.130  13.960 -0.8647 -0.3308  0.4040
  258TMC3    H2 3967   1.178   3.820  13.898  1.3690 -0.7029  1.6238
  258TMC3    C7 3968   1.397   3.899  14.042 -1.0581  0.4501  0.2482
  258TMC3    C8 3969   1.073   3.924  13.690  0.0200 -0.2803 -0.2278
  258TMC3    O1 3970   1.509   3.937  14.073 -0.3000 -0.1463  0.7745
  258TMC3    O2 3971   1.070   3.968  13.575  0.1284 -0.1175 -0.4088
  259MPD2     C 3972   0.569   0.821   0.819  0.1643 -0.0718  0.5198
  259MPD2    C1 3973   0.683   0.748   0.806  0.0955  1.2539  0.3101
  259MPD2    C2 3974   0.767   0.765   0.698  1.0245  0.1452  0.1682
  259MPD2    C3 3975   0.735   0.838   0.591  0.3950  0.1050 -0.3037
  259MPD2    C4 3976   0.609   0.901   0.600 -0.1317  0.2405 -0.1104
  259MPD2    C5 3977   0.524   0.884   0.704 -0.1710  0.3213  0.4352
  259MPD2     H 3978   0.869   0.731   0.713  0.6204 -0.6406  1.1567
  259MPD2    H1 3979   0.570   0.957   0.516  1.8362  2.0465  0.1598
  259MPD2    H2 3980   0.507   0.818   0.909  1.5579 -0.9467  1.4408
  259MPD2    H3 3981   0.424   0.925   0.694  0.1042  0.4711 -1.5817
  259MPD2     N 3982   0.834   0.856   0.487  0.3037  0.1207 -0.2065
  259MPD2    H5 3983   0.927   0.826   0.514  0.2521 -0.3106 -0.5195
  259MPD2    N1 3984   0.718   0.665   0.913 -0.3755 -0.1617  0.1027
  259MPD2    H7 3985   0.658   0.659   0.995  0.1307  0.1187  0.4938
  260TMC3    C1 3986   0.953   0.945   0.305 -0.0179  0.6141 -0.1038
  260TMC3    C2 3987   0.944   0.973   0.174  0.1320 -0.0262  0.3653
  260TMC3    C3 3988   1.046   0.938   0.098 -0.1611 -0.4314  0.6703
  260TMC3    C4 3989   1.060   0.877   0.361  0.5859  0.3319 -0.4081
  260TMC3    C5 3990   1.166   0.858   0.284  0.9848  0.5426 -0.3140
  260TMC3    C6 3991   1.161   0.881   0.148  0.0007  0.1129  0.1157
  260TMC3     C 3992   0.826   0.939   0.378 -0.3877  1.1026  0.2877
  260TMC3     O 3993   0.733   1.004   0.333  0.1065 -0.3354 -0.0483
  260TMC3     H 3994   0.857   1.021   0.132  1.0654  0.6253 -0.8223
  260TMC3    H1 3995   1.059   0.843   0.464  1.0798 -0.9040 -0.8112
  260TMC3    H2 3996   1.251   0.871   0.089  0.0426 -3.0949  0.7416
  260TMC3    C7 3997   1.248   0.751   0.327 -0.1312 -0.4698 -0.0462
  260TMC3    C8 3998   1.004   0.885  17.706  0.3579 -0.2604  0.6092
  260TMC3    O1 3999   1.370   0.766   0.339 -0.0041  0.2437  0.2314
  260TMC3    O2 4000   0.947   0.964  17.634  0.2044  0.2959  0.3686
  261MPD2     C 4001   1.848   3.957  13.105 -0.3630 -0.3201 -0.1941
  261MPD2    C1 4002   1.977   4.005  13.116 -0.1647 -0.2419 -0.5887
  261MPD2    C2 4003   2.039   4.049  12.996 -0.2953  0.0819 -0.2907
  261MPD2    C3 4004   1.975   4.038  12.874 -0.3211  0.1749 -0.0840
  261MPD2    C4 4005   1.846   3.989  12.861  0.9534  0.2388 -0.6884
  261MPD2    C5 4006   1.784   3.951  12.981 -0.0291 -0.3587 -0.1469
  261MPD2     H 4007   2.129   4.110  12.998 -1.1858  1.2707  3.6801
  261MPD2    H1 4008   1.793   3.981  12.767 -0.3408 -1.4431  0.1852
  261MPD2    H2 4009   1.788   3.928  13.190 -3.4668  0.5621 -2.0986
  261MPD2    H3 4010   1.680   3.921  12.984  0.0409 -0.6139 -0.2443
  261MPD2     N 4011   2.039   4.098  12.767 -0.3937 -0.3861 -0.2607
  261MPD2    H5 4012   2.130   4.137  12.790 -0.8777 -0.3143  1.6021
  261MPD2    N1 4013   2.045   4.013  13.245  0.1266  0.3275  0.0922
  261MPD2    H7 4014   2.140   4.049  13.247 -0.0528  0.8951 -2.3205
  262TMC3    C1 4015   2.078   4.210  12.569 -0.2922 -0.4318  0.2827
  262TMC3    C2 4016   2.038   4.339  12.535  0.0547  0.6222 -0.3842
  262TMC3    C3 4017   2.135   4.425  12.491  0.2273  0.1313 -0.4485
  262TMC3    C4 4018   2.211   4.168  12.563 -0.5640 -0.1549 -0.3813
  262TMC3    C5 4019   2.298   4.253  12.500  0.2404 -0.0873  0.7673
  262TMC3    C6 4020   2.263   4.385  12.483 -0.5238 -0.3205  0.8083
  262TMC3     C 4021   1.983   4.126  12.639  0.6748 -0.9990 -0.0763
  262TMC3     O 4022   1.874   4.106  12.588  0.4195 -0.3314  0.1554
  262TMC3     H 4023   1.932   4.361  12.545  0.4101  1.6353  1.2127
  262TMC3    H1 4024   2.229   4.062  12.577 -2.3683 -0.3888  0.1837
  262TMC3    H2 4025   2.336   4.463  12.465 -2.3221  1.1559 -0.1936
  262TMC3    C7 4026   2.352   4.198  12.379 -0.3174  0.5346  0.3928
  262TMC3    C8 4027   2.099   4.536  12.407 -0.0925 -0.0328 -0.2719
  262TMC3    O1 4028   2.366   4.079  12.363  0.0546  0.0486 -0.3741
  262TMC3    O2 4029   2.189   4.607  12.357  0.0915  0.9159  0.1776
  263MPD2     C 4030   2.765   3.235  11.625  0.3413 -1.1099  0.0391
  263MPD2    C1 4031   2.899   3.277  11.627  0.0293  0.6157 -0.4529
  263MPD2    C2 4032   2.941   3.344  11.514 -0.2153 -0.4387  0.0597
  263MPD2    C3 4033   2.874   3.351  11.397 -0.0376 -0.7055  0.0338
  263MPD2    C4 4034   2.746   3.301  11.391  0.8073 -0.2878  0.2605
  263MPD2    C5 4035   2.692   3.250  11.508 -0.3653  0.4053 -0.8922
  263MPD2     H 4036   3.034   3.399  11.511 -0.3194 -0.3175 -1.2270
  263MPD2    H1 4037   2.686   3.309  11.302  1.2771  1.0895  0.0740
  263MPD2    H2 4038   2.725   3.185  11.712 -2.0843  1.6759  0.5036
  263MPD2    H3 4039   2.590   3.212  11.502 -0.2843  0.2996 -1.5648
  263MPD2     N 4040   2.941   3.414  11.289 -0.0866  0.1477 -0.0127
  263MPD2    H5 4041   3.027   3.464  11.311 -0.7980  1.6083 -0.5368
  263MPD2    N1 4042   2.978   3.266  11.742 -0.5005  0.2976  0.0470
  263MPD2    H7 4043   2.941   3.201  11.810  0.5178 -1.4516 -1.0718
  264TMC3    C1 4044   2.964   3.481  11.069  0.1505  0.0944 -0.1142
  264TMC3    C2 4045   2.968   3.612  11.106  0.2946  1.3525 -0.2730
  264TMC3    C3 4046   3.055   3.695  11.034  0.2841  0.1741  0.5792
  264TMC3    C4 4047   3.038   3.427  10.971 -0.1044  0.4889 -0.4264
  264TMC3    C5 4048   3.110   3.512  10.897 -0.2114 -0.3404 -0.0160
  264TMC3    C6 4049   3.112   3.648  10.918 -0.4939  0.4181 -0.2118
  264TMC3     C 4050   2.904   3.386  11.162 -0.3712  0.0059  0.5328
  264TMC3     O 4051   2.858   3.292  11.108  0.1132  0.2138 -0.3362
  264TMC3     H 4052   2.898   3.650  11.180 -0.5908 -1.0950  0.1492
  264TMC3    H1 4053   3.051   3.319  10.971  2.3133  0.7755 -0.1688
  264TMC3    H2 4054   3.167   3.722  10.860 -0.1465 -0.3361 -0.8382
  264TMC3    C7 4055   3.229   3.468  10.832  0.2425  0.7322 -0.4669
  264TMC3    C8 4056   3.058   3.840  11.061 -0.2936  0.1540  0.0437
  264TMC3    O1 4057   3.322   3.545  10.833 -0.0472 -0.5180  0.4319
  264TMC3    O2 4058   3.077   3.914  10.963 -0.1012  0.0635  0.1397
  265MPD2     C 4059   0.482   3.811  15.991  0.0864 -0.8662  0.1589
  265MPD2    C1 4060   0.506   3.906  15.891 -0.6921 -0.1289 -0.0219
  265MPD2    C2 4061   0.572   3.877  15.773  0.5974 -0.1815 -1.1301
  265MPD2    C3 4062   0.597   3.747  15.746  0.1888 -0.7638  0.2212
  265MPD2    C4 4063   0.563   3.642  15.840  0.7786 -0.1506 -0.5749
  265MPD2    C5 4064   0.508   3.677  15.962  0.2776 -0.0679 -0.9212
  265MPD2     H 4065   0.590   3.958  15.704  1.5966  0.2326 -0.3858
  265MPD2    H1 4066   0.590   3.540  15.815 -0.8297 -1.0268  1.3141
  265MPD2    H2 4067   0.428   3.832  16.083  0.2002  0.1466 -0.0062
  265MPD2    H3 4068   0.481   3.606  16.039 -0.4051 -0.7273 -1.7697
  265MPD2     N 4069   0.656   3.708  15.623  0.5406  0.2901  0.6141
  265MPD2    H5 4070   0.661   3.611  15.594  1.5773  1.1472 -2.1252
  265MPD2    N1 4071   0.462   4.042  15.906 -0.1742  0.4356  0.1754
  265MPD2    H7 4072   0.475   4.094  15.820  0.0391 -1.2405 -0.8067
  266TMC3    C1 4073   0.365   4.239  15.975 -0.4311 -0.2320 -0.4632
  266TMC3    C2 4074   0.287   4.297  16.073 -0.2071 -0.4331  0.0175
  266TMC3    C3 4075   0.215   4.405  16.033  0.0755 -0.0007 -0.7442
  266TMC3    C4 4076   0.366   4.282  15.849 -0.1801  0.8134 -0.0975
  266TMC3    C5 4077   0.289   4.386  15.813 -0.0592  0.1191 -0.4698
  266TMC3    C6 4078   0.214   4.449  15.906  0.4313 -0.0833 -0.3314
  266TMC3     C 4079   0.390   4.101  16.005 -0.7444  0.4813  0.0430
  266TMC3     O 4080   0.358   4.061  16.115 -0.4320 -0.4330  0.0441
  266TMC3     H 4081   0.288   4.269  16.178  0.3301  0.6795  0.3085
  266TMC3    H1 4082   0.432   4.238  15.774 -0.4652 -0.9004  0.6647
  266TMC3    H2 4083   0.156   4.538  15.881  1.2548  0.4198 -0.4603
  266TMC3    C7 4084   0.282   4.419  15.673 -0.0856 -0.0342 -0.2178
  266TMC3    C8 4085   0.138   4.482  16.128 -0.0620 -0.2909 -0.8063
  266TMC3    O1 4086   0.388   4.419  15.609  0.0332 -0.6055 -0.3694
  266TMC3    O2 4087   0.033   4.512  16.078  0.3401 -0.1623  0.2497
  267MPD2     C 4088   3.404   1.312  17.723 -0.5281 -0.1062  0.4098
  267MPD2    C1 4089   3.301   1.263   0.064 -0.2426  0.2950 -0.3519
  267MPD2    C2 4090   3.170   1.281   0.018  0.8413 -0.2052 -0.6370
  267MPD2    C3 4091   3.149   1.330  17.631  0.1688 -0.8524 -0.1355
  267MPD2    C4 4092   3.253   1.377  17.552  0.8423  0.7089  0.2777
  267MPD2    C5 4093   3.383   1.357  17.593  0.2881 -0.0786 -0.2340
  267MPD2     H 4094   3.090   1.251   0.084  0.7414  0.8321 -0.2891
  267MPD2    H1 4095   3.243   1.407  17.448 -0.8010 -1.1275 -0.0831
  267MPD2    H2 4096   3.506   1.310   0.020 -0.7568  0.8094  1.1047
  267MPD2    H3 4097   3.464   1.387  17.528 -0.4725 -0.7822 -1.4960
  267MPD2     N 4098   3.020   1.344  17.579 -0.3607  0.1469  0.0213
  267MPD2    H5 4099   3.014   1.381  17.485  0.0651 -1.2665 -0.5609
  267MPD2    N1 4100   3.333   1.220   0.197  0.8717  0.0008  0.5118
  267MPD2    H7 4101   3.425   1.233   0.239  0.6847  1.1623  0.5579
  268TMC3    C1 4102   3.305   1.160   0.421 -0.0351 -0.1350 -0.6261
  268TMC3    C2 4103   3.387   1.258   0.458  0.4042 -0.1402 -0.3739
  268TMC3    C3 4104   3.425   1.273   0.591 -0.1781 -0.1845  0.3317
  268TMC3    C4 4105   3.252   1.074   0.511 -0.3761 -0.1859  0.0894
  268TMC3    C5 4106   3.289   1.096   0.643 -0.6639 -0.0594 -0.5694
  268TMC3    C6 4107   3.373   1.191   0.689 -0.0650  0.1944  0.7688
  268TMC3     C 4108   3.248   1.151   0.290 -0.7353 -0.2943  0.4670
  268TMC3     O 4109   3.141   1.094   0.267  0.4137  0.1672 -0.3888
  268TMC3     H 4110   3.430   1.328   0.387 -0.7835  2.8832  1.8843
  268TMC3    H1 4111   3.190   0.992   0.477  1.6900 -1.6352 -0.1993
  268TMC3    H2 4112   3.403   1.199   0.793 -0.4978  2.2776  0.7235
  268TMC3    C7 4113   3.247   0.994   0.739 -0.4286 -0.4583 -0.3453
  268TMC3    C8 4114   3.526   1.376   0.625  0.1065 -0.5450  0.0127
  268TMC3    O1 4115   3.326   0.967   0.830  0.5573 -0.2652  0.6414
  268TMC3    O2 4116   3.523   1.421   0.738 -0.1799  0.0377 -0.1763
  269MPD2     C 4117   3.238   4.707  15.575 -0.3877  0.5613  0.1324
  269MPD2    C1 4118   3.187   0.013  15.698 -0.0213 -0.0687  0.0755
  269MPD2    C2 4119   3.166   0.147  15.723 -0.0164 -0.3941 -0.1457
  269MPD2    C3 4120   3.209   0.238  15.635 -0.6538  0.0788  0.5325
  269MPD2    C4 4121   3.263   0.194  15.510  0.0414 -0.1502  0.7315
  269MPD2    C5 4122   3.271   0.062  15.481  0.4057 -0.1121  0.4925
  269MPD2     H 4123   3.121   0.183  15.816 -1.5890 -0.3436 -0.9216
  269MPD2    H1 4124   3.291   0.261  15.430 -2.2468 -1.7589 -1.4158
  269MPD2    H2 4125   3.247   4.607  15.534 -2.5195 -0.1623  1.3790
  269MPD2    H3 4126   3.303   0.025  15.384 -0.8247  0.8400 -0.2756
  269MPD2     N 4127   3.195   0.374  15.666  0.0029 -0.0821 -0.2464
  269MPD2    H5 4128   3.130   0.393  15.742 -0.1938 -0.4555 -0.3259
  269MPD2    N1 4129   3.144   4.642  15.785 -0.1714 -0.3012 -0.0275
  269MPD2    H7 4130   3.134   4.549  15.746 -0.5273 -0.0855 -0.4463
  270TMC3    C1 4131   3.039   4.554  15.987 -0.1204 -0.7116  0.4999
  270TMC3    C2 4132   2.910   4.507  15.960 -0.5937  0.4469 -0.0473
  270TMC3    C3 4133   2.877   4.384  16.001  0.3248  0.4441  0.1548
  270TMC3    C4 4134   3.136   4.464  16.031  0.2649  0.1393  0.0664
  270TMC3    C5 4135   3.097   4.338  16.072 -0.1518  0.3176 -0.1412
  270TMC3    C6 4136   2.967   4.303  16.067 -0.9357 -0.4825  0.2472
  270TMC3     C 4137   3.082   4.668  15.913 -0.3359 -1.2493  1.0269
  270TMC3     O 4138   3.015   0.034  15.944 -0.1045  0.4530  0.8481
  270TMC3     H 4139   2.836   4.573  15.917  1.4747  4.2947  2.3221
  270TMC3    H1 4140   3.240   4.493  16.033  0.1252  0.2880  4.4357
  270TMC3    H2 4141   2.938   4.202  16.093 -0.6372 -1.0538 -1.6384
  270TMC3    C7 4142   3.185   4.237  16.008  0.4348 -0.2054 -0.4626
  270TMC3    C8 4143   2.794   4.305  15.912 -0.0168  0.0114 -0.0712
  270TMC3    O1 4144   3.309   4.251  16.005 -0.1305  0.3337  0.0795
  270TMC3    O2 4145   2.821   4.187  15.891 -0.1202 -0.4159  0.6966
  271MPD2     C 4146   2.108   4.312  14.207 -0.6497 -0.2633 -0.6449
  271MPD2    C1 4147   2.025   4.271  14.314  0.2079 -0.6229  0.0746
  271MPD2    C2 4148   1.894   4.312  14.311  0.0072  0.6897  0.0019
  271MPD2    C3 4149   1.835   4.386  14.206  0.4028  1.0358  0.4368
  271MPD2    C4 4150   1.928   4.433  14.115 -0.4531  0.1055 -0.5461
  271MPD2    C5 4151   2.060   4.402  14.112  0.3709 -0.2778 -0.2270
  271MPD2     H 4152   1.831   4.293  14.397  1.4555 -2.5259  0.3499
  271MPD2    H1 4153   1.899   4.503  14.038 -2.7186 -0.0163  0.1931
  271MPD2    H2 4154   2.204   4.264  14.193  0.9408  1.7591  3.5194
  271MPD2    H3 4155   2.128   4.434  14.034  2.9923  1.3403  2.7348
  271MPD2     N 4156   1.694   4.423  14.214 -0.5750 -0.3678 -0.6543
  271MPD2    H5 4157   1.639   4.378  14.286 -2.0203  1.7219 -0.4528
  271MPD2    N1 4158   2.079   4.177  14.402  0.1957  0.8100 -0.0720
  271MPD2    H7 4159   2.179   4.162  14.401  0.1899  0.6999  0.8721
  272TMC3    C1 4160   2.106   4.041  14.595  0.7119  0.4790  0.0225
  272TMC3    C2 4161   2.204   3.974  14.540 -0.6638 -0.1286  0.3101
  272TMC3    C3 4162   2.305   3.945  14.620  0.5963  0.1809 -0.0357
  272TMC3    C4 4163   2.088   4.073  14.722  0.6730  0.2526 -0.0128
  272TMC3    C5 4164   2.187   4.035  14.807  0.2224  0.0584 -0.1045
  272TMC3    C6 4165   2.301   3.983  14.755 -0.2422  0.2320 -0.0236
  272TMC3     C 4166   2.011   4.111  14.504  0.7794 -0.1840  0.0481
  272TMC3     O 4167   1.899   4.139  14.542 -0.4117  0.5915  0.6857
  272TMC3     H 4168   2.206   3.955  14.434  0.8869  2.6172 -0.1465
  272TMC3    H1 4169   1.994   4.117  14.751  1.1420  1.2223  0.0187
  272TMC3    H2 4170   2.392   3.989  14.814 -0.0572  0.3847 -0.3268
  272TMC3    C7 4171   2.161   4.096  14.932  0.2982  0.2861  1.0254
  272TMC3    C8 4172   2.431   3.931  14.557 -0.5223  0.4180  0.4413
  272TMC3    O1 4173   2.043   4.110  14.966 -0.1634  0.2268 -0.0763
  272TMC3    O2 4174   2.429   3.926  14.434  0.2606  0.3502 -0.0963
  273MPD2     C 4175   3.601   1.767  11.976  0.1443 -0.9735 -0.4398
  273MPD2    C1 4176   3.721   1.824  11.949  0.2151 -0.0067  0.2127
  273MPD2    C2 4177   3.736   1.919  11.845  0.1109  0.7810 -0.2710
  273MPD2    C3 4178   3.617   1.952  11.776  0.1056  0.2421  0.1153
  273MPD2    C4 4179   3.499   1.885  11.806 -0.0474 -0.6101 -0.5534
  273MPD2    C5 4180   3.490   1.787  11.905  0.1687 -0.6201 -0.3387
  273MPD2     H 4181   3.831   1.963  11.818  0.6435  0.0412  0.3721
  273MPD2    H1 4182   3.404   1.912  11.763 -0.1764 -0.4576 -0.1715
  273MPD2    H2 4183   3.592   1.688  12.050  0.8739 -0.9916 -0.3689
  273MPD2    H3 4184   3.394   1.742  11.927 -1.1955  1.8873 -1.1410
  273MPD2     N 4185   3.611   2.060  11.684 -0.5342 -0.2506  0.4976
  273MPD2    H5 4186   3.524   2.082  11.636 -0.1506  1.7378  0.6890
  273MPD2    N1 4187   3.833   1.778  12.028  0.2792  0.2774  0.1453
  273MPD2    H7 4188   3.810   1.723  12.110  1.2694 -1.1494 -0.5342
  274TMC3    C1 4189   3.673   2.242  11.558  0.1683 -0.1402  0.2814
  274TMC3    C2 4190   3.576   2.206  11.464 -0.4317  0.0182  0.8412
  274TMC3    C3 4191   3.511   2.309  11.407 -0.1366  0.1646 -0.3164
  274TMC3    C4 4192   3.697   2.373  11.595 -0.2594 -0.5172 -0.0531
  274TMC3    C5 4193   3.625   2.474  11.536 -0.1971  0.1197 -0.0097
  274TMC3    C6 4194   3.526   2.442  11.447 -0.1103  0.1040 -0.4067
  274TMC3     C 4195   3.707   2.147  11.661  0.6062 -0.4231 -0.4759
  274TMC3     O 4196   3.801   2.177  11.731  0.2318 -0.1048  0.4580
  274TMC3     H 4197   3.545   2.107  11.430 -0.8445  0.5145 -0.2317
  274TMC3    H1 4198   3.760   2.397  11.680  0.0492  1.0987 -0.7309
  274TMC3    H2 4199   3.492   2.522  11.382 -0.6970  0.2978  0.1407
  274TMC3    C7 4200   3.608   2.600  11.606  1.1260  0.5477  0.3636
  274TMC3    C8 4201   3.385   2.283  11.336 -0.6671  0.2351  0.2552
  274TMC3    O1 4202   3.492   2.643  11.616 -0.0859  0.0087 -0.1374
  274TMC3    O2 4203   3.285   2.348  11.372 -0.0651 -0.6299 -0.1375
  275MPD2     C 4204   3.756   0.368  14.431 -0.1466 -0.2920  0.6570
  275MPD2    C1 4205   3.711   0.393  14.560  0.0308 -0.1929  0.3315
  275MPD2    C2 4206   3.593   0.342  14.606  0.0214  0.3837  0.1278
  275MPD2    C3 4207   3.504   0.275  14.522 -0.2132  0.4508 -0.3250
  275MPD2    C4 4208   3.535   0.266  14.390  0.1349  0.0126 -0.1093
  275MPD2    C5 4209   3.668   0.288  14.350 -0.7461  0.0205  0.0675
  275MPD2     H 4210   3.562   0.349  14.710  2.0969 -0.8456  0.8181
  275MPD2    H1 4211   3.468   0.234  14.310 -1.1786  0.5421  0.7833
  275MPD2    H2 4212   3.852   0.401  14.395 -0.0073 -1.7309 -0.2854
  275MPD2    H3 4213   3.686   0.286  14.244 -1.0123  3.7337 -0.0587
  275MPD2     N 4214   3.378   0.231  14.566 -0.3313 -0.3609 -0.3497
  275MPD2    H5 4215   3.351   0.239  14.663 -2.4701 -0.2451 -0.9518
  275MPD2    N1 4216   3.805   0.460  14.640  0.2130  0.5342 -0.3161
  275MPD2    H7 4217   3.890   0.486  14.593 -0.5955  1.2761 -1.3676
  276TMC3    C1 4218   3.910   0.519  14.850  0.1810  0.1700  0.0067
  276TMC3    C2 4219   3.999   0.414  14.863 -0.6934  0.7422  0.3372
  276TMC3    C3 4220   4.089   0.409  14.963  0.2099  0.5860 -0.2199
  276TMC3    C4 4221   3.913   0.624  14.942  0.3978  0.1371  0.2831
  276TMC3    C5 4222   4.017   0.617  15.032 -0.1708 -0.4715  0.6071
  276TMC3    C6 4223   4.094   0.515  15.054  0.6566  0.4612 -0.5618
  276TMC3     C 4224   3.784   0.500  14.774  0.1524 -0.7352  0.0585
  276TMC3     O 4225   3.682   0.502  14.840  0.0239  0.1218  0.4549
  276TMC3     H 4226   3.999   0.339  14.785  2.7375  1.9234 -0.8414
  276TMC3    H1 4227   3.846   0.709  14.932 -0.3868 -0.4304  0.7272
  276TMC3    H2 4228   4.155   0.515  15.143 -1.2836 -1.6023  0.7689
  276TMC3    C7 4229   4.041   0.735  15.107  0.2459 -0.0072 -0.2200
  276TMC3    C8 4230   4.137   0.286  15.016 -0.1440 -0.3311 -0.4771
  276TMC3    O1 4231   4.030   0.731  15.233  0.4353 -0.0950  0.5450
  276TMC3    O2 4232   4.235   0.300  15.088  0.0079 -0.2039  0.4231
  277MPD2     C 4233   0.749   3.994  14.026  0.3150 -0.5386 -0.2257
  277MPD2    C1 4234   0.717   4.006  13.893  0.4569 -0.2170  0.6774
  277MPD2    C2 4235   0.611   3.922  13.850 -0.1800 -0.3438  0.2049
  277MPD2    C3 4236   0.550   3.833  13.928 -0.1267 -0.5039 -0.3326
  277MPD2    C4 4237   0.589   3.821  14.057 -0.0785 -0.2096 -0.7212
  277MPD2    C5 4238   0.687   3.901  14.102  0.7021  0.3028  0.1864
  277MPD2     H 4239   0.569   3.933  13.750  2.0638 -0.0994 -0.6991
  277MPD2    H1 4240   0.546   3.756  14.132  2.6654 -0.6887  0.4624
  277MPD2    H2 4241   0.831   4.050  14.069 -0.5781  0.2198  0.4588
  277MPD2    H3 4242   0.726   3.897  14.203 -0.7721  0.0800  0.7538
  277MPD2     N 4243   0.436   3.765  13.876 -0.3310  0.8696  0.0234
  277MPD2    H5 4244   0.410   3.789  13.781 -1.2590  0.9447  0.3034
  277MPD2    N1 4245   0.778   4.102  13.813  0.6574 -0.4591 -0.1826
  277MPD2    H7 4246   0.832   4.164  13.872  0.1363  0.5843 -0.7959
  278TMC3    C1 4247   0.256   3.620  13.861 -0.4891 -0.4431 -0.3149
  278TMC3    C2 4248   0.215   3.485  13.859 -0.4653 -0.6388  0.5048
  278TMC3    C3 4249   0.101   3.456  13.785 -0.4954 -0.0411 -0.5299
  278TMC3    C4 4250   0.193   3.716  13.786 -0.8705  0.6034 -0.3537
  278TMC3    C5 4251   0.080   3.682  13.717 -0.3330 -0.3797  0.7613
  278TMC3    C6 4252   0.031   3.552  13.715 -0.8800 -0.1195 -0.2243
  278TMC3     C 4253   0.377   3.653  13.936  0.0812 -0.7629 -0.0834
  278TMC3     O 4254   0.404   3.589  14.036 -0.3642 -0.3378  0.4921
  278TMC3     H 4255   0.275   3.408  13.906 -0.6097 -2.1655 -1.7946
  278TMC3    H1 4256   0.225   3.819  13.799 -2.5865  1.0697  0.1850
  278TMC3    H2 4257   4.684   3.531  13.648 -0.3371 -2.2161 -0.2332
  278TMC3    C7 4258   0.011   3.796  13.659  0.3160  0.0675 -0.2028
  278TMC3    C8 4259   0.091   3.319  13.739  0.0057 -0.0918 -0.1338
  278TMC3    O1 4260   0.082   3.894  13.637  0.2395 -0.1006  0.1761
  278TMC3    O2 4261   0.193   3.253  13.753 -0.2500  0.4369  0.6758
  279MPD2     C 4262   0.199   4.347   0.518 -0.2590 -0.4107 -0.3476
  279MPD2    C1 4263   0.078   4.391   0.547  0.0610  0.2901  0.6665
  279MPD2    C2 4264   0.016   4.472   0.455 -0.2388  0.3472 -0.3438
  279MPD2    C3 4265   0.074   4.511   0.334  0.2018 -0.1875 -0.2129
  279MPD2    C4 4266   0.202   4.470   0.313  0.0372 -0.7441  0.7216
  279MPD2    C5 4267   0.262   4.393   0.404 -0.4705  0.5902 -0.2464
  279MPD2     H 4268   4.650   4.510   0.473 -0.3385 -0.4842  0.8768
  279MPD2    H1 4269   0.265   4.498   0.229  1.5160  2.4683  2.9081
  279MPD2    H2 4270   0.247   4.269   0.576 -0.8181 -0.6975 -0.2651
  279MPD2    H3 4271   0.362   4.359   0.379  0.0077  1.0444  1.0824
  279MPD2     N 4272   0.002   4.589   0.235  0.4027  0.5361 -0.0909
  279MPD2    H5 4273   0.057   4.615   0.154 -0.7403  2.0863 -0.3622
  279MPD2    N1 4274   0.003   4.357   0.662 -0.4714 -0.2540 -0.0528
  279MPD2    H7 4275   4.644   4.393   0.655 -0.4521 -0.3017 -0.5667
  280TMC3    C1 4276   4.663   4.183   0.788 -0.2316 -0.0504 -0.6576
  280TMC3    C2 4277   4.657   4.091   0.690 -0.7202 -0.2681  0.1718
  280TMC3    C3 4278   4.548   4.067   0.614 -0.0514 -0.1310  0.1228
  280TMC3    C4 4279   4.546   4.258   0.816  0.0386 -0.2905 -0.4310
  280TMC3    C5 4280   4.426   4.225   0.750  0.5855  0.1480  0.1006
  280TMC3    C6 4281   4.427   4.130   0.647  0.3181 -0.9288 -0.3884
  280TMC3     C 4282   0.043   4.260   0.752 -0.3006  0.4612  0.2606
  280TMC3     O 4283   0.146   4.195   0.750 -0.1310  0.5014 -0.2090
  280TMC3     H 4284   0.011   4.032   0.674 -1.8303 -0.9663 -3.4439
  280TMC3    H1 4285   4.553   4.332   0.895 -2.4115  0.2787 -0.7490
  280TMC3    H2 4286   4.333   4.101   0.603 -1.2290  2.0358  0.9629
  280TMC3    C7 4287   4.304   4.280   0.813  0.9845  0.6192  0.6645
  280TMC3    C8 4288   4.559   3.984   0.498  0.2317 -0.5368  0.3238
  280TMC3    O1 4289   4.310   4.322   0.928  0.5289 -0.4647 -0.0340
  280TMC3    O2 4290   4.643   3.897   0.497  0.0063 -0.4475  0.1517
  281TMC3    C1 4291   3.585   4.603  13.735  0.5717  0.0987 -0.1129
  281TMC3    C2 4292   3.616   4.680  13.626  0.2708 -0.7443 -0.0870
  281TMC3    C3 4293   3.665   4.624  13.510  0.4819 -0.1615  0.4296
  281TMC3    C4 4294   3.620   4.473  13.739  0.3347 -0.4174 -0.4124
  281TMC3    C5 4295   3.675   4.420  13.628  0.2582 -0.1602  0.2885
  281TMC3    C6 4296   3.699   4.488  13.513 -0.4208  0.2418  0.0979
  281TMC3     C 4297   3.442   4.592  13.751 -0.2637  0.3604 -0.4516
  281TMC3     O 4298   3.400   4.480  13.788 -0.0034 -0.2939 -0.0212
  281TMC3     H 4299   3.607   0.050  13.648 -5.0409 -1.1366 -0.4133
  281TMC3    H1 4300   3.612   4.411  13.828 -0.2204 -1.1594 -0.9741
  281TMC3    H2 4301   3.735   4.439  13.423  0.2977  2.5524 -0.8868
  281TMC3    C7 4302   3.633   4.288  13.605 -0.8288  0.2866 -0.8744
  281TMC3    C8 4303   3.747   4.692  13.411  0.2649  0.1622  0.4635
  281TMC3    O1 4304   3.698   4.220  13.529  0.1443  0.0481 -0.0070
  281TMC3    O2 4305   3.847   4.630  13.381 -0.2461  0.2075 -0.3285
  282MPD2     C 4306   0.380   1.007  14.926  0.0853  0.2629 -0.1624
  282MPD2    C1 4307   0.287   1.095  14.971 -0.6041 -0.1024  0.3153
  282MPD2    C2 4308   0.209   1.156  14.871 -0.0590 -0.1290  0.3055
  282MPD2    C3 4309   0.193   1.111  14.742 -0.1703  0.1064 -0.6359
  282MPD2    C4 4310   0.285   1.013  14.703 -0.6917 -0.5491  0.7551
  282MPD2    C5 4311   0.382   0.968  14.795 -0.9930 -0.0017 -0.8499
  282MPD2     H 4312   0.141   1.229  14.915 -0.5783 -1.3820  1.5785
  282MPD2    H1 4313   0.290   0.995  14.596 -0.5742  0.6584  0.5618
  282MPD2    H2 4314   0.457   0.972  14.994 -0.7722  1.4750  1.4109
  282MPD2    H3 4315   0.457   0.896  14.764 -0.6975 -0.4939  0.9803
  282MPD2     N 4316   0.095   1.174  14.658  0.0346 -0.1799 -0.3814
  282MPD2    H5 4317   0.052   1.253  14.704 -0.1762 -0.8495  0.5721
  282MPD2    N1 4318   0.280   1.144  15.108  0.1391  0.3721 -0.2052
  282MPD2    H7 4319   0.220   1.222  15.129 -2.7946 -2.0632  0.3948
  283TMC3    C1 4320   0.263   1.130  15.337 -0.2154  0.6994 -0.1867
  283TMC3    C2 4321   0.257   1.267  15.346 -0.4164  0.4857 -0.3752
  283TMC3    C3 4322   0.173   1.322  15.432  0.0901 -0.1981 -0.3625
  283TMC3    C4 4323   0.177   1.046  15.400  0.1290  1.1164 -0.0790
  283TMC3    C5 4324   0.084   1.112  15.477 -0.0598  0.7003  0.3690
  283TMC3    C6 4325   0.084   1.244  15.502 -0.5141 -0.0350 -0.6199
  283TMC3     C 4326   0.312   1.069  15.214 -0.5968 -0.0871  0.0304
  283TMC3     O 4327   0.342   0.951  15.217  0.1305 -0.6328  0.2616
  283TMC3     H 4328   0.333   1.330  15.301  1.4237 -1.7125 -0.3611
  283TMC3    H1 4329   0.175   0.942  15.371 -0.8323  0.9714  0.5070
  283TMC3    H2 4330   4.732   1.288  15.550 -0.4406 -0.7628  0.1809
  283TMC3    C7 4331   4.731   1.041  15.564  0.7908  0.3081 -0.6606
  283TMC3    C8 4332   0.162   1.457  15.424  0.5556  0.2847 -0.5640
  283TMC3    O1 4333   4.730   1.072  15.685 -0.2406 -0.1377  0.0079
  283TMC3    O2 4334   0.214   1.520  15.330  0.2667 -0.3450 -0.1615
  284MPD2     C 4335   2.885   0.291  12.231 -0.3130  0.3336  0.1985
  284MPD2    C1 4336   3.024   0.287  12.222  0.3697  0.0006 -0.6980
  284MPD2    C2 4337   3.080   0.200  12.308  0.3600 -0.0501  0.2462
  284MPD2    C3 4338   3.020   0.124  12.411  0.7730  0.3635 -0.2361
  284MPD2    C4 4339   2.886   0.133  12.413  0.7497  0.1412 -0.1289
  284MPD2    C5 4340   2.822   0.214  12.323  0.3591  0.3476  0.4957
  284MPD2     H 4341   3.187   0.204  12.320  0.1904  0.1624  1.6675
  284MPD2    H1 4342   2.831   0.078  12.489 -0.4993  1.4909 -0.0639
  284MPD2    H2 4343   2.838   0.367  12.170 -0.0695 -1.9439 -2.8065
  284MPD2    H3 4344   2.714   0.225  12.320  0.2531 -0.5128  1.1230
  284MPD2     N 4345   3.093   0.043  12.504 -0.2253  0.1261  0.1713
  284MPD2    H5 4346   3.043   4.724  12.575 -0.1565 -2.0449 -1.4398
  284MPD2    N1 4347   3.100   0.366  12.132  0.5306 -0.1952  0.3604
  284MPD2    H7 4348   3.195   0.338  12.114  1.5049  2.6001  1.1398
  285TMC3    C1 4349   3.118   0.496  11.942 -0.3548  0.5606  0.5201
  285TMC3    C2 4350   3.181   0.390  11.878  0.9627  0.0530  0.8380
  285TMC3    C3 4351   3.292   0.412  11.802 -0.4917 -0.1635 -0.3716
  285TMC3    C4 4352   3.173   0.623  11.934  0.1855 -0.1791 -0.0997
  285TMC3    C5 4353   3.289   0.638  11.857  0.1934 -0.4443  0.1512
  285TMC3    C6 4354   3.351   0.534  11.784  0.6259  0.2827  0.3519
  285TMC3     C 4355   3.039   0.469  12.061  0.6330  0.0179 -0.2478
  285TMC3     O 4356   2.951   0.553  12.086 -0.0561 -0.1774 -0.5703
  285TMC3     H 4357   3.139   0.292  11.894 -0.1028  0.1857 -1.1458
  285TMC3    H1 4358   3.156   0.698  12.010 -0.6207 -0.7047  0.2404
  285TMC3    H2 4359   3.428   0.551  11.710  0.4566 -0.7238 -0.0543
  285TMC3    C7 4360   3.321   0.772  11.819 -0.0516 -0.0461 -0.0383
  285TMC3    C8 4361   3.352   0.299  11.732  0.2342  0.0960 -0.7116
  285TMC3    O1 4362   3.411   0.782  11.733  0.3386 -0.4790  1.1047
  285TMC3    O2 4363   3.285   0.193  11.724  0.3335 -0.1393 -0.1270
  286MPD2     C 4364   3.368   4.021   1.686  0.2866  0.1053  0.1583
  286MPD2    C1 4365   3.461   4.119   1.686  0.1068  0.2609 -0.2016
  286MPD2    C2 4366   3.597   4.076   1.697 -0.3689 -0.8336  0.5118
  286MPD2    C3 4367   3.635   3.941   1.693 -0.0728 -0.4116 -0.0137
  286MPD2    C4 4368   3.536   3.845   1.685  0.0508  0.0366  0.2417
  286MPD2    C5 4369   3.402   3.886   1.691 -0.5133 -0.0823  0.4072
  286MPD2     H 4370   3.678   4.148   1.689 -1.7472  0.4629 -1.7092
  286MPD2    H1 4371   3.548   3.737   1.688  0.5999  0.0242 -1.9889
  286MPD2    H2 4372   3.260   4.027   1.689  0.1258 -1.8641 -1.2612
  286MPD2    H3 4373   3.321   3.814   1.691 -0.1398 -0.4972 -0.1111
  286MPD2     N 4374   3.769   3.897   1.699  0.1770  0.0876  0.4488
  286MPD2    H5 4375   3.785   3.799   1.676  0.2651 -0.5752  3.3995
  286MPD2    N1 4376   3.444   4.260   1.658  0.5210  0.4722 -0.4326
  286MPD2    H7 4377   3.527   4.319   1.659  0.7584  0.1149  0.8304
  287TMC3    C1 4378   3.997   3.903   1.683  0.5781  0.4751  0.3819
  287TMC3    C2 4379   3.991   3.818   1.575 -0.2056 -0.2399  0.3384
  287TMC3    C3 4380   4.105   3.757   1.542 -0.6003  0.0568 -0.2131
  287TMC3    C4 4381   4.112   3.932   1.743  0.2720  0.2310 -0.8010
  287TMC3    C5 4382   4.225   3.874   1.701  0.1483  0.3163  0.6104
  287TMC3    C6 4383   4.221   3.776   1.605  0.3009  1.1481  0.6499
  287TMC3     C 4384   3.878   3.972   1.722 -0.0439 -0.4544  0.1415
  287TMC3     O 4385   3.896   4.080   1.778 -0.2689  0.1404  0.7323
  287TMC3     H 4386   3.894   3.801   1.529 -0.2470  1.9329 -0.3776
  287TMC3    H1 4387   4.118   4.001   1.827 -0.1403  0.7757 -1.2223
  287TMC3    H2 4388   4.314   3.745   1.557  1.1861  3.1840  1.0154
  287TMC3    C7 4389   4.347   3.924   1.755 -0.3500 -0.2450  0.0352
  287TMC3    C8 4390   4.113   3.685   1.419  0.3401  0.1204 -0.1915
  287TMC3    O1 4391   4.332   4.022   1.832  0.6005  0.3289 -0.3102
  287TMC3    O2 4392   4.199   3.597   1.417 -0.4157 -0.7862  0.2596
  288TMC3    C1 4393   0.946   3.655  14.662  0.3707  0.3238  0.1706
  288TMC3    C2 4394   0.869   3.716  14.752 -0.1569 -0.0206  0.0995
  288TMC3    C3 4395   0.841   3.850  14.736 -0.0637 -0.0884  0.5483
  288TMC3    C4 4396   0.987   3.717  14.548  0.1942  0.4251 -0.4166
  288TMC3    C5 4397   0.969   3.849  14.543 -0.1794  1.2022 -0.2648
  288TMC3    C6 4398   0.893   3.917  14.631  0.6676 -0.9249 -0.3456
  288TMC3     C 4399   1.048   3.587  14.730 -0.5250  0.0363  0.2374
  288TMC3     O 4400   1.041   3.574  14.852 -0.0379  0.3449 -0.2124
  288TMC3     H 4401   0.832   3.661  14.837  1.4146  0.3806  1.0466
  288TMC3    H1 4402   1.036   3.666  14.466 -0.2684 -1.9733  0.8199
  288TMC3    H2 4403   0.876   4.023  14.619  4.2332 -0.2151  1.0110
  288TMC3    C7 4404   1.027   3.914  14.425  0.1037  0.2997 -0.4988
  288TMC3    C8 4405   0.751   3.916  14.837 -0.2178  0.2743 -0.1133
  288TMC3    O1 4406   1.104   3.850  14.361  0.1868 -0.1464 -0.3420
  288TMC3    O2 4407   0.745   4.037  14.840  0.1986 -0.1721  0.0095
  289MPD2     C 4408   0.625   2.861  14.649  0.6363 -0.0411 -0.2404
  289MPD2    C1 4409   0.652   2.975  14.575  0.5124  0.3370 -0.2766
  289MPD2    C2 4410   0.552   3.011  14.485  0.8180  0.7980  0.0947
  289MPD2    C3 4411   0.437   2.941  14.473  0.2098  0.0789 -0.9327
  289MPD2    C4 4412   0.419   2.827  14.548  0.1234 -0.4626  0.4334
  289MPD2    C5 4413   0.516   2.788  14.638 -0.1938  0.1199  0.3596
  289MPD2     H 4414   0.582   3.083  14.410  2.0577  0.3302  0.1439
  289MPD2    H1 4415   0.331   2.766  14.532 -0.7595  0.8868  0.0587
  289MPD2    H2 4416   0.694   2.816  14.720 -0.8592 -1.6841  0.1933
  289MPD2    H3 4417   0.484   2.703  14.698 -4.2589  1.1219 -0.3400
  289MPD2     N 4418   0.332   2.984  14.390  0.3481 -0.0164 -0.4231
  289MPD2    H5 4419   0.245   2.932  14.383 -1.0275  2.3348 -0.8742
  289MPD2    N1 4420   0.781   3.034  14.589  0.0956  0.1766  0.0123
  289MPD2    H7 4421   0.843   2.970  14.640  0.6967 -0.6976 -1.8167
  290TMC3    C1 4422   0.206   3.115  14.231 -0.3002  1.1317 -0.2352
  290TMC3    C2 4423   0.171   3.246  14.199  1.0157 -0.2655 -0.6460
  290TMC3    C3 4424   0.063   3.262  14.122 -0.3039 -0.2130 -0.6613
  290TMC3    C4 4425   0.150   3.008  14.177  0.0441  0.1533 -0.1943
  290TMC3    C5 4426   0.033   3.025  14.103 -0.7694  0.6172  0.0624
  290TMC3    C6 4427   4.719   3.152  14.084 -1.0747 -0.1506 -0.0268
  290TMC3     C 4428   0.334   3.097  14.308 -0.1813 -0.0359 -0.4534
  290TMC3     O 4429   0.407   3.195  14.314  0.4147  0.1516 -0.3004
  290TMC3     H 4430   0.228   3.328  14.241 -0.7805  1.4592 -1.6566
  290TMC3    H1 4431   0.190   2.910  14.200  0.1792 -0.2213 -2.0243
  290TMC3    H2 4432   4.620   3.166  14.042  0.3162  0.5186 -3.0942
  290TMC3    C7 4433   4.653   2.926  14.111 -0.3382  0.3886  0.3944
  290TMC3    C8 4434   0.010   3.390  14.087 -0.3425 -0.0150  0.2090
  290TMC3    O1 4435   4.544   2.963  14.066  0.3404  0.1456 -0.2649
  290TMC3    O2 4436   4.645   3.390  14.014  0.2706 -0.9874  0.4665
  291MPD2     C 4437   4.733   3.259   0.483  0.0521  0.6407  1.0073
  291MPD2    C1 4438   0.131   3.227   0.482 -0.5139  0.5616  0.1630
  291MPD2    C2 4439   0.228   3.330   0.468 -0.9818  0.2051 -0.3739
  291MPD2    C3 4440   0.189   3.467   0.456 -0.0729  0.4592 -1.0503
  291MPD2    C4 4441   0.053   3.492   0.457 -0.1154  0.0343 -0.2879
  291MPD2    C5 4442   4.695   3.391   0.465  0.5519  0.0408 -0.8628
  291MPD2     H 4443   0.332   3.298   0.467 -1.2712 -0.7337 -0.4774
  291MPD2    H1 4444   0.023   3.595   0.442 -0.2359 -0.0652 -0.7659
  291MPD2    H2 4445   4.657   3.182   0.488 -0.3994  0.9918 -0.4081
  291MPD2    H3 4446   4.590   3.417   0.460  0.3974 -0.9807 -2.8218
  291MPD2     N 4447   0.274   3.583   0.441 -0.1117  0.0972 -0.4170
  291MPD2    H5 4448   0.226   3.672   0.440  0.9752  0.6963  1.4602
  291MPD2    N1 4449   0.177   3.087   0.485  0.2714 -0.3776 -0.0617
  291MPD2    H7 4450   0.278   3.075   0.488  0.0695 -2.2302 -0.4625
  292TMC3    C1 4451   0.179   2.846   0.466  0.3026  0.4836  0.5246
  292TMC3    C2 4452   0.292   2.833   0.537 -0.7875  0.3200 -0.4354
  292TMC3    C3 4453   0.346   2.711   0.551  0.3375  0.6860  0.4555
  292TMC3    C4 4454   0.112   2.739   0.406  0.0063  0.2504  0.3321
  292TMC3    C5 4455   0.165   2.618   0.433  0.2550  0.0892 -0.1974
  292TMC3    C6 4456   0.283   2.601   0.496  0.5538  0.1155 -0.1804
  292TMC3     C 4457   0.101   2.971   0.484  0.4331  0.3109  0.4002
  292TMC3     O 4458   4.716   2.960   0.487  0.7807 -0.0672  0.5932
  292TMC3     H 4459   0.337   2.912   0.596  0.1122  1.8676 -3.2344
  292TMC3    H1 4460   0.018   2.745   0.352 -0.8486 -0.2963  1.7305
  292TMC3    H2 4461   0.330   2.506   0.519 -0.3045 -0.4051 -0.5815
  292TMC3    C7 4462   0.092   2.492   0.409  0.4473 -0.3098  0.1326
  292TMC3    C8 4463   0.427   2.690   0.674  0.8214  0.8025  0.5308
  292TMC3    O1 4464   0.170   2.398   0.392 -0.2211  0.0280  0.1790
  292TMC3    O2 4465   0.501   2.778   0.709  0.5933 -0.4742 -0.5185
  293MPD2     C 4466   1.771   4.373  12.810  0.9162 -0.8516  0.4876
  293MPD2    C1 4467   1.675   4.294  12.882 -0.1856 -0.1911 -0.5563
  293MPD2    C2 4468   1.680   4.310  13.025 -0.7286 -0.4419 -0.2493
  293MPD2    C3 4469   1.769   4.399  13.083  0.0820 -0.4002  0.0481
  293MPD2    C4 4470   1.851   4.476  13.007 -0.0167  0.1342 -0.5410
  293MPD2    C5 4471   1.857   4.460  12.872 -0.1214  0.4362  0.1801
  293MPD2     H 4472   1.606   4.261  13.087 -1.7051  1.0470 -0.2331
  293MPD2    H1 4473   1.911   4.557  13.049 -1.8609  2.1740 -1.8552
  293MPD2    H2 4474   1.764   4.379  12.702  0.7988  1.1739  0.5933
  293MPD2    H3 4475   1.925   4.526  12.817 -0.6788  0.3430 -0.6214
  293MPD2     N 4476   1.759   4.415  13.223 -0.2036  0.0120  0.2335
  293MPD2    H5 4477   1.704   4.342  13.268 -0.7885 -0.3640 -1.0942
  293MPD2    N1 4478   1.580   4.216  12.813  0.2409  0.1137 -0.0021
  293MPD2    H7 4479   1.596   4.222  12.713  0.7084  2.2126  0.2080
  294TMC3    C1 4480   1.415   4.054  12.776 -0.0918  0.6126  0.0579
  294TMC3    C2 4481   1.294   4.000  12.810  0.0251  0.1451 -0.8495
  294TMC3    C3 4482   1.215   3.944  12.716  1.4858  0.5294  0.3943
  294TMC3    C4 4483   1.455   4.031  12.651 -0.4280 -0.7558 -0.2511
  294TMC3    C5 4484   1.370   3.976  12.554 -0.7855 -0.5042 -0.1716
  294TMC3    C6 4485   1.249   3.929  12.585 -0.3964  0.1473  0.1323
  294TMC3     C 4486   1.486   4.133  12.872 -0.3221  0.0675  0.3917
  294TMC3     O 4487   1.475   4.108  12.990 -0.4888 -0.2730 -0.3293
  294TMC3     H 4488   1.264   4.013  12.913 -2.9546  0.0464 -1.7135
  294TMC3    H1 4489   1.545   4.072  12.608 -1.1449  0.3173 -0.7334
  294TMC3    H2 4490   1.183   3.876  12.517  0.8021 -0.3235 -0.6732
  294TMC3    C7 4491   1.438   3.920  12.434 -0.3649 -0.2780  0.2138
  294TMC3    C8 4492   1.083   3.894  12.768  0.1799 -0.7471  0.1678
  294TMC3    O1 4493   1.560   3.921  12.428  0.4179  0.9479  0.3697
  294TMC3    O2 4494   1.061   3.930  12.883  0.5159 -0.5058 -0.0392
  295MPD2     C 4495   2.069   3.346   1.552  0.1049 -0.1085 -0.2407
  295MPD2    C1 4496   2.000   3.283   1.455 -0.9349 -0.6218 -0.1698
  295MPD2    C2 4497   1.869   3.266   1.464 -0.4267  0.0681  0.0960
  295MPD2    C3 4498   1.788   3.323   1.559 -0.2932  0.0906 -0.5534
  295MPD2    C4 4499   1.858   3.393   1.655  0.0100 -0.4181 -0.0262
  295MPD2    C5 4500   1.997   3.402   1.652 -0.2021  0.0746 -0.2682
  295MPD2     H 4501   1.819   3.210   1.385  0.1200 -0.0842 -0.1446
  295MPD2    H1 4502   1.812   3.449   1.735 -0.5119  0.0258 -0.6353
  295MPD2    H2 4503   2.176   3.361   1.565  0.1322 -0.9923  0.5046
  295MPD2    H3 4504   2.054   3.435   1.738 -0.7895 -1.6355  0.7920
  295MPD2     N 4505   1.650   3.310   1.579 -0.1483 -0.1310 -0.5914
  295MPD2    H5 4506   1.616   3.375   1.649  0.8692  0.1497 -0.3534
  295MPD2    N1 4507   2.063   3.236   1.340  0.0993 -0.3112 -0.2088
  295MPD2    H7 4508   2.006   3.193   1.268 -0.6458  0.2055  0.0655
  296TMC3    C1 4509   1.435   3.217   1.542 -0.2392  0.5786 -0.4282
  296TMC3    C2 4510   1.375   3.325   1.603 -0.0271  0.1209  0.9416
  296TMC3    C3 4511   1.247   3.307   1.642 -0.0781 -0.6925  0.0861
  296TMC3    C4 4512   1.375   3.098   1.516  0.5798  0.4651  0.1692
  296TMC3    C5 4513   1.246   3.088   1.558 -0.4034 -0.4558  0.4976
  296TMC3    C6 4514   1.178   3.192   1.626 -0.0503 -0.8824  0.2135
  296TMC3     C 4515   1.572   3.224   1.501  0.3341 -0.4066 -0.4699
  296TMC3     O 4516   1.597   3.148   1.409 -0.4355  0.2233  0.5961
  296TMC3     H 4517   1.410   3.427   1.605 -0.2502  0.2321 -0.3599
  296TMC3    H1 4518   1.436   3.016   1.480  2.0673 -0.0671  3.9492
  296TMC3    H2 4519   1.079   3.178   1.667  0.0525  1.6710  1.3602
  296TMC3    C7 4520   1.185   2.954   1.576 -0.1666  0.2245  0.2105
  296TMC3    C8 4521   1.167   3.417   1.695 -0.3344 -0.1235 -0.0251
  296TMC3    O1 4522   1.080   2.955   1.636 -0.1325  0.1454 -0.6577
  296TMC3    O2 4523   1.047   3.419   1.668  0.3516 -0.1080  0.1364
  297MPD2     C 4524   4.382   0.044  16.822 -0.1608 -0.2256  0.1603
  297MPD2    C1 4525   4.334   0.081  16.701  0.7787 -0.0812 -0.0205
  297MPD2    C2 4526   4.419   0.175  16.634 -0.2419 -1.2793  0.4349
  297MPD2    C3 4527   4.539   0.216  16.685  0.4942 -0.9943  0.0443
  297MPD2    C4 4528   4.575   0.182  16.814  0.3367 -0.4772 -1.3184
  297MPD2    C5 4529   4.504   0.081  16.879  0.2896 -0.3422 -0.3383
  297MPD2     H 4530   4.370   0.220  16.549  2.9505  1.7841  0.2148
  297MPD2    H1 4531   4.672   0.206  16.854  0.2334 -1.2049 -0.6208
  297MPD2    H2 4532   4.322   4.712  16.882 -0.3987 -0.5894 -0.4872
  297MPD2    H3 4533   4.543   0.036  16.970 -1.6396  0.7212  1.0131
  297MPD2     N 4534   4.625   0.297  16.616 -0.1167 -0.4078 -0.2368
  297MPD2    H5 4535   4.700   0.334  16.673  1.3561 -3.9491  0.1027
  297MPD2    N1 4536   4.205   0.048  16.647 -0.8918 -0.2148  0.2867
  297MPD2    H7 4537   4.178   0.105  16.567  0.3798 -0.9382 -0.6387
  298TMC3    C1 4538   3.982   4.728  16.628 -0.4510 -0.5834 -0.2700
  298TMC3    C2 4539   3.973   4.699  16.494 -0.2369 -0.1750 -0.3530
  298TMC3    C3 4540   3.872   0.031  16.427  0.2824  0.2397 -0.6980
  298TMC3    C4 4541   3.889   0.065  16.700  0.5926 -0.1485  0.2830
  298TMC3    C5 4542   3.796   0.134  16.631 -0.3052  0.3456  0.5204
  298TMC3    C6 4543   3.787   0.116  16.492 -0.2643  0.1410 -0.2344
  298TMC3     C 4544   4.099   4.715  16.711 -0.3489  0.3944 -0.1004
  298TMC3     O 4545   4.094   4.659  16.817  0.3344 -0.1207 -0.0473
  298TMC3     H 4546   4.047   4.634  16.448 -0.2800  0.7135 -1.6976
  298TMC3    H1 4547   3.899   0.091  16.805 -0.8441  1.0186  0.1362
  298TMC3    H2 4548   3.719   0.180  16.435 -0.4612 -0.6620 -0.9052
  298TMC3    C7 4549   3.756   0.259  16.694  0.5384  0.6762  0.5724
  298TMC3    C8 4550   3.876   0.032  16.285 -0.4846  0.3557 -1.0087
  298TMC3    O1 4551   3.807   0.283  16.801 -0.5917 -0.1029  0.6143
  298TMC3    O2 4552   3.775   0.059  16.226 -0.2657 -0.2644 -0.4231
  299MPD2     C 4553   4.184   4.528  10.750 -0.5242  0.2852  0.3094
  299MPD2    C1 4554   4.271   4.628  10.717 -0.0630 -0.3323  0.5023
  299MPD2    C2 4555   4.234   0.001  10.638  0.6963 -0.4309  0.8264
  299MPD2    C3 4556   4.100   0.009  10.592  0.4738 -0.3400 -0.2195
  299MPD2    C4 4557   4.013   4.640  10.619  0.6327  0.0628  0.0611
  299MPD2    C5 4558   4.051   4.534  10.704 -0.2692 -0.5570 -0.3891
  299MPD2     H 4559   4.302   0.081  10.612 -0.9449  0.9998  0.9314
  299MPD2    H1 4560   3.908   4.642  10.591  0.0144 -0.7622  2.2896
  299MPD2    H2 4561   4.214   4.451  10.821  1.3572  1.7539  1.0871
  299MPD2    H3 4562   3.987   4.448  10.718  0.3808 -1.0423 -0.3947
  299MPD2     N 4563   4.051   0.119  10.512 -0.1307 -0.2564 -0.1326
  299MPD2    H5 4564   3.953   0.115  10.486 -0.5413  2.0461  1.1342
  299MPD2    N1 4565   4.400   4.618  10.773 -0.0690  0.0904  0.0790
  299MPD2    H7 4566   4.420   4.549  10.845 -0.8766 -0.3811 -0.1505
  300TMC3    C1 4567   4.036   0.323  10.406 -0.1860 -0.2190  0.4381
  300TMC3    C2 4568   3.991   0.406  10.501  0.3349  0.1964  0.3268
  300TMC3    C3 4569   3.859   0.445  10.509 -0.2751 -0.2792 -0.1259
  300TMC3    C4 4570   3.943   0.258  10.328  0.1555 -0.9175  0.0851
  300TMC3    C5 4571   3.811   0.293  10.333  0.5266  0.3259  0.6864
  300TMC3    C6 4572   3.762   0.383  10.433  0.5062  0.0263 -0.2247
  300TMC3     C 4573   4.125   0.226  10.472  0.4679 -0.1748  0.6534
  300TMC3     O 4574   4.237   0.269  10.498 -0.2573 -0.3539  0.6008
  300TMC3     H 4575   4.067   0.459  10.558 -0.4948  2.1846 -0.4083
  300TMC3    H1 4576   3.980   0.187  10.254  0.2314  0.8036 -1.5411
  300TMC3    H2 4577   3.664   0.426  10.417  0.7598  0.4034 -0.7798
  300TMC3    C7 4578   3.730   0.178  10.316  0.7584 -0.7786 -0.1637
  300TMC3    C8 4579   3.820   0.418  10.644 -0.0880  0.1486 -0.8210
  300TMC3    O1 4580   3.755   0.096  10.227 -0.0925  0.5723  0.7596
  300TMC3    O2 4581   3.697   0.405  10.658 -0.2495 -0.0620  0.2702
  301MPD2     C 4582   2.498   1.412   1.274  0.1311  0.2697  0.2266
  301MPD2    C1 4583   2.424   1.362   1.166 -0.0363 -0.4886  0.5084
  301MPD2    C2 4584   2.443   1.231   1.122  0.5376 -0.4190  0.1539
  301MPD2    C3 4585   2.545   1.154   1.181 -0.8431 -0.1194 -0.2406
  301MPD2    C4 4586   2.625   1.210   1.266  0.2343 -0.4351  0.5921
  301MPD2    C5 4587   2.608   1.338   1.314 -0.2624  0.0772  0.0332
  301MPD2     H 4588   2.393   1.195   1.033  1.6563 -0.0139 -0.6325
  301MPD2    H1 4589   2.704   1.148   1.306 -0.0608 -0.1928  1.5610
  301MPD2    H2 4590   2.488   1.509   1.321 -0.2239 -0.2386  1.1928
  301MPD2    H3 4591   2.678   1.388   1.380  0.6970 -0.5095 -0.5342
  301MPD2     N 4592   2.576   1.021   1.139 -0.2646 -0.0099  0.5060
  301MPD2    H5 4593   2.647   0.968   1.189  1.1858  2.2860  0.8645
  301MPD2    N1 4594   2.316   1.422   1.108  0.2811 -0.2915 -0.4064
  301MPD2    H7 4595   2.258   1.360   1.052 -0.2954 -2.0041  2.1255
  302TMC3    C1 4596   2.539   0.810   1.038 -0.2074 -0.0916  0.3444
  302TMC3    C2 4597   2.561   0.749   1.157 -0.7584  0.0827  0.1445
  302TMC3    C3 4598   2.535   0.618   1.160  0.4027  0.2629 -0.6122
  302TMC3    C4 4599   2.496   0.745   0.923  0.4515 -0.4193  0.6348
  302TMC3    C5 4600   2.475   0.610   0.927 -0.4137 -0.3127 -0.4478
  302TMC3    C6 4601   2.497   0.542   1.048  0.1818  0.0037  0.2419
  302TMC3     C 4602   2.506   0.952   1.042 -0.0144  0.0681  0.0083
  302TMC3     O 4603   2.446   0.992   0.941  0.0122 -0.7901 -0.0211
  302TMC3     H 4604   2.599   0.797   1.246 -0.3989  1.4686 -0.7473
  302TMC3    H1 4605   2.480   0.799   0.831  0.0131  0.6351  1.3217
  302TMC3    H2 4606   2.483   0.435   1.058 -0.3424  0.1632  1.2504
  302TMC3    C7 4607   2.378   0.557   0.829 -0.8187  0.6641  0.0518
  302TMC3    C8 4608   2.554   0.538   1.279  0.3651  0.5508 -0.7921
  302TMC3    O1 4609   2.339   0.638   0.744  0.1567 -0.0899 -0.2670
  302TMC3    O2 4610   2.572   0.416   1.257 -0.3122  0.1157 -0.2454
  303MPD2     C 4611   2.350   4.249  11.082  0.1238  0.1674  0.1499
  303MPD2    C1 4612   2.228   4.189  11.079  0.4185 -0.7546  0.0158
  303MPD2    C2 4613   2.161   4.166  10.965 -0.0426 -0.7441 -0.0550
  303MPD2    C3 4614   2.226   4.206  10.841 -0.3565 -0.8333 -0.5253
  303MPD2    C4 4615   2.349   4.264  10.853  0.3345 -0.1383 -0.0878
  303MPD2    C5 4616   2.406   4.294  10.969 -0.1475 -0.5467 -0.3892
  303MPD2     H 4617   2.063   4.121  10.976 -0.2814 -0.8087 -2.5295
  303MPD2    H1 4618   2.404   4.302  10.767  0.1739 -0.5887 -0.3927
  303MPD2    H2 4619   2.397   4.284  11.173  1.4948 -0.6787 -0.2428
  303MPD2    H3 4620   2.492   4.360  10.974  0.8172 -1.8483  0.0949
  303MPD2     N 4621   2.169   4.182  10.715  0.5426 -0.2476 -0.1712
  303MPD2    H5 4622   2.225   4.203  10.632  0.6807  1.8546  0.4591
  303MPD2    N1 4623   2.177   4.146  11.207  0.2040  0.1570 -0.0318
  303MPD2    H7 4624   2.246   4.141  11.282  0.5433 -0.6522 -0.4005
  304TMC3    C1 4625   2.020   4.075  11.371  0.1987 -1.0250  0.1026
  304TMC3    C2 4626   1.884   4.097  11.396 -0.0732  0.3836 -0.2321
  304TMC3    C3 4627   1.816   4.031  11.495  0.6724  0.1621  0.2297
  304TMC3    C4 4628   2.082   3.972  11.422 -0.2703  0.1671 -0.2017
  304TMC3    C5 4629   2.004   3.896  11.503  0.0237  0.6390  0.1718
  304TMC3    C6 4630   1.878   3.924  11.543  0.0032 -0.2836  0.7824
  304TMC3     C 4631   2.048   4.095  11.227 -0.2974 -0.2607 -1.1275
  304TMC3     O 4632   1.947   4.069  11.158 -0.8316 -0.1807  0.1229
  304TMC3     H 4633   1.833   4.174  11.341 -0.3770 -0.2215 -0.7954
  304TMC3    H1 4634   2.177   3.937  11.382 -2.0432 -1.6081 -2.7662
  304TMC3    H2 4635   1.845   3.873  11.633  2.4274  1.0524  2.4293
  304TMC3    C7 4636   2.012   3.760  11.466 -0.6492 -0.4091 -0.0590
  304TMC3    C8 4637   1.678   4.004  11.465  0.0922 -0.1493 -0.2071
  304TMC3    O1 4638   2.118   3.724  11.421 -0.6877  0.5128  0.4658
  304TMC3    O2 4639   1.665   3.881  11.480 -0.1473 -0.2870  0.0133
  305MPD2     C 4640   0.360   1.184  14.380  0.0986  0.7199 -0.1350
  305MPD2    C1 4641   0.467   1.099  14.389 -0.1656 -0.7864  0.5404
  305MPD2    C2 4642   0.463   0.995  14.297 -0.5910 -0.1874  0.2256
  305MPD2    C3 4643   0.369   0.985  14.194  1.2927  0.4514 -0.1799
  305MPD2    C4 4644   0.275   1.081  14.172 -0.0212 -0.1222 -0.4210
  305MPD2    C5 4645   0.273   1.182  14.270 -0.2276  0.0480  0.5085
  305MPD2     H 4646   0.550   0.930  14.293  0.7026  1.4756  1.2625
  305MPD2    H1 4647   0.200   1.082  14.094  0.3866 -2.6176 -0.8160
  305MPD2    H2 4648   0.346   1.265  14.451  1.1913  2.8941 -2.3956
  305MPD2    H3 4649   0.190   1.251  14.258 -1.1269 -0.9396  1.0544
  305MPD2     N 4650   0.379   0.886  14.091 -0.4100  0.4390 -0.6654
  305MPD2    H5 4651   0.323   0.891  14.006 -1.5403 -0.0119  0.0534
  305MPD2    N1 4652   0.561   1.123  14.489 -0.1808 -0.0168  0.2546
  305MPD2    H7 4653   0.541   1.203  14.549  0.6980  0.8530 -0.6118
  306TMC3    C1 4654   0.752   1.090  14.629  0.0880 -0.3993  0.1757
  306TMC3    C2 4655   0.886   1.059  14.636  0.5006 -0.2968  0.4468
  306TMC3    C3 4656   0.941   1.064  14.761 -0.5794  0.0301 -0.5532
  306TMC3    C4 4657   0.675   1.130  14.734  0.2932 -0.5559  1.7361
  306TMC3    C5 4658   0.729   1.136  14.860 -0.4816  0.7528 -0.2432
  306TMC3    C6 4659   0.867   1.102  14.868 -0.4108 -0.8463  0.1880
  306TMC3     C 4660   0.685   1.065  14.505 -0.7534 -0.1345  0.0532
  306TMC3     O 4661   0.737   0.982  14.427  0.0655 -0.2312  0.1001
  306TMC3     H 4662   0.936   1.024  14.546  0.8463  0.4395  0.3463
  306TMC3    H1 4663   0.568   1.142  14.720  0.5386  0.2517  0.5916
  306TMC3    H2 4664   0.923   1.090  14.961  0.1186  0.0164 -0.0156
  306TMC3    C7 4665   0.668   1.217  14.961 -0.0637  0.6204  0.1333
  306TMC3    C8 4666   1.077   1.013  14.777  0.3430 -0.4254  0.4301
  306TMC3    O1 4667   0.580   1.293  14.928 -0.8034  0.7281  0.1929
  306TMC3    O2 4668   1.145   1.051  14.870  0.1069  0.3684  0.6395
  307MPD2     C 4669   2.978   3.725   1.283 -0.3553 -0.1527 -0.2418
  307MPD2    C1 4670   2.989   3.848   1.345  0.2037  0.2132 -0.4180
  307MPD2    C2 4671   2.871   3.916   1.372  0.5501 -0.4072  0.3468
  307MPD2    C3 4672   2.751   3.874   1.331 -0.1059 -0.0488 -0.5056
  307MPD2    C4 4673   2.745   3.759   1.255  0.0518  0.5901 -0.9629
  307MPD2    C5 4674   2.858   3.685   1.243 -0.2315  0.3740 -0.5270
  307MPD2     H 4675   2.866   4.007   1.431  0.2757 -0.7783  0.8926
  307MPD2    H1 4676   2.648   3.712   1.242  0.1194  0.4223 -0.8533
  307MPD2    H2 4677   3.060   3.657   1.266 -1.8153 -1.6135 -1.3874
  307MPD2    H3 4678   2.850   3.585   1.201  0.4197 -0.1585  0.6154
  307MPD2     N 4679   2.636   3.945   1.372  1.0585  0.4038 -0.2204
  307MPD2    H5 4680   2.649   4.010   1.449  1.4440  0.1357 -0.0654
  307MPD2    N1 4681   3.106   3.915   1.376  0.1021 -0.4924  0.5477
  307MPD2    H7 4682   3.093   4.009   1.412  0.2945  0.1607 -1.0804
  308TMC3    C1 4683   2.169   3.995   1.413  0.2206 -0.1368  0.7496
  308TMC3    C2 4684   2.181   4.131   1.451 -0.4319  0.1035  0.2948
  308TMC3    C3 4685   2.306   4.189   1.441  0.0783 -0.4505 -0.2720
  308TMC3    C4 4686   2.281   3.929   1.375 -0.1281 -0.0224 -0.7000
  308TMC3    C5 4687   2.404   3.989   1.393 -0.0165 -0.1134  0.1319
  308TMC3    C6 4688   2.418   4.123   1.408 -0.4834 -0.1990  0.1192
  308TMC3     C 4689   2.058   3.967   1.328  0.0442 -0.5043 -0.0541
  308TMC3     O 4690   1.946   4.004   1.356  0.3268 -1.2533 -0.0663
  308TMC3     H 4691   2.094   4.195   1.462 -0.8973 -0.8217  2.1432
  308TMC3    H1 4692   2.277   3.821   1.363  1.6113 -0.1937  0.2521
  308TMC3    H2 4693   2.515   4.168   1.423 -2.1806  3.1349  1.0447
  308TMC3    C7 4694   2.507   3.917   1.325 -0.3551 -0.2486 -0.4186
  308TMC3    C8 4695   2.317   4.328   1.473 -0.5326  0.0752  0.4298
  308TMC3    O1 4696   2.470   3.842   1.236  0.0522  0.3746 -0.1283
  308TMC3    O2 4697   2.250   4.366   1.568  0.2502 -0.6961  0.0711
  309MPD2     C 4698   2.550   4.715  17.426  0.4291 -0.3142  0.0507
  309MPD2    C1 4699   2.476   0.059  17.344 -0.4253 -0.5209 -0.3016
  309MPD2    C2 4700   2.344   0.092  17.397 -0.0113  0.2810 -0.3131
  309MPD2    C3 4701   2.282   0.031  17.506 -0.1051  0.3238 -0.1412
  309MPD2    C4 4702   2.361   4.677  17.580 -0.3259 -0.6735 -0.4861
  309MPD2    C5 4703   2.494   4.658  17.540 -0.4925  0.1535 -0.5017
  309MPD2     H 4704   2.286   0.165  17.343  0.0660  1.5929  1.3692
  309MPD2    H1 4705   2.327   4.631  17.672 -0.3968 -0.9954 -0.6715
  309MPD2    H2 4706   2.648   4.678  17.400  0.2599 -1.1103  0.5293
  309MPD2    H3 4707   2.549   4.588  17.602 -1.3905 -0.5317 -0.4753
  309MPD2     N 4708   2.146   0.055  17.536 -0.1830 -0.1450  0.0332
  309MPD2    H5 4709   2.114   0.036  17.631 -1.3181 -0.1487 -0.3409
  309MPD2    N1 4710   2.505   0.098  17.209  0.6324  0.2325  0.4837
  309MPD2    H7 4711   2.436   0.151  17.157  0.2965 -1.2214 -0.5668
  310TMC3    C1 4712   2.620   0.081  16.997 -0.0142 -0.0658  0.0418
  310TMC3    C2 4713   2.508   0.132  16.933  0.4503 -0.0523  0.0053
  310TMC3    C3 4714   2.507   0.133  16.795  0.5425 -1.6419 -0.4387
  310TMC3    C4 4715   2.734   0.059  16.924  0.5072  0.2174  0.7343
  310TMC3    C5 4716   2.724   0.057  16.782 -0.0616  0.0915 -0.1089
  310TMC3    C6 4717   2.612   0.102  16.715 -0.8824  0.1434  0.0733
  310TMC3     C 4718   2.612   0.044  17.135 -0.7473 -0.5409 -0.3014
  310TMC3     O 4719   2.700   4.699  17.166  0.2327  0.3800 -0.3805
  310TMC3     H 4720   2.419   0.160  16.989  2.3989  1.3093  2.3830
  310TMC3    H1 4721   2.827   0.027  16.970 -0.4525  0.0103  2.5180
  310TMC3    H2 4722   2.607   0.082  16.609 -0.0893 -1.0440  0.2584
  310TMC3    C7 4723   2.824   4.729  16.695 -0.1253 -0.2875  0.0232
  310TMC3    C8 4724   2.379   0.174  16.725  0.3153 -0.3162 -1.1675
  310TMC3    O1 4725   2.789   4.680  16.587 -0.2167 -0.0226  0.0000
  310TMC3    O2 4726   2.288   0.191  16.803  0.6832  0.5513 -0.0474
  311MPD2     C 4727   3.888   1.461  12.173 -0.7482 -0.4716  0.6085
  311MPD2    C1 4728   3.931   1.432  12.297  0.4762  0.4753 -0.2818
  311MPD2    C2 4729   3.841   1.421  12.399 -0.5567  0.0525 -0.0459
  311MPD2    C3 4730   3.713   1.463  12.383  0.2385  0.2628 -0.4190
  311MPD2    C4 4731   3.668   1.495  12.262 -0.2600  0.3604 -0.2027
  311MPD2    C5 4732   3.757   1.489  12.158 -0.7139 -0.1975 -0.1688
  311MPD2     H 4733   3.874   1.379  12.494 -2.0179 -0.2811  0.3083
  311MPD2    H1 4734   3.563   1.506  12.238 -0.2407 -2.4269 -1.5737
  311MPD2    H2 4735   3.960   1.458  12.092  1.5297 -0.3458  2.6007
  311MPD2    H3 4736   3.740   1.520  12.055  1.6193 -2.4826 -1.2458
  311MPD2     N 4737   3.634   1.450  12.488  0.1671  0.2237  0.3210
  311MPD2    H5 4738   3.677   1.423  12.577 -0.2087  2.1270  1.0774
  311MPD2    N1 4739   4.054   1.372  12.324  0.4547 -0.0933 -0.1567
  311MPD2    H7 4740   4.053   1.317  12.410 -1.0785  1.0211  0.5499
  312TMC3    C1 4741   3.460   1.434  12.630  0.0698  0.4122  0.2826
  312TMC3    C2 4742   3.328   1.403  12.632  0.3628 -0.3976  0.6422
  312TMC3    C3 4743   3.283   1.348  12.751 -0.2084  0.8112 -0.7599
  312TMC3    C4 4744   3.542   1.427  12.739  0.0628 -0.2026 -0.6985
  312TMC3    C5 4745   3.484   1.395  12.858 -0.3203 -0.2261 -0.6451
  312TMC3    C6 4746   3.362   1.345  12.863 -0.0456  0.3449 -0.2356
  312TMC3     C 4747   3.502   1.479  12.497  0.3126  0.1462 -0.3803
  312TMC3     O 4748   3.419   1.519  12.419 -0.0546 -0.3873 -0.3449
  312TMC3     H 4749   3.272   1.398  12.539 -0.9388  0.8443  1.3592
  312TMC3    H1 4750   3.647   1.455  12.739 -0.4402  1.6482  1.1167
  312TMC3    H2 4751   3.318   1.292  12.948 -0.8637  1.3444 -0.0354
  312TMC3    C7 4752   3.582   1.329  12.948  0.5574  0.3363 -0.3109
  312TMC3    C8 4753   3.165   1.267  12.749  0.3346  0.2614 -0.1860
  312TMC3    O1 4754   3.681   1.282  12.889 -0.0873  0.3213 -0.1731
  312TMC3    O2 4755   3.147   1.204  12.851 -0.4711 -0.1042  0.7856
  313MPD2     C 4756   2.884   0.570  11.739 -0.7622  0.5577  0.7269
  313MPD2    C1 4757   2.956   0.540  11.622 -0.3082 -0.6191 -0.0624
  313MPD2    C2 4758   2.950   0.406  11.575  0.5684 -0.1354 -0.6968
  313MPD2    C3 4759   2.873   0.313  11.641  0.9159 -0.0551 -0.2367
  313MPD2    C4 4760   2.812   0.348  11.759 -0.5547 -0.8553 -0.0432
  313MPD2    C5 4761   2.824   0.474  11.811  0.1407 -0.5614  0.2623
  313MPD2     H 4762   3.009   0.389  11.486  2.7454  0.8381  0.5746
  313MPD2    H1 4763   2.744   0.281  11.811 -2.4817  0.5049 -0.8164
  313MPD2    H2 4764   2.900   0.664  11.791  0.1052  0.8695 -0.1222
  313MPD2    H3 4765   2.782   0.497  11.908  0.0885 -0.2930  0.1753
  313MPD2     N 4766   2.843   0.185  11.574  0.3074  0.0087 -0.0643
  313MPD2    H5 4767   2.900   0.157  11.495 -1.4928 -1.2115 -0.9218
  313MPD2    N1 4768   3.041   0.634  11.556  0.3930  0.3104  0.1156
  313MPD2    H7 4769   3.103   0.599  11.484 -0.4980 -0.2246 -0.4019
  314TMC3    C1 4770   3.101   0.853  11.466  0.4883  0.1310  0.3672
  314TMC3    C2 4771   3.236   0.829  11.464 -0.3099 -0.1126 -0.4051
  314TMC3    C3 4772   3.306   0.922  11.388 -0.3836 -0.4996 -0.3422
  314TMC3    C4 4773   3.028   0.954  11.408 -0.1286 -0.1287  0.0536
  314TMC3    C5 4774   3.102   1.032  11.319 -0.3040  0.4776 -0.0293
  314TMC3    C6 4775   3.239   1.021  11.316  0.4778 -0.5632 -0.1270
  314TMC3     C 4776   3.018   0.772  11.563 -0.6414  0.1573  0.0767
  314TMC3     O 4777   2.927   0.835  11.616  0.3484  0.1430 -0.4579
  314TMC3     H 4778   3.281   0.742  11.510 -0.6508  0.7936  1.6698
  314TMC3    H1 4779   2.920   0.949  11.401 -0.2968 -0.8959  3.2023
  314TMC3    H2 4780   3.287   1.104  11.265 -1.9617  0.3161 -0.9860
  314TMC3    C7 4781   3.048   1.023  11.185 -0.3740 -0.5384  0.2884
  314TMC3    C8 4782   3.445   0.919  11.357 -0.5950 -0.6020  0.3237
  314TMC3    O1 4783   2.929   0.993  11.178 -0.3029 -0.0195 -0.2625
  314TMC3    O2 4784   3.479   0.970  11.254  0.7836  0.4996  0.2642
  315MPD2     C 4785   3.526   4.044  17.600  0.1108 -0.6758  0.7723
  315MPD2    C1 4786   3.574   4.049  17.725 -0.4583 -0.0653  0.8450
  315MPD2    C2 4787   3.607   4.159   0.051 -0.1605  0.5804  0.1647
  315MPD2    C3 4788   3.599   4.281  17.724 -0.0229  0.4163  0.1766
  315MPD2    C4 4789   3.566   4.282  17.595 -0.2833  0.0768  0.8555
  315MPD2    C5 4790   3.520   4.163  17.533 -0.0505  0.3681 -0.4652
  315MPD2     H 4791   3.637   4.147   0.154  1.6922 -1.2026 -0.5947
  315MPD2    H1 4792   3.569   4.375  17.540  3.8751 -0.2192  0.5458
  315MPD2    H2 4793   3.484   3.956  17.552 -2.3174  1.0748 -0.3544
  315MPD2    H3 4794   3.481   4.152  17.433 -1.5202  0.2448  0.1087
  315MPD2     N 4795   3.641   4.395   0.059  0.8173  0.1475 -0.2267
  315MPD2    H5 4796   3.672   4.372   0.153 -1.0315 -1.0590  0.0886
  315MPD2    N1 4797   3.601   3.928   0.055  0.4263  0.0958 -0.0487
  315MPD2    H7 4798   3.628   3.934   0.152 -2.8173  1.5033  0.7786
  316TMC3    C1 4799   3.651   4.623   0.128  0.1458 -0.4037 -0.0172
  316TMC3    C2 4800   3.714   4.580   0.249 -0.3280 -0.3357  0.3483
  316TMC3    C3 4801   3.683   4.651   0.363 -0.7769 -0.1052  0.7903
  316TMC3    C4 4802   3.572   0.005   0.122 -0.2783 -0.0254 -0.3324
  316TMC3    C5 4803   3.554   0.074   0.239 -0.1249  0.4525  0.4039
  316TMC3    C6 4804   3.609   0.026   0.354 -0.2334  0.2681  0.0267
  316TMC3     C 4805   3.624   4.527   0.024 -0.2337 -0.2277 -0.3849
  316TMC3     O 4806   3.577   4.573  17.663 -0.7814 -0.2699  0.1318
  316TMC3     H 4807   3.778   4.492   0.252  1.3056  0.8071 -0.6884
  316TMC3    H1 4808   3.520   0.026   0.029 -1.4881 -2.3429 -0.1635
  316TMC3    H2 4809   3.583   0.085   0.441  1.8286  1.8631 -0.4343
  316TMC3    C7 4810   3.480   0.204   0.245  0.2032 -0.1969 -0.0150
  316TMC3    C8 4811   3.744   4.640   0.492 -0.3697 -0.1045  0.1823
  316TMC3    O1 4812   3.431   0.230   0.350  0.3510  0.3178 -0.0568
  316TMC3    O2 4813   3.702   4.728   0.573  0.5500 -0.6315 -0.1921
  317MPD2     C 4814   4.476   2.552  13.065  0.0491 -0.0376 -0.0695
  317MPD2    C1 4815   4.589   2.504  13.007 -0.7547 -0.2139 -0.0036
  317MPD2    C2 4816   4.700   2.476  13.081  0.0502 -0.1103  0.2233
  317MPD2    C3 4817   4.714   2.506  13.213  0.0013 -0.3769 -0.8265
  317MPD2    C4 4818   4.603   2.567  13.277 -0.8302  0.2823 -0.6112
  317MPD2    C5 4819   4.493   2.591  13.199 -0.4258 -0.5221 -0.3149
  317MPD2     H 4820   0.042   2.432  13.020 -0.8422  0.3248 -1.2066
  317MPD2    H1 4821   4.601   2.584  13.384  0.1069  0.4898 -0.6280
  317MPD2    H2 4822   4.393   2.586  13.004  1.0649 -1.2040 -2.1205
  317MPD2    H3 4823   4.403   2.635  13.241 -0.6234  0.7884 -2.0998
  317MPD2     N 4824   0.102   2.479  13.284  0.5091 -0.1772 -0.3250
  317MPD2    H5 4825   0.177   2.433  13.233  0.9588 -0.4416  0.5707
  317MPD2    N1 4826   4.585   2.469  12.868  0.1907 -0.4873  0.1736
  317MPD2    H7 4827   4.670   2.426  12.832  0.3945  0.0349  0.0317
  318TMC3    C1 4828   0.253   2.440  13.454 -0.6014 -0.3709  0.4065
  318TMC3    C2 4829   0.261   2.309  13.423 -0.3705 -0.3450 -0.0725
  318TMC3    C3 4830   0.365   2.242  13.482 -0.4309 -0.0052 -0.2117
  318TMC3    C4 4831   0.333   2.498  13.542  0.2932 -0.1023 -0.9994
  318TMC3    C5 4832   0.434   2.424  13.605  0.1096  0.2455 -0.3474
  318TMC3    C6 4833   0.460   2.296  13.559  0.5044  1.0578  0.0763
  318TMC3     C 4834   0.136   2.510  13.411  0.6909  0.1531 -0.1526
  318TMC3     O 4835   0.080   2.583  13.487 -0.1685 -0.0969 -0.1640
  318TMC3     H 4836   0.200   2.270  13.342  0.4253 -0.7402 -0.4866
  318TMC3    H1 4837   0.315   2.600  13.574 -1.4756 -0.3271 -1.2652
  318TMC3    H2 4838   0.545   2.239  13.595 -0.9665 -0.2444  1.4855
  318TMC3    C7 4839   0.525   2.485  13.707 -0.9236  0.0325  0.5354
  318TMC3    C8 4840   0.361   2.098  13.498  0.1515 -0.3267 -0.4888
  318TMC3    O1 4841   0.468   2.565  13.780 -0.4045 -0.8538  0.1459
  318TMC3    O2 4842   0.454   2.042  13.549  0.7992 -0.1151 -0.0847
  319MPD2     C 4843   1.883   3.933  16.695 -0.2907 -0.0490  0.1973
  319MPD2    C1 4844   1.833   3.846  16.789  0.7404 -0.4744  0.1269
  319MPD2    C2 4845   1.706   3.798  16.772  0.1973  0.6070  0.6344
  319MPD2    C3 4846   1.637   3.824  16.658  0.2953  0.0265 -0.7827
  319MPD2    C4 4847   1.685   3.904  16.561 -0.2727  0.3277 -0.1531
  319MPD2    C5 4848   1.810   3.951  16.578 -0.6846  0.7924  0.3836
  319MPD2     H 4849   1.661   3.745  16.855  0.0644  0.2961  0.3640
  319MPD2    H1 4850   1.618   3.936  16.483  1.2139  2.6653 -0.4923
  319MPD2    H2 4851   1.977   3.984  16.712  0.0636 -0.5552 -0.2568
  319MPD2    H3 4852   1.845   4.026  16.508 -0.0176 -1.2173 -1.4444
  319MPD2     N 4853   1.508   3.773  16.627 -0.0241 -0.6303  0.6358
  319MPD2    H5 4854   1.467   3.807  16.540  1.9912 -2.1629 -0.8866
  319MPD2    N1 4855   1.893   3.810  16.904 -0.6383  0.3853  0.3364
  319MPD2    H7 4856   1.840   3.761  16.975 -1.3111  0.5839 -0.0304
  320TMC3    C1 4857   1.323   3.637  16.612  0.8148  0.1380  0.7327
  320TMC3    C2 4858   1.278   3.721  16.514 -0.2620 -0.4991 -0.0801
  320TMC3    C3 4859   1.165   3.684  16.442 -0.6579 -0.4464  0.1724
  320TMC3    C4 4860   1.253   3.529  16.644 -0.5180  0.2758 -0.1425
  320TMC3    C5 4861   1.128   3.501  16.584  0.2977  0.0203 -0.3242
  320TMC3    C6 4862   1.085   3.585  16.477  0.6225  0.5753 -0.2264
  320TMC3     C 4863   1.436   3.680  16.693 -0.0133 -0.2054 -0.0689
  320TMC3     O 4864   1.453   3.618  16.797  0.1139 -0.5781  0.3467
  320TMC3     H 4865   1.330   3.809  16.479  0.9114 -1.4280 -0.6810
  320TMC3    H1 4866   1.301   3.474  16.725  1.9717 -0.7658 -2.3505
  320TMC3    H2 4867   1.005   3.550  16.413  0.8961 -1.7794  0.6993
  320TMC3    C7 4868   1.069   3.371  16.585 -0.0147 -0.0538  0.9496
  320TMC3    C8 4869   1.123   3.782  16.337 -0.5061 -0.2274  0.3897
  320TMC3    O1 4870   0.979   3.349  16.503 -0.0820  0.3328  0.5629
  320TMC3    O2 4871   1.173   3.894  16.349 -0.5556  0.5671 -0.4539
  321TMC3    C1 4872   2.043   3.819  17.078 -0.0815 -0.7562 -0.0838
  321TMC3    C2 4873   1.975   3.716  17.135 -0.0560  0.4608  0.0141
  321TMC3    C3 4874   1.960   3.717  17.271 -0.5084 -0.0855  0.2951
  321TMC3    C4 4875   2.101   3.918  17.150  0.0062  1.0435 -0.2999
  321TMC3    C5 4876   2.082   3.920  17.283  0.1377 -0.3858 -0.3581
  321TMC3    C6 4877   2.000   3.822  17.342  0.2514 -0.8040  0.0094
  321TMC3     C 4878   2.014   3.861  16.947 -0.2468 -0.4260 -0.1986
  321TMC3     O 4879   2.107   3.917  16.889 -0.1501  0.3469 -0.2982
  321TMC3     H 4880   1.948   3.633  17.070  0.2804 -0.6467  1.2846
  321TMC3    H1 4881   2.157   3.998  17.103  0.0163  0.3213 -1.5045
  321TMC3    H2 4882   1.988   3.818  17.450 -1.7671 -2.7363 -0.2792
  321TMC3    C7 4883   2.184   3.969  17.370  0.3324 -0.4377 -0.6137
  321TMC3    C8 4884   1.996   3.594  17.330  0.4251 -0.0161  0.5423
  321TMC3    O1 4885   2.169   3.954  17.492  0.0786  0.1971  0.2446
  321TMC3    O2 4886   2.092   3.530  17.287  0.4840 -0.1804 -0.1862
  322MPD2     C 4887   0.151   0.737  14.292  0.1207 -0.7039 -0.4090
  322MPD2    C1 4888   0.203   0.627  14.350  0.1828 -0.8313  0.5270
  322MPD2    C2 4889   0.204   0.508  14.277 -0.1617  0.0340 -0.4262
  322MPD2    C3 4890   0.147   0.502  14.148  0.1226 -0.0321 -0.1522
  322MPD2    C4 4891   0.079   0.615  14.097 -0.6733 -0.4237 -0.7802
  322MPD2    C5 4892   0.102   0.733  14.165  0.4632  0.2684  0.7680
  322MPD2     H 4893   0.231   0.415  14.325 -0.9872  1.6767  3.2104
  322MPD2    H1 4894   0.021   0.613  14.006  0.4462 -1.5398 -1.4740
  322MPD2    H2 4895   0.158   0.828  14.350 -2.3133 -1.2523  0.7497
  322MPD2    H3 4896   0.059   0.819  14.114 -1.8847 -1.0542  0.5369
  322MPD2     N 4897   0.153   0.385  14.072  0.5713 -0.1718  0.3842
  322MPD2    H5 4898   0.201   0.311  14.122  1.6661 -1.3792 -2.4617
  322MPD2    N1 4899   0.279   0.643  14.468 -0.2120  0.8993 -0.0108
  322MPD2    H7 4900   0.285   0.738  14.505  1.6962  0.5067  0.6919
  323TMC3    C1 4901   0.442   0.614  14.618 -0.1553 -0.4633 -0.0790
  323TMC3    C2 4902   0.531   0.690  14.551  0.2773  0.2056 -0.1395
  323TMC3    C3 4903   0.647   0.711  14.614 -0.0057  0.2705 -0.2258
  323TMC3    C4 4904   0.454   0.568  14.741 -0.2810  0.1254 -0.5019
  323TMC3    C5 4905   0.563   0.603  14.812 -0.6291  0.2594 -0.0700
  323TMC3    C6 4906   0.658   0.677  14.746  0.7171  0.8815 -0.3391
  323TMC3     C 4907   0.337   0.549  14.549 -0.0546 -0.0992  0.4797
  323TMC3     O 4908   0.317   0.428  14.555  0.4116 -0.2293  0.2921
  323TMC3     H 4909   0.518   0.701  14.444 -0.6000  0.3327 -0.0223
  323TMC3    H1 4910   0.390   0.487  14.775 -0.6195  0.5617 -0.1056
  323TMC3    H2 4911   0.752   0.689  14.799 -0.0589  1.2538  0.9796
  323TMC3    C7 4912   0.603   0.517  14.920  0.0886  0.4055  0.2792
  323TMC3    C8 4913   0.777   0.710  14.545 -0.3212 -0.7012 -0.0058
  323TMC3    O1 4914   0.557   0.401  14.918 -0.4276  0.0650  0.4301
  323TMC3    O2 4915   0.882   0.755  14.596 -0.9813  0.7593  0.5526
  324MPD2     C 4916   2.453   1.499  15.175  0.7236  0.4224  0.2366
  324MPD2    C1 4917   2.412   1.625  15.142 -0.0655  0.3521 -0.4524
  324MPD2    C2 4918   2.276   1.648  15.143  0.4323 -0.3615 -0.2832
  324MPD2    C3 4919   2.185   1.544  15.150 -0.3105 -0.1923  0.8749
  324MPD2    C4 4920   2.228   1.422  15.179  0.6386  0.0497 -0.3344
  324MPD2    C5 4921   2.359   1.404  15.203  0.5070  0.0939  0.2990
  324MPD2     H 4922   2.255   1.751  15.115  0.7512 -0.0396  0.6956
  324MPD2    H1 4923   2.157   1.341  15.185  1.4352 -0.6484 -0.2482
  324MPD2    H2 4924   2.557   1.473  15.190  0.8682 -0.9515 -3.1424
  324MPD2    H3 4925   2.395   1.310  15.243  2.3828  1.6921  2.4361
  324MPD2     N 4926   2.046   1.560  15.129  0.6267 -0.3443 -0.0460
  324MPD2    H5 4927   1.982   1.482  15.141 -0.0243  0.1622 -0.2083
  324MPD2    N1 4928   2.497   1.729  15.103  0.5939  0.3219 -0.2512
  324MPD2    H7 4929   2.451   1.819  15.096 -2.1203 -1.0632  0.0446
  325TMC3    C1 4930   1.851   1.688  15.080  0.2112  0.1049 -0.1625
  325TMC3    C2 4931   1.767   1.591  15.116  0.2614 -0.2493 -0.8355
  325TMC3    C3 4932   1.637   1.623  15.150  0.2433  0.9750 -0.0307
  325TMC3    C4 4933   1.803   1.816  15.056  0.5663 -0.1079  0.5735
  325TMC3    C5 4934   1.678   1.843  15.098  0.0418 -0.0572  0.0367
  325TMC3    C6 4935   1.591   1.748  15.142  0.1848  0.2167 -0.0755
  325TMC3     C 4936   1.989   1.680  15.087  0.5433  0.8733  0.1305
  325TMC3     O 4937   2.044   1.776  15.035  0.4591  0.3384 -0.2409
  325TMC3     H 4938   1.807   1.492  15.102 -0.0946 -0.6360  0.9059
  325TMC3    H1 4939   1.868   1.896  15.026  0.5215  0.0614  0.9275
  325TMC3    H2 4940   1.490   1.780  15.165  0.2507 -0.1871  0.7942
  325TMC3    C7 4941   1.625   1.947  15.019 -0.5193 -0.1080 -0.5408
  325TMC3    C8 4942   1.542   1.521  15.116 -0.3691 -0.1766 -0.3953
  325TMC3    O1 4943   1.554   2.028  15.077  0.4007 -0.4754 -0.1637
  325TMC3    O2 4944   1.587   1.420  15.060  0.3147 -0.4900 -0.4291
  326MPD2     C 4945   2.713   2.767  11.479  0.1077  0.4171 -0.4722
  326MPD2    C1 4946   2.760   2.723  11.359 -0.4516  0.7099 -0.0696
  326MPD2    C2 4947   2.864   2.793  11.300  0.1390 -0.3257  0.1784
  326MPD2    C3 4948   2.917   2.912  11.351  0.2559 -0.2989 -0.4235
  326MPD2    C4 4949   2.864   2.957  11.469 -0.9685 -0.4529 -0.1598
  326MPD2    C5 4950   2.765   2.885  11.524 -0.6737 -0.5293 -0.6757
  326MPD2     H 4951   2.888   2.754  11.201 -2.3897  0.1094 -0.5962
  326MPD2    H1 4952   2.902   3.051  11.507 -0.7806 -1.3858  1.9416
  326MPD2    H2 4953   2.641   2.707  11.535 -0.6703  0.8104 -1.0461
  326MPD2    H3 4954   2.727   2.932  11.614  0.2051  1.4078 -1.3290
  326MPD2     N 4955   3.019   2.989  11.286 -0.3086 -0.2604  0.4912
  326MPD2    H5 4956   3.055   3.069  11.336  0.4799 -0.1241 -0.3212
  326MPD2    N1 4957   2.725   2.605  11.293  0.0091 -0.2582 -0.6930
  326MPD2    H7 4958   2.788   2.565  11.224 -0.0471 -2.0941  0.3079
  327TMC3    C1 4959   2.610   2.399  11.259 -0.3214 -0.1017 -0.1277
  327TMC3    C2 4960   2.493   2.393  11.189 -0.3344 -0.4326  0.5669
  327TMC3    C3 4961   2.497   2.340  11.066  0.2685  0.7087 -0.0145
  327TMC3    C4 4962   2.719   2.327  11.227  0.3003  0.8702  0.1024
  327TMC3    C5 4963   2.718   2.275  11.101  0.0375  0.2147 -0.4682
  327TMC3    C6 4964   2.612   2.291  11.020  0.3752 -0.2741 -0.1095
  327TMC3     C 4965   2.624   2.518  11.336  0.1035  0.4518  0.5896
  327TMC3     O 4966   2.519   2.544  11.398 -0.0311  0.1777  0.6160
  327TMC3     H 4967   2.412   2.457  11.220  0.2335 -0.1062  1.3704
  327TMC3    H1 4968   2.797   2.312  11.301 -0.0937 -0.3144  0.2784
  327TMC3    H2 4969   2.611   2.258  10.917 -0.4256  1.6141 -0.7122
  327TMC3    C7 4970   2.832   2.185  11.053 -0.2909 -0.9700  0.6283
  327TMC3    C8 4971   2.415   2.410  10.980  0.1047  0.5232  0.0497
  327TMC3    O1 4972   2.814   2.134  10.945  0.1200  0.1856 -0.9630
  327TMC3    O2 4973   2.294   2.401  10.994 -0.1684 -0.5683 -0.3596
  328MPD2     C 4974   1.301   3.022  17.430  0.0869  0.2540  0.4193
  328MPD2    C1 4975   1.179   2.982  17.474  0.2795 -0.2308  0.1481
  328MPD2    C2 4976   1.064   2.980  17.398 -0.1946  0.3509 -0.1228
  328MPD2    C3 4977   1.081   3.007  17.262  0.7681  0.7279 -0.1992
  328MPD2    C4 4978   1.204   3.056  17.221  0.6389  0.4633  0.3827
  328MPD2    C5 4979   1.316   3.048  17.298 -0.4577 -0.1362  1.1520
  328MPD2     H 4980   0.971   2.944  17.442 -0.6529  1.1259 -0.4463
  328MPD2    H1 4981   1.212   3.086  17.116 -1.7350  0.9927  0.3501
  328MPD2    H2 4982   1.388   3.039  17.493 -0.1266 -0.1137  0.8125
  328MPD2    H3 4983   1.417   3.075  17.269 -0.6486 -0.0578  0.5682
  328MPD2     N 4984   0.976   3.000  17.165 -0.6205  0.1119  0.1851
  328MPD2    H5 4985   0.988   3.050  17.077  1.0914 -1.1291 -0.2924
  328MPD2    N1 4986   1.176   2.958  17.611 -0.3047  0.6431 -0.0839
  328MPD2    H7 4987   1.261   2.983  17.660  0.8539 -0.7258 -1.4401
  329TMC3    C1 4988   1.093   2.901   0.085  0.4670 -0.0885 -0.1253
  329TMC3    C2 4989   1.167   2.995   0.151 -0.2407  0.1731  0.5658
  329TMC3    C3 4990   1.161   3.009   0.286 -0.1031 -0.9503  0.5704
  329TMC3    C4 4991   1.002   2.825   0.152 -0.2560  1.2300 -0.3120
  329TMC3    C5 4992   0.998   2.847   0.289  0.1096 -0.8365 -0.2892
  329TMC3    C6 4993   1.062   2.946   0.352  0.1852 -0.2122 -0.1261
  329TMC3     C 4994   1.074   2.899  17.686  0.6533  0.8039  0.8770
  329TMC3     O 4995   0.973   2.843  17.638  0.0249 -0.0288  0.1459
  329TMC3     H 4996   1.229   3.070   0.104 -0.9518  0.7467  0.5526
  329TMC3    H1 4997   0.949   2.737   0.117 -0.2169  2.0008 -2.3374
  329TMC3    H2 4998   1.055   2.968   0.459 -1.0534  2.3726 -0.7269
  329TMC3    C7 4999   0.925   2.768   0.383 -0.0895 -0.5986 -0.2711
  329TMC3    C8 5000   1.214   3.144   0.330 -0.3009 -0.6195  0.0582
  329TMC3    O1 5001   0.937   2.795   0.502  0.1386 -0.1672 -0.2769
  329TMC3    O2 5002   1.336   3.163   0.317 -0.9841  0.0019  0.0628
  330TMC3    C1 5003   4.049   1.798  10.160 -0.0373  0.3581  0.6166
  330TMC3    C2 5004   4.015   1.718  10.048 -0.3761 -0.3128 -0.4087
  330TMC3    C3 5005   3.964   1.590  10.064  0.2174 -0.9266  0.0680
  330TMC3    C4 5006   4.025   1.747  10.284 -0.0125 -0.1103  0.1445
  330TMC3    C5 5007   3.971   1.623  10.291 -0.1669  0.0987 -0.7033
  330TMC3    C6 5008   3.940   1.544  10.188 -0.1064  0.3750  0.2302
  330TMC3     C 5009   4.053   1.947  10.144 -0.4107  0.2134 -0.1399
  330TMC3     O 5010   4.017   2.015  10.241  0.1796 -0.0741 -0.7416
  330TMC3     H 5011   4.015   1.751   9.945  1.2373 -0.1523 -0.3582
  330TMC3    H1 5012   4.032   1.807  10.374 -0.9658  1.0193 -0.5330
  330TMC3    H2 5013   3.904   1.445  10.214 -0.2141  0.1842 -0.6250
  330TMC3    C7 5014   3.912   1.575  10.412  0.1933  0.1391 -0.2367
  330TMC3    C8 5015   3.946   1.509   9.945 -0.0578  0.4806  0.2488
  330TMC3    O1 5016   3.799   1.532  10.405  0.4942 -0.3148  0.0975
  330TMC3    O2 5017   4.009   1.543   9.844  0.8675 -0.2954 -0.0350
  331MPD2     C 5018   1.384   1.182  13.304  0.5088  0.4839  0.9159
  331MPD2    C1 5019   1.393   1.185  13.165 -0.2302  0.9532 -0.3252
  331MPD2    C2 5020   1.418   1.063  13.103 -0.4273 -0.3307  0.1889
  331MPD2    C3 5021   1.434   0.949  13.171  0.2898  0.0178 -0.1643
  331MPD2    C4 5022   1.420   0.939  13.313  0.6340  1.4594 -0.5074
  331MPD2    C5 5023   1.407   1.064  13.375  0.1208  0.3866 -0.2489
  331MPD2     H 5024   1.423   1.067  12.995 -0.2795 -0.1349  0.2049
  331MPD2    H1 5025   1.441   0.847  13.367 -2.3762  0.0272 -1.7513
  331MPD2    H2 5026   1.363   1.272  13.360  1.7554 -0.8139  3.5013
  331MPD2    H3 5027   1.387   1.067  13.482  1.3174 -0.0532 -0.0113
  331MPD2     N 5028   1.464   0.838  13.085 -0.1536 -0.2759  0.0325
  331MPD2    H5 5029   1.482   0.853  12.986 -0.0732  1.7148  0.3480
  331MPD2    N1 5030   1.388   1.296  13.081  0.2122  0.4212 -0.9640
  331MPD2    H7 5031   1.391   1.277  12.982 -0.7236 -1.8679 -0.5683
  332TMC3    C1 5032   1.519   0.625  13.008 -0.0420 -0.9186  0.2837
  332TMC3    C2 5033   1.522   0.664  12.875  0.1300 -0.2087 -0.6738
  332TMC3    C3 5034   1.573   0.584  12.784  0.2343 -0.4997  0.0014
  332TMC3    C4 5035   1.586   0.511  13.047  0.3748  0.4057  0.3762
  332TMC3    C5 5036   1.627   0.427  12.945  0.5403  0.0599 -0.2826
  332TMC3    C6 5037   1.617   0.455  12.814  0.8673  0.9194 -0.0457
  332TMC3     C 5038   1.488   0.710  13.121 -0.3156 -0.0755 -0.3338
  332TMC3     O 5039   1.494   0.665  13.232  0.3182  0.0833  0.3744
  332TMC3     H 5040   1.465   0.749  12.838 -0.9172 -0.9590 -0.8002
  332TMC3    H1 5041   1.597   0.479  13.150 -0.1520 -0.4976  0.1541
  332TMC3    H2 5042   1.672   0.395  12.742  0.0526 -0.5330  0.5496
  332TMC3    C7 5043   1.736   0.338  12.979  0.4297  0.8162 -0.0388
  332TMC3    C8 5044   1.590   0.638  12.647 -0.9040 -0.0940 -0.1448
  332TMC3    O1 5045   1.703   0.260  13.062  0.5822 -1.5041  0.2385
  332TMC3    O2 5046   1.578   0.760  12.638 -0.8427 -0.4524  0.4317
  333MPD2     C 5047   1.924   0.988  11.274  0.8403  0.2338 -0.1097
  333MPD2    C1 5048   1.952   0.888  11.181  0.1756  0.0190 -0.3203
  333MPD2    C2 5049   1.919   0.759  11.214  0.0327  0.2991 -0.1843
  333MPD2    C3 5050   1.870   0.725  11.342  0.4013  0.5305  0.2740
  333MPD2    C4 5051   1.869   0.819  11.442  0.5540  0.0853 -0.3635
  333MPD2    C5 5052   1.898   0.953  11.409 -0.4766 -0.8936 -0.8921
  333MPD2     H 5053   1.941   0.685  11.138  2.6986 -0.6478  1.5320
  333MPD2    H1 5054   1.835   0.797  11.543  0.5833 -0.4925 -0.4800
  333MPD2    H2 5055   1.951   1.090  11.250  0.5985  1.0079  2.8850
  333MPD2    H3 5056   1.890   1.036  11.477  0.4187 -0.5207 -1.2348
  333MPD2     N 5057   1.822   0.597  11.359  0.2597  0.0639  0.2266
  333MPD2    H5 5058   1.831   0.530  11.284  1.0065  0.2463  0.1511
  333MPD2    N1 5059   1.993   0.939  11.055 -0.1072  0.2171  0.6030
  333MPD2    H7 5060   2.005   1.038  11.039  0.5984  0.1604  0.7968
  334TMC3    C1 5061   2.070   0.939  10.831 -0.7624  0.0716  0.5298
  334TMC3    C2 5062   2.144   0.875  10.732  0.2482  0.4945 -0.5177
  334TMC3    C3 5063   2.210   0.959  10.645  0.0115  0.1461  0.4047
  334TMC3    C4 5064   2.055   1.074  10.832  0.2251 -0.5764  0.1146
  334TMC3    C5 5065   2.114   1.150  10.732 -0.3168  0.7270 -0.5155
  334TMC3    C6 5066   2.193   1.091  10.634  0.9024 -0.6234 -0.2209
  334TMC3     C 5067   2.031   0.858  10.947 -0.7362 -0.3586 -0.9095
  334TMC3     O 5068   2.047   0.735  10.954  0.0647 -0.0673 -0.1196
  334TMC3     H 5069   2.150   0.767  10.739  4.7340  0.9234  1.8900
  334TMC3    H1 5070   1.982   1.131  10.888  2.1170  0.2425  1.7473
  334TMC3    H2 5071   2.248   1.152  10.562  0.4756 -2.1853 -1.8890
  334TMC3    C7 5072   2.097   1.290  10.734 -0.2215 -0.4100  0.0240
  334TMC3    C8 5073   2.312   0.895  10.562 -0.0894  0.1612 -0.3452
  334TMC3    O1 5074   2.079   1.340  10.845 -0.2005  0.8600  0.4859
  334TMC3    O2 5075   2.290   0.781  10.514 -0.4816 -0.6295 -0.4620
  335TMC3    C1 5076   1.519   2.733   0.059 -0.2274  0.2840 -0.5299
  335TMC3    C2 5077   1.431   2.704  17.696  1.4251  0.4075 -0.1542
  335TMC3    C3 5078   1.488   2.699  17.571 -0.0554 -0.4836 -0.1405
  335TMC3    C4 5079   1.639   2.788   0.040  1.1370  0.3769  0.6512
  335TMC3    C5 5080   1.681   2.789  17.645 -0.9055  0.8266 -0.0196
  335TMC3    C6 5081   1.612   2.747  17.541  0.6327  0.4827  0.1250
  335TMC3     C 5082   1.471   2.741   0.196 -0.2969 -0.6448 -0.0571
  335TMC3     O 5083   1.541   2.801   0.274  0.0859 -0.4270  0.0055
  335TMC3     H 5084   1.333   2.660  17.713  2.6126 -2.0719  0.3293
  335TMC3    H1 5085   1.707   2.792   0.124  0.4230 -0.5817  1.2776
  335TMC3    H2 5086   1.649   2.766  17.441  0.3512 -0.2123 -0.1088
  335TMC3    C7 5087   1.824   2.815  17.612 -0.5870  0.1534  0.3052
  335TMC3    C8 5088   1.425   2.608  17.479 -0.4118 -0.0446  0.3216
  335TMC3    O1 5089   1.861   2.777  17.501 -0.2461  0.3768 -0.1764
  335TMC3    O2 5090   1.339   2.526  17.524 -0.2019  0.1958 -0.3030
  336MPD2     C 5091   1.003   0.558  16.749 -0.1165  0.2805  0.7249
  336MPD2    C1 5092   0.986   0.489  16.629 -0.6004 -0.3032 -0.1565
  336MPD2    C2 5093   1.004   0.352  16.634  0.5186  0.1300  0.0957
  336MPD2    C3 5094   1.028   0.278  16.752 -0.2315 -0.3749  0.0424
  336MPD2    C4 5095   1.007   0.349  16.872  0.2247 -0.1309 -0.5845
  336MPD2    C5 5096   1.007   0.485  16.868 -0.1668 -0.0560  0.3147
  336MPD2     H 5097   0.993   0.300  16.539  2.2936 -1.2213  0.6406
  336MPD2    H1 5098   1.015   0.294  16.965  2.8185 -0.6107 -1.0988
  336MPD2    H2 5099   0.997   0.666  16.757  1.3246  0.0907  4.5488
  336MPD2    H3 5100   0.998   0.537  16.963  1.0848 -0.5177  0.6837
  336MPD2     N 5101   1.068   0.146  16.758 -0.4860 -0.4688 -0.2680
  336MPD2    H5 5102   1.068   0.106  16.851 -0.0235 -1.3044 -0.6300
  336MPD2    N1 5103   0.929   0.555  16.519 -0.4289  0.0925  0.1400
  336MPD2    H7 5104   0.893   0.492  16.448 -1.6318  2.2859 -1.2063
  337TMC3    C1 5105   0.861   0.726  16.371  0.5294 -0.1923 -0.5730
  337TMC3    C2 5106   0.743   0.661  16.335  0.0668 -0.2285  0.0933
  337TMC3    C3 5107   0.672   0.721  16.232 -0.4425  0.1180  0.4030
  337TMC3    C4 5108   0.906   0.839  16.314 -0.5082  0.5230  0.8048
  337TMC3    C5 5109   0.829   0.900  16.217  0.7734  0.1795  0.0076
  337TMC3    C6 5110   0.708   0.840  16.174  0.8918  0.3121 -0.7961
  337TMC3     C 5111   0.929   0.690  16.500 -0.4959  0.4978 -0.2105
  337TMC3     O 5112   1.000   0.770  16.564  0.1938 -0.1447 -0.5455
  337TMC3     H 5113   0.713   0.574  16.393 -2.1683  0.5352  0.0400
  337TMC3    H1 5114   1.000   0.879  16.350  1.0359 -1.1701 -1.3441
  337TMC3    H2 5115   0.637   0.891  16.109 -0.1003 -2.1262 -1.6404
  337TMC3    C7 5116   0.869   1.030  16.181 -0.2381  0.0263 -0.2067
  337TMC3    C8 5117   0.558   0.648  16.178  0.2433  0.2273  0.0684
  337TMC3    O1 5118   0.986   1.044  16.191 -0.5234 -0.1356 -0.3630
  337TMC3    O2 5119   0.519   0.551  16.247 -0.0049  0.2810 -0.4318
  338MPD2     C 5120   2.440   4.384   0.789 -0.0442 -0.3077  0.0834
  338MPD2    C1 5121   2.323   4.374   0.714 -0.8267  0.2824  0.1174
  338MPD2    C2 5122   2.219   4.459   0.747 -0.0145 -0.3563 -0.5962
  338MPD2    C3 5123   2.232   4.551   0.852  0.1727  0.3284 -0.5112
  338MPD2    C4 5124   2.355   4.565   0.922  0.3850  0.6586 -0.2919
  338MPD2    C5 5125   2.451   4.481   0.883 -0.1896 -0.1036 -0.2733
  338MPD2     H 5126   2.123   4.450   0.699  0.5275 -0.3132 -1.6753
  338MPD2    H1 5127   2.376   4.632   1.004  1.7070  1.3707 -1.2016
  338MPD2    H2 5128   2.527   4.328   0.755 -1.3881 -0.1981 -3.5498
  338MPD2    H3 5129   2.550   4.487   0.928  0.5007 -0.1468 -1.7859
  338MPD2     N 5130   2.113   4.623   0.883 -0.4748 -0.8887 -0.2689
  338MPD2    H5 5131   2.029   4.599   0.831  1.0657 -0.4463 -2.9498
  338MPD2    N1 5132   2.308   4.282   0.609 -0.4074 -0.3521  0.0597
  338MPD2    H7 5133   2.221   4.283   0.557 -0.4733 -2.3664  0.1176
  339TMC3    C1 5134   1.962   0.045   0.969  0.5270 -0.5330 -0.5311
  339TMC3    C2 5135   1.911   0.116   1.074 -0.3925 -0.0678 -0.0153
  339TMC3    C3 5136   1.775   0.155   1.084  0.6086  0.0153  0.6115
  339TMC3    C4 5137   1.876   0.012   0.862 -0.7155 -0.0549  1.1935
  339TMC3    C5 5138   1.742   0.063   0.866 -0.4736 -0.4845  0.2163
  339TMC3    C6 5139   1.690   0.135   0.974 -0.2543 -0.1518 -0.2527
  339TMC3     C 5140   2.096   4.720   0.977 -0.4006 -0.8827 -0.2482
  339TMC3     O 5141   2.169   0.021   1.067 -0.0206  0.5687 -0.3119
  339TMC3     H 5142   1.977   0.138   1.157  1.1210 -2.4268 -0.5876
  339TMC3    H1 5143   1.924   4.703   0.775 -1.3706  1.0253  0.2840
  339TMC3    H2 5144   1.596   0.187   0.962 -0.0526  0.2333 -0.1542
  339TMC3    C7 5145   1.649   0.025   0.765  0.2085  0.1208 -0.7812
  339TMC3    C8 5146   1.759   0.269   1.176  0.2568  0.1289  0.1340
  339TMC3    O1 5147   1.547   0.087   0.747  0.1868 -0.2039 -0.2610
  339TMC3    O2 5148   1.861   0.323   1.220  0.2383  0.3880 -0.2383
  340MPD2     C 5149   1.755   2.372  10.781  0.2018 -0.3315  0.0349
  340MPD2    C1 5150   1.804   2.323  10.661 -0.3381  0.6344  0.0738
  340MPD2    C2 5151   1.937   2.311  10.640  0.9728 -0.5893 -0.7638
  340MPD2    C3 5152   2.033   2.349  10.739  0.0240  0.3642  0.2177
  340MPD2    C4 5153   1.983   2.410  10.851 -0.7979  0.2139  0.0252
  340MPD2    C5 5154   1.851   2.410  10.876 -0.0583  0.3916 -0.5434
  340MPD2     H 5155   1.985   2.263  10.555  2.3409  1.1192 -0.9563
  340MPD2    H1 5156   2.045   2.444  10.933 -0.0804  0.1957 -0.5066
  340MPD2    H2 5157   1.651   2.376  10.812  0.2796 -0.7445  0.3497
  340MPD2    H3 5158   1.810   2.437  10.973 -0.2125 -1.3936 -0.1067
  340MPD2     N 5159   2.170   2.341  10.718 -0.6603 -0.2092 -0.3224
  340MPD2    H5 5160   2.232   2.357  10.797 -2.8012 -2.7666  1.8709
  340MPD2    N1 5161   1.718   2.256  10.571 -1.1744 -0.7444  0.1342
  340MPD2    H7 5162   1.628   2.227  10.608 -1.7295  0.1486 -0.5239
  341TMC3    C1 5163   1.662   2.124  10.392  0.6668 -0.6655  0.2131
  341TMC3    C2 5164   1.594   2.041  10.476 -0.5139 -0.3668  0.7921
  341TMC3    C3 5165   1.519   1.937  10.413  0.0901  0.4799 -0.1370
  341TMC3    C4 5166   1.668   2.098  10.255  0.6174  0.1052  0.9194
  341TMC3    C5 5167   1.597   1.991  10.197 -0.3821 -0.4417 -0.6860
  341TMC3    C6 5168   1.523   1.915  10.281  0.1405  0.0052  0.1685
  341TMC3     C 5169   1.760   2.218  10.445 -0.0901 -0.6461 -0.0180
  341TMC3     O 5170   1.842   2.266  10.370 -0.2603 -0.4676  0.0914
  341TMC3     H 5171   1.590   2.059  10.583 -1.9566  0.0778  0.6697
  341TMC3    H1 5172   1.736   2.156  10.194 -1.5767  3.3068  1.5391
  341TMC3    H2 5173   1.468   1.827  10.249 -0.3351  0.0042  0.9854
  341TMC3    C7 5174   1.636   1.959  10.061 -0.5495  0.2723  0.5251
  341TMC3    C8 5175   1.452   1.841  10.501  0.3638  0.1691  0.1755
  341TMC3    O1 5176   1.667   1.843  10.030 -1.1598 -0.0481  0.6876
  341TMC3    O2 5177   1.368   1.773  10.444 -0.0717 -0.0939  0.5977
  342MPD2     C 5178   4.166   1.065   0.407 -0.2916  0.2774  0.5376
  342MPD2    C1 5179   4.247   1.080   0.297 -0.6735  0.7352 -0.0310
  342MPD2    C2 5180   4.326   1.197   0.281 -0.4587 -0.3205 -0.0175
  342MPD2    C3 5181   4.315   1.297   0.374  0.2357 -0.0498  0.3764
  342MPD2    C4 5182   4.233   1.279   0.477  0.3027 -0.0224 -0.4225
  342MPD2    C5 5183   4.153   1.167   0.496 -0.4199  0.2972 -0.2309
  342MPD2     H 5184   4.389   1.195   0.193  0.1570  1.0151  0.3989
  342MPD2    H1 5185   4.212   1.359   0.547 -1.5151 -0.6759 -0.2271
  342MPD2    H2 5186   4.121   0.971   0.436  2.7945 -0.8116  1.7813
  342MPD2    H3 5187   4.086   1.171   0.582  1.5662  0.9411  1.2813
  342MPD2     N 5188   4.393   1.424   0.370  0.2183 -0.3058 -0.1250
  342MPD2    H5 5189   4.373   1.496   0.439  0.2906 -0.0430 -0.3773
  342MPD2    N1 5190   4.262   0.987   0.192  0.1935 -0.3716  0.0025
  342MPD2    H7 5191   4.316   1.013   0.110  0.8247 -0.8657  0.2620
  343TMC3    C1 5192   4.282   0.770   0.102 -0.0467 -0.2316 -0.0257
  343TMC3    C2 5193   4.396   0.800   0.040  0.0968  0.4748  0.4210
  343TMC3    C3 5194   4.441   0.704  17.694  0.1975  0.4176 -0.0315
  343TMC3    C4 5195   4.205   0.658   0.074  0.0696 -0.2179 -0.2627
  343TMC3    C5 5196   4.263   0.554   0.006 -0.7823 -0.3792  0.3567
  343TMC3    C6 5197   4.378   0.580  17.679  0.5669  0.4621 -0.0051
  343TMC3     C 5198   4.210   0.863   0.197 -0.5154 -0.2273 -0.3060
  343TMC3     O 5199   4.140   0.809   0.281 -0.0971  0.2237 -0.2204
  343TMC3     H 5200   4.455   0.889   0.057  0.3543  0.5347 -0.7305
  343TMC3    H1 5201   4.112   0.643   0.128 -0.7023  0.3716 -1.4150
  343TMC3    H2 5202   4.424   0.498  17.626  1.5141  1.3683 -0.5769
  343TMC3    C7 5203   4.197   0.427  17.728 -0.0548 -0.1113  0.1511
  343TMC3    C8 5204   4.543   0.748  17.595 -0.2615  0.0889 -0.2572
  343TMC3    O1 5205   4.201   0.367  17.620  0.2716  0.1044 -0.0046
  343TMC3    O2 5206   4.578   0.868  17.599 -0.8518  0.7831  0.5118
  344MPD2     C 5207   0.355   0.322  10.948 -0.2112 -0.2859 -0.7491
  344MPD2    C1 5208   0.304   0.285  10.827 -0.7804  0.0526 -0.8444
  344MPD2    C2 5209   0.328   0.358  10.711 -0.2564 -0.6483 -0.1928
  344MPD2    C3 5210   0.409   0.476  10.718 -0.0642 -0.5639 -0.5527
  344MPD2    C4 5211   0.463   0.503  10.841  0.4033 -0.8077  0.4757
  344MPD2    C5 5212   0.436   0.434  10.958  0.0555  0.4444 -0.1465
  344MPD2     H 5213   0.291   0.326  10.614  0.0954 -2.2438  0.2065
  344MPD2    H1 5214   0.514   0.597  10.858 -0.2317  0.0512 -2.2983
  344MPD2    H2 5215   0.315   0.273  11.036  0.2025  1.3265  0.3355
  344MPD2    H3 5216   0.465   0.469  11.056 -0.0532 -0.6853  0.2878
  344MPD2     N 5217   0.448   0.557  10.611  0.4030 -0.0241  0.0803
  344MPD2    H5 5218   0.510   0.637  10.623  1.7900 -0.8010 -1.7779
  344MPD2    N1 5219   0.235   0.164  10.809 -0.1217 -0.4374  0.0645
  344MPD2    H7 5220   0.170   0.158  10.731  0.9141 -1.3541 -0.7227
  345TMC3    C1 5221   0.472   0.649  10.398  0.8451 -0.6335  1.1431
  345TMC3    C2 5222   0.600   0.676  10.418  0.4905 -0.7682  0.0099
  345TMC3    C3 5223   0.666   0.747  10.316  0.2568 -0.3495  0.5655
  345TMC3    C4 5224   0.403   0.687  10.287  0.8280  0.5650  0.1678
  345TMC3    C5 5225   0.467   0.758  10.192 -0.9669 -0.3969  0.2176
  345TMC3    C6 5226   0.601   0.786  10.205 -0.1133 -0.3284 -0.2279
  345TMC3     C 5227   0.400   0.559  10.487 -0.2716  0.3044 -0.7154
  345TMC3     O 5228   0.310   0.486  10.452 -0.0522  0.4428  0.0723
  345TMC3     H 5229   0.653   0.632  10.501 -0.4418  0.9337  1.4992
  345TMC3    H1 5230   0.295   0.674  10.286  0.6272  2.3740 -2.9455
  345TMC3    H2 5231   0.643   0.857  10.135 -0.4091 -1.0847 -1.1726
  345TMC3    C7 5232   0.401   0.887  10.154  0.4840 -0.0163  0.6296
  345TMC3    C8 5233   0.724   0.865  10.364 -0.2923 -0.3145 -0.0515
  345TMC3    O1 5234   0.469   0.989  10.142  0.1803 -0.2753 -0.4954
  345TMC3    O2 5235   0.679   0.908  10.470 -0.3000 -0.4530 -0.3025
  346MPD2     C 5236   0.613   2.453  14.336  0.0002 -0.5802  0.0307
  346MPD2    C1 5237   0.676   2.327  14.346  0.7008 -0.7240 -0.4822
  346MPD2    C2 5238   0.783   2.314  14.431 -0.7384 -0.3698 -0.5928
  346MPD2    C3 5239   0.838   2.421  14.500 -0.2138 -0.0784 -0.4322
  346MPD2    C4 5240   0.784   2.546  14.481  0.0839  0.5102  0.1373
  346MPD2    C5 5241   0.669   2.559  14.406 -0.0769  0.4017 -0.0438
  346MPD2     H 5242   0.835   2.219  14.434  1.3516  0.7571 -0.9613
  346MPD2    H1 5243   0.836   2.633  14.518 -0.7549  0.9545  0.2813
  346MPD2    H2 5244   0.526   2.464  14.272  0.4412 -1.7711 -0.7572
  346MPD2    H3 5245   0.624   2.657  14.396 -2.2269 -0.9195 -3.3146
  346MPD2     N 5246   0.933   2.402  14.605 -0.0364  0.0110 -0.0171
  346MPD2    H5 5247   0.982   2.313  14.599  1.0975  0.6198  0.1149
  346MPD2    N1 5248   0.619   2.216  14.269  0.7216  0.7508 -1.0343
  346MPD2    H7 5249   0.679   2.135  14.264 -1.5482 -0.9922  0.1286
  347TMC3    C1 5250   0.998   2.433  14.829 -0.0397 -0.3867  0.3412
  347TMC3    C2 5251   1.122   2.409  14.791 -0.4486  0.1435  0.1115
  347TMC3    C3 5252   1.217   2.398  14.894 -0.0825 -0.2246 -1.0662
  347TMC3    C4 5253   0.959   2.472  14.959  0.0977  0.0839 -0.6983
  347TMC3    C5 5254   1.050   2.450  15.057  0.2464 -0.0351 -0.9576
  347TMC3    C6 5255   1.181   2.412  15.024  0.3938  0.5916 -1.1902
  347TMC3     C 5256   0.917   2.467  14.720  0.1342 -0.2869 -0.2030
  347TMC3     O 5257   0.844   2.561  14.747  0.1952 -0.4025  0.3200
  347TMC3     H 5258   1.142   2.394  14.685  0.0651 -1.4860  0.4389
  347TMC3    H1 5259   0.855   2.491  14.984  0.7656 -0.5301  2.6919
  347TMC3    H2 5260   1.259   2.386  15.094 -0.0284  1.4708 -0.3861
  347TMC3    C7 5261   1.005   2.439  15.197  0.3738 -0.1820  0.1883
  347TMC3    C8 5262   1.347   2.335  14.863 -0.1354  0.8518  0.8307
  347TMC3    O1 5263   0.890   2.417  15.216  0.2920  0.4002  0.2605
  347TMC3    O2 5264   1.415   2.316  14.964 -0.1551 -0.3555 -0.4024
  348MPD2     C 5265   4.021   1.140  11.948  0.2342  0.5020 -0.1359
  348MPD2    C1 5266   4.122   1.220  11.905  0.3817 -0.0573 -1.2157
  348MPD2    C2 5267   4.092   1.340  11.835  0.1645  0.4838 -0.1178
  348MPD2    C3 5268   3.956   1.374  11.808  0.8557 -0.2807  0.0028
  348MPD2    C4 5269   3.859   1.291  11.852 -0.2196 -0.0329 -0.3761
  348MPD2    C5 5270   3.895   1.177  11.916  0.9915 -0.3702  0.1760
  348MPD2     H 5271   4.167   1.411  11.801  0.4627  0.2683  0.0885
  348MPD2    H1 5272   3.752   1.309  11.852  0.2972  3.1448  1.2028
  348MPD2    H2 5273   4.039   1.044  11.995  0.5723  1.2329  1.2509
  348MPD2    H3 5274   3.822   1.101  11.944  0.1632 -0.5157 -2.3974
  348MPD2     N 5275   3.925   1.493  11.732  0.0750 -0.2144 -0.8046
  348MPD2    H5 5276   4.010   1.535  11.695 -0.9884  1.5117 -1.2916
  348MPD2    N1 5277   4.257   1.175  11.903 -0.0244 -0.3508  0.3306
  348MPD2    H7 5278   4.327   1.225  11.849 -0.5742 -0.7003 -0.7205
  349TMC3    C1 5279   4.438   1.048  11.946 -0.0502  0.1120 -0.5963
  349TMC3    C2 5280   4.527   1.100  12.036  0.4728 -0.5775  0.6029
  349TMC3    C3 5281   4.652   1.132  11.991  0.0237 -0.1792  0.1795
  349TMC3    C4 5282   4.457   1.044  11.809 -0.0501 -0.0125 -0.3989
  349TMC3    C5 5283   4.585   1.069  11.768  0.3392 -0.1784  0.1898
  349TMC3    C6 5284   4.681   1.102  11.860  0.6578  0.4055 -0.9646
  349TMC3     C 5285   4.302   1.069  11.982  0.2294 -0.3815 -0.2237
  349TMC3     O 5286   4.262   1.039  12.095 -0.1113  0.1563 -0.7908
  349TMC3     H 5287   4.496   1.105  12.139 -1.0047 -0.1173  0.1419
  349TMC3    H1 5288   4.390   0.986  11.746  1.8627 -2.6733  0.0319
  349TMC3    H2 5289   0.037   1.136  11.814  0.6062  3.9384  1.5384
  349TMC3    C7 5290   4.590   1.144  11.638  0.1396 -1.2151 -0.2198
  349TMC3    C8 5291   0.023   1.122  12.091 -0.1816  0.1563  0.7651
  349TMC3    O1 5292   4.668   1.238  11.639 -0.2808 -0.4753 -0.0557
  349TMC3    O2 5293   4.715   1.077  12.196 -0.6689 -0.3477 -0.2168
  350MPD2     C 5294   2.789   4.446  10.711 -0.5699  0.6963 -0.0233
  350MPD2    C1 5295   2.759   4.344  10.799 -0.4207  0.0606  0.4032
  350MPD2    C2 5296   2.759   4.369  10.939  0.4243  0.7815  0.4479
  350MPD2    C3 5297   2.795   4.491  10.987  0.4214 -0.2074  0.2962
  350MPD2    C4 5298   2.831   4.586  10.896 -0.6425 -0.5193  0.6705
  350MPD2    C5 5299   2.831   4.563  10.766 -0.8874 -0.1100  0.5019
  350MPD2     H 5300   2.729   4.294  11.012  0.2828  0.4395  0.0421
  350MPD2    H1 5301   2.868   4.680  10.935 -0.9868 -0.0933 -0.0332
  350MPD2    H2 5302   2.802   4.429  10.605 -1.8403 -0.5330  0.0224
  350MPD2    H3 5303   2.868   4.642  10.702 -0.0866 -1.2037 -0.3710
  350MPD2     N 5304   2.765   4.512  11.127 -0.0897 -0.3866 -0.1750
  350MPD2    H5 5305   2.730   4.432  11.179 -0.0071 -1.3420 -1.5845
  350MPD2    N1 5306   2.729   4.212  10.755 -0.1969  0.3599  0.8987
  350MPD2    H7 5307   2.729   4.142  10.828  1.6294 -0.1406  0.4043
  351TMC3    C1 5308   2.671   4.040  10.609 -0.8657 -0.2298 -0.0202
  351TMC3    C2 5309   2.695   3.965  10.498 -0.0261  0.1309  0.0271
  351TMC3    C3 5310   2.644   3.843  10.486 -0.0913 -0.1002  0.1732
  351TMC3    C4 5311   2.564   4.004  10.688 -0.6725  0.1132 -0.0791
  351TMC3    C5 5312   2.502   3.890  10.658 -0.4309  0.0346  0.2507
  351TMC3    C6 5313   2.534   3.804  10.557  0.3955  0.1712 -0.4363
  351TMC3     C 5314   2.697   4.181  10.632  0.7588 -0.0159 -0.1860
  351TMC3     O 5315   2.677   4.246  10.530  0.8212 -0.7124  0.5494
  351TMC3     H 5316   2.781   3.998  10.440  0.2611  1.8456  1.4493
  351TMC3    H1 5317   2.540   4.043  10.786  2.2534  0.7552  0.3891
  351TMC3    H2 5318   2.483   3.713  10.530  0.2351 -0.0908  0.7370
  351TMC3    C7 5319   2.392   3.865  10.749  0.2519 -0.2083 -0.6468
  351TMC3    C8 5320   2.703   3.749  10.392 -0.0052 -0.8167 -1.6104
  351TMC3    O1 5321   2.413   3.875  10.874 -0.4308 -0.1151  0.2739
  351TMC3    O2 5322   2.806   3.799  10.344 -0.1159 -0.3823  0.2834
  352MPD2     C 5323   1.770   2.314   1.187 -0.2726  0.3909  0.1900
  352MPD2    C1 5324   1.694   2.199   1.171  0.7054 -0.6406  0.2825
  352MPD2    C2 5325   1.751   2.072   1.167 -0.3051  0.3045  0.1197
  352MPD2    C3 5326   1.889   2.059   1.151 -0.2004 -0.1174 -0.6749
  352MPD2    C4 5327   1.968   2.173   1.174 -0.0591 -0.2157  0.2101
  352MPD2    C5 5328   1.904   2.298   1.193 -0.0703 -0.4377 -0.5316
  352MPD2     H 5329   1.687   1.984   1.161  0.6628 -0.3141 -0.9862
  352MPD2    H1 5330   2.077   2.169   1.172 -0.0315  0.8478 -0.2917
  352MPD2    H2 5331   1.732   2.415   1.189 -0.5383  0.3164 -1.0174
  352MPD2    H3 5332   1.966   2.386   1.206 -0.5121 -0.3384  0.8097
  352MPD2     N 5333   1.951   1.934   1.116  0.0518 -0.0060 -0.2439
  352MPD2    H5 5334   2.051   1.927   1.128 -0.1543  0.9764  1.9124
  352MPD2    N1 5335   1.555   2.218   1.160 -0.0911 -0.0991  0.7738
  352MPD2    H7 5336   1.517   2.312   1.154 -2.1713 -1.0481 -0.5701
  353TMC3    C1 5337   1.936   1.699   1.054 -0.1121  0.1641 -0.1996
  353TMC3    C2 5338   2.059   1.681   1.116  0.4506 -1.1876 -0.2756
  353TMC3    C3 5339   2.139   1.570   1.072 -0.4632 -0.1277 -0.7108
  353TMC3    C4 5340   1.890   1.617   0.954  0.8962  0.0382 -0.7467
  353TMC3    C5 5341   1.979   1.523   0.903 -0.4005  0.6399  0.2859
  353TMC3    C6 5342   2.103   1.499   0.963 -0.0140  0.2302 -0.7065
  353TMC3     C 5343   1.871   1.826   1.069 -0.5193  0.0293  0.0432
  353TMC3     O 5344   1.758   1.836   1.022  0.1662  0.0852 -0.3164
  353TMC3     H 5345   2.090   1.747   1.196 -0.0514 -0.9085 -0.3155
  353TMC3    H1 5346   1.788   1.621   0.917  0.5373 -0.9994  0.0996
  353TMC3    H2 5347   2.173   1.424   0.929  0.6515  0.2060  0.7112
  353TMC3    C7 5348   1.927   1.416   0.815  0.3316  0.0408  0.0018
  353TMC3    C8 5349   2.267   1.550   1.124  0.8539  0.2928 -0.1164
  353TMC3    O1 5350   1.808   1.390   0.822 -0.0741  0.2813 -0.2867
  353TMC3    O2 5351   2.314   1.642   1.194 -0.1126  0.3746 -0.1779
  354TMC3    C1 5352   2.591   2.987  13.968 -0.6544  0.3734 -0.1350
  354TMC3    C2 5353   2.634   3.100  13.908  0.7274 -0.5687 -0.2952
  354TMC3    C3 5354   2.551   3.161  13.822  0.0988 -0.2318 -0.2023
  354TMC3    C4 5355   2.470   2.939  13.943  0.0663 -0.0753 -0.0132
  354TMC3    C5 5356   2.401   2.990  13.837  0.3374  0.6602  0.3746
  354TMC3    C6 5357   2.435   3.105  13.787 -0.0488  0.0367 -0.0009
  354TMC3     C 5358   2.656   2.937  14.091 -0.4853 -0.9835 -0.0053
  354TMC3     O 5359   2.631   2.827  14.132 -0.5066  0.6134  0.3031
  354TMC3     H 5360   2.740   3.125  13.913  0.4435  0.4353  0.4618
  354TMC3    H1 5361   2.458   2.833  13.963 -2.1094  0.2231  0.2647
  354TMC3    H2 5362   2.361   3.155  13.726  2.0544  0.5264 -2.1398
  354TMC3    C7 5363   2.357   2.897  13.736 -0.0448  0.4290 -0.3833
  354TMC3    C8 5364   2.613   3.212  13.699 -0.1846 -0.1413 -0.3726
  354TMC3    O1 5365   2.327   2.788  13.782 -0.0889  0.6027 -0.3231
  354TMC3    O2 5366   2.551   3.193  13.593  0.0927  0.9997 -0.4364
  355MPD2     C 5367   2.809   3.648  11.914 -0.2916  0.5101 -0.0789
  355MPD2    C1 5368   2.884   3.730  11.993 -0.0211 -0.1350 -0.3086
  355MPD2    C2 5369   2.929   3.685  12.117  0.1963  0.1379 -0.1748
  355MPD2    C3 5370   2.892   3.552  12.155  0.7012  0.1426 -0.4084
  355MPD2    C4 5371   2.818   3.465  12.063  0.2459  0.3073 -0.5441
  355MPD2    C5 5372   2.775   3.519  11.950 -0.2064  0.2409 -0.5078
  355MPD2     H 5373   2.990   3.745  12.184 -1.3749  1.3476  0.1651
  355MPD2    H1 5374   2.799   3.360  12.087 -0.8052  0.2071 -1.8101
  355MPD2    H2 5375   2.785   3.675  11.812  2.9103 -0.5197 -1.1006
  355MPD2    H3 5376   2.725   3.458  11.877  0.9967  0.5049 -1.5422
  355MPD2     N 5377   2.954   3.496  12.267  0.4060 -0.1925 -0.0137
  355MPD2    H5 5378   2.954   3.394  12.273  0.8607 -0.0859  1.6881
  355MPD2    N1 5379   2.929   3.855  11.937 -0.3752 -0.3101  0.0687
  355MPD2    H7 5380   2.991   3.905  12.000  0.5755  0.3677 -1.3941
  356TMC3    C1 5381   3.134   3.479  12.422 -0.4254 -0.6590  1.2225
  356TMC3    C2 5382   3.221   3.441  12.322 -1.0261 -0.7729  0.5256
  356TMC3    C3 5383   3.353   3.460  12.346 -0.3314  0.1681 -0.2390
  356TMC3    C4 5384   3.176   3.533  12.540 -0.0617 -0.8146 -0.3609
  356TMC3    C5 5385   3.311   3.553  12.566 -0.3513  0.4329 -0.3601
  356TMC3    C6 5386   3.396   3.519  12.464 -0.1426  0.0101  0.0357
  356TMC3     C 5387   3.024   3.556  12.367 -0.3863 -0.2897  0.5968
  356TMC3     O 5388   3.009   3.669  12.406 -0.2057  0.3608 -0.0980
  356TMC3     H 5389   3.195   3.415  12.220 -2.4697  2.9149 -0.0440
  356TMC3    H1 5390   3.104   3.555  12.619  2.5385  0.0739  1.7861
  356TMC3    H2 5391   3.500   3.513  12.495  0.1692  2.2295 -0.5593
  356TMC3    C7 5392   3.368   3.524  12.697  0.0120 -0.1447  0.2682
  356TMC3    C8 5393   3.430   3.483  12.226  0.1091 -0.1395  0.3267
  356TMC3    O1 5394   3.321   3.434  12.763  0.1865  0.0441 -0.1193
  356TMC3    O2 5395   3.379   3.472  12.112 -0.1831  0.3056 -0.3093
  357MPD2     C 5396   3.812   4.132   2.200 -0.1741  0.3951  0.4683
  357MPD2    C1 5397   3.742   4.018   2.164  0.3542  0.3841  0.1693
  357MPD2    C2 5398   3.607   4.016   2.147 -0.0082  0.2417 -0.0815
  357MPD2    C3 5399   3.541   4.135   2.167  0.3195  0.4138 -0.3964
  357MPD2    C4 5400   3.607   4.249   2.209  0.2365  0.1148  0.2599
  357MPD2    C5 5401   3.744   4.252   2.224  0.0452 -0.1162  0.1705
  357MPD2     H 5402   3.553   3.932   2.105 -0.9472  0.5979  0.4003
  357MPD2    H1 5403   3.559   4.347   2.209 -1.9121 -0.9495  1.4281
  357MPD2    H2 5404   3.921   4.129   2.205 -0.1494 -2.3363 -1.3140
  357MPD2    H3 5405   3.799   4.343   2.248  0.0761 -0.3016  0.7888
  357MPD2     N 5406   3.404   4.153   2.149 -0.0338  0.5799  0.3552
  357MPD2    H5 5407   3.366   4.240   2.185 -1.4828  0.1714 -0.1749
  357MPD2    N1 5408   3.825   3.899   2.141 -0.3982  0.0893 -0.6754
  357MPD2    H7 5409   3.926   3.910   2.146 -0.3437 -0.6758 -0.0408
  358TMC3    C1 5410   3.864   3.703   2.035 -0.4737  0.7275  0.1281
  358TMC3    C2 5411   3.813   3.637   1.925  0.0964  0.2059 -0.9889
  358TMC3    C3 5412   3.903   3.580   1.835  0.3431  0.2407  0.3301
  358TMC3    C4 5413   4.003   3.715   2.056  0.7225 -0.6270 -0.9361
  358TMC3    C5 5414   4.079   3.661   1.961 -0.1315 -0.0210  0.0594
  358TMC3    C6 5415   4.040   3.588   1.851 -0.5221  0.2198  0.0881
  358TMC3     C 5416   3.770   3.782   2.106 -0.0684  0.1067 -0.9463
  358TMC3     O 5417   3.657   3.742   2.118  0.4792 -0.4467 -0.4274
  358TMC3     H 5418   3.709   3.613   1.904 -0.4969 -0.0780  2.4134
  358TMC3    H1 5419   4.046   3.755   2.147 -1.9000 -2.5487  1.1693
  358TMC3    H2 5420   4.106   3.547   1.775 -0.4358  0.5209  0.0026
  358TMC3    C7 5421   4.227   3.667   1.979  0.3993 -0.9365 -0.3658
  358TMC3    C8 5422   3.850   3.549   1.707  0.6312  0.5560  0.6413
  358TMC3    O1 5423   4.297   3.594   1.904  0.0555 -0.0885 -0.6806
  358TMC3    O2 5424   3.760   3.617   1.664  0.3662  0.1451 -0.5018
  359MPD2     C 5425   3.728   1.761  12.721 -0.5584 -0.3269 -0.0237
  359MPD2    C1 5426   3.698   1.788  12.591  0.1515 -0.1015 -0.0494
  359MPD2    C2 5427   3.569   1.816  12.553  0.9614 -0.4999  0.1298
  359MPD2    C3 5428   3.474   1.830  12.653 -0.6496 -0.1348  0.0351
  359MPD2    C4 5429   3.505   1.811  12.789  0.0498 -0.0399  0.6986
  359MPD2    C5 5430   3.631   1.774  12.821  0.1642  0.1248 -0.4391
  359MPD2     H 5431   3.547   1.830  12.448  0.4415 -2.6789 -0.0570
  359MPD2    H1 5432   3.429   1.818  12.866 -1.2029 -0.1631 -0.5400
  359MPD2    H2 5433   3.823   1.721  12.752 -0.6531  0.9730  1.9202
  359MPD2    H3 5434   3.656   1.760  12.925 -0.2635 -1.0282 -0.4926
  359MPD2     N 5435   3.338   1.865  12.638 -0.4993 -0.4913  1.0683
  359MPD2    H5 5436   3.279   1.884  12.719 -1.7339 -1.5826  0.4165
  359MPD2    N1 5437   3.797   1.793  12.491 -0.3564 -0.3914 -0.0065
  359MPD2    H7 5438   3.766   1.810  12.396 -2.5184 -0.0858  0.7531
  360TMC3    C1 5439   4.008   1.751  12.380 -0.8910  0.2239  0.1577
  360TMC3    C2 5440   4.140   1.745  12.392 -0.3380  0.2505  0.6131
  360TMC3    C3 5441   4.220   1.762  12.278 -0.2556  0.2403  0.8563
  360TMC3    C4 5442   3.947   1.780  12.257 -0.0981  0.3509 -0.5201
  360TMC3    C5 5443   4.026   1.791  12.150 -0.0760  0.2743 -0.0148
  360TMC3    C6 5444   4.165   1.790  12.158  0.0682 -0.0485 -0.3801
  360TMC3     C 5445   3.933   1.766  12.505 -0.4274  0.2967  0.0786
  360TMC3     O 5446   4.001   1.724  12.599 -0.5225  0.4951 -0.0438
  360TMC3     H 5447   4.187   1.688  12.471 -0.9135 -1.4041 -0.2313
  360TMC3    H1 5448   3.841   1.802  12.250 -0.4007 -0.5364  1.2847
  360TMC3    H2 5449   4.215   1.807  12.063  1.1684 -2.7059 -0.2769
  360TMC3    C7 5450   3.965   1.822  12.022 -0.1789  0.3703  0.2678
  360TMC3    C8 5451   4.363   1.758  12.294  0.5878  0.3172  0.1781
  360TMC3    O1 5452   4.025   1.877  11.928 -0.1698  0.3317  0.1703
  360TMC3    O2 5453   4.418   1.750  12.405  0.0953 -0.1527 -0.0474
  361MPD2     C 5454   1.050   1.426  16.607 -0.0894 -0.1650  0.2006
  361MPD2    C1 5455   0.989   1.438  16.731 -0.5665  0.1280 -0.2089
  361MPD2    C2 5456   1.050   1.389  16.839 -0.2038  0.3906 -0.2785
  361MPD2    C3 5457   1.171   1.321  16.828  0.5822 -0.1066 -0.1198
  361MPD2    C4 5458   1.231   1.306  16.708 -0.2857 -0.4827  0.0508
  361MPD2    C5 5459   1.171   1.359  16.599 -0.3214  0.7659 -0.0128
  361MPD2     H 5460   0.997   1.400  16.933 -3.2656 -0.7476 -1.8759
  361MPD2    H1 5461   1.324   1.252  16.699  0.3717  0.5644  0.5531
  361MPD2    H2 5462   1.007   1.463  16.515 -0.2433 -1.1518 -0.1158
  361MPD2    H3 5463   1.212   1.330  16.503 -0.4522 -2.6379  0.9616
  361MPD2     N 5464   1.238   1.265  16.944 -0.4392 -0.0251  0.2771
  361MPD2    H5 5465   1.322   1.211  16.929 -1.2816 -1.2600 -0.0320
  361MPD2    N1 5466   0.857   1.493  16.747 -0.2212 -0.0175 -0.6750
  361MPD2    H7 5467   0.817   1.489  16.840  0.9093  2.2389 -0.1008
  362TMC3    C1 5468   0.675   1.632  16.710 -0.0787  0.4686 -0.3236
  362TMC3    C2 5469   0.671   1.644  16.851 -0.1678 -0.7984 -0.4006
  362TMC3    C3 5470   0.552   1.691  16.901 -1.0957 -0.1913 -0.0789
  362TMC3    C4 5471   0.564   1.651  16.630 -0.3536  0.7051 -0.4148
  362TMC3    C5 5472   0.446   1.691  16.683 -0.2999  0.0800 -0.3458
  362TMC3    C6 5473   0.443   1.706  16.817  0.5581  0.3599  0.5841
  362TMC3     C 5474   0.779   1.551  16.649 -0.0010 -0.2299  0.4482
  362TMC3     O 5475   0.789   1.568  16.530  0.2562 -0.2279 -0.2406
  362TMC3     H 5476   0.763   1.644  16.908 -0.1513  0.2374 -0.4287
  362TMC3    H1 5477   0.586   1.648  16.524 -2.7154 -0.0983 -0.8925
  362TMC3    H2 5478   0.343   1.725  16.855  0.6577  1.2836  0.3900
  362TMC3    C7 5479   0.342   1.755  16.605 -0.5444  0.0291  0.5907
  362TMC3    C8 5480   0.561   1.743  17.040 -0.0925 -0.1286 -0.2654
  362TMC3    O1 5481   0.281   1.840  16.663  0.0303 -0.0138 -1.1348
  362TMC3    O2 5482   0.672   1.732  17.089  0.4193 -0.4359  0.0609
  363TMC3    C1 5483   3.791   4.137   9.901 -0.4843 -0.0160 -0.1060
  363TMC3    C2 5484   3.775   4.002   9.928 -0.7367 -0.5569  0.3853
  363TMC3    C3 5485   3.648   3.955   9.937 -0.2499 -0.3260 -0.0622
  363TMC3    C4 5486   3.679   4.221   9.883 -0.4016 -0.0614 -0.2120
  363TMC3    C5 5487   3.553   4.166   9.892 -0.2072  0.4007 -0.1737
  363TMC3    C6 5488   3.538   4.033   9.921 -0.0889 -0.3685 -0.5724
  363TMC3     C 5489   3.913   4.212   9.937 -0.1806  0.6347  0.0317
  363TMC3     O 5490   3.902   4.332   9.964  0.1525 -0.5111 -0.8256
  363TMC3     H 5491   3.857   3.936   9.956 -1.1003 -1.1957 -0.0368
  363TMC3    H1 5492   3.682   4.326   9.854 -0.1089  0.0061  0.0646
  363TMC3    H2 5493   3.440   3.992   9.939 -0.9601  1.8506 -0.3413
  363TMC3    C7 5494   3.447   4.260   9.869  0.6605 -0.1472  0.5108
  363TMC3    C8 5495   3.629   3.817   9.960  0.1437  0.2076 -0.2249
  363TMC3    O1 5496   3.473   4.371   9.827 -0.0038 -0.1892 -0.0803
  363TMC3    O2 5497   3.530   3.778  10.020  0.0603  0.2673 -0.1404
  364MPD2     C 5498   2.381   2.816  10.653  0.7088 -0.1160 -0.5544
  364MPD2    C1 5499   2.511   2.783  10.680  0.1451  0.3882  0.0593
  364MPD2    C2 5500   2.535   2.669  10.746  0.1735  0.2343 -0.1680
  364MPD2    C3 5501   2.437   2.593  10.804 -0.0872  0.6602 -0.0513
  364MPD2    C4 5502   2.302   2.631  10.786  0.3153 -0.8985 -0.1847
  364MPD2    C5 5503   2.277   2.746  10.703 -0.0034  0.7127  0.3768
  364MPD2     H 5504   2.632   2.625  10.765 -0.3662 -1.2609 -0.9281
  364MPD2    H1 5505   2.224   2.579  10.841  1.6844 -0.0150  2.6033
  364MPD2    H2 5506   2.354   2.914  10.617  2.1731 -0.4616 -2.6122
  364MPD2    H3 5507   2.182   2.793  10.685 -0.2908 -0.4026 -1.0531
  364MPD2     N 5508   2.484   2.486  10.888 -0.0517 -0.0404  0.3522
  364MPD2    H5 5509   2.585   2.489  10.899 -0.2289  4.8896  0.7261
  364MPD2    N1 5510   2.610   2.861  10.626 -0.6119  0.1442  0.2597
  364MPD2    H7 5511   2.585   2.944  10.573 -0.0806 -0.0115 -0.2356
  365TMC3    C1 5512   2.815   2.943  10.559  0.1495 -1.0914 -0.6676
  365TMC3    C2 5513   2.902   2.907  10.457  0.0232  0.1772 -0.4232
  365TMC3    C3 5514   2.979   3.011  10.414 -0.2270  0.1049 -0.1140
  365TMC3    C4 5515   2.803   3.065  10.619 -0.5717 -0.0976 -0.6892
  365TMC3    C5 5516   2.885   3.163  10.570  0.1275  0.3359 -0.0798
  365TMC3    C6 5517   2.969   3.142  10.460  0.7449 -0.0471  0.4082
  365TMC3     C 5518   2.746   2.831  10.623  0.0874  0.0280  0.0718
  365TMC3     O 5519   2.798   2.724  10.634  0.1482  0.0608  0.0220
  365TMC3     H 5520   2.907   2.805  10.422 -0.3447 -0.4240  1.2430
  365TMC3    H1 5521   2.730   3.078  10.698  0.8545  1.7777  0.3443
  365TMC3    H2 5522   3.032   3.221  10.422 -0.5158  0.4672 -0.6004
  365TMC3    C7 5523   2.869   3.300  10.622  0.2150 -0.7424  0.6978
  365TMC3    C8 5524   3.077   2.989  10.312 -0.4205  0.4555  0.6097
  365TMC3    O1 5525   2.958   3.382  10.597  0.4681 -0.3536 -0.1816
  365TMC3    O2 5526   3.095   3.084  10.235 -0.4480 -0.1729  0.2343
  366MPD2     C 5527   1.248   4.333  15.541 -1.1058  0.3025  0.2977
  366MPD2    C1 5528   1.277   4.402  15.658 -0.5549 -0.1481  0.5813
  366MPD2    C2 5529   1.395   4.381  15.722 -0.5731 -0.7612  0.4425
  366MPD2    C3 5530   1.491   4.302  15.665 -0.4861 -0.2404 -0.6192
  366MPD2    C4 5531   1.472   4.239  15.546  1.1011 -0.4476  0.1519
  366MPD2    C5 5532   1.352   4.257  15.485 -0.4730 -0.6283  0.1604
  366MPD2     H 5533   1.412   4.437  15.814  1.1687  0.0656 -0.3775
  366MPD2    H1 5534   1.548   4.184  15.491  0.5245 -1.4175  0.3220
  366MPD2    H2 5535   1.158   4.338  15.482 -0.7510 -2.7792 -0.5051
  366MPD2    H3 5536   1.332   4.209  15.390 -0.0008  0.9701 -0.7343
  366MPD2     N 5537   1.623   4.315  15.725  0.2578  0.0943  0.5201
  366MPD2    H5 5538   1.630   4.363  15.814 -0.0341 -0.7133  0.9809
  366MPD2    N1 5539   1.182   4.489  15.720  0.3911 -0.0396 -0.0931
  366MPD2    H7 5540   1.212   4.553  15.792  0.9266 -1.9110  1.3708
  367TMC3    C1 5541   1.005   4.639  15.730  0.0424 -1.0944 -0.3111
  367TMC3    C2 5542   1.069   4.707  15.830  0.1259  0.0317  0.4215
  367TMC3    C3 5543   1.012   0.087  15.885  0.1332 -0.3016  1.0692
  367TMC3    C4 5544   0.887   4.685  15.683  0.2514  0.0588  0.2584
  367TMC3    C5 5545   0.824   0.059  15.736 -0.6498 -0.1852 -0.4910
  367TMC3    C6 5546   0.893   0.127  15.832  0.4809  0.0427  0.4297
  367TMC3     C 5547   1.060   4.519  15.666 -0.3858  0.5804  0.0372
  367TMC3     O 5548   0.987   4.460  15.587 -0.3239 -0.4562 -0.4643
  367TMC3     H 5549   1.162   4.674  15.875  1.3963  3.1112  0.0713
  367TMC3    H1 5550   0.854   4.647  15.587  1.3414  1.4376 -0.6553
  367TMC3    H2 5551   0.846   0.212  15.880  1.2462  1.9684 -2.1730
  367TMC3    C7 5552   0.740   0.132  15.643  0.2347  0.2922 -0.6401
  367TMC3    C8 5553   1.097   0.157  15.990 -0.0694  0.0441 -0.0475
  367TMC3    O1 5554   0.731   0.253  15.658 -0.1163 -0.2378  0.0220
  367TMC3    O2 5555   1.207   0.107  16.014  0.0034 -0.0374  0.5896
  368MPD2     C 5556   1.862   1.293  13.459  0.1980 -0.1183  0.1675
  368MPD2    C1 5557   1.823   1.390  13.365 -0.6704  0.2370 -0.0805
  368MPD2    C2 5558   1.922   1.424  13.278  0.0869 -0.3944  0.5905
  368MPD2    C3 5559   2.049   1.374  13.284 -0.1271 -0.1628 -0.7272
  368MPD2    C4 5560   2.085   1.291  13.385 -0.3118 -0.4806 -0.9154
  368MPD2    C5 5561   1.987   1.252  13.472 -0.6785  0.0521  0.0924
  368MPD2     H 5562   1.897   1.499  13.203 -0.8866 -0.0867  1.2169
  368MPD2    H1 5563   2.187   1.256  13.386 -0.2117 -0.1134  0.7849
  368MPD2    H2 5564   1.801   1.260  13.542  0.2125 -2.3951 -0.7110
  368MPD2    H3 5565   1.996   1.191  13.561  0.1709  1.1812  0.7789
  368MPD2     N 5566   2.158   1.415  13.198  0.3028 -0.1200 -0.3558
  368MPD2    H5 5567   2.247   1.374  13.225  0.6561  1.3014  0.6151
  368MPD2    N1 5568   1.698   1.454  13.374  0.1801 -0.3489  0.7971
  368MPD2    H7 5569   1.635   1.417  13.445 -3.1502 -0.1277 -2.0343
  369TMC3    C1 5570   1.549   1.626  13.380 -0.4820  0.1422  0.3184
  369TMC3    C2 5571   1.509   1.742  13.320 -0.2774 -0.3086  0.0846
  369TMC3    C3 5572   1.464   1.854  13.389  0.4623 -0.2469  0.4395
  369TMC3    C4 5573   1.532   1.609  13.513 -0.0436 -0.3278  0.2475
  369TMC3    C5 5574   1.466   1.712  13.576 -0.0451 -0.0797 -0.0660
  369TMC3    C6 5575   1.443   1.841  13.526 -0.1013  0.0506  0.1669
  369TMC3     C 5576   1.664   1.570  13.314 -0.3510  0.0318  0.3162
  369TMC3     O 5577   1.721   1.640  13.228  0.0402  0.4005  0.1687
  369TMC3     H 5578   1.517   1.756  13.213 -0.9385 -0.7065 -0.0148
  369TMC3    H1 5579   1.553   1.514  13.562 -0.9857 -1.0146 -0.6666
  369TMC3    H2 5580   1.399   1.927  13.575 -0.9964 -0.1484 -0.2983
  369TMC3    C7 5581   1.431   1.682  13.712  0.1789 -0.6758  0.8764
  369TMC3    C8 5582   1.515   1.982  13.340 -0.0854  0.0147  0.9985
  369TMC3    O1 5583   1.483   1.586  13.770  0.8162  0.9848 -1.0897
  369TMC3    O2 5584   1.438   2.056  13.280 -0.0470 -0.2308 -0.4771
  370TMC3    C1 5585   1.890   2.370  16.357  0.3056 -0.7142 -0.0239
  370TMC3    C2 5586   1.817   2.314  16.454  0.1702  0.2097  0.6057
  370TMC3    C3 5587   1.774   2.190  16.428  0.6341 -0.5796 -0.1049
  370TMC3    C4 5588   1.911   2.320  16.234  0.2164  0.9565 -0.0037
  370TMC3    C5 5589   1.857   2.196  16.208 -0.2339 -1.1915  0.1941
  370TMC3    C6 5590   1.790   2.129  16.308  0.4980 -0.6359  0.4831
  370TMC3     C 5591   1.970   2.482  16.400  0.6614 -0.1740 -0.3281
  370TMC3     O 5592   1.988   2.496  16.522 -0.1136  0.0092 -0.4899
  370TMC3     H 5593   1.815   2.361  16.551 -0.7048 -0.1490  0.7660
  370TMC3    H1 5594   1.977   2.363  16.160  0.4824  0.0532 -0.2862
  370TMC3    H2 5595   1.766   2.023  16.305  0.9710 -0.7749  1.7227
  370TMC3    C7 5596   1.930   2.128  16.100 -0.6892 -0.2815  0.2480
  370TMC3    C8 5597   1.727   2.107  16.540  0.5261 -0.0312  0.4111
  370TMC3    O1 5598   2.044   2.151  16.058 -0.6310  0.3390 -0.3582
  370TMC3    O2 5599   1.750   1.986  16.530 -0.2950  0.2177 -0.7898
  371TMC3    C1 5600   3.199   0.603  15.637 -0.2180  0.4228  0.1150
  371TMC3    C2 5601   3.069   0.615  15.680 -0.3218 -0.2749 -0.4165
  371TMC3    C3 5602   3.024   0.742  15.708 -0.6059 -0.1148  0.2920
  371TMC3    C4 5603   3.275   0.707  15.605 -0.5880  0.3131  0.6113
  371TMC3    C5 5604   3.222   0.834  15.617 -0.1169  0.1863 -0.5519
  371TMC3    C6 5605   3.098   0.849  15.676 -0.5233 -0.3511  0.2098
  371TMC3     C 5606   3.241   0.476  15.587  0.6502  0.8842 -0.8198
  371TMC3     O 5607   3.324   0.484  15.497  0.1319 -0.1877  0.3744
  371TMC3     H 5608   3.010   0.527  15.702  1.6367 -1.6907 -0.7752
  371TMC3    H1 5609   3.375   0.692  15.567 -0.1746  0.8424  1.4858
  371TMC3    H2 5610   3.062   0.950  15.690  0.2560 -0.3308  2.1011
  371TMC3    C7 5611   3.294   0.942  15.554  0.0709 -0.2110  0.3545
  371TMC3    C8 5612   2.898   0.744  15.782 -0.4444 -0.0021 -0.0562
  371TMC3    O1 5613   3.391   0.914  15.483 -0.0113  0.0792 -0.6468
  371TMC3    O2 5614   2.849   0.632  15.807 -0.1399  0.1152  0.1951
  372MPD2     C 5615   1.873   1.520  13.820  0.2923 -0.4035  0.2545
  372MPD2    C1 5616   1.979   1.441  13.781  0.0328 -0.0003 -0.2989
  372MPD2    C2 5617   2.001   1.319  13.836  0.0263  0.2299 -0.0315
  372MPD2    C3 5618   1.911   1.263  13.927  0.4777  0.5137 -0.1863
  372MPD2    C4 5619   1.799   1.336  13.959  0.1330 -0.1900  0.3287
  372MPD2    C5 5620   1.781   1.461  13.910 -0.8524  0.2463  0.0356
  372MPD2     H 5621   2.085   1.258  13.804  0.2307 -0.5685  2.0464
  372MPD2    H1 5622   1.735   1.313  14.043 -0.9208 -1.3683 -0.8077
  372MPD2    H2 5623   1.855   1.620  13.784  0.2281 -0.3973  0.3035
  372MPD2    H3 5624   1.693   1.518  13.937 -0.9383  0.3276 -0.4294
  372MPD2     N 5625   1.938   1.138  13.989  0.3589  0.5313  0.1256
  372MPD2    H5 5626   2.019   1.084  13.959  1.7360  1.6678  1.7303
  372MPD2    N1 5627   2.088   1.486  13.705  0.3457  0.5304  0.0980
  372MPD2    H7 5628   2.161   1.416  13.696 -1.7324 -1.5382 -0.8639
  373TMC3    C1 5629   1.908   0.936  14.106  0.5125  0.0957 -0.1819
  373TMC3    C2 5630   1.882   0.875  14.227  0.1511 -0.6900  0.3396
  373TMC3    C3 5631   1.937   0.751  14.255 -0.9107  0.4983 -0.3564
  373TMC3    C4 5632   2.009   0.891  14.027 -0.0104  0.3485  0.4525
  373TMC3    C5 5633   2.066   0.776  14.068  0.3672  0.2320  0.5094
  373TMC3    C6 5634   2.019   0.692  14.168 -0.3739  0.6104  0.6942
  373TMC3     C 5635   1.861   1.073  14.080 -0.4777  0.7249 -0.3981
  373TMC3     O 5636   1.777   1.115  14.160 -0.8089  0.1011  0.1903
  373TMC3     H 5637   1.815   0.930  14.293 -0.0812  0.3705 -0.7820
  373TMC3    H1 5638   2.048   0.944  13.940  1.6025 -3.2236 -1.0052
  373TMC3    H2 5639   2.080   0.606  14.196 -0.7383  0.1657  0.1359
  373TMC3    C7 5640   2.169   0.727  13.975  0.3419  0.4195  0.3941
  373TMC3    C8 5641   1.964   0.733  14.402 -0.1037  0.3224 -0.1498
  373TMC3    O1 5642   2.242   0.807  13.920 -0.2033 -0.2995 -0.2241
  373TMC3    O2 5643   2.018   0.628  14.426 -0.5879  0.2193 -0.0772
  374TMC3    C1 5644   3.550   1.310   9.525 -0.0376 -0.0457 -0.5359
  374TMC3    C2 5645   3.585   1.419   9.606  0.2545 -0.1364  0.0376
  374TMC3    C3 5646   3.716   1.455   9.598 -0.3993 -0.2910 -0.0564
  374TMC3    C4 5647   3.636   1.234   9.448  0.9364  0.5517  0.4938
  374TMC3    C5 5648   3.765   1.284   9.425  0.1226  0.1444 -0.6451
  374TMC3    C6 5649   3.799   1.397   9.499  0.4866  0.0731 -1.6646
  374TMC3     C 5650   3.417   1.261   9.543  0.1773  0.9940  0.1707
  374TMC3     O 5651   3.349   1.307   9.635 -0.3132 -0.2578 -0.5589
  374TMC3     H 5652   3.517   1.468   9.674 -1.8398 -2.2932 -0.5002
  374TMC3    H1 5653   3.607   1.141   9.401  1.0845  0.9525 -0.3960
  374TMC3    H2 5654   3.900   1.431   9.477  0.1741  1.4889 -0.9504
  374TMC3    C7 5655   3.876   1.211   9.367 -0.0818  0.4254  0.5435
  374TMC3    C8 5656   3.750   1.587   9.628 -0.1843  0.6590 -0.1809
  374TMC3    O1 5657   3.988   1.242   9.396  0.0166  0.3160 -0.1095
  374TMC3    O2 5658   3.820   1.647   9.545  0.0365 -0.0359  0.7347
  375MPD2     C 5659   3.218   2.893  17.334  0.4533  0.8009  0.1948
  375MPD2    C1 5660   3.132   2.826  17.245 -0.6939 -0.1419  0.0273
  375MPD2    C2 5661   3.182   2.753  17.146  0.0819  0.1726 -0.5942
  375MPD2    C3 5662   3.316   2.727  17.143  0.2485 -0.2236  0.3242
  375MPD2    C4 5663   3.403   2.782  17.230 -0.1723 -0.5068 -0.0545
  375MPD2    C5 5664   3.352   2.864  17.325  0.6065  0.7782 -0.0620
  375MPD2     H 5665   3.107   2.709  17.080  1.0394  0.7376 -2.0631
  375MPD2    H1 5666   3.506   2.749  17.231 -0.2990 -0.8299  2.1098
  375MPD2    H2 5667   3.184   2.966  17.406  1.1144  0.7055  0.6088
  375MPD2    H3 5668   3.419   2.918  17.392 -0.3420  0.8169  0.8554
  375MPD2     N 5669   3.372   2.643  17.040 -0.0259 -0.5243 -0.4640
  375MPD2    H5 5670   3.473   2.635  17.032  0.3218  3.1171  0.2877
  375MPD2    N1 5671   2.992   2.852  17.241  0.0132 -0.5171  0.4814
  375MPD2    H7 5672   2.949   2.811  17.158 -0.6950  0.1815  0.4981
  376TMC3    C1 5673   3.399   2.537  16.834 -0.0099  1.4267  1.0192
  376TMC3    C2 5674   3.530   2.585  16.844  0.0748  0.0177  0.4119
  376TMC3    C3 5675   3.607   2.602  16.726 -0.3753  0.2726 -0.6142
  376TMC3    C4 5676   3.340   2.517  16.715  0.6656 -0.2366 -0.3016
  376TMC3    C5 5677   3.418   2.535  16.602 -0.6022  0.2719 -0.3108
  376TMC3    C6 5678   3.546   2.565  16.602 -0.7127 -0.1743 -0.1091
  376TMC3     C 5679   3.306   2.579  16.939 -0.3710 -0.4772  0.6951
  376TMC3     O 5680   3.192   2.536  16.944 -0.2137  0.7641  0.3106
  376TMC3     H 5681   3.576   2.598  16.942  1.4747  0.3934 -0.2885
  376TMC3    H1 5682   3.242   2.472  16.720 -0.0199  1.5688  2.2117
  376TMC3    H2 5683   3.609   2.585  16.516 -1.8681 -1.8267 -1.3440
  376TMC3    C7 5684   3.358   2.562  16.471 -0.4479 -0.1250  0.5123
  376TMC3    C8 5685   3.736   2.659  16.718  0.1997  0.0505 -0.1658
  376TMC3    O1 5686   3.426   2.612  16.381  0.6883  0.1949  0.5495
  376TMC3    O2 5687   3.779   2.686  16.604  0.1125 -0.0959  0.2249
  377MPD2     C 5688   0.603   1.783  13.296  0.7698  0.4083 -0.3118
  377MPD2    C1 5689   0.739   1.791  13.310 -0.3046  0.3729  0.7362
  377MPD2    C2 5690   0.798   1.763  13.433  0.0352  0.5833  0.5368
  377MPD2    C3 5691   0.715   1.721  13.538  0.5171 -0.0127 -0.4667
  377MPD2    C4 5692   0.578   1.731  13.521 -0.2059  0.2435 -0.2696
  377MPD2    C5 5693   0.521   1.748  13.401  0.1780  0.5416  0.6123
  377MPD2     H 5694   0.904   1.771  13.450  0.1086 -1.1354  0.8926
  377MPD2    H1 5695   0.505   1.702  13.595  0.7020 -4.1918 -1.1389
  377MPD2    H2 5696   0.558   1.772  13.198  1.1931 -2.0097 -0.2345
  377MPD2    H3 5697   0.414   1.745  13.389  0.4667  0.6923 -1.8779
  377MPD2     N 5698   0.758   1.696  13.671 -0.4694 -0.1463 -0.7882
  377MPD2    H5 5699   0.689   1.676  13.743 -1.1999  0.4517 -1.3263
  377MPD2    N1 5700   0.821   1.824  13.196 -0.2146  0.9033 -0.6002
  377MPD2    H7 5701   0.774   1.824  13.106 -1.4341  0.8726  0.0264
  378TMC3    C1 5702   0.974   1.912  12.832 -0.0770 -0.0905 -0.2854
  378TMC3    C2 5703   0.927   1.905  12.958  0.9646  0.1234  0.8161
  378TMC3    C3 5704   1.012   1.892  13.064 -1.2360 -0.5111  0.6089
  378TMC3    C4 5705   1.116   1.889  12.810 -0.2640 -0.3384  0.2116
  378TMC3    C5 5706   1.195   1.878  12.923 -0.1982  0.2857 -0.2598
  378TMC3    C6 5707   1.146   1.877  13.048 -0.2672  0.6058  0.4942
  378TMC3     C 5708   0.880   1.945  12.728  0.3462 -0.2511 -0.0940
  378TMC3     O 5709   0.763   1.950  12.755 -0.4346 -0.9761  0.5939
  378TMC3     H 5710   0.822   1.925  12.973  0.3982 -2.9843  1.0128
  378TMC3    H1 5711   1.149   1.891  12.707  1.7039 -0.1098  0.8606
  378TMC3    H2 5712   1.208   1.867  13.137 -1.3559 -0.4012  1.1415
  378TMC3    C7 5713   1.338   1.896  12.914 -0.6315  0.3192  0.1105
  378TMC3    C8 5714   0.954   1.856  13.191 -0.3361  0.7393  0.5206
  378TMC3    O1 5715   1.402   1.880  13.016 -1.3280  0.1344  0.2734
  378TMC3    O2 5716   1.040   1.840  13.278 -0.1108  0.2498 -0.2241
  379MPD2     C 5717   2.086   0.324  16.350  0.2343 -0.4651  0.3798
  379MPD2    C1 5718   2.056   0.290  16.478  0.2544 -0.1518  0.2043
  379MPD2    C2 5719   2.152   0.230  16.557 -0.1384  0.3345  0.2021
  379MPD2    C3 5720   2.285   0.233  16.514 -0.1196  0.0445 -0.7169
  379MPD2    C4 5721   2.318   0.279  16.387  0.0737  0.3476  0.1662
  379MPD2    C5 5722   2.218   0.328  16.311 -0.1527  0.1189 -0.5491
  379MPD2     H 5723   2.132   0.205  16.660  0.5044  0.6391  0.3997
  379MPD2    H1 5724   2.424   0.284  16.364  0.1381  0.6054  0.5113
  379MPD2    H2 5725   2.018   0.359  16.274  0.7953  0.5110  0.3172
  379MPD2    H3 5726   2.242   0.360  16.210 -1.5860 -0.8144 -1.1785
  379MPD2     N 5727   2.388   0.191  16.588  0.0193 -0.0704  0.4770
  379MPD2    H5 5728   2.476   0.175  16.541 -0.3673 -1.4772  0.2141
  379MPD2    N1 5729   1.919   0.299  16.518 -0.0350  0.3503 -0.7859
  379MPD2    H7 5730   1.856   0.334  16.446  0.1138  1.6257 -0.3109
  380TMC3    C1 5731   1.711   0.257  16.632  0.3962  0.1948 -0.4799
  380TMC3    C2 5732   1.646   0.177  16.721 -0.1493  0.5132 -0.2948
  380TMC3    C3 5733   1.514   0.176  16.715 -0.0258  0.0564  0.1355
  380TMC3    C4 5734   1.645   0.346  16.554 -0.0264  0.9228  0.4257
  380TMC3    C5 5735   1.509   0.350  16.562  0.2523 -0.2987 -0.8111
  380TMC3    C6 5736   1.439   0.262  16.640 -0.0250 -0.4424  0.7779
  380TMC3     C 5737   1.863   0.242  16.631  0.4750  0.1403  0.0379
  380TMC3     O 5738   1.919   0.175  16.721  0.2481  0.1308  0.1497
  380TMC3     H 5739   1.695   0.120  16.799  0.8489  2.8033  0.7414
  380TMC3    H1 5740   1.698   0.415  16.489 -0.2086 -1.2199 -2.0094
  380TMC3    H2 5741   1.331   0.267  16.644  0.0281 -1.2092  3.1826
  380TMC3    C7 5742   1.442   0.436  16.467 -0.4287  0.1661 -0.2260
  380TMC3    C8 5743   1.442   0.082  16.803 -0.2994  0.3050  0.2363
  380TMC3    O1 5744   1.500   0.539  16.439 -0.0569  0.1652 -0.1311
  380TMC3    O2 5745   1.370   0.137  16.884 -0.5794  0.4961  0.3152
  381TMC3    C1 5746   1.874   1.371  16.328 -0.6123  0.8295  0.1118
  381TMC3    C2 5747   1.928   1.490  16.284  0.1927  0.2094  0.5382
  381TMC3    C3 5748   1.931   1.596  16.371  0.3893  0.5890 -0.2473
  381TMC3    C4 5749   1.829   1.359  16.455 -0.1997  0.3138 -0.0571
  381TMC3    C5 5750   1.822   1.468  16.539  0.2550  0.2846 -1.3895
  381TMC3    C6 5751   1.876   1.589  16.502  0.2027 -0.6217 -0.6559
  381TMC3     C 5752   1.896   1.250  16.247  0.3938  0.1551 -0.2680
  381TMC3     O 5753   1.830   1.152  16.286  0.2293 -0.2666  0.1253
  381TMC3     H 5754   1.959   1.507  16.181 -1.4361 -0.6120 -0.0927
  381TMC3    H1 5755   1.811   1.260  16.497  2.1432 -0.0512  0.0799
  381TMC3    H2 5756   1.867   1.674  16.569  2.3524  0.0459 -1.2128
  381TMC3    C7 5757   1.820   1.443  16.678 -0.3370  0.7945 -0.5409
  381TMC3    C8 5758   2.018   1.704  16.327 -0.3388 -0.1883 -0.7601
  381TMC3    O1 5759   1.874   1.338  16.706 -0.0739  0.8018 -0.1670
  381TMC3    O2 5760   2.103   1.670  16.251  0.5109  0.0081 -0.2580
  382MPD2     C 5761   1.182   3.976  16.779 -0.3939  1.0823 -0.0915
  382MPD2    C1 5762   1.267   3.948  16.877  0.4790  0.0981 -0.9690
  382MPD2    C2 5763   1.250   3.830  16.952  0.1176  0.6646  0.1817
  382MPD2    C3 5764   1.138   3.749  16.933 -0.4525  0.3847  0.3006
  382MPD2    C4 5765   1.041   3.786  16.840 -0.1832  0.3029  1.0065
  382MPD2    C5 5766   1.066   3.900  16.761 -0.7635 -0.8744  0.3095
  382MPD2     H 5767   1.314   3.803  17.035 -0.2800 -0.2192  0.2064
  382MPD2    H1 5768   0.954   3.725  16.818 -1.1081  0.6905  3.5240
  382MPD2    H2 5769   1.202   4.063  16.719  0.8760  0.7308 -0.1872
  382MPD2    H3 5770   0.993   3.942  16.694 -1.1610  0.3914  1.5474
  382MPD2     N 5771   1.111   3.634  17.014 -0.0251 -0.2716  0.1744
  382MPD2    H5 5772   1.015   3.603  17.020 -0.9226  2.4028 -0.5297
  382MPD2    N1 5773   1.376   4.039  16.908  0.0569  0.0984 -0.3549
  382MPD2    H7 5774   1.370   4.130  16.863 -2.0401  1.1515  2.0206
  383TMC3    C1 5775   1.127   3.508  17.210 -0.0562 -0.7627 -0.2075
  383TMC3    C2 5776   1.017   3.435  17.178  0.3298  0.1024  0.1227
  383TMC3    C3 5777   0.974   3.337  17.263  0.2516 -0.6332  0.0402
  383TMC3    C4 5778   1.196   3.489  17.326 -0.0425 -0.0361 -0.2570
  383TMC3    C5 5779   1.139   3.407  17.424  0.5872 -0.1568  0.3913
  383TMC3    C6 5780   1.033   3.323  17.390 -0.3338  0.0257  0.0620
  383TMC3     C 5781   1.202   3.584  17.107  0.0806  0.1445 -0.0014
  383TMC3     O 5782   1.320   3.609  17.132 -0.4024 -0.4750 -0.2514
  383TMC3     H 5783   0.971   3.449  17.081  0.7177 -1.0662 -0.2341
  383TMC3    H1 5784   1.292   3.536  17.345 -0.8916  1.5961 -0.0195
  383TMC3    H2 5785   1.006   3.246  17.462 -1.0660 -0.0301 -0.2683
  383TMC3    C7 5786   1.193   3.398  17.558  0.2198 -0.1941  0.1557
  383TMC3    C8 5787   0.844   3.280  17.241  0.4497 -0.0709  0.3362
  383TMC3    O1 5788   1.131   3.322  17.633  0.3542 -0.3381 -0.4535
  383TMC3    O2 5789   0.808   3.280  17.119 -0.5700  0.1807  0.0569
  384MPD2     C 5790   2.573   4.699  12.117  0.0843  0.2768  0.1982
  384MPD2    C1 5791   2.613   4.640  12.239 -0.1739 -0.2366 -0.5121
  384MPD2    C2 5792   2.663   4.511  12.233  0.2324  0.4183  0.2070
  384MPD2    C3 5793   2.683   4.439  12.118 -0.1355  0.3267 -0.3785
  384MPD2    C4 5794   2.652   4.506  12.000 -0.5528  0.5113 -0.0574
  384MPD2    C5 5795   2.608   4.637  12.002  0.2439  0.4499  0.2826
  384MPD2     H 5796   2.688   4.462  12.327  1.2552 -0.8498 -0.7348
  384MPD2    H1 5797   2.674   4.461  11.903  1.2195 -1.5013  1.2599
  384MPD2    H2 5798   2.543   0.068  12.117 -0.4567  0.1209 -0.6805
  384MPD2    H3 5799   2.594   4.683  11.905  1.7905  0.7605  0.1996
  384MPD2     N 5800   2.727   4.308  12.122  0.3439  0.6980 -0.1149
  384MPD2    H5 5801   2.750   4.266  12.212  1.3326 -0.7048 -1.0217
  384MPD2    N1 5802   2.591   4.697  12.368 -0.2511  0.2146 -0.2911
  384MPD2    H7 5803   2.624   4.647  12.450  1.4872 -0.5165 -1.4385
  385TMC3    C1 5804   2.745   4.094  12.085 -0.2498  0.0610  0.2918
  385TMC3    C2 5805   2.646   4.007  12.078  0.9181  0.6365 -0.3173
  385TMC3    C3 5806   2.635   3.919  12.174 -0.3645 -0.0960 -0.0978
  385TMC3    C4 5807   2.822   4.102  12.197 -0.3256  1.1802  0.8079
  385TMC3    C5 5808   2.795   4.026  12.303  0.3813  0.4812  0.3447
  385TMC3    C6 5809   2.698   3.926  12.292 -0.2953 -0.1625  0.0173
  385TMC3     C 5810   2.720   4.220  12.021  0.1846 -0.2859  0.2617
  385TMC3     O 5811   2.691   4.230  11.902 -0.8504  0.5719  0.0267
  385TMC3     H 5812   2.577   3.994  11.996  0.5708 -2.5359  0.4747
  385TMC3    H1 5813   2.908   4.167  12.188  1.5374 -1.5097 -0.5819
  385TMC3    H2 5814   2.670   3.867  12.379  2.0709 -0.8827  0.2748
  385TMC3    C7 5815   2.767   4.112  12.413  0.4942 -0.7962  0.7134
  385TMC3    C8 5816   2.540   3.807  12.160  0.7421  0.2217  0.1673
  385TMC3    O1 5817   2.773   4.224  12.381  0.0503 -1.0433  1.4065
  385TMC3    O2 5818   2.517   3.751  12.263 -0.4843 -0.6930 -0.4980
  386TMC3    C1 5819   2.364   1.890  11.989 -0.0985  0.1743  0.1242
  386TMC3    C2 5820   2.402   1.938  11.866  0.8092  0.7552 -0.6338
  386TMC3    C3 5821   2.346   2.050  11.814 -0.4599 -0.4602 -1.1827
  386TMC3    C4 5822   2.269   1.961  12.067  0.4393 -0.5686 -0.2446
  386TMC3    C5 5823   2.216   2.071  12.007  0.2786  0.2448 -0.2798
  386TMC3    C6 5824   2.250   2.111  11.883  0.5727  0.4777  0.1176
  386TMC3     C 5825   2.436   1.774  12.037  0.1565  0.8924 -0.1718
  386TMC3     O 5826   2.536   1.741  11.982 -0.1446 -0.1712  0.0290
  386TMC3     H 5827   2.481   1.886  11.814  0.5485 -1.1190  0.8519
  386TMC3    H1 5828   2.238   1.927  12.166 -0.2510  0.3250 -0.1518
  386TMC3    H2 5829   2.207   2.203  11.845 -0.5684 -0.3920 -0.6983
  386TMC3    C7 5830   2.101   2.135  12.069  0.2532 -0.5646  0.2590
  386TMC3    C8 5831   2.348   2.082  11.673  0.9821  0.3196  0.0805
  386TMC3    O1 5832   2.111   2.134  12.192  0.4821  0.1449  0.5429
  386TMC3    O2 5833   2.240   2.123  11.632  0.1989 -0.0742 -0.0392
  387MPD2     C 5834   0.113   2.394  10.315 -0.2223 -0.2599  0.3207
  387MPD2    C1 5835   0.196   2.320  10.394  0.4858  0.0284 -0.1971
  387MPD2    C2 5836   0.184   2.181  10.369  0.0318  0.3819 -0.3245
  387MPD2    C3 5837   0.110   2.129  10.269  0.6284  0.0130  0.4597
  387MPD2    C4 5838   0.052   2.219  10.177 -0.5989 -0.5540 -0.1662
  387MPD2    C5 5839   0.048   2.353  10.202 -0.7621  0.5037 -0.0557
  387MPD2     H 5840   0.240   2.112  10.432  0.5438  1.2649  0.1969
  387MPD2    H1 5841   0.003   2.177  10.089 -1.6345 -0.1726  0.2328
  387MPD2    H2 5842   0.126   2.501  10.324  1.2082 -0.2296 -2.0857
  387MPD2    H3 5843   0.006   2.425  10.132  2.7299  1.2370 -1.3852
  387MPD2     N 5844   0.121   1.989  10.249  0.3716  0.2117 -0.0271
  387MPD2    H5 5845   0.177   1.938  10.316 -0.3516  0.0371  0.4471
  387MPD2    N1 5846   0.294   2.375  10.486  0.0705 -0.2252  0.2539
  387MPD2    H7 5847   0.340   2.299  10.535 -1.3703 -1.9322 -1.0322
  388TMC3    C1 5848   0.462   2.503  10.551 -0.6929 -1.0926  0.3797
  388TMC3    C2 5849   0.502   2.606  10.637 -0.2218 -0.0082  0.0886
  388TMC3    C3 5850   0.635   2.603  10.660 -0.9185 -0.4469 -0.0211
  388TMC3    C4 5851   0.542   2.397  10.512  0.3190  0.3473 -0.2649
  388TMC3    C5 5852   0.666   2.393  10.568 -0.2697 -0.1071 -0.0724
  388TMC3    C6 5853   0.715   2.498  10.637  0.3539 -0.1674 -0.2802
  388TMC3     C 5854   0.333   2.503  10.495  0.8914  0.0828 -0.1127
  388TMC3     O 5855   0.285   2.602  10.450 -0.1490 -0.1978 -0.1605
  388TMC3     H 5856   0.445   2.693  10.666 -0.8957 -0.7341  0.9648
  388TMC3    H1 5857   0.520   2.319  10.440 -0.7736 -0.2884  0.7522
  388TMC3    H2 5858   0.816   2.500  10.677  0.4147 -3.9070 -0.2512
  388TMC3    C7 5859   0.738   2.266  10.573 -0.6564 -0.7448 -0.2176
  388TMC3    C8 5860   0.675   2.674  10.782  0.2772 -0.3457  0.2954
  388TMC3    O1 5861   0.860   2.271  10.568  0.0388 -0.0114 -0.2396
  388TMC3    O2 5862   0.724   2.606  10.866  0.6179  0.1690 -0.1259
  389MPD2     C 5863   4.636   0.058  11.814  0.3510  0.2377 -0.3456
  389MPD2    C1 5864   4.533   4.722  11.762 -0.8095 -0.1228  0.5196
  389MPD2    C2 5865   4.474   4.625  11.841 -0.6785 -0.0738  0.5326
  389MPD2    C3 5866   4.512   4.609  11.972  0.0016 -0.1309  0.3006
  389MPD2    C4 5867   4.608   4.693  12.018  0.0522 -0.1754 -0.1376
  389MPD2    C5 5868   4.677   0.045  11.942  0.2821 -0.3727  0.2313
  389MPD2     H 5869   4.396   4.558  11.805  0.0196 -0.8391  0.4405
  389MPD2    H1 5870   4.620   4.697  12.125  1.1925  0.8113 -0.3148
  389MPD2    H2 5871   4.676   0.138  11.753 -0.6772  0.8017 -0.2802
  389MPD2    H3 5872   0.016   0.120  11.966 -0.3710  0.5423 -0.6483
  389MPD2     N 5873   4.439   4.524  12.064  0.2128  0.2127 -0.0245
  389MPD2    H5 5874   4.484   4.511  12.154  0.8628  1.0925 -0.2231
  389MPD2    N1 5875   4.499   0.009  11.628  0.0084 -0.0150 -0.2897
  389MPD2    H7 5876   4.552   0.083  11.584 -1.3759  1.1827  0.0881
  390TMC3    C1 5877   4.283   4.360  12.131  0.9031 -0.3708 -0.3958
  390TMC3    C2 5878   4.166   4.300  12.100 -0.0835 -0.2628 -0.0493
  390TMC3    C3 5879   4.089   4.267  12.202  0.1846  0.7082 -0.1839
  390TMC3    C4 5880   4.324   4.377  12.256  0.5548 -0.4096 -0.0767
  390TMC3    C5 5881   4.243   4.336  12.361  0.3711  0.2875  0.7299
  390TMC3    C6 5882   4.127   4.276  12.338  0.1821  0.2393 -0.2558
  390TMC3     C 5883   4.316   4.468  12.039 -0.1222  0.2522 -0.1462
  390TMC3     O 5884   4.232   4.516  11.966 -0.3534 -0.4548 -0.3174
  390TMC3     H 5885   4.126   4.299  11.999 -0.2708 -1.0555  0.0284
  390TMC3    H1 5886   4.419   4.427  12.273  0.5345  0.1508 -1.6985
  390TMC3    H2 5887   4.071   4.229  12.417 -0.5473  0.6115 -0.5504
  390TMC3    C7 5888   4.235   4.430  12.475  0.2363  0.2498  0.3483
  390TMC3    C8 5889   3.950   4.226  12.167 -0.3504  0.0819  0.3384
  390TMC3    O1 5890   4.334   4.501  12.482  0.0960  0.0821 -0.5521
  390TMC3    O2 5891   3.912   4.238  12.051 -0.3189  0.4021  0.5796
  391MPD2     C 5892   3.359   1.638  11.149  0.3429 -0.1864  0.0302
  391MPD2    C1 5893   3.487   1.678  11.160  0.2648 -0.7662  0.2617
  391MPD2    C2 5894   3.554   1.705  11.041  0.0265  0.9177 -0.0382
  391MPD2    C3 5895   3.495   1.678  10.916 -0.3427 -0.3207 -0.0975
  391MPD2    C4 5896   3.379   1.615  10.916 -0.1719 -0.1616 -0.5662
  391MPD2    C5 5897   3.309   1.599  11.027  0.1488  0.3100 -0.2768
  391MPD2     H 5898   3.655   1.742  11.050 -0.0021  0.5105  1.9859
  391MPD2    H1 5899   3.330   1.604  10.820  0.6266 -0.1367 -0.9828
  391MPD2    H2 5900   3.301   1.616  11.237  0.8479  0.3985  0.5076
  391MPD2    H3 5901   3.207   1.564  11.019 -0.1381  1.0718 -0.0031
  391MPD2     N 5902   3.572   1.705  10.802  0.4283  0.3519  0.5763
  391MPD2    H5 5903   3.655   1.758  10.826  0.2638 -0.0088  1.9460
  391MPD2    N1 5904   3.538   1.695  11.287 -0.5948 -0.2209 -0.1114
  391MPD2    H7 5905   3.478   1.669  11.364 -1.2200 -2.9489 -1.5057
  392TMC3    C1 5906   3.625   1.766  10.573  0.2802  0.1646  0.2245
  392TMC3    C2 5907   3.579   1.752  10.445  0.5746 -0.1736  0.7939
  392TMC3    C3 5908   3.642   1.845  10.361 -1.5222 -0.2004  0.5530
  392TMC3    C4 5909   3.715   1.855  10.621 -0.0387  0.9670 -0.0290
  392TMC3    C5 5910   3.778   1.942  10.530 -0.7982 -0.6432  0.4853
  392TMC3    C6 5911   3.734   1.939  10.403  0.0169  0.2471  0.7089
  392TMC3     C 5912   3.538   1.695  10.670 -0.0151  0.3984 -0.7481
  392TMC3     O 5913   3.439   1.637  10.630 -0.2073  0.4837  0.3804
  392TMC3     H 5914   3.498   1.686  10.419 -0.0383  1.5084 -1.5308
  392TMC3    H1 5915   3.754   1.855  10.722 -0.1119  2.8496 -0.0126
  392TMC3    H2 5916   3.780   2.000  10.326  0.9309  0.1012  1.1385
  392TMC3    C7 5917   3.885   2.032  10.576  0.1083 -0.3738 -0.0590
  392TMC3    C8 5918   3.622   1.819  10.220  0.2514 -0.7901  0.6521
  392TMC3    O1 5919   3.912   2.015  10.691 -0.0571 -0.7498  0.0683
  392TMC3    O2 5920   3.554   1.722  10.187 -0.0383  0.7015 -0.7194
  393TMC3    C1 5921   1.940   4.498  10.696  0.0231  0.0927 -0.2064
  393TMC3    C2 5922   1.854   4.411  10.635  0.9448  0.0090  0.0949
  393TMC3    C3 5923   1.772   4.331  10.717 -0.3985  0.0113 -0.2076
  393TMC3    C4 5924   1.948   4.507  10.836  0.1848 -0.8756  0.2062
  393TMC3    C5 5925   1.863   4.428  10.911  0.4827 -0.7705  0.3050
  393TMC3    C6 5926   1.785   4.336  10.853  0.5920 -0.0698  0.6166
  393TMC3     C 5927   2.039   4.556  10.612  0.2457 -0.1365  0.1717
  393TMC3     O 5928   2.022   4.553  10.493  0.0636 -0.2907  0.0407
  393TMC3     H 5929   1.851   4.406  10.526 -0.6468 -2.4348  0.2549
  393TMC3    H1 5930   2.017   4.577  10.881  0.1906 -0.4691 -0.4372
  393TMC3    H2 5931   1.721   4.281  10.922  1.3439 -0.6610  0.8415
  393TMC3    C7 5932   1.868   4.433  11.056 -0.0107 -0.2774 -0.8161
  393TMC3    C8 5933   1.666   4.263  10.645 -0.3396 -0.4712 -0.1980
  393TMC3    O1 5934   1.775   4.394  11.119  0.5610  0.2826 -0.2053
  393TMC3    O2 5935   1.669   4.237  10.525  0.1161 -0.2348 -0.0180
  394TMC3    C1 5936   4.384   4.722  11.420  0.1233  1.1638 -0.3969
  394TMC3    C2 5937   4.261   4.716  11.362  0.3499 -0.2278 -0.0753
  394TMC3    C3 5938   4.250   4.719  11.230 -0.2603 -0.4501 -0.6184
  394TMC3    C4 5939   4.496   0.026  11.343 -0.1905 -0.5576 -0.1878
  394TMC3    C5 5940   4.484   0.027  11.209 -0.5287 -0.2644 -0.0347
  394TMC3    C6 5941   4.357   0.021  11.152  0.5662  1.2457 -0.1023
  394TMC3     C 5942   4.399   4.679  11.558  0.3457  0.5004  0.2963
  394TMC3     O 5943   4.305   4.613  11.601 -1.1798  0.5249 -0.3707
  394TMC3     H 5944   4.174   4.709  11.427  0.3335 -0.1383 -0.0887
  394TMC3    H1 5945   4.596   0.033  11.386 -0.6597 -2.1329  1.1746
  394TMC3    H2 5946   4.352   0.028  11.044 -1.5411  0.2625 -0.0668
  394TMC3    C7 5947   4.567   0.119  11.141  0.9553  0.2245 -0.5330
  394TMC3    C8 5948   4.119   0.010  11.187 -0.0045 -0.5866 -0.4920
  394TMC3    O1 5949   4.547   0.139  11.024  0.6912  0.2221  0.4656
  394TMC3    O2 5950   4.033   4.688  11.251 -0.1345 -1.1220 -0.1102
  395TMC3    C1 5951   4.406   2.366  14.860  0.3453  0.2677 -0.5626
  395TMC3    C2 5952   4.323   2.325  14.762 -0.1648  0.8359 -0.0473
  395TMC3    C3 5953   4.327   2.396  14.639 -0.8147  0.2093 -0.1825
  395TMC3    C4 5954   4.500   2.464  14.845 -0.0902  0.3012  0.7691
  395TMC3    C5 5955   4.508   2.514  14.721  0.1847 -0.2390 -0.6752
  395TMC3    C6 5956   4.419   2.490  14.619 -0.3318  0.2640  0.1438
  395TMC3     C 5957   4.356   2.333  14.997  0.0296  0.2837 -0.0209
  395TMC3     O 5958   4.355   2.420  15.082  0.5806  0.1939  0.0658
  395TMC3     H 5959   4.259   2.239  14.774 -0.2375  0.7622 -0.9628
  395TMC3    H1 5960   4.576   2.493  14.917  0.4920  0.3670  0.1286
  395TMC3    H2 5961   4.413   2.567  14.544 -0.5990  1.5325  1.4619
  395TMC3    C7 5962   4.597   2.625  14.699  0.5320  0.7681 -0.0856
  395TMC3    C8 5963   4.200   2.415  14.573 -0.3997 -0.5164 -0.4455
  395TMC3    O1 5964   4.649   2.642  14.589 -0.0586  0.0845 -0.0584
  395TMC3    O2 5965   4.203   2.487  14.473  0.0355  0.3859  0.7007
  396MPD2     C 5966   4.162   3.481  17.277  0.3453 -0.0353  0.1598
  396MPD2    C1 5967   4.278   3.551  17.329  0.3040 -0.0428  0.1979
  396MPD2    C2 5968   4.312   3.675  17.267 -0.1451  0.4415 -0.1683
  396MPD2    C3 5969   4.228   3.740  17.173  0.7166 -0.5510 -0.3852
  396MPD2    C4 5970   4.131   3.655  17.112 -0.0989 -0.2627 -0.2400
  396MPD2    C5 5971   4.105   3.534  17.166  0.7053 -0.0722 -0.4206
  396MPD2     H 5972   4.403   3.726  17.299  0.3105  1.0349 -2.4507
  396MPD2    H1 5973   4.066   3.690  17.033  2.1250 -0.2651 -2.0602
  396MPD2    H2 5974   4.137   3.388  17.328  2.3383 -0.8455 -0.3441
  396MPD2    H3 5975   4.029   3.470  17.122 -0.4179 -0.2756  1.8091
  396MPD2     N 5976   4.257   3.871  17.125  0.2536 -0.6429 -0.2793
  396MPD2    H5 5977   4.331   3.926  17.166 -1.6840  1.0502  0.9236
  396MPD2    N1 5978   4.356   3.472  17.417 -0.2456 -0.3560  0.5566
  396MPD2    H7 5979   4.319   3.380  17.437 -3.8965  1.2074  1.0038
  397TMC3    C1 5980   4.511   3.418  17.581 -0.6922 -0.2174  0.2829
  397TMC3    C2 5981   4.644   3.394  17.559 -0.0704  0.5663  0.2856
  397TMC3    C3 5982   4.691   3.268  17.542  0.0391 -0.2208 -0.0519
  397TMC3    C4 5983   4.421   3.313  17.583 -0.5821  0.2257  0.1748
  397TMC3    C5 5984   4.476   3.187  17.588  0.7750  0.3567 -0.1640
  397TMC3    C6 5985   4.608   3.161  17.573 -0.5628 -0.6715 -0.4440
  397TMC3     C 5986   4.465   3.515  17.480  0.1570  0.0748 -0.6116
  397TMC3     O 5987   4.524   3.625  17.481  0.5665 -0.1673 -0.2666
  397TMC3     H 5988   4.711   3.471  17.524 -0.1468  1.9626  3.2101
  397TMC3    H1 5989   4.317   3.333  17.605 -1.0825 -1.8650 -0.2684
  397TMC3    H2 5990   4.647   3.060  17.581 -0.2005 -0.5660 -0.8703
  397TMC3    C7 5991   4.387   3.084  17.639 -0.0055 -0.6834  0.2838
  397TMC3    C8 5992   0.093   3.227  17.525  0.0165  0.2246 -0.3869
  397TMC3    O1 5993   4.422   2.968  17.615 -0.2769 -0.2502  0.3609
  397TMC3    O2 5994   0.123   3.120  17.573  0.4283 -0.6923  0.1577
  398MPD2     C 5995   2.496   4.664   0.523 -0.4397 -0.0815 -0.6181
  398MPD2    C1 5996   2.619   4.616   0.549 -0.2421  0.4765  0.2605
  398MPD2    C2 5997   2.704   4.695   0.623 -0.6167  0.2896 -0.3189
  398MPD2    C3 5998   2.664   0.082   0.672  0.3099 -0.2163 -0.5348
  398MPD2    C4 5999   2.533   0.130   0.638 -0.1712  0.3966  0.5709
  398MPD2    C5 6000   2.449   0.049   0.567 -0.4543 -0.1454  0.3628
  398MPD2     H 6001   2.803   4.658   0.645 -1.9803 -2.0126  1.8170
  398MPD2    H1 6002   2.490   0.225   0.665 -0.9225  0.8877 -2.3765
  398MPD2    H2 6003   2.430   4.598   0.468  0.5026 -0.9317 -0.7262
  398MPD2    H3 6004   2.347   0.074   0.539 -0.2495 -1.1122 -1.2764
  398MPD2     N 6005   2.758   0.153   0.745  0.1069  0.3647 -0.4744
  398MPD2    H5 6006   2.851   0.115   0.755  0.5468  1.4579 -0.3723
  398MPD2    N1 6007   2.677   4.498   0.489  0.5337  0.4420  0.2644
  398MPD2    H7 6008   2.777   4.486   0.499  0.1918 -1.9849  0.7682
  399TMC3    C1 6009   2.691   4.277   0.396  0.1646 -0.2615 -0.0275
  399TMC3    C2 6010   2.781   4.250   0.496  0.5080  0.2341 -0.0277
  399TMC3    C3 6011   2.832   4.125   0.498 -0.4505  0.3261  0.1915
  399TMC3    C4 6012   2.651   4.184   0.309 -0.0449 -0.7033  0.0858
  399TMC3    C5 6013   2.705   4.054   0.314  0.0816 -0.1738 -0.3384
  399TMC3    C6 6014   2.795   4.025   0.408  0.3949  0.4110 -0.0785
  399TMC3     C 6015   2.612   4.396   0.415 -0.5104  0.2381 -0.4439
  399TMC3     O 6016   2.519   4.413   0.337  0.7957 -0.4596 -0.2305
  399TMC3     H 6017   2.819   4.316   0.573  0.6712  0.4385 -0.2830
  399TMC3    H1 6018   2.573   4.209   0.238  1.5861 -0.1816 -1.5161
  399TMC3    H2 6019   2.820   3.919   0.414  1.7247  0.6265 -1.7166
  399TMC3    C7 6020   2.601   3.952   0.301  0.5188 -0.2494  0.7920
  399TMC3    C8 6021   2.858   4.080   0.632  0.6191 -0.3736  0.4400
  399TMC3    O1 6022   2.595   3.879   0.398  0.2112  0.1515 -0.7832
  399TMC3    O2 6023   2.833   4.156   0.728  0.1598 -0.6508 -0.4986
  400TMC3    C1 6024   0.770   2.944  17.063  0.2553  0.3063  0.0020
  400TMC3    C2 6025   0.659   2.868  17.068  0.5308 -0.5025 -0.3193
  400TMC3    C3 6026   0.575   2.869  16.963  0.4671  0.0328  0.3656
  400TMC3    C4 6027   0.791   3.018  16.949  0.6689 -0.4173 -0.4855
  400TMC3    C5 6028   0.701   3.019  16.844  1.1949  0.2292  0.4362
  400TMC3    C6 6029   0.590   2.942  16.850  0.4210 -0.0843  0.1951
  400TMC3     C 6030   0.860   2.932  17.181  0.4296  0.1281 -0.4872
  400TMC3     O 6031   0.832   2.858  17.270  1.0601 -0.5442  0.6380
  400TMC3     H 6032   0.633   2.825  17.164 -1.3045  0.3088 -0.4708
  400TMC3    H1 6033   0.876   3.085  16.952 -0.9245  1.5962 -0.5353
  400TMC3    H2 6034   0.510   2.964  16.780  1.2769  1.3067 -0.3481
  400TMC3    C7 6035   0.705   3.144  16.767 -0.1420  0.0142 -0.4129
  400TMC3    C8 6036   0.458   2.771  16.979 -0.8549  0.4894 -0.6088
  400TMC3    O1 6037   0.656   3.142  16.656  0.1472  0.0464 -0.7233
  400TMC3    O2 6038   0.394   2.788  17.083 -0.0344 -0.0554 -0.0992
  401MPD2     C 6039   4.221   1.909   1.016  0.3273  0.1346  0.5743
  401MPD2    C1 6040   4.344   1.863   1.052 -0.1591 -0.2473 -0.1434
  401MPD2    C2 6041   4.371   1.729   1.036  0.3023  1.3557  0.3504
  401MPD2    C3 6042   4.272   1.641   0.982 -0.0345 -0.5625 -0.0022
  401MPD2    C4 6043   4.155   1.698   0.948  0.4488  0.3435 -0.4806
  401MPD2    C5 6044   4.124   1.826   0.972 -0.2132  0.0635  0.2371
  401MPD2     H 6045   4.471   1.690   1.049  0.7325  2.4334  0.2311
  401MPD2    H1 6046   4.071   1.642   0.908  0.4167 -0.3362  0.5354
  401MPD2    H2 6047   4.194   2.014   1.015  2.4177  0.6755  0.5828
  401MPD2    H3 6048   4.026   1.867   0.950 -0.0187 -0.0588 -0.8673
  401MPD2     N 6049   4.295   1.501   0.989  0.9655  0.4011  0.1983
  401MPD2    H5 6050   4.376   1.476   1.046  0.9498 -1.0927 -0.4453
  401MPD2    N1 6051   4.455   1.941   1.097 -0.2593  0.0461  0.9298
  401MPD2    H7 6052   4.540   1.900   1.133 -0.0305 -1.8952 -1.7812
  402TMC3    C1 6053   4.272   1.275   0.950 -0.2188  0.6994 -0.3106
  402TMC3    C2 6054   4.312   1.258   1.078 -0.5370  0.1766  0.1903
  402TMC3    C3 6055   4.349   1.132   1.104 -0.7039  0.4259 -0.4152
  402TMC3    C4 6056   4.255   1.173   0.856 -0.2190 -0.1246 -0.5948
  402TMC3    C5 6057   4.287   1.050   0.894  0.2436 -0.4243  0.3669
  402TMC3    C6 6058   4.331   1.025   1.018  0.2951  0.1970 -0.0961
  402TMC3     C 6059   4.226   1.406   0.919 -0.3019 -0.0223 -0.3164
  402TMC3     O 6060   4.159   1.434   0.817  0.1484 -0.4154 -0.4825
  402TMC3     H 6061   4.303   1.327   1.161 -0.0847  0.8836 -0.3474
  402TMC3    H1 6062   4.206   1.195   0.762 -1.9298  2.2062  0.8286
  402TMC3    H2 6063   4.356   0.928   1.059  0.1571 -0.4027 -1.4478
  402TMC3    C7 6064   4.215   0.945   0.821  0.3510 -0.2659 -0.0734
  402TMC3    C8 6065   4.391   1.096   1.238 -0.0382 -0.6834 -0.1847
  402TMC3    O1 6066   4.115   0.971   0.749 -0.0812 -0.7917  0.3530
  402TMC3    O2 6067   4.379   0.978   1.273 -0.3239  0.0901 -0.2552
  403MPD2     C 6068   1.818   0.065  14.072  0.1603 -0.4064 -0.0667
  403MPD2    C1 6069   1.897   0.043  13.968  0.4083 -0.2083  0.1177
  403MPD2    C2 6070   2.028   0.097  13.962 -0.6518  0.4031  0.7838
  403MPD2    C3 6071   2.070   0.181  14.067  0.5395  0.4041  0.1565
  403MPD2    C4 6072   1.985   0.207  14.171 -0.0879 -0.2282 -0.0915
  403MPD2    C5 6073   1.856   0.155  14.172  0.3265 -0.3054 -0.9963
  403MPD2     H 6074   2.095   0.071  13.880 -0.8198 -1.2389  1.1662
  403MPD2    H1 6075   2.006   0.255  14.266  1.0371  1.7971 -1.3391
  403MPD2    H2 6076   1.716   0.028  14.075  0.5611 -1.4981  0.3122
  403MPD2    H3 6077   1.794   0.173  14.259 -0.2956 -2.7968 -0.9071
  403MPD2     N 6078   2.203   0.217  14.065 -0.0489  0.3317 -0.1351
  403MPD2    H5 6079   2.262   0.172  13.996  1.0387 -0.2496  1.1765
  403MPD2    N1 6080   1.849   4.689  13.869  0.4863  0.4505 -0.0215
  403MPD2    H7 6081   1.770   4.632  13.894  0.2638  1.5245  1.7688
  404TMC3    C1 6082   1.815   4.591  13.660 -0.4402 -0.4361 -0.1211
  404TMC3    C2 6083   1.793   4.473  13.724 -0.5040  0.4217 -0.5895
  404TMC3    C3 6084   1.780   4.356  13.645  0.3745  0.3800 -0.3131
  404TMC3    C4 6085   1.814   4.606  13.524 -0.3267  0.0794  0.3389
  404TMC3    C5 6086   1.796   4.490  13.446 -0.1965  0.0902  0.9935
  404TMC3    C6 6087   1.775   4.361  13.505 -0.8150  0.2432  0.5290
  404TMC3     C 6088   1.895   4.682  13.737 -0.3070 -0.0542  0.2613
  404TMC3     O 6089   1.973   0.024  13.680 -0.4118 -0.0806 -0.0132
  404TMC3     H 6090   1.812   4.461  13.830 -1.0868 -0.8297 -0.6217
  404TMC3    H1 6091   1.825   4.702  13.475 -0.7951 -1.0666 -2.0098
  404TMC3    H2 6092   1.793   4.268  13.454 -1.9909 -0.0233  0.6077
  404TMC3    C7 6093   1.821   4.506  13.302 -0.2525  0.0948 -0.2163
  404TMC3    C8 6094   1.848   4.243  13.687  0.0984  0.0843 -0.3376
  404TMC3    O1 6095   1.896   4.593  13.261 -0.2968  0.7490  0.0266
  404TMC3    O2 6096   1.949   4.213  13.629 -0.0626  0.1584 -0.2193
  405MPD2     C 6097   2.108   4.637  15.055 -0.0296 -0.1571  1.1211
  405MPD2    C1 6098   2.143   4.662  14.930 -0.3702  0.3699 -0.2516
  405MPD2    C2 6099   2.202   0.049  14.897  0.6155  0.1180  0.6808
  405MPD2    C3 6100   2.245   0.134  14.994 -0.1163  0.1979 -0.8292
  405MPD2    C4 6101   2.209   0.108  15.126  0.0622 -0.3030  0.0897
  405MPD2    C5 6102   2.137   4.728  15.149  0.6574 -0.0251 -0.5647
  405MPD2     H 6103   2.236   0.077  14.797  0.0383 -1.8790 -0.0759
  405MPD2    H1 6104   2.236   0.180  15.202 -1.0829  0.4218 -0.1838
  405MPD2    H2 6105   2.052   4.549  15.086 -1.8741 -0.1639 -2.2245
  405MPD2    H3 6106   2.114   4.704  15.252  1.6320 -0.4599 -0.4522
  405MPD2     N 6107   2.347   0.230  14.963 -0.5370 -0.4341 -0.4133
  405MPD2    H5 6108   2.367   0.236  14.864  1.2850 -0.1251 -0.0353
  405MPD2    N1 6109   2.108   4.570  14.831  0.1875  0.8696  0.0128
  405MPD2    H7 6110   2.028   4.512  14.853  0.9743 -0.2956 -0.1745
  406TMC3    C1 6111   2.668   0.546  14.970 -0.2209  0.2530 -0.1486
  406TMC3    C2 6112   2.691   0.521  14.839  0.0415  1.2108  0.7854
  406TMC3    C3 6113   2.627   0.414  14.787  0.0533 -0.0043  0.2536
  406TMC3    C4 6114   2.590   0.463  15.048  0.1638  0.4947  0.7425
  406TMC3    C5 6115   2.536   0.359  14.984  0.0654 -0.2697  0.7607
  406TMC3    C6 6116   2.550   0.325  14.856 -0.6745 -0.0134 -0.5748
  406TMC3     C 6117   2.669   0.681  15.004 -0.1642 -0.7684 -0.0477
  406TMC3     O 6118   2.777   0.736  15.010  0.1641  0.6374  0.4385
  406TMC3     H 6119   2.751   0.589  14.780  0.4038 -0.8730 -1.2347
  406TMC3    H1 6120   2.554   0.482  15.149 -2.9324 -1.0124 -0.0724
  406TMC3    H2 6121   2.521   0.229  14.816  0.1016 -0.3771 -0.2726
  406TMC3    C7 6122   2.433   0.283  15.055  0.6035  0.3314 -0.8226
  406TMC3    C8 6123   2.655   0.379  14.645  0.2518  0.3287 -0.3128
  406TMC3    O1 6124   2.443   0.281  15.175  0.1163  0.1391  0.4955
  406TMC3    O2 6125   2.762   0.421  14.593  0.2109  0.1139  0.4724
  407MPD2     C 6126   4.335   1.993  10.372  0.2486  0.5704  0.7595
  407MPD2    C1 6127   4.415   2.087  10.304  0.5157 -0.8022  0.0818
  407MPD2    C2 6128   4.459   2.198  10.372  0.1987  1.0825  0.1641
  407MPD2    C3 6129   4.442   2.207  10.509 -0.1240 -0.3151  0.2762
  407MPD2    C4 6130   4.382   2.103  10.577  0.3838  0.7261  0.9458
  407MPD2    C5 6131   4.328   1.994  10.505 -0.5738  0.1842 -0.4458
  407MPD2     H 6132   4.508   2.272  10.309  0.3900 -0.0909 -1.0528
  407MPD2    H1 6133   4.367   2.097  10.685 -3.0425  0.8752  0.4719
  407MPD2    H2 6134   4.286   1.912  10.319 -0.9375  1.1716  0.9232
  407MPD2    H3 6135   4.261   1.933  10.564 -0.2397  0.2470 -0.0088
  407MPD2     N 6136   4.513   2.311  10.572  0.3283  0.4099  0.7569
  407MPD2    H5 6137   4.542   2.383  10.507  0.7505  1.4165  2.0453
  407MPD2    N1 6138   4.437   2.088  10.167 -0.3590 -0.4138  0.2639
  407MPD2    H7 6139   4.482   2.165  10.119 -0.6543 -0.4367 -0.0507
  408TMC3    C1 6140   4.438   1.981   9.951 -0.2907  0.4778 -0.1433
  408TMC3    C2 6141   4.475   1.864   9.893 -0.6694 -0.1466  0.0647
  408TMC3    C3 6142   4.552   1.874   9.778 -0.6475 -0.2214  0.7567
  408TMC3    C4 6143   4.479   2.104   9.897  0.3895  0.0914  0.7079
  408TMC3    C5 6144   4.566   2.102   9.780  0.1553 -0.2644 -0.4215
  408TMC3    C6 6145   4.593   1.987   9.721 -0.4868 -0.3275  0.2509
  408TMC3     C 6146   4.413   1.975  10.096 -0.0549 -0.7131 -0.5558
  408TMC3     O 6147   4.399   1.858  10.136 -0.7766 -0.0696 -0.2568
  408TMC3     H 6148   4.458   1.765   9.933  0.7309  0.1385  1.3562
  408TMC3    H1 6149   4.455   2.196   9.949 -2.8556 -0.6868  0.5721
  408TMC3    H2 6150   4.641   1.995   9.624 -0.2142  0.2467  0.4324
  408TMC3    C7 6151   4.683   2.189   9.783  0.2823  0.2510  0.0182
  408TMC3    C8 6152   4.624   1.755   9.746  0.0716  0.5019  0.2499
  408TMC3    O1 6153   0.047   2.154   9.723  0.1729  0.1252  0.0508
  408TMC3    O2 6154   4.564   1.649   9.761  0.2678 -0.2845 -0.0353
  409MPD2     C 6155   4.392   2.513  16.913  0.0335  0.2355  0.4068
  409MPD2    C1 6156   4.465   2.566  17.017  0.1188  0.1833 -0.4947
  409MPD2    C2 6157   4.549   2.671  16.994  0.1661  0.1066  0.3592
  409MPD2    C3 6158   4.550   2.733  16.869  0.6299  0.2389 -0.2641
  409MPD2    C4 6159   4.485   2.678  16.766 -0.1982 -0.0429  0.0547
  409MPD2    C5 6160   4.410   2.568  16.787  0.1304 -0.1550 -0.2574
  409MPD2     H 6161   4.623   2.686  17.072  0.6661  3.0362 -0.7095
  409MPD2    H1 6162   4.494   2.715  16.664 -0.6050 -1.2236 -0.4122
  409MPD2    H2 6163   4.318   2.434  16.924 -0.2400  0.3723 -0.4660
  409MPD2    H3 6164   4.349   2.535  16.704 -2.1822 -0.7807  1.6979
  409MPD2     N 6165   4.643   2.837  16.849 -0.3732 -0.1126 -0.0915
  409MPD2    H5 6166   4.648   2.880  16.758 -0.3699  1.8490  0.8428
  409MPD2    N1 6167   4.472   2.496  17.141  0.5110  0.4943  0.0569
  409MPD2    H7 6168   4.539   2.527  17.210  1.4510 -2.1671  0.3443
  410TMC3    C1 6169   0.073   3.007  16.880 -0.3225  0.2502  0.0108
  410TMC3    C2 6170   0.187   3.037  16.947 -0.0317  0.4368 -0.3105
  410TMC3    C3 6171   0.227   3.169  16.956 -0.4586 -0.2192  0.1777
  410TMC3    C4 6172   4.722   3.106  16.845 -0.3735  0.0466  0.5834
  410TMC3    C5 6173   0.038   3.228  16.841  0.2010 -0.3260  0.1834
  410TMC3    C6 6174   0.152   3.267  16.905 -0.1221 -0.7346  0.4884
  410TMC3     C 6175   0.007   2.886  16.936 -0.0300 -0.8351 -0.7176
  410TMC3     O 6176   0.043   2.840  17.040  0.1364  0.3922 -0.2805
  410TMC3     H 6177   0.245   2.949  16.972 -0.1741  0.4599  0.0892
  410TMC3    H1 6178   4.645   3.079  16.773  0.3365  0.4781 -0.3417
  410TMC3    H2 6179   0.194   3.367  16.906  0.7912 -1.0767 -3.2048
  410TMC3    C7 6180   4.677   3.326  16.791  0.4155 -0.0289  0.0254
  410TMC3    C8 6181   0.341   3.202  17.040 -0.1355  0.3436 -0.2249
  410TMC3    O1 6182   4.559   3.286  16.780  0.3387  0.3972  0.0708
  410TMC3    O2 6183   0.422   3.280  16.993 -0.0378 -0.4058 -0.4370
  411MPD2     C 6184   0.103   3.462  14.524  0.2040  0.0673  0.4695
  411MPD2    C1 6185   4.716   3.505  14.468 -0.3717 -0.1217  0.4235
  411MPD2    C2 6186   4.633   3.403  14.417  0.5601  0.1480  0.2423
  411MPD2    C3 6187   4.657   3.268  14.439 -0.5400 -0.3590  0.1851
  411MPD2    C4 6188   0.035   3.235  14.502  0.2152 -0.0444  0.5577
  411MPD2    C5 6189   0.126   3.327  14.539  0.3154 -0.0302 -0.0192
  411MPD2     H 6190   4.540   3.444  14.379 -0.8234 -2.8453  0.3326
  411MPD2    H1 6191   0.044   3.132  14.535  0.0380  0.7422  3.0583
  411MPD2    H2 6192   0.173   3.531  14.570  1.4142  0.7155 -2.3467
  411MPD2    H3 6193   0.226   3.294  14.567 -1.3340 -4.2594  0.8900
  411MPD2     N 6194   4.556   3.170  14.412 -0.0839 -0.3562  0.1594
  411MPD2    H5 6195   4.572   3.076  14.449  2.3153  0.3281  0.8788
  411MPD2    N1 6196   4.688   3.638  14.474  0.4396  0.2075 -0.3828
  411MPD2    H7 6197   0.011   3.703  14.528 -1.2309 -0.3810  2.1071
  412TMC3    C1 6198   4.346   3.083  14.362  0.3735  0.3008 -0.4044
  412TMC3    C2 6199   4.356   2.978  14.448 -0.6248  0.4900  0.4268
  412TMC3    C3 6200   4.283   2.859  14.420  0.1568  0.0196 -0.0043
  412TMC3    C4 6201   4.254   3.082  14.260 -0.0843 -0.4818 -0.4153
  412TMC3    C5 6202   4.175   2.971  14.240  0.3054 -0.2883 -0.3200
  412TMC3    C6 6203   4.201   2.859  14.313  0.2881  0.2767 -0.3459
  412TMC3     C 6204   4.432   3.199  14.373  0.0890  1.1699  0.0523
  412TMC3     O 6205   4.384   3.297  14.325 -0.7148  0.9478  0.2378
  412TMC3     H 6206   4.416   2.985  14.538 -0.2160  3.1701 -0.0806
  412TMC3    H1 6207   4.220   3.171  14.208 -0.3315  0.1103  0.7778
  412TMC3    H2 6208   4.150   2.765  14.294  0.1075  0.5770 -1.3064
  412TMC3    C7 6209   4.035   2.987  14.224  0.4705 -0.2027 -0.1888
  412TMC3    C8 6210   4.230   2.792  14.534  0.2794 -0.7576  0.3158
  412TMC3    O1 6211   3.973   2.907  14.289  0.4331 -0.9036 -0.2937
  412TMC3    O2 6212   4.305   2.760  14.629  0.1005 -0.6988  0.8540
  413MPD2     C 6213   1.938   1.516  15.522 -0.1053 -0.1296  0.4560
  413MPD2    C1 6214   1.856   1.402  15.508  0.7292 -0.3324  0.9916
  413MPD2    C2 6215   1.912   1.273  15.496  0.5377  0.4081  0.3289
  413MPD2    C3 6216   2.050   1.263  15.504 -0.2849 -0.3253 -0.4861
  413MPD2    C4 6217   2.132   1.379  15.530 -0.0983  0.0122 -0.4431
  413MPD2    C5 6218   2.076   1.502  15.539 -0.1256  0.1407  0.2619
  413MPD2     H 6219   1.861   1.192  15.447 -0.7595 -0.7958  3.7070
  413MPD2    H1 6220   2.239   1.374  15.543 -0.1448  1.8662  0.5767
  413MPD2    H2 6221   1.887   1.611  15.525 -0.4305 -0.3350  1.6455
  413MPD2    H3 6222   2.143   1.587  15.550 -0.6059  0.4853  0.5564
  413MPD2     N 6223   2.102   1.130  15.478  0.4332 -0.8187  0.2173
  413MPD2    H5 6224   2.031   1.068  15.440  0.5156  0.9517 -2.8769
  413MPD2    N1 6225   1.722   1.427  15.484 -0.4586  0.0470  0.7758
  413MPD2    H7 6226   1.708   1.527  15.492  0.1708  0.0995  1.2179
  414TMC3    C1 6227   2.267   0.964  15.472  0.4719 -0.1478  0.3407
  414TMC3    C2 6228   2.191   0.880  15.547  0.0545 -0.4649  0.3960
  414TMC3    C3 6229   2.235   0.759  15.577  0.2537  0.7431 -0.1548
  414TMC3    C4 6230   2.391   0.928  15.428  0.1294 -0.0022 -0.2377
  414TMC3    C5 6231   2.427   0.799  15.459 -0.9693  0.2908 -0.3554
  414TMC3    C6 6232   2.349   0.703  15.522 -0.5957  0.0960 -0.3570
  414TMC3     C 6233   2.238   1.101  15.473 -0.0207  0.1066  0.3479
  414TMC3     O 6234   2.333   1.180  15.463 -0.2327  0.3415  0.2540
  414TMC3     H 6235   2.113   0.919  15.612  2.8316  1.6708  2.4861
  414TMC3    H1 6236   2.450   0.991  15.362 -1.5753  2.3333  0.4553
  414TMC3    H2 6237   2.372   0.597  15.522  0.2061  0.2804 -3.0414
  414TMC3    C7 6238   2.559   0.770  15.427  0.0258 -0.6993 -0.2307
  414TMC3    C8 6239   2.170   0.681  15.683  0.1682  0.0820 -0.1483
  414TMC3    O1 6240   2.589   0.656  15.453  0.3258  0.3896 -0.1325
  414TMC3    O2 6241   2.053   0.704  15.716  0.2988 -0.3927 -0.2890
  415TMC3    C1 6242   2.029   4.100  10.556 -0.0888 -0.6649  0.1954
  415TMC3    C2 6243   2.073   4.188  10.457  0.4204 -0.0800  0.8947
  415TMC3    C3 6244   2.016   4.174  10.333  0.0132 -0.4522  0.3411
  415TMC3    C4 6245   1.932   4.002  10.530  0.4107  0.3670  0.0406
  415TMC3    C5 6246   1.881   3.999  10.404 -0.2764 -0.1728  0.4887
  415TMC3    C6 6247   1.922   4.080  10.304  0.1735 -0.4724  0.2974
  415TMC3     C 6248   2.045   4.124  10.699  0.2504  0.3897  0.2559
  415TMC3     O 6249   1.958   4.088  10.780 -0.1574 -0.2445 -0.3576
  415TMC3     H 6250   2.140   4.271  10.482  0.2157 -0.6676  3.4566
  415TMC3    H1 6251   1.896   3.937  10.609  0.6329 -0.9007 -0.8948
  415TMC3    H2 6252   1.875   4.082  10.206 -0.2348  2.8738  0.5573
  415TMC3    C7 6253   1.760   3.923  10.369 -1.2924 -0.7187 -0.6140
  415TMC3    C8 6254   2.052   4.258  10.228  0.7071 -0.6735 -0.0067
  415TMC3    O1 6255   1.738   3.896  10.252 -0.0730 -0.5495 -0.9557
  415TMC3    O2 6256   1.962   4.284  10.151  0.4408 -0.3230  0.3646
  416MPD2     C 6257   3.768   3.059  11.733  0.1127 -0.1290  0.4424
  416MPD2    C1 6258   3.645   2.995  11.760 -0.7522 -0.2042 -0.9715
  416MPD2    C2 6259   3.633   2.857  11.735  0.2716 -0.5221  0.0528
  416MPD2    C3 6260   3.735   2.793  11.675 -0.3482 -0.0591 -0.2558
  416MPD2    C4 6261   3.856   2.855  11.653 -0.6502 -0.2577 -0.3730
  416MPD2    C5 6262   3.873   2.988  11.677 -0.1335  0.0333  0.4106
  416MPD2     H 6263   3.550   2.803  11.779  0.5599  0.9958  2.4359
  416MPD2    H1 6264   3.941   2.802  11.612 -0.5334 -1.1779  1.0447
  416MPD2    H2 6265   3.769   3.167  11.732 -0.4547 -0.1433 -1.7802
  416MPD2    H3 6266   3.968   3.035  11.656 -0.9182  0.8725 -1.3195
  416MPD2     N 6267   3.727   2.657  11.633  0.1110 -0.1266  0.2881
  416MPD2    H5 6268   3.809   2.605  11.603 -0.4716 -0.3711 -0.8592
  416MPD2    N1 6269   3.537   3.072  11.817  0.8595 -0.6674 -0.1026
  416MPD2    H7 6270   3.543   3.173  11.824 -0.3491 -0.5275 -0.9221
  417TMC3    C1 6271   3.353   3.128  11.944  0.2939  0.2314  0.0599
  417TMC3    C2 6272   3.294   3.114  12.067 -0.5182  0.2619  0.4082
  417TMC3    C3 6273   3.163   3.161  12.083  0.2921 -0.4119 -1.1956
  417TMC3    C4 6274   3.296   3.208  11.851 -0.0257  0.2785  0.1092
  417TMC3    C5 6275   3.170   3.269  11.876 -0.3615 -0.3571 -0.0640
  417TMC3    C6 6276   3.098   3.240  11.991 -0.9846  0.2997 -0.0063
  417TMC3     C 6277   3.438   3.018  11.905 -0.0851 -0.3050 -0.8409
  417TMC3     O 6278   3.438   2.912  11.962 -0.2367  0.8528 -0.6847
  417TMC3     H 6279   3.351   3.062  12.143 -0.6186 -1.0849 -0.4243
  417TMC3    H1 6280   3.342   3.220  11.754 -1.3939  0.3127 -0.5275
  417TMC3    H2 6281   2.999   3.282  12.004 -1.0196 -1.0716  4.3715
  417TMC3    C7 6282   3.105   3.315  11.756 -0.6276 -0.7919  0.9250
  417TMC3    C8 6283   3.100   3.146  12.212 -0.2331  0.4750  0.4131
  417TMC3    O1 6284   3.176   3.364  11.673 -0.2267 -0.3226  0.2385
  417TMC3    O2 6285   2.996   3.208  12.226  0.7025  0.1208  0.2943
  418TMC3    C1 6286   3.013   0.149   0.984  0.3630  0.5914 -0.2572
  418TMC3    C2 6287   2.948   0.232   0.896  0.4546  0.1516  0.6557
  418TMC3    C3 6288   2.818   0.273   0.928 -0.1574 -0.1854 -0.0873
  418TMC3    C4 6289   2.940   0.096   1.085  0.2404  0.6059 -0.7675
  418TMC3    C5 6290   2.813   0.127   1.116 -0.4292  0.2443  0.4351
  418TMC3    C6 6291   2.753   0.216   1.034  0.1613  0.2379  0.3011
  418TMC3     C 6292   3.069   0.046   0.905  0.4160 -0.3673  0.1326
  418TMC3     O 6293   3.020   0.038   0.791 -0.0719  0.2937  0.0545
  418TMC3     H 6294   2.998   0.271   0.809  1.3468  2.7120  2.3270
  418TMC3    H1 6295   2.978   0.010   1.140  0.5730  0.6023 -1.0042
  418TMC3    H2 6296   2.646   0.232   1.046 -0.1082 -1.1429 -0.3032
  418TMC3    C7 6297   2.734   0.030   1.181  0.2574  0.7223 -0.5983
  418TMC3    C8 6298   2.727   0.264   0.813 -0.3022  0.6316  0.2435
  418TMC3    O1 6299   2.776   4.651   1.187 -0.4802 -0.5765  0.1537
  418TMC3    O2 6300   2.623   0.333   0.822  0.1711 -0.4552 -0.2964
  419MPD2     C 6301   0.398   2.880  12.355 -0.5966 -0.5123 -0.1871
  419MPD2    C1 6302   0.374   2.988  12.439 -0.2189 -0.4604 -0.1579
  419MPD2    C2 6303   0.311   2.966  12.556 -1.0839  0.2249 -0.9492
  419MPD2    C3 6304   0.291   2.841  12.598  0.5336  0.5725  0.1815
  419MPD2    C4 6305   0.333   2.730  12.531  0.5956 -0.2593  0.7511
  419MPD2    C5 6306   0.394   2.753  12.409  0.2354  0.1826  0.4826
  419MPD2     H 6307   0.282   3.052  12.615 -1.0534  0.2462 -0.9653
  419MPD2    H1 6308   0.334   2.629  12.569  0.7346 -0.6680 -0.3487
  419MPD2    H2 6309   0.442   2.891  12.257 -1.4460 -3.3230 -0.8847
  419MPD2    H3 6310   0.434   2.670  12.352  1.3818  0.4028  0.9582
  419MPD2     N 6311   0.220   2.834  12.724  0.0099 -0.1280  0.5572
  419MPD2    H5 6312   0.185   2.913  12.777  0.8858 -0.5571  1.7750
  419MPD2    N1 6313   0.383   3.123  12.394 -0.6833 -0.0833 -0.4165
  419MPD2    H7 6314   0.350   3.195  12.457  0.9356 -0.0662  0.4224
  420TMC3    C1 6315   0.149   2.733  12.923 -0.5162 -0.3181 -0.0856
  420TMC3    C2 6316   0.033   2.804  12.922 -0.6629 -0.4049 -0.3871
  420TMC3    C3 6317   0.008   2.872  13.046 -0.2354 -0.5379  0.6083
  420TMC3    C4 6318   0.234   2.715  13.026  0.1569  0.1647 -0.0893
  420TMC3    C5 6319   0.196   2.773  13.144 -0.1489  0.6794  0.1223
  420TMC3    C6 6320   0.087   2.855  13.154  0.7040  0.4306 -0.0207
  420TMC3     C 6321   0.205   2.715  12.794 -0.5973 -0.2526 -0.2312
  420TMC3     O 6322   0.246   2.604  12.768 -0.0325  0.1839 -0.3900
  420TMC3     H 6323   4.701   2.827  12.840 -0.0037 -0.8206 -1.0444
  420TMC3    H1 6324   0.325   2.658  13.012 -0.1519 -0.6974  1.3803
  420TMC3    H2 6325   0.065   2.895  13.253 -0.2208 -0.9117  0.3156
  420TMC3    C7 6326   0.293   2.780  13.258 -0.2254 -0.0553 -0.6598
  420TMC3    C8 6327   4.656   2.989  13.058 -0.0283 -0.1857 -0.5087
  420TMC3    O1 6328   0.290   2.885  13.316 -0.4534  0.3495  0.0731
  420TMC3    O2 6329   4.660   3.049  13.165  0.1269 -0.3864 -0.0067
  421TMC3    C1 6330   2.395   0.350  14.103  0.9014  0.4224  0.1462
  421TMC3    C2 6331   2.447   0.471  14.158 -1.1140 -0.0922  0.6100
  421TMC3    C3 6332   2.578   0.506  14.127 -0.1511 -0.5699 -0.1785
  421TMC3    C4 6333   2.470   0.264  14.025  0.6250  0.0104 -0.3088
  421TMC3    C5 6334   2.598   0.308  13.993  0.1478  0.2758  0.1089
  421TMC3    C6 6335   2.652   0.425  14.045 -0.1352 -0.1806  0.6642
  421TMC3     C 6336   2.252   0.324  14.132 -0.0608 -0.0314  0.6532
  421TMC3     O 6337   2.181   0.407  14.186 -0.4929  0.3513  0.3239
  421TMC3     H 6338   2.378   0.538  14.207 -1.0484 -0.5267  1.3018
  421TMC3    H1 6339   2.430   0.168  13.996 -0.5025  0.3318  0.2030
  421TMC3    H2 6340   2.754   0.460  14.033 -0.1494 -0.8000 -1.4184
  421TMC3    C7 6341   2.707   0.213  13.983 -0.2335  0.0204  0.2281
  421TMC3    C8 6342   2.650   0.601  14.210  0.0820 -0.2917 -0.1091
  421TMC3    O1 6343   2.824   0.254  13.976 -0.1620 -0.0729  0.4658
  421TMC3    O2 6344   2.768   0.613  14.193  0.5335 -0.1647  0.1487
  422TMC3    C1 6345   4.494   1.420  12.301  0.2855  0.6396 -0.1118
  422TMC3    C2 6346   4.491   1.405  12.437 -0.1748 -0.1984  0.4680
  422TMC3    C3 6347   4.393   1.332  12.492 -0.1726  0.3404 -0.4005
  422TMC3    C4 6348   4.388   1.382  12.227 -0.1671 -0.4868 -0.3866
  422TMC3    C5 6349   4.278   1.328  12.290  0.7956 -0.5730  0.7864
  422TMC3    C6 6350   4.286   1.297  12.425  0.5340 -0.6316 -0.4180
  422TMC3     C 6351   4.628   1.407  12.243 -0.2907 -0.2520 -0.0605
  422TMC3     O 6352   4.727   1.382  12.315  0.6442 -0.3180  0.3274
  422TMC3     H 6353   4.579   1.424  12.497  0.6602  0.7214 -1.0842
  422TMC3    H1 6354   4.386   1.396  12.119  1.1612  0.7692 -0.2530
  422TMC3    H2 6355   4.199   1.247  12.464 -0.3466  0.3746 -1.0868
  422TMC3    C7 6356   4.158   1.389  12.238  0.3516  0.6070  0.2752
  422TMC3    C8 6357   4.380   1.332  12.640 -0.0012 -0.8024 -0.1553
  422TMC3    O1 6358   4.172   1.482  12.161 -0.1441 -0.0873 -0.5504
  422TMC3    O2 6359   4.422   1.431  12.699 -0.0017  0.3366 -0.2407
  423MPD2     C 6360   0.992   2.236   0.658  0.0718 -0.2866  0.0924
  423MPD2    C1 6361   1.123   2.220   0.689  0.1134 -0.3516  0.5073
  423MPD2    C2 6362   1.211   2.187   0.587  0.3409  0.4712 -0.2135
  423MPD2    C3 6363   1.164   2.158   0.461  0.6384  0.3943  0.3404
  423MPD2    C4 6364   1.033   2.168   0.433  0.0743  0.3962 -0.0913
  423MPD2    C5 6365   0.954   2.203   0.532  0.2784 -0.4516 -0.3028
  423MPD2     H 6366   1.316   2.180   0.613 -0.0293 -2.8934  0.4751
  423MPD2    H1 6367   0.981   2.150   0.340 -0.7267  1.0692  0.2338
  423MPD2    H2 6368   0.913   2.240   0.732 -0.9591 -0.9154 -0.9800
  423MPD2    H3 6369   0.849   2.202   0.505 -0.3203  1.6802  1.9400
  423MPD2     N 6370   1.241   2.107   0.351 -0.0127 -0.0942  0.2270
  423MPD2    H5 6371   1.197   2.052   0.277  1.4418  0.9638 -1.4055
  423MPD2    N1 6372   1.174   2.235   0.824 -0.0229  0.2536  0.4359
  423MPD2    H7 6373   1.270   2.208   0.845 -0.6115 -0.5454  2.0368
  424TMC3    C1 6374   1.157   2.250   1.059 -0.2079  0.2074 -0.2390
  424TMC3    C2 6375   1.290   2.213   1.071 -0.5160  0.0245  0.0788
  424TMC3    C3 6376   1.330   2.173   1.192  0.4240  0.2415 -0.2271
  424TMC3    C4 6377   1.064   2.237   1.162 -0.5672 -0.1704 -0.1734
  424TMC3    C5 6378   1.116   2.205   1.282 -0.0593 -0.3064  0.2297
  424TMC3    C6 6379   1.243   2.158   1.293 -0.1813 -0.6515  0.8963
  424TMC3     C 6380   1.095   2.282   0.928 -0.1870 -0.4865 -0.0111
  424TMC3     O 6381   0.982   2.328   0.932  0.1391  0.3043  0.3602
  424TMC3     H 6382   1.364   2.234   0.995  0.4400 -0.8920  0.7680
  424TMC3    H1 6383   0.959   2.233   1.139 -0.3053 -0.3123 -1.3384
  424TMC3    H2 6384   1.278   2.112   1.386  0.3987 -1.2414  0.3865
  424TMC3    C7 6385   1.014   2.167   1.381  0.0062  0.1273  0.1081
  424TMC3    C8 6386   1.465   2.128   1.208  0.2923  0.0032 -0.0665
  424TMC3    O1 6387   1.035   2.068   1.447 -0.2590  0.3027 -0.6791
  424TMC3    O2 6388   1.477   2.025   1.272 -0.0283 -0.3524  0.0861
  425MPD2     C 6389   0.445   1.449  17.522 -0.4603 -0.3566  0.2992
  425MPD2    C1 6390   0.400   1.363  17.621  0.0993 -0.1499  0.3985
  425MPD2    C2 6391   0.312   1.407  17.717  0.2042  0.3003  0.1774
  425MPD2    C3 6392   0.267   1.538  17.718  0.1263  0.5519 -0.1808
  425MPD2    C4 6393   0.328   1.624  17.634 -0.4719 -0.4986  0.7602
  425MPD2    C5 6394   0.413   1.579  17.537 -0.3051 -0.8495 -0.1419
  425MPD2     H 6395   0.273   1.343   0.056  1.4289 -1.2497 -0.4787
  425MPD2    H1 6396   0.300   1.729  17.635 -2.0096 -0.9754  4.3446
  425MPD2    H2 6397   0.510   1.432  17.437 -1.7662  1.0669 -0.9922
  425MPD2    H3 6398   0.446   1.651  17.463 -0.8999 -0.9855 -0.5466
  425MPD2     N 6399   0.178   1.574   0.085 -0.1316 -0.0379 -0.7433
  425MPD2    H5 6400   0.151   1.502   0.151  1.7620 -0.2318 -0.1681
  425MPD2    N1 6401   0.443   1.228  17.612 -0.7125  0.4679  0.5910
  425MPD2    H7 6402   0.486   1.198  17.525 -0.5651 -1.8431  1.4561
  426TMC3    C1 6403   0.493   1.012  17.679 -0.0665 -0.1847 -0.0812
  426TMC3    C2 6404   0.493   0.969  17.550  0.0269  0.0417  0.0966
  426TMC3    C3 6405   0.574   0.861  17.512  0.4002 -0.0192 -0.2033
  426TMC3    C4 6406   0.554   0.939   0.034  0.3782  0.3265 -0.4539
  426TMC3    C5 6407   0.630   0.830  17.738 -1.1025 -0.7013 -0.4659
  426TMC3    C6 6408   0.651   0.796  17.606 -0.1569  0.3399 -0.0829
  426TMC3     C 6409   0.418   1.132  17.711 -0.3373  0.0238 -0.0719
  426TMC3     O 6410   0.366   1.136   0.082 -0.0857  0.0700  0.1080
  426TMC3     H 6411   0.426   1.026  17.486 -0.5245 -0.4867  0.2064
  426TMC3    H1 6412   0.535   0.964   0.138 -1.3253  0.3992 -0.7944
  426TMC3    H2 6413   0.721   0.718  17.577 -1.6170 -2.1573  3.1260
  426TMC3    C7 6414   0.646   0.716   0.094 -0.4090  0.0007  0.4594
  426TMC3    C8 6415   0.577   0.816  17.367 -0.4690  0.4561 -0.7712
  426TMC3    O1 6416   0.726   0.629   0.059 -0.5429 -0.2471 -1.0968
  426TMC3    O2 6417   0.634   0.714  17.338  0.1520 -0.1188  0.0387
  427MPD2     C 6418   3.849   3.576  14.676  0.1843 -0.2460  0.1250
  427MPD2    C1 6419   3.828   3.553  14.810 -0.1408 -0.2491 -0.3905
  427MPD2    C2 6420   3.693   3.574  14.861 -0.0674  0.2435 -0.2586
  427MPD2    C3 6421   3.589   3.603  14.774  0.0502  0.6808  0.3771
  427MPD2    C4 6422   3.625   3.622  14.644  0.4256  0.2454 -0.3175
  427MPD2    C5 6423   3.750   3.611  14.593 -0.1629  0.0148  0.7469
  427MPD2     H 6424   3.677   3.550  14.965  2.0285  0.8487  0.2074
  427MPD2    H1 6425   3.547   3.651  14.575 -0.8522 -0.7627  0.7097
  427MPD2    H2 6426   3.950   3.563  14.638 -0.3004  0.2998 -1.3608
  427MPD2    H3 6427   3.754   3.620  14.485  3.0464  0.6627  0.9165
  427MPD2     N 6428   3.452   3.614  14.806 -0.1698 -0.5568  0.4236
  427MPD2    H5 6429   3.384   3.630  14.733 -1.6025 -1.9575  1.4692
  427MPD2    N1 6430   3.925   3.498  14.895  0.1736  0.4809  0.2441
  427MPD2    H7 6431   3.899   3.462  14.986  4.0943 -0.5025  1.0018
  428TMC3    C1 6432   4.132   3.426  14.979 -0.5476 -0.2289  0.2218
  428TMC3    C2 6433   4.070   3.316  15.038  0.7143  0.2427 -0.6823
  428TMC3    C3 6434   4.141   3.243  15.126 -0.6223  0.2300 -0.0788
  428TMC3    C4 6435   4.256   3.474  15.006  0.0259 -0.1760  1.0175
  428TMC3    C5 6436   4.321   3.394  15.094  0.3506  0.1246  0.2093
  428TMC3    C6 6437   4.267   3.280  15.155 -0.5534  0.1125 -0.3072
  428TMC3     C 6438   4.063   3.484  14.864 -0.2151 -0.4408  0.2483
  428TMC3     O 6439   4.130   3.537  14.774  0.0028  0.2106  0.1920
  428TMC3     H 6440   3.974   3.279  15.003  0.2750 -1.4693  2.3440
  428TMC3    H1 6441   4.287   3.569  14.963  2.0913 -1.5792 -0.5551
  428TMC3    H2 6442   4.321   3.226  15.232 -0.1625  0.1818 -0.5354
  428TMC3    C7 6443   4.435   3.457  15.158 -0.0735  0.4616  0.1324
  428TMC3    C8 6444   4.075   3.156  15.215  0.3025  0.2792 -0.2259
  428TMC3    O1 6445   4.445   3.426  15.277  0.6169 -0.5011 -0.1937
  428TMC3    O2 6446   4.138   3.065  15.271 -0.0107  0.6046  0.1802
  429MPD2     C 6447   0.128   3.798  17.707 -0.7320  0.4314 -0.2667
  429MPD2    C1 6448   0.219   3.702  17.685  0.1780 -0.2061  0.1797
  429MPD2    C2 6449   0.330   3.726  17.602  0.5912 -0.2691  0.9050
  429MPD2    C3 6450   0.344   3.849  17.539  0.2479  1.0264  0.4082
  429MPD2    C4 6451   0.239   3.940  17.547 -0.0710  0.3290  0.0634
  429MPD2    C5 6452   0.131   3.910  17.623 -0.1811 -0.7936  0.2229
  429MPD2     H 6453   0.413   3.658  17.591 -0.5139 -1.0389 -2.8003
  429MPD2    H1 6454   0.244   4.040  17.504  0.9203 -0.3046 -1.3026
  429MPD2    H2 6455   0.053   3.786   0.045 -1.3843 -0.9229 -1.1120
  429MPD2    H3 6456   0.055   3.987  17.628  0.6750  0.1361 -0.8774
  429MPD2     N 6457   0.465   3.874  17.466  0.3587  0.4075  0.0523
  429MPD2    H5 6458   0.544   3.811  17.478 -1.5667 -2.0749 -0.2023
  429MPD2    N1 6459   0.219   3.572   0.007  0.5069 -0.0846 -0.2552
  429MPD2    H7 6460   0.293   3.510  17.713  2.2985  2.3549 -0.7914
  430TMC3    C1 6461   0.597   3.984  17.297 -0.4409  0.4096 -0.0915
  430TMC3    C2 6462   0.621   4.099  17.218 -0.3931  0.2910 -0.0557
  430TMC3    C3 6463   0.699   4.086  17.105 -0.0479 -0.2821  0.3064
  430TMC3    C4 6464   0.638   3.860  17.252  0.1482 -0.1474 -0.2023
  430TMC3    C5 6465   0.707   3.855  17.133  0.1653  0.6285  0.0051
  430TMC3    C6 6466   0.759   3.966  17.071 -0.3191 -0.6137  0.2532
  430TMC3     C 6467   0.486   3.987  17.385  0.0532 -0.6060 -0.2806
  430TMC3     O 6468   0.408   4.081  17.365 -0.5357 -0.1275  0.5762
  430TMC3     H 6469   0.555   4.183  17.238  2.6659  2.6519  0.2048
  430TMC3    H1 6470   0.601   3.764  17.285  2.3390 -0.8672  0.1736
  430TMC3    H2 6471   0.828   3.954  16.989  0.3979  0.0302  0.7567
  430TMC3    C7 6472   0.735   3.726  17.071  0.3771  0.6717  0.4326
  430TMC3    C8 6473   0.668   4.169  16.989  0.6373  1.0108 -0.1065
  430TMC3    O1 6474   0.745   3.626  17.146 -0.1247  0.2909  0.3262
  430TMC3    O2 6475   0.665   4.115  16.881 -0.4265  0.1104  0.1465
  431MPD2     C 6476   0.868   3.709  12.876  0.2710 -0.8169  0.3088
  431MPD2    C1 6477   0.924   3.710  12.747  0.2201 -0.2855  0.6262
  431MPD2    C2 6478   0.859   3.636  12.649  0.6356 -0.2295 -0.0304
  431MPD2    C3 6479   0.740   3.564  12.669 -0.1424  0.9191  0.1096
  431MPD2    C4 6480   0.698   3.559  12.804 -0.8982  0.0128  0.9160
  431MPD2    C5 6481   0.760   3.636  12.906  0.3461  0.1350  0.1487
  431MPD2     H 6482   0.900   3.643  12.549 -0.2727 -1.6990 -0.5029
  431MPD2    H1 6483   0.602   3.514  12.830 -1.6687  0.1508 -1.6378
  431MPD2    H2 6484   0.919   3.762  12.955 -0.1063  0.3548 -0.2343
  431MPD2    H3 6485   0.725   3.636  13.009 -2.3498 -0.0556 -0.7798
  431MPD2     N 6486   0.660   3.496  12.569  0.2433 -0.5819  0.5020
  431MPD2    H5 6487   0.576   3.446  12.596 -1.2240  2.2119  1.2091
  431MPD2    N1 6488   1.027   3.789  12.702 -1.1462  0.5777  0.1923
  431MPD2    H7 6489   1.063   3.767  12.610  1.1989 -1.7744  1.6555
  432TMC3    C1 6490   0.579   3.468  12.346 -0.3055  0.5233 -0.0122
  432TMC3    C2 6491   0.589   3.523  12.223  0.0292  0.1690 -0.0829
  432TMC3    C3 6492   0.519   3.479  12.113  0.4867  0.3401  0.0723
  432TMC3    C4 6493   0.499   3.359  12.370  0.1785  0.0305  0.3035
  432TMC3    C5 6494   0.438   3.306  12.258 -0.2598  0.7859  0.7847
  432TMC3    C6 6495   0.454   3.364  12.137 -0.0022  0.2895 -0.4349
  432TMC3     C 6496   0.687   3.508  12.441 -0.1174 -0.6043  0.1952
  432TMC3     O 6497   0.785   3.557  12.384 -0.4198 -0.0039  0.1107
  432TMC3     H 6498   0.653   3.609  12.204 -0.4617  0.3343 -0.9919
  432TMC3    H1 6499   0.498   3.320  12.471 -3.9108  0.5683  0.4582
  432TMC3    H2 6500   0.404   3.306  12.059  1.7096 -2.0296  0.2007
  432TMC3    C7 6501   0.411   3.161  12.265 -0.0811  0.3130 -0.1233
  432TMC3    C8 6502   0.585   3.493  11.989  0.4980  0.6492  0.0592
  432TMC3    O1 6503   0.449   3.092  12.175 -1.0641 -0.0796  0.2606
  432TMC3    O2 6504   0.537   3.573  11.906  0.0838 -0.3791  0.1558
  433MPD2     C 6505   4.516   1.903  10.938 -0.3106  0.4107 -0.2720
  433MPD2    C1 6506   4.638   1.840  10.957  0.5999 -0.4787  0.2403
  433MPD2    C2 6507   4.718   1.901  11.058 -0.7185 -0.8795  0.2932
  433MPD2    C3 6508   4.683   2.017  11.121 -0.3887 -0.7411 -0.6181
  433MPD2    C4 6509   4.567   2.079  11.088  0.2593 -0.8148 -0.4125
  433MPD2    C5 6510   4.487   2.022  10.995  0.1645  0.1769  0.0638
  433MPD2     H 6511   0.081   1.857  11.076  0.2103  1.4692  0.9594
  433MPD2    H1 6512   4.536   2.169  11.139  2.7498 -0.6408  0.7854
  433MPD2    H2 6513   4.438   1.860  10.875  0.2698  1.7415 -1.9084
  433MPD2    H3 6514   4.398   2.081  10.974  0.8866  1.0300 -0.6226
  433MPD2     N 6515   0.035   2.048  11.229  0.1851  0.0997  0.7526
  433MPD2    H5 6516   0.118   1.991  11.238  0.8967  1.0277  0.1295
  433MPD2    N1 6517   4.679   1.717  10.895  0.1644  0.4334  0.7523
  433MPD2    H7 6518   4.613   1.660  10.843  1.9411 -0.5472 -0.4127
  434TMC3    C1 6519   0.096   1.543  10.852  0.1290 -0.2912 -0.5846
  434TMC3    C2 6520   0.220   1.494  10.877  0.2420  0.1069 -0.2273
  434TMC3    C3 6521   0.237   1.361  10.878 -1.0332  0.3410 -0.2109
  434TMC3    C4 6522   4.721   1.455  10.832  0.3059  1.1524  0.5226
  434TMC3    C5 6523   0.017   1.324  10.834 -0.1681  0.1235  0.3365
  434TMC3    C6 6524   0.137   1.270  10.857 -0.3286 -0.2128  0.1658
  434TMC3     C 6525   0.074   1.685  10.886  0.2037  0.6725  1.1882
  434TMC3     O 6526   0.176   1.754  10.896 -0.2174  0.2109 -0.3307
  434TMC3     H 6527   0.307   1.556  10.895  0.7242 -0.2619 -1.2691
  434TMC3    H1 6528   4.618   1.487  10.823 -0.7039 -1.8480  1.5255
  434TMC3    H2 6529   0.151   1.163  10.868 -4.4196 -0.5296  2.3681
  434TMC3    C7 6530   4.644   1.238  10.803 -0.2524  0.3087 -0.4813
  434TMC3    C8 6531   0.365   1.315  10.935 -0.4534  0.2342  0.6379
  434TMC3    O1 6532   4.554   1.282  10.730  0.1585  0.8794 -0.0220
  434TMC3    O2 6533   0.452   1.397  10.960 -0.7165 -0.8425 -0.6061
  435MPD2     C 6534   1.836   1.937  15.409 -0.0727  0.3657  0.1998
  435MPD2    C1 6535   1.824   2.019  15.523  0.9889  0.0142  0.9287
  435MPD2    C2 6536   1.932   2.046  15.604 -0.4785  0.1147  0.7742
  435MPD2    C3 6537   2.055   2.003  15.569  0.2782  0.2867 -0.3924
  435MPD2    C4 6538   2.074   1.921  15.458  0.5860  0.5987 -0.5464
  435MPD2    C5 6539   1.962   1.888  15.384 -0.2858  0.4547  0.0570
  435MPD2     H 6540   1.919   2.106  15.693 -1.5662  0.5525  0.3149
  435MPD2    H1 6541   2.162   1.866  15.429 -0.5400 -1.3021 -0.3905
  435MPD2    H2 6542   1.757   1.898  15.346 -2.5654  0.6055  3.2145
  435MPD2    H3 6543   1.983   1.813  15.309 -1.2744  0.8203 -0.5802
  435MPD2     N 6544   2.158   2.034  15.657  0.0310 -0.1951  0.2443
  435MPD2    H5 6545   2.150   2.104  15.730  0.0396 -0.0263  0.0835
  435MPD2    N1 6546   1.697   2.062  15.572 -0.0416 -0.2760  0.9664
  435MPD2    H7 6547   1.702   2.107  15.662 -2.2977 -1.4394  1.6600
  436TMC3    C1 6548   1.376   2.101  15.852  0.3575  0.3853 -0.3892
  436TMC3    C2 6549   1.486   2.086  15.764 -0.0240  0.4636 -0.4269
  436TMC3    C3 6550   1.466   2.075  15.630 -0.1583  0.2057 -0.6307
  436TMC3    C4 6551   1.249   2.081  15.803 -0.3886 -0.3964 -0.2998
  436TMC3    C5 6552   1.236   2.061  15.666 -0.2524 -0.1417  0.7651
  436TMC3    C6 6553   1.338   2.069  15.573 -0.5312  0.1993 -0.6405
  436TMC3     C 6554   1.394   2.113  15.999  0.0739  0.4479  0.2324
  436TMC3     O 6555   1.506   2.094  16.044  0.0710  0.4430  0.3408
  436TMC3     H 6556   1.585   2.082  15.807 -0.1325 -0.1328 -0.2308
  436TMC3    H1 6557   1.164   2.067  15.870  0.7242 -0.5858  1.0908
  436TMC3    H2 6558   1.325   2.074  15.466 -0.0636 -0.8711 -0.7497
  436TMC3    C7 6559   1.107   2.057  15.603  0.0839  0.4788 -0.8956
  436TMC3    C8 6560   1.574   2.013  15.546 -0.4105 -0.6017  0.2402
  436TMC3    O1 6561   1.092   1.994  15.502  0.6217 -0.8586  0.4504
  436TMC3    O2 6562   1.533   1.945  15.451  0.0733 -1.1440 -0.0219
  437TMC3    C1 6563   0.583   3.971  12.643  0.9200 -0.2154 -0.0080
  437TMC3    C2 6564   0.475   3.932  12.568 -0.6111  0.2128 -0.7629
  437TMC3    C3 6565   0.505   3.881  12.444  0.1758  0.6244  0.4314
  437TMC3    C4 6566   0.706   3.984  12.591 -0.5427  0.6334 -0.2892
  437TMC3    C5 6567   0.722   3.942  12.462  0.1575 -0.4901  0.2139
  437TMC3    C6 6568   0.627   3.889  12.384  0.3320  0.3593  0.7736
  437TMC3     C 6569   0.568   3.976  12.790 -0.6263  0.2455  0.1570
  437TMC3     O 6570   0.447   3.990  12.821  0.1903 -0.8461  0.2262
  437TMC3     H 6571   0.377   3.918  12.612 -0.2359  0.6716  0.2051
  437TMC3    H1 6572   0.783   4.032  12.650  0.6668 -2.2010  0.3993
  437TMC3    H2 6573   0.656   3.851  12.287 -2.1666  2.4646 -0.7992
  437TMC3    C7 6574   0.840   3.999  12.385 -0.3597  0.3604 -1.0762
  437TMC3    C8 6575   0.399   3.786  12.397  0.5511 -0.1303  0.1415
  437TMC3    O1 6576   0.870   3.937  12.286  0.1091 -0.1096  0.6887
  437TMC3    O2 6577   0.347   3.724  12.486  0.3530  0.1325 -0.2713
  438MPD2     C 6578   3.143   0.666  16.692 -0.0871 -0.2723  0.5133
  438MPD2    C1 6579   3.169   0.562  16.779  0.5141 -0.4143 -0.3925
  438MPD2    C2 6580   3.162   0.590  16.915 -0.2519  0.0742 -0.4297
  438MPD2    C3 6581   3.134   0.717  16.959 -0.0645  1.2369  0.4977
  438MPD2    C4 6582   3.102   0.817  16.872 -0.2879  0.4922 -0.4504
  438MPD2    C5 6583   3.108   0.783  16.738 -0.3142  0.8444 -0.4100
  438MPD2     H 6584   3.158   0.506  16.984  1.2794 -0.9246 -1.5497
  438MPD2    H1 6585   3.079   0.918  16.903 -1.9610  0.3086 -1.0896
  438MPD2    H2 6586   3.140   0.651  16.585  1.7601 -0.6913  0.5161
  438MPD2    H3 6587   3.075   0.865  16.676  3.0855  1.6987 -1.0592
  438MPD2     N 6588   3.115   0.748  17.094  0.7623  0.6063  0.4258
  438MPD2    H5 6589   3.082   0.842  17.114  1.0155  0.5927  0.8850
  438MPD2    N1 6590   3.204   0.434  16.741  0.2392 -0.3449  0.1239
  438MPD2    H7 6591   3.229   0.370  16.816  1.8045  0.3327  0.1745
  439TMC3    C1 6592   3.235   0.242  16.600  0.1680  0.3737 -0.4736
  439TMC3    C2 6593   3.177   0.171  16.500 -0.0897  0.7013 -0.1458
  439TMC3    C3 6594   3.214   0.034  16.488 -0.2489  0.0047 -0.4172
  439TMC3    C4 6595   3.338   0.195  16.673  0.0380  0.2603  0.0999
  439TMC3    C5 6596   3.382   0.074  16.646  0.7563 -0.4388 -0.2469
  439TMC3    C6 6597   3.314   4.719  16.564  0.5624 -1.2271 -0.1474
  439TMC3     C 6598   3.196   0.382  16.610 -0.8383  0.2228  0.6211
  439TMC3     O 6599   3.143   0.433  16.508 -0.1363  0.1830  0.3253
  439TMC3     H 6600   3.110   0.214  16.426  1.1065  2.0540 -0.4370
  439TMC3    H1 6601   3.401   0.255  16.736  1.7596 -2.6220  1.1436
  439TMC3    H2 6602   3.343   4.616  16.549  3.8443 -0.2754 -0.3241
  439TMC3    C7 6603   3.469   0.012  16.736 -0.4676 -0.7368  0.5661
  439TMC3    C8 6604   3.222   4.710  16.355 -0.2443 -0.5297  0.0572
  439TMC3    O1 6605   3.468   0.053  16.851  0.2750  0.2096 -0.1572
  439TMC3    O2 6606   3.226   4.588  16.349  0.7186 -0.5175  0.2968
  440MPD2     C 6607   1.097   0.539  15.674  0.5356 -0.6188 -0.4398
  440MPD2    C1 6608   1.190   0.606  15.744 -0.9694 -0.3216  0.0844
  440MPD2    C2 6609   1.288   0.540  15.808 -0.2535 -0.1559  0.4411
  440MPD2    C3 6610   1.290   0.399  15.801  0.5752 -0.8203  0.1179
  440MPD2    C4 6611   1.196   0.329  15.725 -0.2155  0.4201 -0.3787
  440MPD2    C5 6612   1.097   0.403  15.666  0.4812 -0.4233  0.1358
  440MPD2     H 6613   1.350   0.598  15.876  2.3726 -3.2444  0.6888
  440MPD2    H1 6614   1.205   0.221  15.728 -2.4062  0.2718  0.6989
  440MPD2    H2 6615   1.017   0.590  15.622  1.6042  0.2647 -1.2165
  440MPD2    H3 6616   1.019   0.353  15.609 -1.1306 -0.4042  2.3219
  440MPD2     N 6617   1.382   0.324  15.878  0.0551  0.0228  0.2144
  440MPD2    H5 6618   1.376   0.223  15.886 -0.5380 -0.0705 -1.4901
  440MPD2    N1 6619   1.177   0.739  15.770 -0.1698 -0.1895 -0.3650
  440MPD2    H7 6620   1.265   0.778  15.799 -0.7731  0.3030  0.7894
  441TMC3    C1 6621   1.554   0.260  16.018 -0.0606 -1.0367 -0.4898
  441TMC3    C2 6622   1.685   0.256  15.990 -0.3115 -0.1459 -0.2525
  441TMC3    C3 6623   1.768   0.168  16.058 -0.0513 -0.7480  0.7143
  441TMC3    C4 6624   1.499   0.180  16.112  0.1565 -0.5260 -0.5299
  441TMC3    C5 6625   1.581   0.082  16.164 -0.3178 -0.5047  0.0180
  441TMC3    C6 6626   1.716   0.076  16.140 -0.1359  0.3681  0.1749
  441TMC3     C 6627   1.485   0.367  15.953  0.2536  0.1047 -0.1947
  441TMC3     O 6628   1.528   0.480  15.965  0.1430 -0.3002  1.2761
  441TMC3     H 6629   1.714   0.315  15.904  0.0422 -0.7281 -0.5345
  441TMC3    H1 6630   1.397   0.196  16.146  0.6696 -0.1907  0.8761
  441TMC3    H2 6631   1.782   4.732  16.175 -1.5774  0.2955  2.6992
  441TMC3    C7 6632   1.535   0.027  16.289  0.1505  0.0135  0.4018
  441TMC3    C8 6633   1.910   0.175  16.041  0.9210 -0.0328 -0.1578
  441TMC3    O1 6634   1.436   0.083  16.335  0.3196  0.7362  0.0280
  441TMC3    O2 6635   1.980   0.074  16.061  0.3700 -0.6108  0.1364
  442MPD2     C 6636   0.657   0.820  16.748  0.5637 -0.1543 -0.4044
  442MPD2    C1 6637   0.543   0.872  16.697 -0.1377 -0.2082  0.1889
  442MPD2    C2 6638   0.457   0.793  16.624  0.4025 -0.2303 -0.3662
  442MPD2    C3 6639   0.476   0.658  16.613 -0.4751 -0.0125 -0.0605
  442MPD2    C4 6640   0.595   0.614  16.655  0.2422 -0.4749  0.0600
  442MPD2    C5 6641   0.686   0.687  16.734  0.0987  0.5538 -0.1376
  442MPD2     H 6642   0.359   0.831  16.597  1.0823 -1.5339 -4.6273
  442MPD2    H1 6643   0.620   0.512  16.626 -0.7734 -0.9087  0.6968
  442MPD2    H2 6644   0.728   0.878  16.804  1.6976  0.6401 -2.6675
  442MPD2    H3 6645   0.778   0.648  16.776 -0.0774  2.1968  1.7821
  442MPD2     N 6646   0.386   0.556  16.569  0.2183  0.3675 -0.1120
  442MPD2    H5 6647   0.422   0.461  16.558  2.6748  1.3657 -0.7633
  442MPD2    N1 6648   0.504   1.010  16.707 -0.1314  0.2843  0.2710
  442MPD2    H7 6649   0.412   1.032  16.671 -0.1709 -0.5125 -0.1162
  443TMC3    C1 6650   0.495   1.239  16.793  0.1895  0.2142  0.0587
  443TMC3    C2 6651   0.414   1.275  16.684 -0.3295  0.7560  0.2464
  443TMC3    C3 6652   0.301   1.350  16.721 -0.3948  0.3429 -0.2506
  443TMC3    C4 6653   0.472   1.293  16.920  0.4621 -0.3652 -0.2976
  443TMC3    C5 6654   0.354   1.359  16.946  0.7316  0.1889  1.0002
  443TMC3    C6 6655   0.266   1.391  16.843  0.1040 -0.2267 -0.0359
  443TMC3     C 6656   0.568   1.110  16.779  0.2854 -0.1912 -0.7052
  443TMC3     O 6657   0.680   1.108  16.829 -0.2893  0.4138 -0.3590
  443TMC3     H 6658   0.438   1.232  16.587  1.4431  0.4686  0.8181
  443TMC3    H1 6659   0.533   1.264  17.006  1.6284  3.0482  0.0213
  443TMC3    H2 6660   0.176   1.450  16.859  1.0686  1.1985  0.2056
  443TMC3    C7 6661   0.306   1.340  17.082 -0.2572  0.1067  0.2336
  443TMC3    C8 6662   0.203   1.345  16.612 -0.7493 -0.1127  0.3227
  443TMC3    O1 6663   0.388   1.369  17.169 -0.3735  0.7487 -0.8983
  443TMC3    O2 6664   0.249   1.338  16.502  0.6890  0.3512 -0.3977
  444MPD2     C 6665   0.074   0.758  17.449 -0.1048  0.0271 -0.5976
  444MPD2    C1 6666   4.726   0.652  17.449 -0.7109 -0.7807 -0.0131
  444MPD2    C2 6667   0.024   0.542  17.377 -0.1346 -0.0907  0.5536
  444MPD2    C3 6668   0.150   0.529  17.325  0.0343  0.6112 -0.3209
  444MPD2    C4 6669   0.236   0.639  17.334  0.0014 -0.2784 -0.1941
  444MPD2    C5 6670   0.196   0.756  17.391  0.3666 -0.1732 -0.5559
  444MPD2     H 6671   4.690   0.460  17.391 -0.7829  0.5106  0.8680
  444MPD2    H1 6672   0.338   0.647  17.298 -0.4877  0.8470 -1.3405
  444MPD2    H2 6673   0.044   0.849  17.502  0.8632 -0.2575  0.4343
  444MPD2    H3 6674   0.273   0.832  17.404  0.1187 -0.3940  2.0578
  444MPD2     N 6675   0.199   0.405  17.278 -1.4249 -0.3562 -0.7614
  444MPD2    H5 6676   0.135   0.330  17.257  0.2856 -2.0776  0.1930
  444MPD2    N1 6677   4.599   0.649  17.518 -0.7578  0.2838 -1.1768
  444MPD2    H7 6678   4.551   0.559  17.515 -0.8480  0.2666  0.9171
  445TMC3    C1 6679   0.335   0.221  17.282  0.3902 -0.2578  0.1646
  445TMC3    C2 6680   0.244   0.150  17.355  0.3202 -0.2398  0.4077
  445TMC3    C3 6681   0.272   0.021  17.376  0.2850 -0.3087  0.4720
  445TMC3    C4 6682   0.451   0.170  17.225  0.3150  0.3467  0.0228
  445TMC3    C5 6683   0.476   0.041  17.269 -0.9037 -0.4737  0.2808
  445TMC3    C6 6684   0.387   4.696  17.338  0.4450 -0.4639 -0.4502
  445TMC3     C 6685   0.326   0.363  17.269 -0.4385  1.0331  0.0427
  445TMC3     O 6686   0.428   0.431  17.291  0.2764  0.0583  0.5753
  445TMC3     H 6687   0.157   0.198  17.398  1.7038  0.9785  1.8095
  445TMC3    H1 6688   0.521   0.232  17.169  0.2821  0.1701 -0.2139
  445TMC3    H2 6689   0.403   4.600  17.385 -1.1931 -0.2637  0.5316
  445TMC3    C7 6690   0.606   4.723  17.224  0.5498  0.3536  0.1991
  445TMC3    C8 6691   0.151   4.673  17.414  0.0534 -0.0153 -0.4473
  445TMC3    O1 6692   0.632   0.020  17.109 -0.3974  0.3520 -0.8415
  445TMC3    O2 6693   0.057   0.007  17.448  0.3588  0.5652 -0.2969
  446MPD2     C 6694   4.622   1.110  11.250 -0.0037  0.1831  0.1617
  446MPD2    C1 6695   4.604   1.230  11.182 -0.7133 -0.0436 -0.3275
  446MPD2    C2 6696   4.704   1.324  11.178  0.8744 -1.2359  0.4759
  446MPD2    C3 6697   0.093   1.302  11.244 -0.9527  0.2448 -0.5782
  446MPD2    C4 6698   0.120   1.173  11.289  0.0743  0.1553 -0.1244
  446MPD2    C5 6699   0.011   1.089  11.305  0.3530 -0.7656  0.7250
  446MPD2     H 6700   4.679   1.414  11.124 -1.6563 -1.0160  2.0334
  446MPD2    H1 6701   0.218   1.140  11.323 -0.0574  0.2014  0.3002
  446MPD2    H2 6702   4.551   1.028  11.246  0.2169  0.0395 -0.8339
  446MPD2    H3 6703   0.041   0.997  11.355  1.1197 -0.6933  0.3894
  446MPD2     N 6704   0.191   1.401  11.231  0.1153 -0.4091 -0.3666
  446MPD2    H5 6705   0.168   1.487  11.182  0.6434  0.8769  1.6254
  446MPD2    N1 6706   4.472   1.262  11.128 -0.5527  0.1136 -0.0414
  446MPD2    H7 6707   4.462   1.360  11.102 -0.9920 -0.0151 -0.3449
  447TMC3    C1 6708   0.402   1.505  11.251  0.1578  0.0866 -0.6004
  447TMC3    C2 6709   0.346   1.624  11.203  0.0470 -0.1321  0.4946
  447TMC3    C3 6710   0.441   1.719  11.161  0.8247 -0.1996 -0.0579
  447TMC3    C4 6711   0.533   1.479  11.253 -0.3684 -0.1336  0.5669
  447TMC3    C5 6712   0.621   1.562  11.195 -0.0039 -0.0115  0.0152
  447TMC3    C6 6713   0.577   1.681  11.157  0.3184 -0.0404  0.1013
  447TMC3     C 6714   0.317   1.396  11.284 -0.0731  0.2453 -0.7687
  447TMC3     O 6715   0.364   1.308  11.358  0.3947  0.5166 -0.4496
  447TMC3     H 6716   0.242   1.653  11.199  0.5798  1.6574 -0.6481
  447TMC3    H1 6717   0.575   1.394  11.306  1.7396  1.0177  0.7379
  447TMC3    H2 6718   0.651   1.761  11.152  0.1591  0.0567 -0.7256
  447TMC3    C7 6719   0.760   1.522  11.184 -0.0784 -0.1512 -0.0691
  447TMC3    C8 6720   0.400   1.857  11.123  0.2918  0.0197  0.1328
  447TMC3    O1 6721   0.781   1.406  11.204 -0.2212 -0.1866  0.5842
  447TMC3    O2 6722   0.294   1.903  11.162 -0.3405  1.0095 -0.2215
  448TMC3    C1 6723   4.293   1.674  17.688 -0.0251  0.7457  0.7746
  448TMC3    C2 6724   4.285   1.548  17.629  0.4599  0.3447 -0.5280
  448TMC3    C3 6725   4.214   1.444  17.682  0.2940  0.2470  0.0673
  448TMC3    C4 6726   4.241   1.681   0.072 -0.7912 -0.1804  0.2453
  448TMC3    C5 6727   4.161   1.582   0.116  0.3972  0.6430 -0.0659
  448TMC3    C6 6728   4.149   1.457   0.065 -0.9008  0.8109  0.0806
  448TMC3     C 6729   4.405   1.763  17.652 -0.7406  0.3743  0.1168
  448TMC3     O 6730   4.496   1.711  17.585 -0.1282 -0.0006 -0.1377
  448TMC3     H 6731   4.335   1.533  17.534 -0.4403 -0.2681 -0.8975
  448TMC3    H1 6732   4.246   1.772   0.131 -1.0827  0.5240 -0.8212
  448TMC3    H2 6733   4.089   1.382   0.115 -0.2653 -0.0293 -0.4236
  448TMC3    C7 6734   4.106   1.606   0.246 -0.0901  0.0925  0.6873
  448TMC3    C8 6735   4.160   1.336  17.600  0.2173  0.1574  0.6113
  448TMC3    O1 6736   4.163   1.690   0.317  0.1860 -0.7046 -0.5308
  448TMC3    O2 6737   4.047   1.296  17.643  0.3498  0.7062  0.2385
  449MPD2     C 6738   4.580   4.244  14.328 -0.0684 -0.9321 -0.7525
  449MPD2    C1 6739   4.477   4.268  14.239 -0.3296 -0.0732  0.0196
  449MPD2    C2 6740   4.353   4.297  14.291  0.1023  0.9628  0.0825
  449MPD2    C3 6741   4.321   4.314  14.422  0.8530 -0.1534 -0.2748
  449MPD2    C4 6742   4.423   4.288  14.511  0.1531 -0.0435 -0.0136
  449MPD2    C5 6743   4.555   4.254  14.467 -0.1735  0.9423 -0.4359
  449MPD2     H 6744   4.272   4.313  14.221 -0.9635 -0.4014  1.0017
  449MPD2    H1 6745   4.403   4.291  14.617  0.5047 -0.0242  0.0526
  449MPD2    H2 6746   4.678   4.204  14.304  1.0894  1.7265 -0.5100
  449MPD2    H3 6747   4.636   4.238  14.537  0.4822 -1.6843 -1.7952
  449MPD2     N 6748   4.191   4.348  14.455  0.4462 -0.3022 -1.0432
  449MPD2    H5 6749   4.126   4.337  14.378 -0.4690  2.8790 -0.7170
  449MPD2    N1 6750   4.494   4.252  14.101 -0.7112  0.6862  0.2708
  449MPD2    H7 6751   4.410   4.243  14.046 -0.4618 -0.4914  0.0896
  450TMC3    C1 6752   4.603   4.223  13.895 -0.5346  0.0244 -0.0908
  450TMC3    C2 6753   4.684   4.312  13.838 -0.0861  0.4668 -0.0337
  450TMC3    C3 6754   4.628   4.412  13.757 -0.7021  0.1695  0.6514
  450TMC3    C4 6755   4.468   4.217  13.859 -1.0545  0.4471  0.4677
  450TMC3    C5 6756   4.422   4.320  13.782 -0.1188 -0.0159  0.4228
  450TMC3    C6 6757   4.497   4.416  13.729  0.1811  0.1377  0.3209
  450TMC3     C 6758   4.617   4.238  14.038 -0.5794 -0.6295  0.3285
  450TMC3     O 6759   4.729   4.233  14.089 -0.1848  0.1200  0.2333
  450TMC3     H 6760   0.053   4.306  13.867 -0.3117  1.3737  0.9881
  450TMC3    H1 6761   4.414   4.133  13.900  0.0525 -0.8703 -0.7694
  450TMC3    H2 6762   4.459   4.503  13.677 -0.4848 -0.9794 -1.0434
  450TMC3    C7 6763   4.289   4.349  13.844 -0.0535  0.4270  0.8118
  450TMC3    C8 6764   4.712   4.493  13.665  0.5395 -0.2163 -0.4373
  450TMC3    O1 6765   4.266   4.291  13.950  0.5753  0.2691  0.2873
  450TMC3    O2 6766   4.661   4.527  13.558 -0.4061 -0.1364  0.6095
  451MPD2     C 6767   1.612   4.416   1.591 -0.1523  0.0540 -0.1804
  451MPD2    C1 6768   1.544   4.337   1.506  0.2094 -0.5405 -0.2255
  451MPD2    C2 6769   1.574   4.204   1.505 -0.8099 -0.2075  0.0457
  451MPD2    C3 6770   1.674   4.149   1.578  0.3057 -0.4879 -0.0021
  451MPD2    C4 6771   1.755   4.230   1.655  0.7492 -0.2466  0.1625
  451MPD2    C5 6772   1.721   4.368   1.661 -0.0778 -0.5990 -0.0795
  451MPD2     H 6773   1.505   4.139   1.453 -0.1420 -1.0880  0.2759
  451MPD2    H1 6774   1.851   4.192   1.691  0.3770 -0.4785  0.9085
  451MPD2    H2 6775   1.586   4.521   1.601 -0.3664  0.1181 -1.5063
  451MPD2    H3 6776   1.779   4.438   1.721 -1.8871  0.2355  0.6890
  451MPD2     N 6777   1.694   4.010   1.569 -0.3038 -0.6129 -0.1409
  451MPD2    H5 6778   1.648   3.969   1.488 -0.2622  1.9735 -1.4968
  451MPD2    N1 6779   1.432   4.392   1.431  0.4011  0.6780  0.5053
  451MPD2    H7 6780   1.397   4.484   1.453  0.3779  0.6849  0.4401
  452TMC3    C1 6781   1.722   3.789   1.628 -0.7939 -0.4516  0.0126
  452TMC3    C2 6782   1.587   3.762   1.624  0.1755  0.2564 -0.3011
  452TMC3    C3 6783   1.541   3.677   1.527 -0.9168 -0.5287 -0.0228
  452TMC3    C4 6784   1.805   3.737   1.534  0.0964 -0.2662 -0.1573
  452TMC3    C5 6785   1.754   3.642   1.450 -0.0172 -1.2170 -0.1652
  452TMC3    C6 6786   1.622   3.612   1.439  0.3072  0.3155  0.1796
  452TMC3     C 6787   1.759   3.929   1.656 -0.2308  0.0192 -0.1754
  452TMC3     O 6788   1.802   3.957   1.766 -0.1434  0.0434  0.2693
  452TMC3     H 6789   1.525   3.803   1.703 -1.2206 -1.4368 -0.5289
  452TMC3    H1 6790   1.908   3.770   1.530  0.3198 -0.4708  4.2761
  452TMC3    H2 6791   1.574   3.554   1.361 -0.3232 -0.2575  0.9920
  452TMC3    C7 6792   1.838   3.581   1.343 -0.8731  0.1657  0.5262
  452TMC3    C8 6793   1.401   3.690   1.493  0.3999  0.0942  0.9259
  452TMC3    O1 6794   1.784   3.512   1.254 -0.3454 -0.2743  0.6054
  452TMC3    O2 6795   1.352   3.599   1.427  0.1465  0.5132  0.2036
  453TMC3    C1 6796   2.097   0.564  12.068 -0.1626  0.2832 -0.2040
  453TMC3    C2 6797   2.043   0.436  12.070 -0.0345  0.8521  0.0583
  453TMC3    C3 6798   1.982   0.395  11.952 -0.1054 -0.0193 -0.0293
  453TMC3    C4 6799   2.087   0.636  11.952  0.1399 -0.3707  0.0435
  453TMC3    C5 6800   2.041   0.584  11.830 -0.4918  0.1996 -0.1450
  453TMC3    C6 6801   1.985   0.457  11.828  0.0235 -0.5451  0.2560
  453TMC3     C 6802   2.208   0.589  12.161  0.2534  0.4714  0.2893
  453TMC3     O 6803   2.276   0.691  12.140 -0.2218  0.7542 -0.5398
  453TMC3     H 6804   2.026   0.388  12.166 -0.3382 -1.8453 -1.3403
  453TMC3    H1 6805   2.128   0.735  11.969  1.9297 -0.9001 -1.1811
  453TMC3    H2 6806   1.953   0.412  11.735 -2.3227  0.8601  0.3866
  453TMC3    C7 6807   2.110   0.625  11.705  0.0944  0.1076 -0.0856
  453TMC3    C8 6808   1.904   0.270  11.958  0.2406  0.9177 -0.0834
  453TMC3    O1 6809   2.122   0.542  11.619 -0.4854 -0.4572 -0.0122
  453TMC3    O2 6810   1.816   0.252  11.879 -0.0737 -0.6824  0.0732
  454MPD2     C 6811   0.860   4.346  16.535  0.4243 -0.5533  0.2018
  454MPD2    C1 6812   0.870   4.475  16.495  0.1315 -0.5774 -0.0137
  454MPD2    C2 6813   0.837   4.577  16.576  0.1994 -0.4657 -0.2880
  454MPD2    C3 6814   0.781   4.549  16.700 -0.9651  0.3268 -0.1566
  454MPD2    C4 6815   0.760   4.417  16.733  0.4860  0.0229  0.3182
  454MPD2    C5 6816   0.798   4.319  16.653  0.1335 -0.7312  0.8743
  454MPD2     H 6817   0.853   4.677  16.539  0.1625 -0.5765 -0.5995
  454MPD2    H1 6818   0.700   4.372  16.811  0.3054 -0.9529 -0.3950
  454MPD2    H2 6819   0.879   4.263  16.468 -0.2683 -0.5822  0.0448
  454MPD2    H3 6820   0.766   4.218  16.679 -0.1516 -1.0778 -0.8243
  454MPD2     N 6821   0.718   4.655  16.775 -0.3151 -0.1173  0.7770
  454MPD2    H5 6822   0.666   4.630  16.858 -0.0982  0.4685  1.0896
  454MPD2    N1 6823   0.909   4.512  16.364  0.4521 -0.0244 -0.7337
  454MPD2    H7 6824   0.909   4.614  16.356 -2.2327  0.0758  0.6496
  455TMC3    C1 6825   0.614   0.128  16.812  0.3448  0.6905  0.0549
  455TMC3    C2 6826   0.627   0.263  16.845  0.7799 -1.5133  0.4760
  455TMC3    C3 6827   0.509   0.341  16.867 -0.5742  0.3373 -0.2578
  455TMC3    C4 6828   0.488   0.074  16.810  0.4875 -0.4845  0.1610
  455TMC3    C5 6829   0.373   0.154  16.814  0.0207 -0.4092  0.0112
  455TMC3    C6 6830   0.382   0.289  16.840  0.4529  0.6836  0.2763
  455TMC3     C 6831   0.719   0.051  16.743 -0.1542  0.4667 -0.2631
  455TMC3     O 6832   0.769   0.106  16.646  0.3361  0.6036  0.0636
  455TMC3     H 6833   0.724   0.311  16.845 -0.1734  0.4416  0.3255
  455TMC3    H1 6834   0.480   4.703  16.790 -2.3876 -0.4642  1.2590
  455TMC3    H2 6835   0.298   0.357  16.828 -0.5418 -0.6511 -0.3540
  455TMC3    C7 6836   0.257   0.117  16.739  0.5746  0.3501  0.5748
  455TMC3    C8 6837   0.519   0.464  16.944  0.3957 -0.4253 -0.2180
  455TMC3    O1 6838   0.153   0.176  16.766 -0.3385  0.0874 -0.2821
  455TMC3    O2 6839   0.617   0.474  17.012  0.2185 -0.6893  0.4157
  456MPD2     C 6840   3.546   0.546  16.579 -0.1594  0.4800  0.1054
  456MPD2    C1 6841   3.609   0.459  16.663 -0.4251 -0.5416 -0.0850
  456MPD2    C2 6842   3.612   0.498  16.796 -0.6938  0.1821  0.4883
  456MPD2    C3 6843   3.544   0.613  16.839  0.3096 -0.2041 -0.4921
  456MPD2    C4 6844   3.466   0.691  16.749 -0.3026 -0.2479 -0.4744
  456MPD2    C5 6845   3.476   0.659  16.613  0.0733 -0.0110 -0.3038
  456MPD2     H 6846   3.665   0.449  16.877  0.9052  2.3711  0.7561
  456MPD2    H1 6847   3.406   0.777  16.777  1.8695  1.0727  0.0561
  456MPD2    H2 6848   3.542   0.516  16.475  0.5295 -2.3465  0.9182
  456MPD2    H3 6849   3.428   0.723  16.539  0.8362  0.4116 -0.4407
  456MPD2     N 6850   3.558   0.641  16.975  0.4157  0.4610  0.1521
  456MPD2    H5 6851   3.597   0.568  17.034  0.9766  1.1375  0.6125
  456MPD2    N1 6852   3.669   0.337  16.622  0.1102 -0.0964 -0.3964
  456MPD2    H7 6853   3.645   0.310  16.527 -0.4468 -0.4037 -0.1639
  457TMC3    C1 6854   3.584   0.770  17.171  0.4321  0.0818 -0.5696
  457TMC3    C2 6855   3.657   0.881  17.191  0.2629  0.8373 -0.1624
  457TMC3    C3 6856   3.701   0.906  17.318 -0.0595  0.2585  0.0704
  457TMC3    C4 6857   3.558   0.681  17.270  0.7107  0.2817  0.0591
  457TMC3    C5 6858   3.568   0.731  17.404  0.8945  0.7038 -0.0651
  457TMC3    C6 6859   3.650   0.839  17.430 -0.1360 -0.4601 -0.1529
  457TMC3     C 6860   3.528   0.760  17.035 -0.0774  0.4025  0.2576
  457TMC3     O 6861   3.499   0.868  16.986 -0.7242 -0.2705 -0.2026
  457TMC3     H 6862   3.706   0.922  17.104  0.3743 -0.0762 -0.5213
  457TMC3    H1 6863   3.486   0.608  17.236 -0.1406  2.1755 -2.2091
  457TMC3    H2 6864   3.691   0.854  17.529 -1.0955 -1.3453  0.3896
  457TMC3    C7 6865   3.534   0.633  17.503 -0.7139 -0.1818 -0.7245
  457TMC3    C8 6866   3.797   1.011  17.354 -0.2767  0.0636  0.4950
  457TMC3    O1 6867   3.531   0.523  17.460 -0.0263  0.5723  0.2583
  457TMC3    O2 6868   3.776   1.084  17.450  0.3770 -0.6660 -0.0290
  458MPD2     C 6869   1.271   4.256  12.373 -0.0335  0.4568 -0.6769
  458MPD2    C1 6870   1.202   4.300  12.487 -0.3019 -0.2721 -0.3042
  458MPD2    C2 6871   1.072   4.249  12.504 -0.7486 -0.4260  0.5517
  458MPD2    C3 6872   1.022   4.165  12.412  0.6207 -0.2073 -0.0273
  458MPD2    C4 6873   1.089   4.134  12.297  0.5915  0.2304  0.1662
  458MPD2    C5 6874   1.216   4.167  12.292  0.1847 -0.3606  0.2435
  458MPD2     H 6875   1.032   4.254  12.605  0.2005  0.4732  0.8930
  458MPD2    H1 6876   1.047   4.073  12.218  0.6077  1.1130 -0.5115
  458MPD2    H2 6877   1.370   4.292  12.347  0.3380  1.4347  2.0632
  458MPD2    H3 6878   1.271   4.132  12.205 -0.3049 -0.2777 -0.0974
  458MPD2     N 6879   0.896   4.103  12.447 -0.6145 -0.4996  0.5372
  458MPD2    H5 6880   0.837   4.153  12.512 -1.3297 -4.1131  2.6676
  458MPD2    N1 6881   1.270   4.382  12.583 -0.0695  0.5290 -0.2475
  458MPD2    H7 6882   1.368   4.402  12.568  0.4757 -1.9815  0.0497
  459TMC3    C1 6883   1.309   4.485  12.790 -0.2640  0.6902  0.1174
  459TMC3    C2 6884   1.401   4.574  12.739 -0.1585 -0.3359 -0.3772
  459TMC3    C3 6885   1.486   4.640  12.827 -0.4859  0.2870 -0.2439
  459TMC3    C4 6886   1.295   4.461  12.922  0.6929 -0.3527  0.4758
  459TMC3    C5 6887   1.373   4.529  13.007 -0.1670  0.1171 -0.6308
  459TMC3    C6 6888   1.470   4.618  12.965 -0.0114  0.0995  0.4558
  459TMC3     C 6889   1.215   4.426  12.697 -0.2741  0.0557  0.1773
  459TMC3     O 6890   1.103   4.411  12.736 -0.1967 -0.9717 -0.3416
  459TMC3     H 6891   1.406   4.592  12.632 -0.1166 -1.3355 -0.5492
  459TMC3    H1 6892   1.203   4.418  12.958 -0.5914  0.1348 -2.2061
  459TMC3    H2 6893   1.556   4.647  13.025  1.1699 -0.0326 -1.1746
  459TMC3    C7 6894   1.369   4.485  13.148  0.5760 -0.1092 -0.0053
  459TMC3    C8 6895   1.605   4.710  12.785  0.0045 -0.0873  0.1506
  459TMC3    O1 6896   1.309   4.386  13.178  0.1789 -0.1736  0.6669
  459TMC3    O2 6897   1.689   4.727  12.869  0.0011 -0.1919  0.5064
  460MPD2     C 6898   0.615   2.124  10.998 -0.6417 -0.4366  0.4786
  460MPD2    C1 6899   0.494   2.063  11.011  0.0598 -0.5113 -0.2797
  460MPD2    C2 6900   0.373   2.135  10.993 -0.3432  0.1659  0.1812
  460MPD2    C3 6901   0.380   2.267  10.948  0.2494 -0.0741 -0.0177
  460MPD2    C4 6902   0.507   2.326  10.932 -0.3811 -0.4015 -0.0658
  460MPD2    C5 6903   0.617   2.246  10.946 -0.6199 -1.2065 -0.1779
  460MPD2     H 6904   0.277   2.084  10.992  0.6248 -1.5938 -2.5561
  460MPD2    H1 6905   0.525   2.424  10.888  0.6326  0.0905  1.4354
  460MPD2    H2 6906   0.707   2.067  11.010 -0.0395  0.8871  2.1040
  460MPD2    H3 6907   0.715   2.284  10.922 -1.2258  1.1655  1.2095
  460MPD2     N 6908   0.263   2.327  10.907 -0.0447  0.6905 -0.2757
  460MPD2    H5 6909   0.193   2.255  10.891 -1.7953  2.4415 -0.4122
  460MPD2    N1 6910   0.501   1.928  11.064 -0.3831  0.4257 -0.4592
  460MPD2    H7 6911   0.582   1.876  11.032 -1.1494 -1.2357  0.2777
  461TMC3    C1 6912   0.107   2.498  10.816 -0.5701  0.4651 -0.4841
  461TMC3    C2 6913   0.002   2.412  10.817 -0.2624 -0.2465  0.6468
  461TMC3    C3 6914   4.631   2.437  10.737  0.0942 -0.6895 -0.0955
  461TMC3    C4 6915   0.114   2.599  10.723 -0.6289 -0.4400 -0.4264
  461TMC3    C5 6916   4.733   2.623  10.650  0.0181  0.2279 -1.6380
  461TMC3    C6 6917   4.627   2.546  10.659 -0.4336 -0.3543  0.3038
  461TMC3     C 6918   0.250   2.457  10.859  0.6536 -0.1326  0.2501
  461TMC3     O 6919   0.334   2.540  10.838  0.2904  0.3596  0.2632
  461TMC3     H 6920   4.721   2.332  10.889 -0.3506 -0.7528  0.0681
  461TMC3    H1 6921   0.201   2.662  10.706  0.4442 -1.8702 -0.1936
  461TMC3    H2 6922   4.532   2.569  10.613  0.4077  0.4046 -1.0796
  461TMC3    C7 6923   4.715   2.750  10.583  0.0217 -0.3229 -0.2219
  461TMC3    C8 6924   4.541   2.327  10.707  0.8338  0.2360  0.5447
  461TMC3    O1 6925   4.608   2.797  10.564 -0.4810 -0.0795 -0.8058
  461TMC3    O2 6926   4.517   2.253  10.800 -0.1475 -0.5464 -0.0203
  462TMC3    C1 6927   0.500   3.898   0.262  0.0350 -0.1793  0.0601
  462TMC3    C2 6928   0.634   3.899   0.289  0.0575 -1.6215  0.6869
  462TMC3    C3 6929   0.689   3.787   0.345 -0.1312  0.0203  0.1439
  462TMC3    C4 6930   0.419   3.800   0.309  0.4046 -0.1630 -0.0399
  462TMC3    C5 6931   0.476   3.701   0.386 -0.0920  0.4627  0.0399
  462TMC3    C6 6932   0.613   3.683   0.392 -0.2193  0.0072 -0.1318
  462TMC3     C 6933   0.436   3.997   0.170  0.7505  0.4404  0.6966
  462TMC3     O 6934   0.514   4.052   0.091 -0.3466 -0.0152 -0.2997
  462TMC3     H 6935   0.699   3.978   0.252 -2.3378 -0.5604 -1.2632
  462TMC3    H1 6936   0.317   3.791   0.272  0.1757  1.7076  0.1801
  462TMC3    H2 6937   0.646   3.612   0.467  0.6161  3.2420  2.5621
  462TMC3    C7 6938   0.407   3.576   0.409 -0.0068  0.2666  0.2897
  462TMC3    C8 6939   0.833   3.766   0.340  0.0649 -0.0250  0.2122
  462TMC3    O1 6940   0.463   3.469   0.384 -0.4290  0.0989  0.1432
  462TMC3    O2 6941   0.906   3.866   0.318  0.0890 -0.2590 -0.4873
  463MPD2     C 6942   2.036   1.496   1.425  0.0542 -0.3650  0.3938
  463MPD2    C1 6943   1.902   1.514   1.435 -0.4349  0.1542 -0.0958
  463MPD2    C2 6944   1.851   1.643   1.464 -0.0767  0.1202 -0.5980
  463MPD2    C3 6945   1.935   1.748   1.474 -0.6064  0.8104 -0.2033
  463MPD2    C4 6946   2.072   1.723   1.463  0.3488  0.3786 -0.4295
  463MPD2    C5 6947   2.123   1.602   1.436 -0.0037  0.3718 -0.3566
  463MPD2     H 6948   1.743   1.653   1.462 -0.1239 -0.1689  0.6211
  463MPD2    H1 6949   2.143   1.805   1.468 -0.9333  1.5735 -1.6501
  463MPD2    H2 6950   2.087   1.402   1.403  0.1649 -0.9743  3.3353
  463MPD2    H3 6951   2.231   1.599   1.437 -0.0401 -0.7714  0.3720
  463MPD2     N 6952   1.891   1.877   1.499  0.2805 -0.2319 -0.0016
  463MPD2    H5 6953   1.965   1.944   1.478  0.0455  0.2921  0.8770
  463MPD2    N1 6954   1.804   1.418   1.411 -0.2852  0.1400  0.7860
  463MPD2    H7 6955   1.707   1.446   1.414 -0.6024 -1.0636  1.3943
  464TMC3    C1 6956   1.717   1.215   1.340 -0.8827  0.3851  0.4295
  464TMC3    C2 6957   1.597   1.252   1.392  0.2871 -0.7962 -0.7527
  464TMC3    C3 6958   1.492   1.170   1.354 -0.2944  0.8101  0.4243
  464TMC3    C4 6959   1.735   1.091   1.271  0.0442  0.0030  0.4351
  464TMC3    C5 6960   1.620   1.019   1.237  0.5044 -0.5919  0.0969
  464TMC3    C6 6961   1.497   1.059   1.278  1.0839  0.0614  0.1226
  464TMC3     C 6962   1.841   1.293   1.361  0.4017  0.2106  0.6466
  464TMC3     O 6963   1.949   1.249   1.338  0.1093 -0.2961 -0.6642
  464TMC3     H 6964   1.578   1.338   1.455  0.7531 -1.0276 -0.2940
  464TMC3    H1 6965   1.835   1.051   1.256 -0.2153 -0.2245 -0.6843
  464TMC3    H2 6966   1.408   1.009   1.240  0.3034  0.8817  0.8702
  464TMC3    C7 6967   1.637   0.896   1.167 -0.5390 -0.2948  0.6399
  464TMC3    C8 6968   1.357   1.225   1.386 -0.4577  0.7526  0.0209
  464TMC3    O1 6969   1.722   0.895   1.081  0.2518  0.5180 -0.3345
  464TMC3    O2 6970   1.341   1.347   1.406  0.2022  0.0130  0.9872
  465MPD2     C 6971   2.878   0.345  16.978  0.3147 -0.7931  0.3134
  465MPD2    C1 6972   2.778   0.398  17.055  0.6100  0.3714 -0.6207
  465MPD2    C2 6973   2.669   0.451  16.987  0.1790 -0.4430 -0.0243
  465MPD2    C3 6974   2.664   0.460  16.849  0.5162  0.0331  0.2639
  465MPD2    C4 6975   2.768   0.403  16.774  0.5830 -0.6624 -0.0556
  465MPD2    C5 6976   2.876   0.353  16.842 -0.6971 -0.4654 -0.7423
  465MPD2     H 6977   2.581   0.473  17.047 -0.7314 -0.0580 -1.5004
  465MPD2    H1 6978   2.768   0.413  16.666  3.1163 -0.6532 -0.0423
  465MPD2    H2 6979   2.972   0.312  17.021  1.1994  0.1645 -0.8933
  465MPD2    H3 6980   2.958   0.309  16.787 -1.1554 -0.3853 -1.4752
  465MPD2     N 6981   2.550   0.520  16.784  0.0338  0.3114  0.1263
  465MPD2    H5 6982   2.468   0.542  16.839  0.4620  2.3426 -0.0589
  465MPD2    N1 6983   2.759   0.367  17.196  0.1339 -0.5734  0.1687
  465MPD2    H7 6984   2.667   0.388  17.234 -0.3434 -2.1027 -0.1308
  466TMC3    C1 6985   2.176   0.613  16.652 -0.0491  0.0240  0.0423
  466TMC3    C2 6986   2.177   0.701  16.547  0.4387  0.1019 -0.3955
  466TMC3    C3 6987   2.288   0.735  16.482  0.6754 -0.1745 -0.0467
  466TMC3    C4 6988   2.295   0.555  16.691 -0.4249 -0.1221  0.0605
  466TMC3    C5 6989   2.408   0.595  16.629 -0.3704 -0.6668 -0.1976
  466TMC3    C6 6990   2.406   0.674  16.517 -0.1506  0.0347  0.0000
  466TMC3     C 6991   2.059   0.579  16.732 -0.6584 -0.1961 -0.3047
  466TMC3     O 6992   2.080   0.546  16.846 -0.0897  0.1382 -0.1472
  466TMC3     H 6993   2.083   0.752  16.529  1.8032  3.8113  2.9609
  466TMC3    H1 6994   2.302   0.515  16.792  3.4077  0.7515  0.1428
  466TMC3    H2 6995   2.503   0.694  16.473  0.0836  0.6216  0.7758
  466TMC3    C7 6996   2.528   0.519  16.649 -0.0084 -0.6999  0.4105
  466TMC3    C8 6997   2.301   0.864  16.413 -0.7424 -0.1222 -0.4525
  466TMC3    O1 6998   2.603   0.497  16.555 -0.0817  0.0817  0.1312
  466TMC3    O2 6999   2.393   0.877  16.331  0.2886 -0.2517 -0.3994
  467TMC3    C1 7000   2.964   3.927  14.147  0.3013 -0.0975  0.0219
  467TMC3    C2 7001   3.009   4.049  14.099 -0.2538 -0.5731  0.3938
  467TMC3    C3 7002   2.965   4.081  13.972 -0.0134  0.2575 -0.4888
  467TMC3    C4 7003   2.871   3.848  14.081  0.3505  0.4502  0.3428
  467TMC3    C5 7004   2.830   3.891  13.958 -0.4256  0.0983 -0.5466
  467TMC3    C6 7005   2.882   4.004  13.904  0.4386  0.7124 -0.2714
  467TMC3     C 7006   3.087   3.851  14.167  1.1165 -0.5465 -0.2514
  467TMC3     O 7007   3.175   3.920  14.216  0.8280  0.1076 -0.0359
  467TMC3     H 7008   3.081   4.113  14.150  0.1367 -0.8696  0.2114
  467TMC3    H1 7009   2.830   3.759  14.127  2.0642  0.0778  1.1360
  467TMC3    H2 7010   2.858   4.030  13.802 -1.7371 -0.2288  0.0163
  467TMC3    C7 7011   2.758   3.804  13.875 -0.4155 -0.2008  0.1041
  467TMC3    C8 7012   3.084   4.115  13.896 -0.8514 -0.3760 -0.3652
  467TMC3    O1 7013   2.818   3.785  13.773  0.5249 -0.0874 -0.7712
  467TMC3    O2 7014   3.155   4.204  13.943  0.0197 -0.6821  0.6363
  468MPD2     C 7015   1.860   1.688  10.543  0.1801 -0.1393 -0.0210
  468MPD2    C1 7016   1.938   1.684  10.656 -0.7164 -1.1305  0.3707
  468MPD2    C2 7017   2.011   1.571  10.673  0.4420 -1.0260 -0.0687
  468MPD2    C3 7018   2.018   1.466  10.576  0.1525 -0.3321  0.3324
  468MPD2    C4 7019   1.944   1.477  10.460  0.4046  0.6211 -0.0935
  468MPD2    C5 7020   1.869   1.586  10.453  0.5047 -0.1101 -0.8440
  468MPD2     H 7021   2.063   1.563  10.768  0.3541  0.6850  0.1176
  468MPD2    H1 7022   1.933   1.399  10.385  1.1562 -0.2112  0.6571
  468MPD2    H2 7023   1.800   1.775  10.518  0.0643 -0.3990 -0.6215
  468MPD2    H3 7024   1.802   1.592  10.368  0.2316  1.5756 -0.5078
  468MPD2     N 7025   2.078   1.343  10.608  0.3167  0.1808  0.6852
  468MPD2    H5 7026   2.075   1.275  10.533  1.3148 -0.6903  1.4174
  468MPD2    N1 7027   1.949   1.788  10.750  0.8024 -0.2499  0.1469
  468MPD2    H7 7028   2.008   1.770  10.830  2.3018 -0.1531 -0.9480
  469TMC3    C1 7029   1.926   1.988  10.861 -0.1961  0.3091 -0.0183
  469TMC3    C2 7030   2.056   1.974  10.905  0.3604  1.0776 -0.0702
  469TMC3    C3 7031   2.087   2.020  11.023  0.1000 -0.0436 -0.3813
  469TMC3    C4 7032   1.834   2.053  10.929 -0.2163 -0.1261 -0.5174
  469TMC3    C5 7033   1.871   2.097  11.049  1.0437 -0.7341 -0.2554
  469TMC3    C6 7034   2.000   2.096  11.092  0.2510  0.1492 -0.4822
  469TMC3     C 7035   1.884   1.906  10.747 -0.1385  0.1589  0.1705
  469TMC3     O 7036   1.785   1.939  10.686  0.6173  0.1810  0.4448
  469TMC3     H 7037   2.136   1.926  10.849  0.1851  0.8768 -0.1491
  469TMC3    H1 7038   1.730   2.025  10.917 -0.8676  2.3824 -0.7919
  469TMC3    H2 7039   2.037   2.157  11.174  2.0696 -0.4707 -0.8460
  469TMC3    C7 7040   1.773   2.172  11.118  0.0490 -0.4768 -0.0987
  469TMC3    C8 7041   2.229   2.034  11.051 -0.5511 -0.3873 -0.1980
  469TMC3    O1 7042   1.671   2.207  11.061  0.3089 -0.7874 -0.2879
  469TMC3    O2 7043   2.302   2.060  10.963  0.2784 -0.1472 -0.3648
  470TMC3    C1 7044   4.660   3.133   1.028  0.1979 -0.1862 -0.0794
  470TMC3    C2 7045   4.726   3.254   1.048 -0.1234 -0.3632 -0.0544
  470TMC3    C3 7046   0.020   3.284   1.175  0.0538  0.1609 -0.2077
  470TMC3    C4 7047   4.632   3.044   1.126  0.8193  0.8639  0.1415
  470TMC3    C5 7048   4.661   3.086   1.254  0.2452 -0.4159  1.2455
  470TMC3    C6 7049   4.723   3.211   1.280 -0.2021  0.5549 -0.3196
  470TMC3     C 7050   4.600   3.115   0.900  0.0543 -0.3506  0.2972
  470TMC3     O 7051   4.629   3.194   0.810 -0.1222  0.3869  0.3870
  470TMC3     H 7052   0.013   3.316   0.962 -0.1136 -0.2090  0.0595
  470TMC3    H1 7053   4.606   2.939   1.120  1.5108  0.5953  1.6943
  470TMC3    H2 7054   0.029   3.227   1.379 -0.3909 -1.5508  0.0872
  470TMC3    C7 7055   4.650   2.991   1.357 -0.4320  0.3507 -0.0122
  470TMC3    C8 7056   0.078   3.413   1.197 -1.0644  0.6860  0.3032
  470TMC3    O1 7057   4.670   2.878   1.330 -0.3062 -0.0623 -0.1760
  470TMC3    O2 7058   0.096   3.444   1.313 -0.2518 -0.7213 -0.5925
  471MPD2     C 7059   0.301   4.490  16.834  0.2091  0.1633  0.3207
  471MPD2    C1 7060   0.348   4.372  16.777 -0.1672 -0.0273  0.3862
  471MPD2    C2 7061   0.451   4.302  16.831 -0.2983 -0.1479  0.2945
  471MPD2    C3 7062   0.491   4.345  16.956  0.4198  0.0931  0.1213
  471MPD2    C4 7063   0.433   4.448  17.027  0.3325  0.2122  0.1785
  471MPD2    C5 7064   0.349   4.525  16.955 -0.3211  0.2747 -0.3300
  471MPD2     H 7065   0.495   4.214  16.786  0.3158  0.0722  0.4550
  471MPD2    H1 7066   0.472   4.476  17.124  0.6554 -0.6395  0.2881
  471MPD2    H2 7067   0.227   4.551  16.783 -0.3593  1.6312  2.8701
  471MPD2    H3 7068   0.319   4.616  17.006  3.2699  1.3297 -0.1649
  471MPD2     N 7069   0.591   4.278  17.029  0.3949  0.2704  0.6413
  471MPD2    H5 7070   0.606   4.306  17.126  1.4863  1.0553  0.2508
  471MPD2    N1 7071   0.289   4.317  16.660  0.1028  0.2180  0.0478
  471MPD2    H7 7072   0.348   4.241  16.628  0.3139  0.1021  0.7116
  472TMC3    C1 7073   0.135   4.246  16.498 -0.4190 -0.5533  0.6926
  472TMC3    C2 7074   0.023   4.276  16.431 -0.3292 -0.3700 -0.3792
  472TMC3    C3 7075   4.700   4.185  16.343  0.3935 -0.2694 -0.2734
  472TMC3    C4 7076   0.194   4.117  16.498 -0.0678  0.4275  0.6733
  472TMC3    C5 7077   0.132   4.028  16.414 -0.5407  0.1107 -0.4401
  472TMC3    C6 7078   0.033   4.068  16.323  0.3793 -0.3162 -0.1051
  472TMC3     C 7079   0.167   4.337  16.603  0.3494 -0.1869  1.3007
  472TMC3     O 7080   0.081   4.411  16.644 -0.5333 -0.2818 -0.6233
  472TMC3     H 7081   4.694   4.363  16.447  0.9667 -0.0917  3.2665
  472TMC3    H1 7082   0.245   4.075  16.584 -1.0268  0.5260  1.2936
  472TMC3    H2 7083   4.712   3.995  16.265  0.2390  0.4163 -0.8926
  472TMC3    C7 7084   0.115   3.890  16.468  0.0643 -0.0639 -0.5002
  472TMC3    C8 7085   4.559   4.167  16.336  0.2495 -0.2955  0.1395
  472TMC3    O1 7086   0.189   3.858  16.561 -0.5641 -0.2602  0.2594
  472TMC3    O2 7087   4.503   4.181  16.229 -0.2268  0.0441 -0.5212
  473MPD2     C 7088   0.078   1.342  13.912  0.5535  0.9852  0.2994
  473MPD2    C1 7089   4.698   1.404  13.953 -0.1611  0.7873 -0.5434
  473MPD2    C2 7090   4.697   1.503  14.052  0.4583  0.2915 -0.4588
  473MPD2    C3 7091   0.085   1.540  14.106 -0.1504  0.0550 -0.9235
  473MPD2    C4 7092   0.205   1.469  14.074 -0.4234  0.4179  0.3280
  473MPD2    C5 7093   0.195   1.371  13.975 -0.0341 -0.4368 -0.0494
  473MPD2     H 7094   4.605   1.558  14.071  0.4122  0.3185 -0.7521
  473MPD2    H1 7095   0.300   1.499  14.117  0.4948  0.5332 -1.8137
  473MPD2    H2 7096   0.082   1.261  13.841  0.3167  0.2900  1.0827
  473MPD2    H3 7097   0.282   1.317  13.940 -0.1760  0.5120 -1.8868
  473MPD2     N 7098   0.103   1.665  14.180  0.6622  0.1342 -0.5328
  473MPD2    H5 7099   0.193   1.686  14.222 -0.4814  0.6401  1.6661
  473MPD2    N1 7100   4.569   1.374  13.896  0.4360  0.4554 -0.1031
  473MPD2    H7 7101   4.490   1.420  13.940 -0.5840 -2.1032  0.7071
  474TMC3    C1 7102   0.027   1.876  14.283  0.2553  0.3879 -0.8079
  474TMC3    C2 7103   4.677   1.979  14.265 -0.1161  0.1630  0.1952
  474TMC3    C3 7104   4.710   2.104  14.305 -0.4808 -0.7079  0.7002
  474TMC3    C4 7105   0.152   1.889  14.341  0.7237  0.6399  0.2145
  474TMC3    C5 7106   0.177   2.012  14.383  0.8323 -0.6161 -0.7048
  474TMC3    C6 7107   0.091   2.119  14.375 -0.1612 -0.1147 -0.6741
  474TMC3     C 7108   0.003   1.766  14.184  0.2832 -0.5772 -0.0424
  474TMC3     O 7109   4.632   1.776  14.125  0.2074 -0.3823  0.4270
  474TMC3     H 7110   4.574   1.966  14.233 -0.4812  1.7357  0.7624
  474TMC3    H1 7111   0.226   1.813  14.364 -0.2974  0.2709  2.2757
  474TMC3    H2 7112   0.114   2.218  14.412 -1.1603  0.1592 -0.7718
  474TMC3    C7 7113   0.303   2.039  14.456  0.0788 -0.2421  0.1718
  474TMC3    C8 7114   4.618   2.212  14.277 -0.6939  1.2159 -0.6432
  474TMC3    O1 7115   0.405   1.968  14.450  0.3380 -0.2906 -0.4220
  474TMC3    O2 7116   4.509   2.185  14.221  0.3152  0.3516  0.0427
  475MPD2     C 7117   2.144   4.457  11.485  0.4657  0.2213 -0.0532
  475MPD2    C1 7118   2.224   4.494  11.379 -0.6158 -0.4859  0.1466
  475MPD2    C2 7119   2.164   4.499  11.252  0.2178 -0.7860  0.4826
  475MPD2    C3 7120   2.027   4.472  11.232 -0.1543 -0.2623 -0.2149
  475MPD2    C4 7121   1.950   4.438  11.340  1.2252  0.3047 -0.7950
  475MPD2    C5 7122   2.010   4.435  11.468 -0.0575  1.2920  0.1879
  475MPD2     H 7123   2.218   4.531  11.164 -0.5476 -1.6771 -0.3132
  475MPD2    H1 7124   1.847   4.406  11.332  1.3204 -0.3518  0.5331
  475MPD2    H2 7125   2.178   4.461  11.588 -0.1845  1.5613  0.0960
  475MPD2    H3 7126   1.947   4.417  11.554 -0.3317 -0.4373 -0.3665
  475MPD2     N 7127   1.986   4.466  11.102 -0.0742 -0.6037  0.2944
  475MPD2    H5 7128   2.059   4.492  11.037 -0.1289  0.8845  0.8292
  475MPD2    N1 7129   2.363   4.511  11.387 -0.7895 -0.1079  0.3941
  475MPD2    H7 7130   2.406   4.538  11.298 -1.9699  1.3345  0.2560
  476TMC3    C1 7131   2.572   4.563  11.472 -0.0263  0.2117 -0.6518
  476TMC3    C2 7132   2.623   4.552  11.347  0.0887  0.0463 -0.0128
  476TMC3    C3 7133   2.746   4.624  11.325 -0.3894 -0.2788  0.0855
  476TMC3    C4 7134   2.634   4.632  11.572  0.1008 -0.1609  0.0157
  476TMC3    C5 7135   2.746   4.703  11.543 -0.4482  0.0759  0.2487
  476TMC3    C6 7136   2.805   4.703  11.423  0.7140  0.3344  0.7335
  476TMC3     C 7137   2.438   4.515  11.503  0.9709  0.4159 -0.6185
  476TMC3     O 7138   2.396   4.496  11.617 -0.2548  0.3609 -0.1900
  476TMC3     H 7139   2.564   4.512  11.265  1.1063 -2.5623  0.5358
  476TMC3    H1 7140   2.583   4.633  11.668 -0.1354  0.3066 -0.1146
  476TMC3    H2 7141   2.902   0.013  11.408  0.1421  1.2868 -0.0996
  476TMC3    C7 7142   2.768   0.084  11.630 -0.3435  0.1908 -0.5460
  476TMC3    C8 7143   2.809   4.624  11.194 -0.2724  0.2209 -0.4936
  476TMC3    O1 7144   2.715   0.065  11.738  0.0665  0.5703 -0.2304
  476TMC3    O2 7145   2.887   4.713  11.156 -0.2279 -0.5141 -0.6974
  477MPD2     C 7146   1.347   1.267  11.955  0.0012  0.5958  0.7207
  477MPD2    C1 7147   1.265   1.172  11.908 -0.4880 -0.0603 -1.2190
  477MPD2    C2 7148   1.226   1.058  11.983 -0.2369  0.2037  0.5656
  477MPD2    C3 7149   1.300   1.027  12.102 -0.3433  0.0242  0.3354
  477MPD2    C4 7150   1.382   1.140  12.147  0.2032 -0.5561  0.4656
  477MPD2    C5 7151   1.407   1.257  12.074 -0.1889  0.1160  0.0132
  477MPD2     H 7152   1.144   0.993  11.955  0.0180 -0.3083  0.9875
  477MPD2    H1 7153   1.435   1.136  12.242  1.2636 -0.5198 -0.1239
  477MPD2    H2 7154   1.369   1.356  11.898 -1.3248 -0.0318 -0.7731
  477MPD2    H3 7155   1.468   1.340  12.108 -2.1355  2.3909 -2.0598
  477MPD2     N 7156   1.272   0.909  12.177  0.5574  0.2020  0.4539
  477MPD2    H5 7157   1.205   0.847  12.132  1.3263  0.1891 -0.6720
  477MPD2    N1 7158   1.209   1.201  11.781  0.2315 -0.3257 -0.3660
  477MPD2    H7 7159   1.242   1.293  11.753  1.3366 -0.8478 -0.7929
  478TMC3    C1 7160   1.044   1.189  11.609  0.1198 -0.0694 -0.2464
  478TMC3    C2 7161   1.008   1.318  11.624  0.5401 -0.5007 -0.2352
  478TMC3    C3 7162   0.894   1.368  11.572  0.0608  0.4317 -0.2194
  478TMC3    C4 7163   0.965   1.102  11.543 -0.4848  0.3407 -0.4986
  478TMC3    C5 7164   0.865   1.160  11.474  0.1958  0.1405  0.0440
  478TMC3    C6 7165   0.823   1.288  11.484  0.6883 -0.8944  0.0802
  478TMC3     C 7166   1.120   1.124  11.710 -0.0136 -0.1342 -0.5927
  478TMC3     O 7167   1.098   1.006  11.732 -0.0273 -0.4868  0.2891
  478TMC3     H 7168   1.074   1.373  11.690  1.8888 -1.1633 -1.0385
  478TMC3    H1 7169   0.989   0.996  11.541  1.1790  0.7244 -0.6910
  478TMC3    H2 7170   0.741   1.326  11.425  0.4028 -0.4236  0.7777
  478TMC3    C7 7171   0.805   1.082  11.372  0.0930  0.0702 -0.0647
  478TMC3    C8 7172   0.905   1.513  11.545  0.4429 -0.1805  0.2177
  478TMC3    O1 7173   0.817   0.964  11.397  0.4929 -0.0668 -0.2190
  478TMC3    O2 7174   1.018   1.552  11.563 -0.1136  0.0268  0.1312
  479MPD2     C 7175   4.691   3.685  15.020 -0.3756  0.4788  0.5740
  479MPD2    C1 7176   4.612   3.617  15.111 -0.0595 -0.5849 -0.5475
  479MPD2    C2 7177   4.640   3.644  15.244 -0.5122  0.2127  0.1399
  479MPD2    C3 7178   0.003   3.739  15.282 -0.2197 -0.2173  0.5508
  479MPD2    C4 7179   0.074   3.797  15.178  0.1080 -0.6685  0.8487
  479MPD2    C5 7180   0.049   3.783  15.047  0.4138  0.5612  0.5398
  479MPD2     H 7181   4.577   3.592  15.315 -0.2071  0.2252  0.4199
  479MPD2    H1 7182   0.150   3.867  15.211  0.1963 -0.5521  0.4021
  479MPD2    H2 7183   4.665   3.667  14.916  1.3129 -0.2177  0.2733
  479MPD2    H3 7184   0.097   3.844  14.971  0.0634  2.6904  2.0335
  479MPD2     N 7185   0.040   3.780  15.416 -0.5526 -0.5941 -0.0044
  479MPD2    H5 7186   0.137   3.812  15.417 -1.1539  1.2684 -0.7577
  479MPD2    N1 7187   4.508   3.528  15.072 -0.0495  0.0366  0.7215
  479MPD2    H7 7188   4.494   3.508  14.973 -0.2215  0.7227  0.6060
  480TMC3    C1 7189   4.418   3.648  15.710  0.7662 -0.0932  0.3770
  480TMC3    C2 7190   4.318   3.708  15.637 -0.2976  0.3231  0.7805
  480TMC3    C3 7191   4.362   3.774  15.525  0.0765  0.0218  0.1876
  480TMC3    C4 7192   4.553   3.646  15.669  0.5415  0.3656 -0.1171
  480TMC3    C5 7193   4.585   3.717  15.554 -0.7025 -0.1776 -0.0873
  480TMC3    C6 7194   4.492   3.783  15.477  0.0452 -0.8014  0.1504
  480TMC3     C 7195   4.400   3.600  15.841 -0.4384  0.0849  0.2897
  480TMC3     O 7196   4.486   3.532  15.895 -0.2446  0.0581  0.2270
  480TMC3     H 7197   4.211   3.694  15.646 -0.4474  0.5313 -0.6600
  480TMC3    H1 7198   4.633   3.603  15.727 -0.7135 -3.3876 -1.1770
  480TMC3    H2 7199   4.521   3.858  15.405 -2.2424  0.7548  0.8564
  480TMC3    C7 7200   4.725   3.747  15.539  0.6270  0.2230  0.0706
  480TMC3    C8 7201   4.257   3.812  15.425 -0.3131  0.4223 -0.2412
  480TMC3    O1 7202   0.057   3.739  15.643 -0.7085 -0.3253  0.1624
  480TMC3    O2 7203   4.148   3.837  15.477 -0.9072 -0.0609  0.7240
  481MPD2     C 7204   1.201   2.724  14.158  0.1677 -0.7441 -0.2021
  481MPD2    C1 7205   1.090   2.767  14.222 -0.5241 -0.3046 -0.0887
  481MPD2    C2 7206   1.092   2.780  14.361  0.2945  0.4119 -0.0487
  481MPD2    C3 7207   1.199   2.726  14.439  0.0321  0.3011  0.0208
  481MPD2    C4 7208   1.313   2.686  14.370 -0.3273 -0.0455  0.3214
  481MPD2    C5 7209   1.311   2.683  14.233 -0.0764 -0.2876  0.3563
  481MPD2     H 7210   1.006   2.812  14.418  0.9954 -0.2039  1.3626
  481MPD2    H1 7211   1.397   2.650  14.429 -1.2798  0.5095  2.0107
  481MPD2    H2 7212   1.210   2.709  14.051 -0.5382  1.0378 -0.4982
  481MPD2    H3 7213   1.400   2.652  14.179 -0.9439  0.7242 -1.6592
  481MPD2     N 7214   1.204   2.736  14.579  0.7678  0.1362 -0.2777
  481MPD2    H5 7215   1.285   2.696  14.625  0.6750  0.7007  0.3652
  481MPD2    N1 7216   0.978   2.798  14.143  0.2220 -0.0474  0.4826
  481MPD2    H7 7217   0.983   2.779  14.043  0.0386  0.0592  0.4527
  482TMC3    C1 7218   0.769   2.870  14.075  0.5656  0.2904  0.0046
  482TMC3    C2 7219   0.637   2.875  14.115 -0.1531 -0.3133  0.2028
  482TMC3    C3 7220   0.534   2.861  14.021  1.6439 -0.8164  0.2129
  482TMC3    C4 7221   0.804   2.840  13.947 -0.5543 -0.5691 -0.1459
  482TMC3    C5 7222   0.694   2.835  13.863  0.6053 -0.4438 -0.1153
  482TMC3    C6 7223   0.564   2.852  13.892 -0.3422  1.1630 -0.8234
  482TMC3     C 7224   0.860   2.848  14.188  1.0352  0.1215 -0.2317
  482TMC3     O 7225   0.811   2.882  14.296  0.0282  0.0061  0.0371
  482TMC3     H 7226   0.613   2.869  14.220  0.3727  0.0502  0.3464
  482TMC3    H1 7227   0.903   2.856  13.907 -1.1022 -0.1376 -1.3207
  482TMC3    H2 7228   0.487   2.833  13.818  0.6391 -0.4360 -1.4364
  482TMC3    C7 7229   0.737   2.789  13.734  1.1257 -0.1624  0.1954
  482TMC3    C8 7230   0.424   2.786  14.075  0.2852  0.7227 -0.5189
  482TMC3    O1 7231   0.838   2.718  13.738  0.3058  0.1406  0.3148
  482TMC3    O2 7232   0.452   2.709  14.169  0.1432  0.5082 -0.2198
  483TMC3    C1 7233   4.566   2.121   1.182 -0.3633  0.2069  0.3069
  483TMC3    C2 7234   4.626   2.233   1.134 -0.6136 -0.7367  0.1931
  483TMC3    C3 7235   0.003   2.275   1.199 -0.1080 -0.3219  0.2610
  483TMC3    C4 7236   4.615   2.048   1.287 -0.1015  0.2301 -0.2984
  483TMC3    C5 7237   4.731   2.089   1.352  0.3531  0.5569 -0.2583
  483TMC3    C6 7238   0.054   2.205   1.308  0.1875 -1.0361  0.8649
  483TMC3     C 7239   4.448   2.077   1.101 -0.1326  0.2368  0.0981
  483TMC3     O 7240   4.378   2.154   1.038  0.0226  0.4818  0.2171
  483TMC3     H 7241   4.571   2.300   1.069  4.0374  1.4293 -1.5069
  483TMC3    H1 7242   4.563   1.959   1.320  1.0486 -0.4371 -0.3134
  483TMC3    H2 7243   0.137   2.245   1.365 -0.4566 -0.6366  1.5191
  483TMC3    C7 7244   0.045   2.020   1.466  0.5470 -0.1836 -0.1910
  483TMC3    C8 7245   0.092   2.356   1.114  0.2811  0.4403 -0.3004
  483TMC3    O1 7246   0.111   2.087   1.546 -0.0992  0.3254  0.4815
  483TMC3    O2 7247   0.033   2.411   1.021 -0.0079 -0.5149 -0.0203
  484MPD2     C 7248   1.696   0.145  12.472 -0.3281 -0.3204  0.5232
  484MPD2    C1 7249   1.720   0.070  12.584  0.4687  0.3113 -0.2356
  484MPD2    C2 7250   1.851   0.051  12.629 -1.1361  0.1022 -0.1745
  484MPD2    C3 7251   1.955   0.107  12.553  0.6014 -0.0874 -0.2552
  484MPD2    C4 7252   1.928   0.192  12.448 -0.5389  0.2623  0.1154
  484MPD2    C5 7253   1.799   0.199  12.401  0.2282  0.4361  0.0195
  484MPD2     H 7254   1.875   4.726  12.716 -0.6622  0.4377 -0.0741
  484MPD2    H1 7255   2.007   0.242  12.393 -0.7142 -0.0767 -0.4434
  484MPD2    H2 7256   1.593   0.156  12.438 -0.3940  0.3470  0.9451
  484MPD2    H3 7257   1.778   0.260  12.313  1.4816 -1.4540 -1.5838
  484MPD2     N 7258   2.094   0.102  12.591  0.8510 -0.1822 -0.2811
  484MPD2    H5 7259   2.162   0.148  12.532 -0.9128  1.8598 -0.7310
  484MPD2    N1 7260   1.604   0.019  12.659  0.8880  0.0829 -0.5895
  484MPD2    H7 7261   1.522   4.733  12.604 -0.8235  0.0883  1.9704
  485TMC3    C1 7262   2.302   0.039  12.670 -0.1636 -0.1668  0.0403
  485TMC3    C2 7263   2.374   4.669  12.730 -0.0750  0.3845 -0.2714
  485TMC3    C3 7264   2.504   4.659  12.701  0.7712  0.3522  0.3409
  485TMC3    C4 7265   2.359   0.106  12.564 -0.4664  0.7618  0.8485
  485TMC3    C5 7266   2.495   0.088  12.534  0.1894 -0.2196 -0.0653
  485TMC3    C6 7267   2.565   0.004  12.613  0.0531 -0.1350 -0.9931
  485TMC3     C 7268   2.153   0.022  12.682  0.2332  0.2681  0.4479
  485TMC3     O 7269   2.112   4.653  12.730  0.2978  0.1210  0.1969
  485TMC3     H 7270   2.326   4.604  12.802 -2.1387  1.5436 -0.6185
  485TMC3    H1 7271   2.312   0.171  12.491 -1.4505 -0.0804  0.7379
  485TMC3    H2 7272   2.671   4.731  12.593  0.5843  0.1531  1.7247
  485TMC3    C7 7273   2.526   0.079  12.388  0.3788 -0.7299  0.3528
  485TMC3    C8 7274   2.557   4.521  12.680 -0.1523  0.0801 -0.3412
  485TMC3    O1 7275   2.465   0.153  12.311 -0.3657  0.4495 -0.5567
  485TMC3    O2 7276   2.649   4.518  12.600  0.5273  0.3369  0.4904
  486MPD2     C 7277   3.525   3.183  13.386 -0.5627 -0.1142  0.3790
  486MPD2    C1 7278   3.395   3.176  13.351  0.0237  0.7857 -0.6513
  486MPD2    C2 7279   3.327   3.284  13.298 -0.4810  0.1478 -0.6469
  486MPD2    C3 7280   3.394   3.409  13.301 -0.2033  0.2537 -0.1981
  486MPD2    C4 7281   3.520   3.415  13.364 -0.0375 -0.3239 -0.1665
  486MPD2    C5 7282   3.586   3.299  13.402  0.2764 -0.3026  0.4114
  486MPD2     H 7283   3.227   3.272  13.256 -0.6066 -1.7363  0.2213
  486MPD2    H1 7284   3.580   3.506  13.364 -4.1090  2.3403  2.1277
  486MPD2    H2 7285   3.573   3.094  13.423  2.7936  1.2049 -0.7825
  486MPD2    H3 7286   3.679   3.306  13.457 -0.3570  0.5838  1.3754
  486MPD2     N 7287   3.322   3.516  13.236 -0.0471 -0.2647 -0.3801
  486MPD2    H5 7288   3.234   3.495  13.190 -1.6253  3.9021  0.7768
  486MPD2    N1 7289   3.336   3.049  13.363 -0.0239 -0.4326  0.4610
  486MPD2    H7 7290   3.399   2.972  13.378  1.0430 -0.0604 -2.0436
  487TMC3    C1 7291   3.168   2.880  13.376 -0.0485 -0.7987  0.4788
  487TMC3    C2 7292   3.047   2.833  13.326 -0.4018 -0.3448 -0.9358
  487TMC3    C3 7293   3.019   2.700  13.338 -0.2272  0.0977  0.1583
  487TMC3    C4 7294   3.259   2.793  13.435 -0.3395 -0.6004 -0.4000
  487TMC3    C5 7295   3.220   2.666  13.463 -0.7730  0.5959 -0.2055
  487TMC3    C6 7296   3.093   2.622  13.422  0.1149 -0.2783  0.2474
  487TMC3     C 7297   3.202   3.016  13.337  0.0538  0.0609 -0.4307
  487TMC3     O 7298   3.106   3.091  13.315 -0.2541 -0.1400 -0.6145
  487TMC3     H 7299   2.983   2.902  13.271  0.8957  1.6743  0.0537
  487TMC3    H1 7300   3.359   2.820  13.466 -1.3624  3.1096 -0.3940
  487TMC3    H2 7301   3.071   2.516  13.418  0.5355 -0.3966  1.2141
  487TMC3    C7 7302   3.241   2.628  13.601 -0.6770  0.8229 -0.2839
  487TMC3    C8 7303   2.879   2.663  13.337  0.2556  0.2503  0.1846
  487TMC3    O1 7304   3.338   2.679  13.651  0.3466 -0.1784 -0.2133
  487TMC3    O2 7305   2.850   2.544  13.352 -0.6759  0.9319  0.1166
  488MPD2     C 7306   4.178   0.487  16.554 -0.4664  0.0267 -0.1358
  488MPD2    C1 7307   4.292   0.561  16.581  0.1204 -0.2030 -0.3101
  488MPD2    C2 7308   4.316   0.608  16.712 -0.6298  0.2958  0.4667
  488MPD2    C3 7309   4.234   0.586  16.819 -0.1288  0.0358  0.3339
  488MPD2    C4 7310   4.121   0.511  16.791 -0.4054  0.0421  0.4413
  488MPD2    C5 7311   4.095   0.468  16.663  1.1216 -0.2197  0.0319
  488MPD2     H 7312   4.413   0.650  16.733  0.4202 -2.5393  1.2599
  488MPD2    H1 7313   4.044   0.508  16.867  0.4646  0.2333  1.3331
  488MPD2    H2 7314   4.156   0.457  16.453  0.7109  0.0214 -0.3868
  488MPD2    H3 7315   3.999   0.419  16.654  0.7293  0.5755 -0.1328
  488MPD2     N 7316   4.259   0.644  16.944  0.4602  0.4074 -0.0488
  488MPD2    H5 7317   4.329   0.717  16.953 -1.0892  2.0059 -0.8828
  488MPD2    N1 7318   4.390   0.604  16.481  0.0867 -0.4276  0.6019
  488MPD2    H7 7319   4.463   0.663  16.520 -0.2850  2.4739 -3.0946
  489TMC3    C1 7320   4.264   0.681  17.168  0.1022 -0.2782 -0.2427
  489TMC3    C2 7321   4.395   0.739  17.153 -0.1250 -0.7573  0.1023
  489TMC3    C3 7322   4.421   0.840  17.235 -0.7191  0.1144  0.3246
  489TMC3    C4 7323   4.180   0.714  17.279 -0.3163  0.9624 -0.9640
  489TMC3    C5 7324   4.233   0.804  17.368 -0.7432  0.3433  0.2969
  489TMC3    C6 7325   4.353   0.874  17.352  0.7905  0.6484 -1.0168
  489TMC3     C 7326   4.193   0.614  17.062  0.1407 -0.1117  0.1629
  489TMC3     O 7327   4.097   0.540  17.082  0.3655 -0.4008 -0.2238
  489TMC3     H 7328   4.452   0.712  17.065  0.9804  2.0093 -0.0269
  489TMC3    H1 7329   4.079   0.673  17.278  0.5388 -1.1360 -0.2084
  489TMC3    H2 7330   4.361   0.971  17.401 -1.7503 -0.6077  1.8231
  489TMC3    C7 7331   4.169   0.842  17.491 -0.2645 -1.0186 -0.0063
  489TMC3    C8 7332   4.532   0.928  17.195 -0.2649 -0.1766  0.6976
  489TMC3    O1 7333   4.222   0.927  17.563 -0.2107 -0.8070  0.0841
  489TMC3    O2 7334   4.569   0.930  17.079 -0.5883 -0.5507  0.1934
  490MPD2     C 7335   0.211   0.426  17.657  0.0470 -0.1470 -0.6954
  490MPD2    C1 7336   0.213   0.285  17.675  0.6835  0.6362 -0.0816
  490MPD2    C2 7337   0.338   0.223  17.702 -0.0871  0.9965 -0.4098
  490MPD2    C3 7338   0.453   0.299  17.694 -0.6550  0.0327 -0.2820
  490MPD2    C4 7339   0.446   0.432  17.668 -0.3427 -0.7121  0.2466
  490MPD2    C5 7340   0.327   0.494  17.647  0.3466 -0.7915 -0.4969
  490MPD2     H 7341   0.339   0.117  17.725  0.3579  1.4178  1.5733
  490MPD2    H1 7342   0.531   0.497  17.648  0.5507 -1.5891  1.2349
  490MPD2    H2 7343   0.117   0.478  17.638 -1.0723 -0.6679  3.3580
  490MPD2    H3 7344   0.325   0.599  17.618 -5.5185 -1.0494 -0.9510
  490MPD2     N 7345   0.582   0.241  17.709 -0.6341  0.2256 -0.6348
  490MPD2    H5 7346   0.663   0.301  17.720 -1.4276  0.6982  2.5027
  490MPD2    N1 7347   0.095   0.211  17.693  0.3702 -0.0487 -0.0605
  490MPD2    H7 7348   0.114   0.114  17.713 -3.6184 -0.8318 -0.0334
  491TMC3    C1 7349   4.608   0.171   0.007 -0.0682 -0.0346  0.1173
  491TMC3    C2 7350   4.660   0.078   0.095 -0.4404  0.4689  0.3325
  491TMC3    C3 7351   4.574   4.715   0.124  0.1802 -0.5336 -0.7462
  491TMC3    C4 7352   4.486   0.158  17.685  0.1269  0.1202 -0.6052
  491TMC3    C5 7353   4.407   0.055  17.717  0.0937 -0.0618  0.0613
  491TMC3    C6 7354   4.447   4.700   0.074  1.0189  0.1727 -0.4660
  491TMC3     C 7355   4.704   0.266  17.704 -0.3980  0.2575  0.3554
  491TMC3     O 7356   4.666   0.384  17.695  0.3687  0.1643 -0.0068
  491TMC3     H 7357   0.027   0.080   0.131 -0.1278  0.2217 -0.5432
  491TMC3    H1 7358   4.468   0.230  17.606  0.4044  1.3646  0.4580
  491TMC3    H2 7359   4.391   4.610   0.094  1.2224  0.0987 -0.2278
  491TMC3    C7 7360   4.329   4.725  17.613 -0.3872  0.2884  0.5926
  491TMC3    C8 7361   4.606   4.622   0.228 -0.0355  0.0087 -0.3983
  491TMC3    O1 7362   4.339   4.602  17.610 -0.2842 -0.2387  0.1370
  491TMC3    O2 7363   4.513   4.560   0.282  0.0003 -0.2244 -0.2385
  492MPD2     C 7364   0.333   4.209  11.146  0.0922  0.7540 -0.0220
  492MPD2    C1 7365   0.202   4.252  11.166  0.1693 -0.3569  0.3317
  492MPD2    C2 7366   0.129   4.205  11.278 -0.5945 -0.7534 -0.1330
  492MPD2    C3 7367   0.196   4.126  11.376  0.2287  0.4755 -0.3717
  492MPD2    C4 7368   0.320   4.088  11.359  0.5998 -0.0587 -0.4865
  492MPD2    C5 7369   0.385   4.124  11.244 -0.0104  0.3877  0.4216
  492MPD2     H 7370   0.024   4.229  11.288 -0.9761 -1.6513 -2.1241
  492MPD2    H1 7371   0.369   4.020  11.428 -0.6109 -1.2173 -0.7747
  492MPD2    H2 7372   0.392   4.229  11.057 -1.8867  1.8877 -1.0803
  492MPD2    H3 7373   0.481   4.075  11.229  0.3693  1.6282 -1.2552
  492MPD2     N 7374   0.137   4.077  11.493 -0.5095  0.1293  0.7299
  492MPD2    H5 7375   0.192   4.031  11.565  0.3062 -0.5094 -0.2998
  492MPD2    N1 7376   0.149   4.344  11.070 -0.4752 -0.4481  0.3833
  492MPD2    H7 7377   0.208   4.371  10.992 -0.6874  1.2552  0.8087
  493TMC3    C1 7378   0.021   4.511  10.964  0.1182  0.4872  0.0374
  493TMC3    C2 7379   0.127   4.594  10.959 -0.2637  0.2209 -0.5771
  493TMC3    C3 7380   0.120   4.712  10.886  0.1350  0.0915 -0.6116
  493TMC3    C4 7381   4.640   4.531  10.889 -0.6573  0.0367 -0.4918
  493TMC3    C5 7382   4.638   4.648  10.808 -0.6413  0.6409 -0.1001
  493TMC3    C6 7383   0.002   0.009  10.823 -0.6925  0.3860  0.1693
  493TMC3     C 7384   0.023   4.400  11.053  0.1520 -0.5078 -0.1728
  493TMC3     O 7385   4.654   4.372  11.112 -0.3648 -0.2513  0.1340
  493TMC3     H 7386   0.191   4.594  11.047 -2.7787 -1.9280  1.2273
  493TMC3    H1 7387   4.567   4.451  10.896 -0.9709  0.3415 -0.2707
  493TMC3    H2 7388   4.731   0.112  10.789 -1.3148  0.3313  0.1065
  493TMC3    C7 7389   4.515   4.689  10.741  0.0428 -0.2942 -0.1033
  493TMC3    C8 7390   0.235   0.062  10.896 -0.1857  0.1440 -0.3269
  493TMC3    O1 7391   4.517   0.072  10.704 -0.2086  0.1779  0.5693
  493TMC3    O2 7392   0.314   0.043  10.991 -0.3688  0.0224 -0.1826
  494TMC3    C1 7393   0.850   1.488   0.665  0.2332 -0.5093  0.4132
  494TMC3    C2 7394   0.877   1.353   0.672 -0.2926 -0.1684  0.0288
  494TMC3    C3 7395   0.909   1.285   0.564 -0.5553  0.5959 -0.7514
  494TMC3    C4 7396   0.866   1.551   0.548  0.2607  0.2571 -0.3077
  494TMC3    C5 7397   0.899   1.478   0.439  0.2123 -0.1881  0.0146
  494TMC3    C6 7398   0.924   1.340   0.437 -0.0972  0.1085 -0.4923
  494TMC3     C 7399   0.841   1.562   0.791 -0.3896  0.0900 -0.0949
  494TMC3     O 7400   0.828   1.494   0.895  0.2896  0.2275  0.2491
  494TMC3     H 7401   0.886   1.306   0.769 -1.8263  1.0628  0.7606
  494TMC3    H1 7402   0.857   1.659   0.538 -2.7189  0.2411  2.1992
  494TMC3    H2 7403   0.971   1.282   0.359 -1.8670 -2.5634  0.4251
  494TMC3    C7 7404   0.865   1.532   0.316  0.4262  0.1552 -0.3307
  494TMC3    C8 7405   0.995   1.172   0.576  0.0357  1.3608  0.0666
  494TMC3    O1 7406   0.878   1.653   0.296 -0.0766  0.0965 -0.3741
  494TMC3    O2 7407   1.082   1.158   0.485 -0.1300 -0.5965  0.1497
  495TMC3    C1 7408   4.548   3.824  14.461 -0.0052  0.3217  0.3207
  495TMC3    C2 7409   4.450   3.876  14.373 -0.3978 -0.0436  0.7614
  495TMC3    C3 7410   4.338   3.932  14.424  0.6342 -0.7955 -0.6065
  495TMC3    C4 7411   4.530   3.825  14.597 -1.1273  0.2081 -0.1645
  495TMC3    C5 7412   4.418   3.883  14.644  0.2281  0.0576 -0.0785
  495TMC3    C6 7413   4.321   3.942  14.563  0.0625  0.0491 -0.2845
  495TMC3     C 7414   4.587   3.694  14.410 -0.0709 -0.1982 -0.0355
  495TMC3     O 7415   4.512   3.654  14.319  0.4846 -0.3342  0.0931
  495TMC3     H 7416   4.474   3.864  14.267  0.4775 -1.9286  1.1679
  495TMC3    H1 7417   4.577   3.760  14.670 -1.4349 -0.5453 -0.6277
  495TMC3    H2 7418   4.235   3.992  14.605 -0.7267 -1.1319 -0.4987
  495TMC3    C7 7419   4.396   3.860  14.782  0.0873  1.2436  0.7203
  495TMC3    C8 7420   4.215   3.901  14.356 -0.6987  0.7913  0.5582
  495TMC3    O1 7421   4.499   3.855  14.847 -0.1466 -0.1927 -0.1262
  495TMC3    O2 7422   4.114   3.949  14.402  0.0618 -0.3308  0.3051
  496MPD2     C 7423   1.573   3.857  15.258 -0.2722 -0.0381 -0.1564
  496MPD2    C1 7424   1.644   3.844  15.374  0.4977 -0.5458  0.0836
  496MPD2    C2 7425   1.586   3.859  15.497  0.3067 -0.1730  0.4773
  496MPD2    C3 7426   1.447   3.881  15.503 -0.4547  0.4620 -0.0000
  496MPD2    C4 7427   1.373   3.897  15.386 -0.5950 -0.2188  0.5179
  496MPD2    C5 7428   1.439   3.889  15.265  0.2198  0.3786  0.2739
  496MPD2     H 7429   1.639   3.849  15.590  1.9228  1.0871 -0.3125
  496MPD2    H1 7430   1.269   3.928  15.384 -0.3397  0.5758 -0.5550
  496MPD2    H2 7431   1.622   3.865  15.161 -0.1364  0.6023 -0.0363
  496MPD2    H3 7432   1.387   3.902  15.171  2.6689 -1.4847 -1.3241
  496MPD2     N 7433   1.377   3.895  15.627  0.0479  0.0075  0.2089
  496MPD2    H5 7434   1.278   3.914  15.618 -0.6854 -1.8318  4.1786
  496MPD2    N1 7435   1.781   3.812  15.355 -0.3707  0.3015 -0.4015
  496MPD2    H7 7436   1.816   3.810  15.259  0.7746  1.3128 -0.0131
  497TMC3    C1 7437   1.309   3.832  15.836 -0.1515 -0.3222 -0.3006
  497TMC3    C2 7438   1.202   3.799  15.757 -0.0644  0.2419 -0.7815
  497TMC3    C3 7439   1.155   3.668  15.769 -0.5282 -0.0829 -0.3385
  497TMC3    C4 7440   1.347   3.753  15.941  0.2781  0.2404  0.6226
  497TMC3    C5 7441   1.306   3.619  15.946 -0.0599  0.3815 -0.4447
  497TMC3    C6 7442   1.208   3.578  15.855 -0.2090  0.1961 -0.2247
  497TMC3     C 7443   1.419   3.868  15.752  0.0657  0.0543  0.3045
  497TMC3     O 7444   1.532   3.844  15.793 -0.2501  0.1368 -0.7157
  497TMC3     H 7445   1.148   3.868  15.693 -2.3871  1.6152  2.6509
  497TMC3    H1 7446   1.414   3.803  16.010  1.0283 -0.8467  0.6771
  497TMC3    H2 7447   1.183   3.473  15.848  1.2484 -0.1779  0.1869
  497TMC3    C7 7448   1.295   3.556  16.075 -0.2149  0.1782  0.2651
  497TMC3    C8 7449   1.109   3.614  15.640 -0.0654 -1.1006  0.3340
  497TMC3    O1 7450   1.202   3.482  16.098 -0.4347  0.2759  0.1793
  497TMC3    O2 7451   0.993   3.569  15.627  0.5426 -0.9444 -0.0896
  498MPD2     C 7452   2.344   4.573   9.949  0.2571  0.3808 -0.1982
  498MPD2    C1 7453   2.427   4.530  10.051 -0.0166  0.4507 -0.5288
  498MPD2    C2 7454   2.371   4.441  10.141  0.1863 -0.4341  0.4889
  498MPD2    C3 7455   2.237   4.400  10.136 -0.2401 -0.3608 -0.2112
  498MPD2    C4 7456   2.159   4.447  10.031 -0.3897  0.2944 -0.6760
  498MPD2    C5 7457   2.212   4.529   9.938 -0.2342  0.0097  0.2629
  498MPD2     H 7458   2.428   4.418  10.230  1.6373 -3.1292 -1.1042
  498MPD2    H1 7459   2.054   4.429  10.012 -0.3432 -1.1509  0.4604
  498MPD2    H2 7460   2.382   4.636   9.869 -0.7359  1.8620  0.5041
  498MPD2    H3 7461   2.153   4.552   9.849 -0.3168  2.1636  0.8855
  498MPD2     N 7462   2.181   4.312  10.233  0.3044  0.6291 -0.6235
  498MPD2    H5 7463   2.244   4.274  10.302 -0.5858 -1.7422 -1.1263
  498MPD2    N1 7464   2.556   4.574  10.079 -0.2063 -0.2569 -0.3625
  498MPD2    H7 7465   2.612   4.520  10.144 -1.8313 -1.5177  0.0036
  499TMC3    C1 7466   2.755   4.692  10.038 -0.5100  0.0277 -0.4551
  499TMC3    C2 7467   2.833   4.582  10.079  0.3405 -0.4469 -0.5190
  499TMC3    C3 7468   2.969   4.601  10.080  0.3822 -0.3553  0.0054
  499TMC3    C4 7469   2.812   0.071   9.991  0.4601  0.2186 -0.1243
  499TMC3    C5 7470   2.947   0.087   9.994  0.2334 -0.5356  0.8472
  499TMC3    C6 7471   3.023   4.720  10.046  0.0531  0.1271  0.6876
  499TMC3     C 7472   2.611   4.687  10.021 -0.3619 -0.3563 -0.2407
  499TMC3     O 7473   2.549   0.036   9.957  0.4852 -0.0733 -0.2243
  499TMC3     H 7474   2.785   4.485  10.085 -0.7944  0.0219 -1.8655
  499TMC3    H1 7475   2.748   0.151   9.956 -0.5403 -0.5986 -0.1786
  499TMC3    H2 7476   3.131   4.727  10.054 -0.0676  1.5219  1.0697
  499TMC3    C7 7477   3.017   0.193   9.927  0.2963  0.1821  0.1355
  499TMC3    C8 7478   3.052   4.516  10.164 -0.2315  0.5064 -0.0951
  499TMC3    O1 7479   3.133   0.165   9.911 -0.1005  0.3832  0.2143
  499TMC3    O2 7480   3.174   4.532  10.152 -0.1304  0.3110 -0.3428
  500MPD2     C 7481   3.891   0.445  11.244  0.2090  0.8268 -0.0611
  500MPD2    C1 7482   3.984   0.479  11.154 -0.1130  0.2992  0.3416
  500MPD2    C2 7483   3.947   0.543  11.035 -0.5865  0.0760  1.0091
  500MPD2    C3 7484   3.813   0.585  11.017 -0.3672 -0.4587 -0.2278
  500MPD2    C4 7485   3.716   0.543  11.109  0.6268 -0.6047  0.0867
  500MPD2    C5 7486   3.755   0.480  11.224 -0.1753  0.4271 -0.2648
  500MPD2     H 7487   4.014   0.568  10.953  0.7121 -1.1800  1.6783
  500MPD2    H1 7488   3.611   0.568  11.096  0.9094  1.1781  1.3500
  500MPD2    H2 7489   3.906   0.395  11.339  0.3778  1.4791  0.2529
  500MPD2    H3 7490   3.682   0.465  11.302 -0.4811 -1.2367 -0.8810
  500MPD2     N 7491   3.761   0.638  10.895  0.1405 -0.5298 -0.1700
  500MPD2    H5 7492   3.663   0.662  10.895 -0.0676 -1.3826  0.5083
  500MPD2    N1 7493   4.124   0.457  11.174 -0.1269  0.1295  0.3513
  500MPD2    H7 7494   4.196   0.476  11.106 -1.1106 -2.0897 -1.3138
  501TMC3    C1 7495   4.324   0.443  11.298  0.1417  0.1705 -0.0352
  501TMC3    C2 7496   4.361   0.546  11.222  1.2922 -0.0280 -1.2541
  501TMC3    C3 7497   4.494   0.578  11.227 -0.3672  0.8620  0.8714
  501TMC3    C4 7498   4.408   0.383  11.384  0.2567  0.2747 -0.1324
  501TMC3    C5 7499   4.535   0.429  11.406 -0.3799 -0.3055  0.0642
  501TMC3    C6 7500   4.577   0.527  11.320 -0.3397 -0.3041 -0.0599
  501TMC3     C 7501   4.185   0.413  11.298  0.3321 -0.1225  0.1583
  501TMC3     O 7502   4.131   0.354  11.390  0.6347  0.4055 -0.0793
  501TMC3     H 7503   4.292   0.614  11.173  0.1840 -1.3108 -1.4450
  501TMC3    H1 7504   4.384   0.315  11.464  0.6768  0.4054  0.1065
  501TMC3    H2 7505   4.684   0.546  11.324 -0.5014  1.0000 -1.6726
  501TMC3    C7 7506   4.629   0.356  11.490 -0.4452 -0.0056  0.5689
  501TMC3    C8 7507   4.551   0.685  11.144  0.5138  0.4010 -0.6552
  501TMC3    O1 7508   4.596   0.241  11.522  1.0322 -0.1877  0.0758
  501TMC3    O2 7509   4.653   0.735  11.184 -0.0503 -0.2239 -0.3093
  502TMC3    C1 7510   3.861   4.116  15.022  0.2420  0.1203  0.1516
  502TMC3    C2 7511   3.853   4.217  14.929  0.4028 -0.1849  0.0379
  502TMC3    C3 7512   3.771   4.321  14.957  0.1516  0.2502 -0.7735
  502TMC3    C4 7513   3.749   4.098  15.101  0.6090  0.4482  0.1883
  502TMC3    C5 7514   3.653   4.195  15.110 -0.9054 -0.0846  0.0825
  502TMC3    C6 7515   3.665   4.310  15.043 -0.0828  0.5739 -0.7050
  502TMC3     C 7516   3.981   4.138  15.105  0.0990 -0.1621 -0.4873
  502TMC3     O 7517   4.077   4.188  15.049  0.0032 -0.2965  0.0957
  502TMC3     H 7518   3.935   4.230  14.859 -0.0445  1.5062 -0.1814
  502TMC3    H1 7519   3.737   4.001  15.146 -0.5734 -0.0635 -1.2262
  502TMC3    H2 7520   3.604   4.396  15.067  2.3241  1.4819  2.2060
  502TMC3    C7 7521   3.596   4.195  15.236  0.5330  0.3561  0.4863
  502TMC3    C8 7522   3.829   4.451  14.944 -0.0499  0.0875 -0.3367
  502TMC3    O1 7523   3.655   4.126  15.317  0.7943 -0.2569  0.2002
  502TMC3    O2 7524   3.757   4.548  14.950 -0.4401  0.1045 -0.5455
  503MPD2     C 7525   1.320   0.531  17.086  0.0580  0.0078 -0.7595
  503MPD2    C1 7526   1.375   0.587  17.202 -0.1995 -0.6824 -0.0354
  503MPD2    C2 7527   1.454   0.504  17.281 -0.8521  0.1130 -0.4125
  503MPD2    C3 7528   1.482   0.378  17.240 -0.3281 -0.0698  0.2097
  503MPD2    C4 7529   1.444   0.330  17.120 -0.6870 -0.0206  0.5821
  503MPD2    C5 7530   1.360   0.409  17.045 -0.1307  0.8594  0.0320
  503MPD2     H 7531   1.481   0.534  17.382  0.2144  1.7002 -1.1796
  503MPD2    H1 7532   1.465   0.231  17.083 -0.7560 -0.3244  1.3462
  503MPD2    H2 7533   1.255   0.585  17.018 -2.2999 -0.6808  0.9513
  503MPD2    H3 7534   1.323   0.366  16.953  1.2458  3.6619 -1.8002
  503MPD2     N 7535   1.570   0.301  17.318 -0.5187 -0.2278 -0.3178
  503MPD2    H5 7536   1.625   0.342  17.392  1.9508 -2.8448 -0.7131
  503MPD2    N1 7537   1.343   0.719  17.249 -0.0049  0.1191 -0.8982
  503MPD2    H7 7538   1.372   0.744  17.343 -0.0501 -0.0314 -0.8446
  504TMC3    C1 7539   1.699   0.112  17.380 -0.2439  0.1933  0.0361
  504TMC3    C2 7540   1.647   0.001  17.456  0.0194  0.2765 -0.3962
  504TMC3    C3 7541   1.734   4.680  17.546  0.2356 -0.1690 -0.2584
  504TMC3    C4 7542   1.826   0.156  17.392  0.3029  0.9105  0.2671
  504TMC3    C5 7543   1.907   0.100  17.485  0.3177 -0.4629  0.1663
  504TMC3    C6 7544   1.859   4.732  17.559 -0.6226  0.0040  0.0582
  504TMC3     C 7545   1.606   0.170  17.286  0.7332  0.2244  0.2880
  504TMC3     O 7546   1.549   0.086  17.226 -0.2513  0.0140 -0.5389
  504TMC3     H 7547   1.561   4.681  17.420  0.3660 -1.7811  1.9706
  504TMC3    H1 7548   1.865   0.224  17.318  1.1795 -0.1168 -0.2158
  504TMC3    H2 7549   1.926   4.678  17.624  0.6820  1.2920 -0.2072
  504TMC3    C7 7550   2.046   0.077  17.439 -0.1831  0.1639  0.3434
  504TMC3    C8 7551   1.681   4.568  17.619 -0.8623 -0.0432  0.1843
  504TMC3    O1 7552   2.063   0.099  17.320 -0.0744  0.0240 -0.1321
  504TMC3    O2 7553   1.563   4.549  17.594 -0.1016  0.3549  0.1069
  505MPD2     C 7554   1.226   4.070  11.236 -0.9034 -0.5710  0.4293
  505MPD2    C1 7555   1.311   3.961  11.248  0.2157 -0.4229 -0.0025
  505MPD2    C2 7556   1.430   3.979  11.317 -0.4412 -0.5287  0.2735
  505MPD2    C3 7557   1.471   4.099  11.374 -0.0010 -0.4697  0.9004
  505MPD2    C4 7558   1.381   4.203  11.358 -0.1230 -0.4268  0.2786
  505MPD2    C5 7559   1.263   4.188  11.294 -0.6945 -0.3960 -0.4410
  505MPD2     H 7560   1.490   3.889  11.317  1.3918  0.6933  1.3439
  505MPD2    H1 7561   1.404   4.301  11.398 -1.1735  0.4447 -1.2768
  505MPD2    H2 7562   1.131   4.063  11.183  0.3512 -2.1788 -1.6066
  505MPD2    H3 7563   1.202   4.278  11.291  0.7593  0.5908 -0.2901
  505MPD2     N 7564   1.597   4.111  11.437  0.1949 -0.5020 -0.0126
  505MPD2    H5 7565   1.625   4.203  11.469 -2.3245  0.7268 -1.3565
  505MPD2    N1 7566   1.266   3.837  11.192  0.5181  0.0077 -0.2516
  505MPD2    H7 7567   1.180   3.831  11.137  0.5570 -1.1178 -0.1917
  506TMC3    C1 7568   1.281   3.599  11.141 -0.3481 -0.1823 -0.0229
  506TMC3    C2 7569   1.300   3.613  11.004  0.5097 -0.0493 -0.9210
  506TMC3    C3 7570   1.323   3.506  10.930  0.5902 -0.6469 -0.3780
  506TMC3    C4 7571   1.311   3.484  11.200 -0.3734  0.1933 -0.1943
  506TMC3    C5 7572   1.360   3.382  11.121  0.4754  0.6697  0.2134
  506TMC3    C6 7573   1.357   3.391  10.991 -0.3736 -0.4638  0.1976
  506TMC3     C 7574   1.323   3.713  11.222 -0.6771  0.0011 -0.5851
  506TMC3     O 7575   1.389   3.685  11.320 -0.3918  0.1298 -0.0653
  506TMC3     H 7576   1.269   3.706  10.958  0.8349  0.9211  0.8466
  506TMC3    H1 7577   1.303   3.463  11.306 -0.1227  0.3031 -0.1525
  506TMC3    H2 7578   1.399   3.316  10.924  0.8089  0.3751 -0.0133
  506TMC3    C7 7579   1.489   3.338  11.163 -0.0579  0.3089 -0.0029
  506TMC3    C8 7580   1.348   3.511  10.791 -0.2675  0.3404  0.1244
  506TMC3    O1 7581   1.550   3.257  11.094 -0.2189 -0.6077 -0.2936
  506TMC3    O2 7582   1.324   3.411  10.728 -0.4511 -0.1639  0.3620
  507TMC3    C1 7583   1.905   4.594  14.476 -0.2918  0.2829 -0.2073
  507TMC3    C2 7584   1.995   4.649  14.386 -0.4801 -0.0745 -0.0885
  507TMC3    C3 7585   2.121   4.596  14.385  0.4726 -0.1153 -0.1145
  507TMC3    C4 7586   1.958   4.534  14.592 -0.0529 -0.2467 -0.4613
  507TMC3    C5 7587   2.091   4.496  14.602 -0.6433 -0.1794 -0.2684
  507TMC3    C6 7588   2.165   4.508  14.486 -0.0088  0.1936  0.8569
  507TMC3     C 7589   1.806   4.686  14.515  0.1584  0.6095  0.2201
  507TMC3     O 7590   1.712   4.631  14.569 -0.8205  0.1463  0.8327
  507TMC3     H 7591   1.956   4.707  14.303 -0.2615  0.9065  0.4939
  507TMC3    H1 7592   1.891   4.514  14.675  1.4468 -0.1706  0.7667
  507TMC3    H2 7593   2.269   4.480  14.495  0.0526 -0.0336 -0.5790
  507TMC3    C7 7594   2.174   4.559  14.709 -0.3786 -0.3012 -0.0131
  507TMC3    C8 7595   2.205   4.720  14.385  0.3372 -0.1259  0.1855
  507TMC3    O1 7596   2.276   4.613  14.677 -0.0209  0.4955  0.1907
  507TMC3    O2 7597   2.139   0.088  14.408  0.2716 -0.3301 -0.4358
  508MPD2     C 7598   3.020   2.488  16.346  0.0110 -0.0899 -0.2396
  508MPD2    C1 7599   3.145   2.550  16.350  1.1150  0.0972  0.3710
  508MPD2    C2 7600   3.184   2.632  16.245 -0.2204 -0.0271 -0.1261
  508MPD2    C3 7601   3.097   2.648  16.139  0.0512 -0.0115 -0.0939
  508MPD2    C4 7602   2.975   2.585  16.141  0.5019 -0.4363  0.4595
  508MPD2    C5 7603   2.934   2.502  16.241  0.8308 -0.2808  0.4390
  508MPD2     H 7604   3.273   2.693  16.241  0.2068 -0.6540 -0.2119
  508MPD2    H1 7605   2.913   2.591  16.052  1.0141  1.4683  0.2221
  508MPD2    H2 7606   2.994   2.420  16.426  1.1211 -0.7900 -0.4739
  508MPD2    H3 7607   2.841   2.447  16.235 -0.6751  2.0392  2.3274
  508MPD2     N 7608   3.151   2.712  16.015 -0.4238  0.5630 -0.9554
  508MPD2    H5 7609   3.244   2.752  16.020 -0.5494  0.6662  0.6511
  508MPD2    N1 7610   3.228   2.527  16.461 -0.0285 -0.7731  0.5743
  508MPD2    H7 7611   3.187   2.474  16.537 -1.1550  1.7952  1.7644
  509TMC3    C1 7612   3.188   2.857  15.565 -0.0630  0.3209  0.4071
  509TMC3    C2 7613   3.324   2.842  15.565  0.2141  0.4613 -0.3853
  509TMC3    C3 7614   3.378   2.803  15.685  0.0931  0.2520 -0.2367
  509TMC3    C4 7615   3.109   2.815  15.669 -0.3771  0.1199 -0.5455
  509TMC3    C5 7616   3.165   2.779  15.787 -0.9845  0.5566 -0.6456
  509TMC3    C6 7617   3.303   2.776  15.800  0.4141 -0.6050  0.0389
  509TMC3     C 7618   3.139   2.929  15.447 -0.4204  0.9181 -0.9526
  509TMC3     O 7619   3.218   2.984  15.374 -0.2147 -0.0433  0.3007
  509TMC3     H 7620   3.387   2.885  15.487  0.0340  1.6571  0.1193
  509TMC3    H1 7621   3.005   2.844  15.664 -0.4823 -0.7845 -3.3474
  509TMC3    H2 7622   3.342   2.744  15.895  2.0589  1.1095 -0.0570
  509TMC3    C7 7623   3.088   2.723  15.895  0.1065  0.3917 -0.7784
  509TMC3    C8 7624   3.508   2.848  15.718  0.0667  0.0351  0.3485
  509TMC3    O1 7625   2.967   2.723  15.865 -0.2332  0.1788 -0.0151
  509TMC3    O2 7626   3.566   2.780  15.803  0.0135  0.1087  0.5213
  510MPD2     C 7627   1.056   4.014  14.913 -0.0413 -0.7007 -0.1799
  510MPD2    C1 7628   1.113   3.891  14.940  0.6232  0.1418 -0.2767
  510MPD2    C2 7629   1.222   3.847  14.868 -0.2890  0.0075 -0.4367
  510MPD2    C3 7630   1.283   3.924  14.768  0.4053 -0.5801 -0.3887
  510MPD2    C4 7631   1.219   4.040  14.742  0.5992 -0.1009  0.5924
  510MPD2    C5 7632   1.101   4.082  14.805  0.1196  0.6805 -0.2425
  510MPD2     H 7633   1.262   3.751  14.898 -0.6275  0.3776  1.1719
  510MPD2    H1 7634   1.254   4.106  14.663 -2.7526 -0.6854 -1.3890
  510MPD2    H2 7635   0.966   4.055  14.958 -0.7253  0.2070 -2.3837
  510MPD2    H3 7636   1.041   4.161  14.761 -0.4485 -0.0389 -0.7516
  510MPD2     N 7637   1.403   3.876  14.707  0.2546  0.6800  0.0315
  510MPD2    H5 7638   1.443   3.787  14.735 -0.1846  0.8046  1.0248
  510MPD2    N1 7639   1.059   3.806  15.043 -0.3496  0.3545 -0.7866
  510MPD2    H7 7640   1.083   3.708  15.050  4.4352  1.6136  0.0162
  511TMC3    C1 7641   0.903   3.757  15.219  0.0587 -0.2438  0.4759
  511TMC3    C2 7642   0.867   3.796  15.345  1.0224  0.1628  0.3260
  511TMC3    C3 7643   0.774   3.728  15.414  0.2732  0.5833  0.0712
  511TMC3    C4 7644   0.853   3.645  15.167 -0.4743  0.3469 -0.0853
  511TMC3    C5 7645   0.759   3.580  15.237  0.0323  0.3094  1.0735
  511TMC3    C6 7646   0.713   3.621  15.356  0.0377  0.4866 -0.4054
  511TMC3     C 7647   0.975   3.857  15.143 -0.4790 -0.7389 -0.3613
  511TMC3     O 7648   0.955   3.972  15.172  0.0801  0.1441 -0.2057
  511TMC3     H 7649   0.901   3.894  15.380  1.5280  0.3292 -0.6345
  511TMC3    H1 7650   0.882   3.608  15.069  2.4003 -1.9382  1.6493
  511TMC3    H2 7651   0.614   3.594  15.390  1.0177 -0.4636  1.7279
  511TMC3    C7 7652   0.681   3.475  15.171 -0.2586 -1.0247 -0.1872
  511TMC3    C8 7653   0.732   3.791  15.542  0.7802 -0.7546  0.1682
  511TMC3    O1 7654   0.690   3.482  15.048  0.3874 -0.0152 -0.0928
  511TMC3    O2 7655   0.782   3.896  15.579  0.4166 -0.2841  0.2592
  512TMC3    C1 7656   3.995   2.837  13.623  1.0180 -0.3438  0.3325
  512TMC3    C2 7657   4.129   2.853  13.640  0.4560 -0.1620 -0.1464
  512TMC3    C3 7658   4.208   2.742  13.618 -0.1400  0.2796  0.6473
  512TMC3    C4 7659   3.941   2.721  13.577 -0.0387  0.3371 -0.6954
  512TMC3    C5 7660   4.020   2.610  13.564 -0.4033  0.0379 -0.0471
  512TMC3    C6 7661   4.160   2.616  13.587  0.6002 -0.3268  0.3320
  512TMC3     C 7662   3.911   2.959  13.643 -0.5793  0.0390 -0.1607
  512TMC3     O 7663   3.963   3.069  13.652  0.6364  0.3503 -0.3227
  512TMC3     H 7664   4.168   2.951  13.668  1.9702 -0.7759 -0.0990
  512TMC3    H1 7665   3.837   2.721  13.547 -0.0932  1.4466 -0.5057
  512TMC3    H2 7666   4.229   2.545  13.545  0.4868  1.6981 -3.2739
  512TMC3    C7 7667   3.968   2.501  13.478  0.1769  0.1280 -0.0622
  512TMC3    C8 7668   4.357   2.763  13.633  0.0967  0.4672  0.8390
  512TMC3    O1 7669   3.859   2.528  13.430 -0.1862  0.9589 -0.6635
  512TMC3    O2 7670   4.429   2.664  13.630 -0.2355 -0.8243 -0.1176
  513MPD2     C 7671   1.476   3.945  13.537 -0.8699 -0.4926  0.2032
  513MPD2    C1 7672   1.392   3.842  13.535  0.6117 -0.3092 -0.6221
  513MPD2    C2 7673   1.411   3.745  13.630  0.0194 -0.1372 -0.2042
  513MPD2    C3 7674   1.523   3.745  13.718  0.0022 -0.3622 -0.1221
  513MPD2    C4 7675   1.601   3.853  13.718 -0.4504 -0.1379 -0.5532
  513MPD2    C5 7676   1.572   3.954  13.627 -0.9250  0.4566  0.9820
  513MPD2     H 7677   1.347   3.659  13.645 -0.1135  0.0309  0.2102
  513MPD2    H1 7678   1.694   3.851  13.773 -0.1969 -0.8971 -1.0058
  513MPD2    H2 7679   1.467   4.026  13.466  3.0815 -1.7495 -1.7104
  513MPD2    H3 7680   1.637   4.041  13.626 -0.0177 -0.2607 -1.4349
  513MPD2     N 7681   1.542   3.629  13.799 -0.5159 -0.3122 -1.0702
  513MPD2    H5 7682   1.468   3.560  13.798 -1.1316  0.2968  1.1922
  513MPD2    N1 7683   1.302   3.825  13.425 -0.4179 -0.4569  0.4950
  513MPD2    H7 7684   1.308   3.885  13.343 -1.8249 -4.0800 -2.2675
  514TMC3    C1 7685   1.148   3.715  13.288 -0.1264  0.3513 -0.3201
  514TMC3    C2 7686   1.232   3.753  13.187 -0.2834  0.6321  0.1729
  514TMC3    C3 7687   1.235   3.668  13.083  1.3224  0.3601 -0.5131
  514TMC3    C4 7688   1.069   3.610  13.288 -0.3617 -0.1489 -0.1767
  514TMC3    C5 7689   1.069   3.528  13.181  1.2611 -0.2777  0.2787
  514TMC3    C6 7690   1.155   3.552  13.077 -0.5469  0.1314  0.0616
  514TMC3     C 7691   1.204   3.730  13.419  0.9246 -0.1280 -0.1250
  514TMC3     O 7692   1.172   3.646  13.502  0.5297  0.8702  0.1572
  514TMC3     H 7693   1.279   3.850  13.193  2.9108 -0.8556 -1.1428
  514TMC3    H1 7694   1.000   3.596  13.371  0.6691 -3.5575  0.1382
  514TMC3    H2 7695   1.166   3.483  12.995  1.9050  0.0417  0.4566
  514TMC3    C7 7696   1.063   3.393  13.222  0.7960 -0.0313  0.6072
  514TMC3    C8 7697   1.326   3.705  12.981 -0.3585  0.0571 -0.0201
  514TMC3    O1 7698   1.049   3.304  13.139  0.3367  0.3656  0.2238
  514TMC3    O2 7699   1.408   3.790  13.016  0.0454 -0.7068  0.0003
  515MPD2     C 7700   4.377   0.567  14.867 -0.7293 -0.5495  0.0355
  515MPD2    C1 7701   4.470   0.470  14.874 -0.8492  0.5638  0.2430
  515MPD2    C2 7702   4.577   0.478  14.964  0.6097 -0.1023 -0.4504
  515MPD2    C3 7703   4.591   0.589  15.041  0.2710  0.4279  0.5566
  515MPD2    C4 7704   4.487   0.680  15.039 -0.8383 -0.4699 -0.0872
  515MPD2    C5 7705   4.388   0.674  14.950  0.3356 -0.3074  0.4869
  515MPD2     H 7706   4.647   0.395  14.973  1.3156  0.2830 -2.2678
  515MPD2    H1 7707   4.488   0.771  15.098 -0.5223 -1.5201  1.5385
  515MPD2    H2 7708   4.293   0.559  14.799 -1.2412  1.7880  0.3791
  515MPD2    H3 7709   4.312   0.750  14.951 -0.0430 -0.6868  0.4090
  515MPD2     N 7710   4.690   0.605  15.139  0.3246  0.1539  0.1060
  515MPD2    H5 7711   4.695   0.692  15.191 -1.8454 -0.6516  1.6274
  515MPD2    N1 7712   4.452   0.345  14.809  0.0092  0.0174  0.4434
  515MPD2    H7 7713   4.514   0.268  14.831 -0.1025  0.0926  1.0233
  516TMC3    C1 7714   4.326   0.166  14.716 -0.3067  0.6084 -0.6307
  516TMC3    C2 7715   4.295   0.134  14.587  0.4273  0.1598  0.8378
  516TMC3    C3 7716   4.319   0.007  14.541 -0.3115 -0.5587  0.5545
  516TMC3    C4 7717   4.398   0.077  14.788  0.5912 -0.6957  0.0765
  516TMC3    C5 7718   4.404   4.684  14.747  0.0886  0.0144  0.0077
  516TMC3    C6 7719   4.370   4.643  14.623  0.2441  0.2525 -0.0261
  516TMC3     C 7720   4.340   0.311  14.737 -0.4523 -0.1274  0.1304
  516TMC3     O 7721   4.254   0.380  14.685  0.0453  0.3699 -0.1558
  516TMC3     H 7722   4.257   0.207  14.516 -0.7929  0.8681  2.2280
  516TMC3    H1 7723   4.434   0.103  14.887 -1.8909  0.2230  0.7425
  516TMC3    H2 7724   4.388   4.543  14.585  0.1248  0.9499 -1.9368
  516TMC3    C7 7725   4.464   4.598  14.845  0.3692 -0.4849 -0.3326
  516TMC3    C8 7726   4.295   4.710  14.400  0.1558  0.3171  0.3002
  516TMC3    O1 7727   4.559   4.633  14.913 -0.1299  0.1038 -0.6853
  516TMC3    O2 7728   4.196   0.021  14.347  0.2985 -0.2946 -0.1774
  517MPD2     C 7729   4.410   2.201   0.374 -0.4079  0.4662  0.2755
  517MPD2    C1 7730   4.545   2.168   0.366  0.0388 -0.4690 -0.4190
  517MPD2    C2 7731   4.634   2.266   0.377 -0.3298 -0.0193 -0.6874
  517MPD2    C3 7732   4.605   2.399   0.406 -0.5513 -0.5450  0.2308
  517MPD2    C4 7733   4.474   2.430   0.417  0.7094 -0.2693  0.2159
  517MPD2    C5 7734   4.381   2.328   0.412 -0.6300 -0.2495 -0.5311
  517MPD2     H 7735   0.002   2.244   0.351  0.6422  3.0380  0.6415
  517MPD2    H1 7736   4.431   2.527   0.436  1.3115  0.0514 -0.0682
  517MPD2    H2 7737   4.331   2.131   0.352 -0.7425  1.0715 -0.4378
  517MPD2    H3 7738   4.274   2.348   0.416 -0.8837 -1.9003  0.6949
  517MPD2     N 7739   4.696   2.503   0.419  0.1101 -0.3268 -0.8479
  517MPD2    H5 7740   4.658   2.596   0.431  0.0752 -0.6270  1.2500
  517MPD2    N1 7741   4.586   2.035   0.344  0.0347  0.3531  0.2292
  517MPD2    H7 7742   4.683   2.016   0.317  0.4940  0.4910  1.8082
  518TMC3    C1 7743   4.564   1.806   0.289  0.9248  0.3624  0.4454
  518TMC3    C2 7744   4.496   1.687   0.307 -0.0097  0.4188  0.2331
  518TMC3    C3 7745   4.565   1.565   0.285 -0.0220 -0.1468 -0.1637
  518TMC3    C4 7746   4.686   1.808   0.233  0.1683 -0.3997  0.7623
  518TMC3    C5 7747   0.011   1.686   0.210  0.1134 -0.5810 -0.8360
  518TMC3    C6 7748   4.693   1.559   0.239 -0.9995 -0.2560  0.1065
  518TMC3     C 7749   4.499   1.925   0.332 -0.1944  0.1705 -0.3517
  518TMC3     O 7750   4.378   1.922   0.352 -0.7556 -0.2986 -0.1485
  518TMC3     H 7751   4.403   1.675   0.361 -0.7583 -0.7545 -1.3304
  518TMC3    H1 7752   0.005   1.899   0.212 -2.0217  0.6059 -0.4720
  518TMC3    H2 7753   0.009   1.463   0.229 -0.3475  0.1624 -0.5461
  518TMC3    C7 7754   0.129   1.700   0.111  0.1869 -0.0679  0.1396
  518TMC3    C8 7755   4.485   1.443   0.274  0.4321 -0.0813 -0.2836
  518TMC3    O1 7756   0.161   1.802   0.050 -0.2938  0.0179 -0.1842
  518TMC3    O2 7757   4.542   1.364   0.193 -0.2108 -0.2852  0.5283
  519MPD2     C 7758   1.359   4.694  14.907 -0.0817  0.1595  0.4830
  519MPD2    C1 7759   1.243   4.725  14.834 -0.0137  0.8976 -0.6287
  519MPD2    C2 7760   1.257   4.721  14.702  0.5378  0.4826 -0.8638
  519MPD2    C3 7761   1.353   4.639  14.649 -0.0409  0.4679  0.0502
  519MPD2    C4 7762   1.446   4.575  14.727  0.2132  0.3003 -0.0882
  519MPD2    C5 7763   1.457   4.611  14.855 -0.7505 -0.0036  0.4696
  519MPD2     H 7764   1.181   0.036  14.643 -0.0108  0.0639 -0.5097
  519MPD2    H1 7765   1.517   4.502  14.689  1.3412  1.6036 -0.4442
  519MPD2    H2 7766   1.368   4.718  15.013 -0.0417  0.7261  0.3530
  519MPD2    H3 7767   1.535   4.576  14.922 -0.5670  2.1227  1.3441
  519MPD2     N 7768   1.362   4.618  14.508 -0.7745  0.6845 -0.1652
  519MPD2    H5 7769   1.447   4.571  14.478 -0.2559  1.3907  0.2070
  519MPD2    N1 7770   1.149   0.075  14.902  1.1716 -0.3411 -0.0582
  519MPD2    H7 7771   1.177   0.111  14.992 -0.2673 -1.9024  1.0138
  520TMC3    C1 7772   1.328   4.611  14.289 -0.9524  0.1672 -0.2970
  520TMC3    C2 7773   1.253   4.667  14.185  0.4212 -0.2044  0.1252
  520TMC3    C3 7774   1.312   4.665  14.061  0.0535 -0.1280  0.1433
  520TMC3    C4 7775   1.458   4.572  14.268  0.3280  0.6263 -0.8206
  520TMC3    C5 7776   1.499   4.560  14.141  0.1746  0.6556 -0.1063
  520TMC3    C6 7777   1.430   4.606  14.034  0.7309  0.3223  0.3426
  520TMC3     C 7778   1.270   4.651  14.414  0.7232  0.6376  0.2618
  520TMC3     O 7779   1.158   4.696  14.431  0.3365  0.3839  0.3322
  520TMC3     H 7780   1.162   4.720  14.211  0.4783 -1.0194  1.9781
  520TMC3    H1 7781   1.529   4.552  14.347 -0.1424  0.8604 -0.3467
  520TMC3    H2 7782   1.481   4.607  13.938  0.3815 -0.5575  0.1491
  520TMC3    C7 7783   1.631   4.495  14.119  0.5086  0.0407  0.5820
  520TMC3    C8 7784   1.244   4.720  13.947 -1.1658 -0.9180  0.0820
  520TMC3    O1 7785   1.671   4.531  14.010 -0.6119 -0.5112  0.2378
  520TMC3    O2 7786   1.317   0.007  13.852 -0.7092 -0.7100 -0.3581
  521MPD2     C 7787   2.061   2.990   0.098  0.5146 -0.6347 -0.0398
  521MPD2    C1 7788   2.025   2.913  17.725 -0.1296 -0.3743  0.6369
  521MPD2    C2 7789   2.123   2.882  17.631  0.5240  0.5517  0.8349
  521MPD2    C3 7790   2.252   2.928  17.650 -0.5692 -0.3231  0.4166
  521MPD2    C4 7791   2.286   2.997   0.028  0.6029 -0.7027 -0.3702
  521MPD2    C5 7792   2.192   3.023   0.117 -0.2610  0.0450 -0.3123
  521MPD2     H 7793   2.113   2.816  17.546  2.1146  0.8893  0.3867
  521MPD2    H1 7794   2.383   3.035   0.058 -0.4083  0.2979  1.6223
  521MPD2    H2 7795   1.987   3.022   0.172  0.6327  0.8169 -0.5542
  521MPD2    H3 7796   2.230   3.070   0.207  0.1110 -1.5038  0.3328
  521MPD2     N 7797   2.357   2.901  17.549  0.2924  0.0789  0.4580
  521MPD2    H5 7798   2.324   2.848  17.469  0.3410  0.6319  0.0718
  521MPD2    N1 7799   1.887   2.882  17.715 -0.4385 -0.3168 -0.1374
  521MPD2    H7 7800   1.830   2.915   0.053 -1.2732  2.8501 -2.1074
  522TMC3    C1 7801   2.553   2.919  17.419 -0.0188  0.0236 -0.1694
  522TMC3    C2 7802   2.687   2.957  17.418 -0.1910 -0.6594  0.5040
  522TMC3    C3 7803   2.767   2.901  17.326  0.2930  0.1853  0.2046
  522TMC3    C4 7804   2.491   2.836  17.331  0.1727  0.1311 -0.4290
  522TMC3    C5 7805   2.576   2.787  17.236 -0.6778  0.3299 -0.3254
  522TMC3    C6 7806   2.713   2.809  17.240 -0.2097  0.5554  0.0166
  522TMC3     C 7807   2.488   2.938  17.545  0.0728 -0.4341 -0.4860
  522TMC3     O 7808   2.548   2.994  17.633 -0.3936 -0.3898 -0.6066
  522TMC3     H 7809   2.725   3.028  17.491 -0.5342 -1.3143  1.3218
  522TMC3    H1 7810   2.390   2.796  17.339  1.4057 -3.5611 -3.1246
  522TMC3    H2 7811   2.782   2.760  17.171 -1.1390 -0.2260 -0.3547
  522TMC3    C7 7812   2.525   2.730  17.113  0.7017  0.3716  0.1747
  522TMC3    C8 7813   2.913   2.908  17.343  0.4180 -0.1636 -0.7083
  522TMC3    O1 7814   2.613   2.693  17.037  0.4043 -0.2317  0.4158
  522TMC3    O2 7815   2.946   2.971  17.442  0.7651 -0.1913 -0.4613
  523MPD2     C 7816   0.248   2.983  10.485  0.2002  0.4908 -0.1610
  523MPD2    C1 7817   0.119   2.932  10.489  0.0965 -0.2494  0.9186
  523MPD2    C2 7818   0.022   3.013  10.429  0.0060 -0.7788 -0.3543
  523MPD2    C3 7819   0.050   3.143  10.396 -0.8248  1.0319  0.3357
  523MPD2    C4 7820   0.179   3.187  10.403  0.3826  0.1099 -0.6545
  523MPD2    C5 7821   0.282   3.109  10.446 -0.1842  0.6327 -0.2433
  523MPD2     H 7822   4.659   2.972  10.407  0.6163 -1.5009 -1.7168
  523MPD2    H1 7823   0.207   3.282  10.360  1.5594  0.0329 -0.0365
  523MPD2    H2 7824   0.329   2.919  10.519 -0.0493 -1.4620 -3.2188
  523MPD2    H3 7825   0.386   3.139  10.446 -0.2255  0.7682  1.3443
  523MPD2     N 7826   4.695   3.231  10.332  0.1918 -0.1578  0.2256
  523MPD2    H5 7827   0.007   3.316  10.303  0.0344 -0.3951 -0.7267
  523MPD2    N1 7828   0.098   2.811  10.552  0.6244 -0.5203 -0.0568
  523MPD2    H7 7829   0.183   2.758  10.567 -0.0636 -1.3163  1.0655
  524TMC3    C1 7830   4.499   3.299  10.233  0.1994  0.4764 -0.5486
  524TMC3    C2 7831   4.566   3.362  10.131  0.5021 -0.9606 -0.4785
  524TMC3    C3 7832   4.500   3.441  10.036  0.9213  0.5275 -0.0368
  524TMC3    C4 7833   4.363   3.304  10.228  0.2463  0.3548 -0.6409
  524TMC3    C5 7834   4.293   3.369  10.128 -0.3691 -0.3017  0.0655
  524TMC3    C6 7835   4.361   3.438  10.030 -0.0276  0.4164  0.0176
  524TMC3     C 7836   4.564   3.214  10.327 -0.4049 -0.6779  0.6140
  524TMC3     O 7837   4.496   3.138  10.393 -0.5960  0.5076  0.4739
  524TMC3     H 7838   4.669   3.338  10.106  0.7608 -1.4593  1.0198
  524TMC3    H1 7839   4.306   3.242  10.296 -0.7362  4.3763  2.2263
  524TMC3    H2 7840   4.314   3.489   9.947 -0.5286  1.2559  0.8210
  524TMC3    C7 7841   4.147   3.356  10.133 -0.3752  0.3057 -0.0080
  524TMC3    C8 7842   4.580   3.526   9.955 -0.0534 -0.1621 -0.1518
  524TMC3    O1 7843   4.111   3.261  10.194 -0.1279 -0.2037  0.1803
  524TMC3    O2 7844   4.697   3.498   9.945  0.4668 -0.0019  0.0227
  525MPD2     C 7845   2.542   4.286  14.727  0.1494  0.4594 -0.1044
  525MPD2    C1 7846   2.674   4.296  14.760  0.6353  0.1166  0.3454
  525MPD2    C2 7847   2.755   4.386  14.706 -0.3721  0.1740 -0.2907
  525MPD2    C3 7848   2.705   4.482  14.621 -0.4630  0.4087  0.5164
  525MPD2    C4 7849   2.580   4.457  14.572 -0.0430  0.0840 -0.2624
  525MPD2    C5 7850   2.498   4.364  14.629 -0.1607  0.3965  0.4595
  525MPD2     H 7851   2.854   4.395  14.750  0.8089 -1.6923 -2.5512
  525MPD2    H1 7852   2.542   4.521  14.494 -0.7177  2.0636  1.6705
  525MPD2    H2 7853   2.474   4.211  14.769  0.3533  0.2988 -0.0599
  525MPD2    H3 7854   2.399   4.351  14.588  0.0655  0.1813 -0.0197
  525MPD2     N 7855   2.778   4.588  14.572  0.2130  0.1435  0.4640
  525MPD2    H5 7856   2.731   4.664  14.525 -0.1663 -0.7837 -0.6661
  525MPD2    N1 7857   2.731   4.204  14.858  0.3614  0.3189 -0.3132
  525MPD2    H7 7858   2.830   4.218  14.869  0.0392 -0.0200  3.0299
  526TMC3    C1 7859   2.745   4.064  15.051 -0.5191  0.1817  0.1850
  526TMC3    C2 7860   2.698   4.059  15.180 -0.0574 -0.3108  0.7961
  526TMC3    C3 7861   2.780   4.031  15.288 -0.1004  0.4997 -0.5804
  526TMC3    C4 7862   2.881   4.052  15.030  0.0127  0.2162 -0.0126
  526TMC3    C5 7863   2.962   4.026  15.138  0.3772  0.7563  0.2443
  526TMC3    C6 7864   2.915   4.017  15.263  0.3013 -0.5353 -0.1199
  526TMC3     C 7865   2.660   4.125  14.944  0.0108  0.1721 -0.0635
  526TMC3     O 7866   2.543   4.102  14.948 -0.1174 -0.0433  0.1465
  526TMC3     H 7867   2.590   4.067  15.193  0.1129  0.9144  1.4943
  526TMC3    H1 7868   2.912   4.062  14.927 -0.7416  1.6155 -0.1033
  526TMC3    H2 7869   2.992   4.005  15.338 -0.1422  1.9722  0.7449
  526TMC3    C7 7870   3.107   4.016  15.112 -0.5886 -0.3694 -0.6809
  526TMC3    C8 7871   2.745   4.076  15.429 -0.0355 -0.5722 -0.6615
  526TMC3    O1 7872   3.177   4.027  15.213  0.3116 -0.3955  0.0731
  526TMC3    O2 7873   2.836   4.065  15.511  0.1103 -0.2944  0.5327
  527MPD2     C 7874   0.607   2.274   1.674  0.3038 -0.2335  0.3488
  527MPD2    C1 7875   0.607   2.356   1.563  0.5970  0.0439  0.0322
  527MPD2    C2 7876   0.709   2.350   1.468 -0.1545  0.9655 -0.3282
  527MPD2    C3 7877   0.812   2.258   1.486 -0.5710 -0.6624 -0.4679
  527MPD2    C4 7878   0.810   2.175   1.592  0.0634 -0.4993 -0.3519
  527MPD2    C5 7879   0.719   2.192   1.690  0.1193  0.4010  0.5495
  527MPD2     H 7880   0.703   2.408   1.376  0.2285  0.7929 -0.4630
  527MPD2    H1 7881   0.888   2.101   1.610 -1.7827 -2.1982  0.6668
  527MPD2    H2 7882   0.523   2.279   1.742 -0.0678 -0.7286 -0.0662
  527MPD2    H3 7883   0.719   2.134   1.781 -1.4881  0.5619  0.6510
  527MPD2     N 7884   0.910   2.251   1.381  0.2067 -0.4331 -0.2230
  527MPD2    H5 7885   0.903   2.315   1.303 -1.9463 -0.9658 -0.4701
  527MPD2    N1 7886   0.513   2.458   1.547  0.3131 -0.0943 -0.2534
  527MPD2    H7 7887   0.540   2.519   1.471  1.1657 -1.8714 -1.3590
  528TMC3    C1 7888   0.303   2.560   1.538 -0.0634  0.0528 -0.3379
  528TMC3    C2 7889   0.355   2.645   1.439  0.2741  0.3591  0.5232
  528TMC3    C3 7890   0.275   2.694   1.340  0.3416 -0.3703 -0.1522
  528TMC3    C4 7891   0.168   2.530   1.539  0.4955  0.4868  0.0913
  528TMC3    C5 7892   0.087   2.588   1.444 -0.9676  0.3311  0.0931
  528TMC3    C6 7893   0.139   2.666   1.341 -0.2333 -0.1811  0.0725
  528TMC3     C 7894   0.388   2.473   1.610 -0.1164 -0.3660 -0.7795
  528TMC3     O 7895   0.342   2.403   1.699  0.3797  0.1304 -0.0457
  528TMC3     H 7896   0.458   2.679   1.449  0.7218 -0.7672 -0.3297
  528TMC3    H1 7897   0.124   2.480   1.624 -1.5807  2.4295  0.1483
  528TMC3    H2 7898   0.087   2.690   1.249  1.5670  2.3169 -0.2918
  528TMC3    C7 7899   4.691   2.525   1.430  0.3817  0.7619  0.5446
  528TMC3    C8 7900   0.319   2.817   1.286 -0.4561 -0.1413 -0.6543
  528TMC3    O1 7901   4.666   2.427   1.499 -0.1621  0.1110 -0.2755
  528TMC3    O2 7902   0.419   2.866   1.336 -0.1201 -0.2313  0.0381
  529MPD2     C 7903   2.912   0.670   0.949  0.0869  0.2878 -0.2185
  529MPD2    C1 7904   3.054   0.672   0.956  0.1170 -0.1423  0.1583
  529MPD2    C2 7905   3.126   0.760   0.882 -0.8453 -0.1106 -0.5765
  529MPD2    C3 7906   3.068   0.836   0.783  0.5836  0.2881 -0.9467
  529MPD2    C4 7907   2.929   0.841   0.789  0.0447 -0.6782  0.3529
  529MPD2    C5 7908   2.853   0.766   0.871  0.2036 -0.1544  0.1845
  529MPD2     H 7909   3.235   0.759   0.882 -0.8431 -0.6012 -1.9685
  529MPD2    H1 7910   2.872   0.904   0.722  0.7405  0.4100  0.7939
  529MPD2    H2 7911   2.853   0.599   1.007  0.7693 -0.5455 -0.5372
  529MPD2    H3 7912   2.746   0.781   0.862  0.4094  0.3483 -1.5304
  529MPD2     N 7913   3.126   0.938   0.704  0.4329 -0.9488 -0.2124
  529MPD2    H5 7914   3.072   0.984   0.631 -0.4177 -0.4724  0.7077
  529MPD2    N1 7915   3.128   0.590   1.045  0.2940  0.2705  0.4307
  529MPD2    H7 7916   3.227   0.613   1.036  0.6724 -1.8753 -0.7361
  530TMC3    C1 7917   3.184   0.449   1.227 -0.7488 -0.8003  0.6406
  530TMC3    C2 7918   3.312   0.490   1.206 -0.0323  0.2464  0.3917
  530TMC3    C3 7919   3.412   0.401   1.242 -0.0043 -0.3048 -0.4563
  530TMC3    C4 7920   3.153   0.325   1.276  0.7573 -0.1437  0.1003
  530TMC3    C5 7921   3.256   0.233   1.306 -0.2585 -0.6056  0.1215
  530TMC3    C6 7922   3.385   0.272   1.292  0.1395 -0.2164  0.4946
  530TMC3     C 7923   3.076   0.511   1.147 -0.2927 -0.6970  0.6230
  530TMC3     O 7924   2.960   0.486   1.165 -0.3300  0.2464 -0.0525
  530TMC3     H 7925   3.336   0.595   1.192 -0.6356  0.1328 -1.4735
  530TMC3    H1 7926   3.048   0.302   1.292  0.9563 -0.3174  1.1633
  530TMC3    H2 7927   3.458   0.193   1.302 -0.4381 -0.7154  0.8056
  530TMC3    C7 7928   3.225   0.094   1.304  0.0708 -0.2176 -0.0112
  530TMC3    C8 7929   3.548   0.447   1.224  0.8178  0.2071  0.5282
  530TMC3    O1 7930   3.280   0.012   1.230  0.0503 -0.4976  0.0166
  530TMC3    O2 7931   3.576   0.520   1.136  0.0755  0.3118  0.2286
  531MPD2     C 7932   1.255   3.061  13.550 -0.2968  0.4177  0.1340
  531MPD2    C1 7933   1.248   3.176  13.613 -0.3100 -0.4374 -0.2637
  531MPD2    C2 7934   1.185   3.279  13.545 -0.0379 -1.1292  0.5768
  531MPD2    C3 7935   1.154   3.264  13.410  0.6410 -0.0226  0.4275
  531MPD2    C4 7936   1.158   3.144  13.357  0.2003  0.5189  0.3050
  531MPD2    C5 7937   1.210   3.039  13.423 -0.0254 -0.0396 -0.3918
  531MPD2     H 7938   1.175   3.377  13.590  0.5724  0.0807 -1.9501
  531MPD2    H1 7939   1.129   3.125  13.255 -0.5399 -0.0616  0.6236
  531MPD2    H2 7940   1.304   2.979  13.602 -1.9465  0.3060  1.5388
  531MPD2    H3 7941   1.227   2.940  13.382  0.2264  0.0788 -0.5722
  531MPD2     N 7942   1.106   3.384  13.352  0.3194 -0.0546 -0.3564
  531MPD2    H5 7943   1.097   3.467  13.410  0.9689  0.1754 -0.5828
  531MPD2    N1 7944   1.313   3.190  13.738  0.3029  0.4460 -0.2558
  531MPD2    H7 7945   1.350   3.105  13.778 -3.4943 -0.9756  0.2993
  532TMC3    C1 7946   1.453   3.299  13.890  0.2185 -0.3806  0.1095
  532TMC3    C2 7947   1.484   3.427  13.932  0.3313 -0.2772 -0.7371
  532TMC3    C3 7948   1.614   3.468  13.946 -0.3661 -0.1033  0.6228
  532TMC3    C4 7949   1.554   3.220  13.836 -1.0697 -0.7322  0.6925
  532TMC3    C5 7950   1.681   3.268  13.855  0.3634 -0.5053  0.0536
  532TMC3    C6 7951   1.710   3.383  13.903 -0.0633 -0.2464 -0.1803
  532TMC3     C 7952   1.343   3.309  13.796 -0.2346  0.2413  0.1096
  532TMC3     O 7953   1.312   3.420  13.764  0.5041 -0.2163  0.4138
  532TMC3     H 7954   1.415   3.501  13.973 -1.1899 -2.1185  0.0157
  532TMC3    H1 7955   1.533   3.131  13.778  3.3759 -2.3987  1.6155
  532TMC3    H2 7956   1.815   3.412  13.901  0.5366 -2.6188 -2.3698
  532TMC3    C7 7957   1.791   3.187  13.807  0.0563  0.4461 -0.0262
  532TMC3    C8 7958   1.633   3.606  13.905 -0.5326  0.7595  0.5195
  532TMC3    O1 7959   1.890   3.182  13.880  0.2926 -0.5745 -0.4738
  532TMC3    O2 7960   1.745   3.654  13.928 -0.0337  0.0260 -0.7178
  533TMC3    C1 7961   2.964   4.727  14.559  0.3472  0.6704 -0.3588
  533TMC3    C2 7962   3.100   0.010  14.536 -0.3506 -0.0099 -0.1475
  533TMC3    C3 7963   3.158   0.127  14.571 -0.3310 -0.2931  0.4441
  533TMC3    C4 7964   2.893   0.084  14.623 -0.6170  0.1661 -0.3385
  533TMC3    C5 7965   2.959   0.189  14.678 -0.5145  0.4693  0.6863
  533TMC3    C6 7966   3.092   0.216  14.650  0.1339  0.1946 -0.5009
  533TMC3     C 7967   2.913   4.589  14.563  0.3086  0.6203 -0.2046
  533TMC3     O 7968   2.996   4.501  14.582  0.5021 -0.4729  0.1482
  533TMC3     H 7969   3.162   4.680  14.475 -2.4297 -0.0632 -2.2295
  533TMC3    H1 7970   2.785   0.079  14.625 -0.7151  1.7820 -1.0709
  533TMC3    H2 7971   3.138   0.311  14.674  0.7589 -0.2485  0.0290
  533TMC3    C7 7972   2.925   0.215  14.815  0.5525 -0.1284 -0.4400
  533TMC3    C8 7973   3.276   0.163  14.497 -0.2123 -0.1811 -0.2172
  533TMC3    O1 7974   2.821   0.163  14.848  0.1297 -0.0209 -0.3170
  533TMC3    O2 7975   3.268   0.134  14.377 -0.5414 -0.3341  0.3408
  534MPD2     C 7976   1.606   0.631   1.035  0.3178  0.1118 -0.3878
  534MPD2    C1 7977   1.511   0.690   1.115 -0.1938  0.3446 -0.8699
  534MPD2    C2 7978   1.389   0.621   1.133 -0.6835  0.2909  0.8089
  534MPD2    C3 7979   1.363   0.505   1.070 -0.5621  0.2210 -0.0498
  534MPD2    C4 7980   1.457   0.459   0.983  0.0098 -0.0927  0.3734
  534MPD2    C5 7981   1.580   0.517   0.967 -0.6099 -0.1685  0.4257
  534MPD2     H 7982   1.311   0.674   1.188  0.0705  2.0084  0.2474
  534MPD2    H1 7983   1.434   0.377   0.915 -3.3918 -0.4677  1.9523
  534MPD2    H2 7984   1.699   0.683   1.013 -0.2544  1.2325 -0.1641
  534MPD2    H3 7985   1.656   0.479   0.900  0.3724 -1.2500  2.1733
  534MPD2     N 7986   1.230   0.448   1.075  0.3483 -0.3841  1.0383
  534MPD2    H5 7987   1.212   0.377   1.004  0.1349  0.2232  0.4880
  534MPD2    N1 7988   1.533   0.808   1.189 -0.1765  0.0912 -0.1638
  534MPD2    H7 7989   1.460   0.831   1.255 -0.5850 -1.4139 -0.0997
  535TMC3    C1 7990   1.008   0.411   1.156  0.0075  0.0135 -0.1226
  535TMC3    C2 7991   0.938   0.422   1.271  0.1642 -0.1343 -0.3464
  535TMC3    C3 7992   0.809   0.477   1.266 -0.5420 -0.7452  0.4561
  535TMC3    C4 7993   0.950   0.430   1.039  0.3553 -0.8103 -0.2833
  535TMC3    C5 7994   0.829   0.490   1.033  0.9864  0.0362  0.9371
  535TMC3    C6 7995   0.755   0.513   1.144  0.1855 -0.0402 -0.3391
  535TMC3     C 7996   1.145   0.469   1.177  0.1888  0.3524  0.1617
  535TMC3     O 7997   1.163   0.534   1.283  0.1963 -0.4989 -0.1553
  535TMC3     H 7998   0.991   0.409   1.365  1.8977  0.5375 -1.2344
  535TMC3    H1 7999   1.005   0.413   0.947  0.6398 -0.6005 -0.1522
  535TMC3    H2 8000   0.657   0.558   1.132  0.3549 -0.0208 -1.6251
  535TMC3    C7 8001   0.812   0.566   0.917 -0.1264 -0.5637  0.5592
  535TMC3    C8 8002   0.728   0.503   1.383 -0.1879  0.5107  0.2510
  535TMC3    O1 8003   0.885   0.536   0.823 -0.0162  0.0425  0.7884
  535TMC3    O2 8004   0.612   0.521   1.360 -0.4178  0.0171  0.6345
  536MPD2     C 8005   4.357   4.483  16.487 -0.0678  0.0022 -0.2003
  536MPD2    C1 8006   4.257   4.401  16.524 -0.2867  0.3790  0.0690
  536MPD2    C2 8007   4.158   4.366  16.425  0.3325 -0.6770 -0.0682
  536MPD2    C3 8008   4.169   4.403  16.297 -0.7056  0.3870  0.4515
  536MPD2    C4 8009   4.284   4.469  16.261  0.2444  0.0251 -0.1752
  536MPD2    C5 8010   4.368   4.524  16.353  0.6803 -0.5043  0.3543
  536MPD2     H 8011   4.076   4.301  16.453  0.6272 -0.2133  1.8613
  536MPD2    H1 8012   4.301   4.486  16.155 -1.6072 -2.0042 -0.8103
  536MPD2    H2 8013   4.436   4.514  16.554  1.8696  0.3521 -2.6403
  536MPD2    H3 8014   4.455   4.578  16.316  0.5493 -0.1496  0.5654
  536MPD2     N 8015   4.088   4.371  16.193  0.2990  0.3216 -0.1855
  536MPD2    H5 8016   4.105   4.413  16.102 -3.5710  2.0505 -0.1130
  536MPD2    N1 8017   4.263   4.348  16.652  0.3640  0.0977 -0.1245
  536MPD2    H7 8018   4.348   4.366  16.705 -0.3444  2.5263  0.2109
  537TMC3    C1 8019   4.190   4.248  16.844 -0.5709 -0.3638 -0.1259
  537TMC3    C2 8020   4.210   4.349  16.941 -0.4623 -0.5038  0.2159
  537TMC3    C3 8021   4.221   4.309  17.073 -0.9015  0.2474  0.6233
  537TMC3    C4 8022   4.190   4.121  16.882 -0.4879  0.7736  0.2307
  537TMC3    C5 8023   4.210   4.084  17.012 -0.2891 -0.1170 -0.0215
  537TMC3    C6 8024   4.219   4.177  17.113 -0.6511  0.6096 -0.6755
  537TMC3     C 8025   4.168   4.264  16.709  0.1035 -1.0979 -0.2614
  537TMC3     O 8026   4.056   4.239  16.679 -0.2676 -0.2610 -1.2134
  537TMC3     H 8027   4.228   4.452  16.913  1.0955 -1.0907 -0.8781
  537TMC3    H1 8028   4.161   4.049  16.806  1.9463  0.3256 -0.2741
  537TMC3    H2 8029   4.215   4.148  17.217 -1.2889 -0.9065 -1.1130
  537TMC3    C7 8030   4.176   3.940  17.032 -0.0626 -0.3535  0.3518
  537TMC3    C8 8031   4.198   4.402  17.184 -0.8771 -0.8711  0.4976
  537TMC3    O1 8032   4.072   3.908  16.970 -0.0528 -0.2390  0.4421
  537TMC3    O2 8033   4.233   4.361  17.297  0.5076  0.0597 -0.2093
  538TMC3    C1 8034   0.608   2.466  11.513 -0.3211 -0.0593 -0.2174
  538TMC3    C2 8035   0.689   2.398  11.429 -0.0006 -0.2286 -1.0449
  538TMC3    C3 8036   0.704   2.436  11.299 -0.0135  0.3230 -0.0069
  538TMC3    C4 8037   0.550   2.579  11.457 -1.0423  0.3265 -0.5411
  538TMC3    C5 8038   0.559   2.617  11.325  0.0784 -0.4219 -0.0890
  538TMC3    C6 8039   0.638   2.541  11.246  0.2496 -0.6895  0.3645
  538TMC3     C 8040   0.519   2.389  11.599  0.5864 -0.0284  0.6567
  538TMC3     O 8041   0.564   2.295  11.665  0.4764  0.1851  0.4922
  538TMC3     H 8042   0.737   2.311  11.472 -0.6087 -0.0336  0.0237
  538TMC3    H1 8043   0.499   2.649  11.523 -0.6989 -2.0519  2.2548
  538TMC3    H2 8044   0.639   2.557  11.139  2.1935  0.0327  0.4875
  538TMC3    C7 8045   0.430   2.645  11.272  0.5076 -0.4847  0.0628
  538TMC3    C8 8046   0.780   2.348  11.210  0.3383 -0.3952  0.2503
  538TMC3    O1 8047   0.338   2.590  11.335 -0.3175  0.6969  0.3324
  538TMC3    O2 8048   0.793   2.233  11.241  0.8029  0.2520  0.1961
  539MPD2     C 8049   0.870   1.780  11.439 -0.0643  0.0912  0.3327
  539MPD2    C1 8050   0.761   1.704  11.486 -0.5561  0.4798  0.2218
  539MPD2    C2 8051   0.638   1.759  11.503 -0.3482 -0.3598  0.2546
  539MPD2    C3 8052   0.612   1.887  11.452  0.5212 -0.3212  0.6902
  539MPD2    C4 8053   0.708   1.950  11.378  0.1822 -0.1132  0.7755
  539MPD2    C5 8054   0.835   1.902  11.381  0.8969  0.1299 -0.1055
  539MPD2     H 8055   0.561   1.700  11.551  0.4877 -1.1431  0.6325
  539MPD2    H1 8056   0.687   2.034  11.313 -1.3471 -1.8758 -0.9980
  539MPD2    H2 8057   0.970   1.740  11.427 -0.4942 -1.0786  0.6795
  539MPD2    H3 8058   0.906   1.960  11.324  1.2625 -0.2652 -0.0580
  539MPD2     N 8059   0.486   1.946  11.441 -0.3500  0.7255 -0.9141
  539MPD2    H5 8060   0.482   2.043  11.412  1.0225  0.8332 -0.7206
  539MPD2    N1 8061   0.780   1.572  11.537  0.2705  0.5936 -0.2547
  539MPD2    H7 8062   0.698   1.519  11.563  0.1078  1.9283  1.8836
  540TMC3    C1 8063   0.264   1.968  11.518  1.1293  0.8698 -0.3027
  540TMC3    C2 8064   0.213   2.053  11.421 -0.1729 -0.2186 -0.4224
  540TMC3    C3 8065   0.086   2.098  11.435  0.0664  0.0815 -0.3338
  540TMC3    C4 8066   0.192   1.932  11.625 -0.0517 -0.5684  0.2352
  540TMC3    C5 8067   0.074   1.995  11.651  0.1690  1.1746 -0.0341
  540TMC3    C6 8068   0.012   2.073  11.556  0.1443 -0.0305  0.2736
  540TMC3     C 8069   0.377   1.880  11.488  0.2544  0.3462 -0.0632
  540TMC3     O 8070   0.366   1.767  11.530 -0.0522 -0.3339  0.0716
  540TMC3     H 8071   0.267   2.075  11.329 -1.2146  0.3769 -0.8818
  540TMC3    H1 8072   0.229   1.851  11.687 -1.1851 -0.5984  0.8643
  540TMC3    H2 8073   4.644   2.100  11.574  0.3613 -0.7927  2.5823
  540TMC3    C7 8074   4.717   1.962  11.767 -0.1758 -0.0900 -0.3828
  540TMC3    C8 8075   0.001   2.134  11.324  0.1640 -0.5342 -0.3696
  540TMC3    O1 8076   4.604   2.006  11.772 -0.0488 -0.2750  0.6832
  540TMC3    O2 8077   4.639   2.205  11.361  0.6067 -0.1108 -0.1034
  541MPD2     C 8078   2.904   3.456  13.687 -0.5765  0.3766 -0.2954
  541MPD2    C1 8079   2.794   3.384  13.640  0.4731 -0.3100  1.0189
  541MPD2    C2 8080   2.770   3.378  13.502  0.0011 -0.0157  0.2263
  541MPD2    C3 8081   2.854   3.436  13.412  0.0809  0.7633 -0.4039
  541MPD2    C4 8082   2.967   3.496  13.458  0.2384 -0.2554 -0.2462
  541MPD2    C5 8083   2.986   3.508  13.590  0.9748  0.1391  1.0492
  541MPD2     H 8084   2.687   3.317  13.468 -1.1649  2.0069 -0.5608
  541MPD2    H1 8085   3.032   3.548  13.387  1.3891 -0.1296  0.8974
  541MPD2    H2 8086   2.937   3.467  13.790  2.5971 -0.6689 -1.2030
  541MPD2    H3 8087   3.079   3.556  13.616  0.6445  1.6446 -0.5638
  541MPD2     N 8088   2.824   3.424  13.276 -0.2784  0.5685  0.3521
  541MPD2    H5 8089   2.736   3.377  13.256  0.6612 -0.9954 -0.1582
  541MPD2    N1 8090   2.718   3.300  13.725 -0.1950  0.0387  0.0912
  541MPD2    H7 8091   2.741   3.318  13.823 -1.1201  1.8861 -0.0407
  542TMC3    C1 8092   2.852   3.445  13.042  0.1990 -0.2754  0.6751
  542TMC3    C2 8093   2.925   3.395  12.936 -0.0335 -0.9415 -0.1836
  542TMC3    C3 8094   2.879   3.414  12.805 -0.1178 -0.0272  0.2611
  542TMC3    C4 8095   2.732   3.507  13.016  0.0320  0.2989  0.0691
  542TMC3    C5 8096   2.698   3.535  12.886  0.0308 -0.5927 -0.7745
  542TMC3    C6 8097   2.770   3.486  12.777  0.5201 -0.5896  0.0956
  542TMC3     C 8098   2.915   3.447  13.173  0.1284 -0.1547  0.6961
  542TMC3     O 8099   3.035   3.451  13.175  0.0623  0.3253  0.2279
  542TMC3     H 8100   3.008   3.331  12.961 -0.4733 -1.5174 -0.1960
  542TMC3    H1 8101   2.693   3.569  13.095 -0.9520 -0.3367  0.0799
  542TMC3    H2 8102   2.746   3.535  12.683  0.3619 -0.2393  0.3173
  542TMC3    C7 8103   2.572   3.606  12.865  0.4513 -1.1292  0.3410
  542TMC3    C8 8104   2.938   3.342  12.695  0.3676  0.3233  0.1691
  542TMC3    O1 8105   2.528   3.645  12.972  0.4587  0.0265  0.2220
  542TMC3    O2 8106   2.883   3.355  12.585  0.0987  0.2489 -0.0031
  543TMC3    C1 8107   3.108   0.703  17.324 -0.0911 -0.4931  1.1769
  543TMC3    C2 8108   3.132   0.607  17.420 -0.2221  0.9633  0.4253
  543TMC3    C3 8109   3.058   0.608  17.532  0.0811  0.5568  0.7182
  543TMC3    C4 8110   2.995   0.781  17.325  0.0655 -0.0788  0.3540
  543TMC3    C5 8111   2.907   0.754  17.426  0.2256 -0.5772  0.1833
  543TMC3    C6 8112   2.936   0.675  17.536 -0.3137 -0.3224  0.6712
  543TMC3     C 8113   3.162   0.668  17.196  0.0172  0.1734 -0.8807
  543TMC3     O 8114   3.235   0.573  17.200 -0.0253  0.0438 -0.2480
  543TMC3     H 8115   3.229   0.560  17.431 -0.3621  0.2695 -1.3131
  543TMC3    H1 8116   2.961   0.843  17.243  0.0773 -2.0058 -1.1307
  543TMC3    H2 8117   2.875   0.683  17.625 -0.3036 -1.9710  0.8279
  543TMC3    C7 8118   2.770   0.802  17.433 -0.6002  0.5665  0.4963
  543TMC3    C8 8119   3.076   0.494  17.623 -0.5547 -0.4655  0.0295
  543TMC3    O1 8120   2.720   0.826  17.543 -0.1558  0.0430  0.0153
  543TMC3    O2 8121   3.136   0.398  17.575  0.8859 -0.1847  0.2116
  544MPD2     C 8122   3.003   0.261   0.342 -0.9899 -0.5199 -0.2575
  544MPD2    C1 8123   3.076   0.219   0.229 -0.0069 -0.0047  0.3382
  544MPD2    C2 8124   3.091   0.300   0.116  0.2296  0.3757 -0.2179
  544MPD2    C3 8125   3.021   0.418   0.118 -0.0606  0.0664 -0.0050
  544MPD2    C4 8126   2.947   0.458   0.229  0.1470 -0.5869 -0.2430
  544MPD2    C5 8127   2.931   0.379   0.333  0.2655  0.6175 -0.1124
  544MPD2     H 8128   3.158   0.275   0.034  0.1535 -1.0330  0.1425
  544MPD2    H1 8129   2.882   0.543   0.214  1.1063  0.0636 -0.7056
  544MPD2    H2 8130   2.989   0.202   0.431  0.4473 -2.2819 -1.2190
  544MPD2    H3 8131   2.871   0.402   0.421 -0.7669 -0.3446 -0.5600
  544MPD2     N 8132   3.020   0.513   0.007 -0.5542 -0.2848 -0.0122
  544MPD2    H5 8133   2.979   0.604   0.025  3.4524  0.7908  3.4734
  544MPD2    N1 8134   3.152   0.099   0.246 -0.2788  0.4580  0.1423
  544MPD2    H7 8135   3.139   0.048   0.332  0.2470 -0.0210 -0.0664
  545TMC3    C1 8136   3.257   4.634   0.181 -0.4305  0.5536  0.1175
  545TMC3    C2 8137   3.276   4.534   0.088 -0.4016  0.2335  0.1680
  545TMC3    C3 8138   3.310   4.410   0.133  0.4170  0.1323  0.7265
  545TMC3    C4 8139   3.296   4.614   0.315 -0.0247  0.5519 -0.1927
  545TMC3    C5 8140   3.331   4.487   0.357 -0.3125  0.6528 -0.0015
  545TMC3    C6 8141   3.344   4.390   0.262  0.4972  0.3459 -0.2819
  545TMC3     C 8142   3.203   0.030   0.138  0.5720 -0.6840 -0.0203
  545TMC3     O 8143   3.200   0.056   0.018 -0.3045 -0.2941 -0.3060
  545TMC3     H 8144   3.233   4.552  17.729 -0.6559 -2.1853 -0.1607
  545TMC3    H1 8145   3.299   4.699   0.383 -0.1998 -0.1803  0.7398
  545TMC3    H2 8146   3.369   4.286   0.281 -0.0143  0.5344  1.4280
  545TMC3    C7 8147   3.365   4.466   0.492  0.0612  0.0391 -0.6022
  545TMC3    C8 8148   3.262   4.295   0.064 -0.4258 -0.1723 -0.0937
  545TMC3    O1 8149   3.403   4.566   0.551  0.2722  0.0382 -0.5779
  545TMC3    O2 8150   3.251   4.189   0.122  0.0521  0.1482 -0.0718
  546MPD2     C 8151   4.042   4.720   0.178  0.8257  0.3377  0.2736
  546MPD2    C1 8152   4.024   0.039   0.055 -0.7939  0.0389 -0.6542
  546MPD2    C2 8153   4.057   0.170   0.028 -0.1256 -0.2397  0.2649
  546MPD2    C3 8154   4.102   0.245   0.134  0.1869  0.2782  0.5611
  546MPD2    C4 8155   4.108   0.201   0.256  0.2007 -0.5253 -0.6385
  546MPD2    C5 8156   4.080   0.066   0.277  0.5429  0.5238 -0.0561
  546MPD2     H 8157   4.047   0.204  17.665 -1.8882  0.8535  0.8019
  546MPD2    H1 8158   4.140   0.253   0.345 -0.7441 -0.6135 -0.2485
  546MPD2    H2 8159   4.006   4.618   0.191 -2.7909  1.6901  0.9748
  546MPD2    H3 8160   4.090   0.027   0.378 -0.1019 -1.2136 -0.6690
  546MPD2     N 8161   4.158   0.377   0.116  0.0295 -0.2403  0.4340
  546MPD2    H5 8162   4.180   0.424   0.203  2.0061 -0.7021  0.2056
  546MPD2    N1 8163   3.958   4.695  17.702 -1.0288 -0.0200 -0.7067
  546MPD2    H7 8164   3.952   4.598  17.733 -0.8036  0.5218  1.0306
  547TMC3    C1 8165   3.895   4.621  17.489  0.4726 -0.5704  0.4298
  547TMC3    C2 8166   3.821   4.651  17.381  0.5713 -0.0803  0.4080
  547TMC3    C3 8167   3.796   4.546  17.300 -0.3511  0.8335  0.0735
  547TMC3    C4 8168   3.937   4.495  17.523  0.9343  0.3158  0.1147
  547TMC3    C5 8169   3.907   4.391  17.438 -0.4704  0.0157  0.5190
  547TMC3    C6 8170   3.825   4.414  17.329 -0.0277 -0.2131  0.2891
  547TMC3     C 8171   3.915   4.732  17.578  0.5905  0.4690  0.0961
  547TMC3     O 8172   3.879   0.107  17.542 -0.0413 -0.4168  0.4960
  547TMC3     H 8173   3.790   0.017  17.358 -0.1033 -0.3926 -0.0514
  547TMC3    H1 8174   4.010   4.465  17.598  2.0738  0.6017 -0.8833
  547TMC3    H2 8175   3.782   4.334  17.269 -1.1711 -0.6937  1.7732
  547TMC3    C7 8176   3.921   4.256  17.490 -0.2802  0.1336  0.0318
  547TMC3    C8 8177   3.742   4.572  17.168  0.5076  0.3322 -0.2595
  547TMC3    O1 8178   3.928   4.243  17.610 -0.0383 -0.4463 -0.6310
  547TMC3    O2 8179   3.665   4.670  17.150 -0.4564 -0.3907  0.0263
  548MPD2     C 8180   3.969   4.733  13.049 -0.4970 -0.8386  0.4288
  548MPD2    C1 8181   3.868   4.649  13.032 -1.6011  0.4705  0.5228
  548MPD2    C2 8182   3.892   4.519  13.002  0.1148 -0.5900  0.3472
  548MPD2    C3 8183   4.017   4.473  12.980 -0.4144 -1.0137  0.4841
  548MPD2    C4 8184   4.127   4.559  12.996  0.3145  0.0289 -0.2508
  548MPD2    C5 8185   4.097   4.686  13.028  0.2444  0.4401 -0.2609
  548MPD2     H 8186   3.807   4.454  12.987  1.1851 -1.6430 -1.2392
  548MPD2    H1 8187   4.231   4.538  12.974 -0.2124 -2.4355 -0.3890
  548MPD2    H2 8188   3.959   0.105  13.062  0.1435 -0.6531 -0.5472
  548MPD2    H3 8189   4.170   0.027  13.052  0.9633 -0.2705 -0.1772
  548MPD2     N 8190   4.027   4.333  12.961  0.5832  0.1588  0.3295
  548MPD2    H5 8191   3.944   4.274  12.960 -0.5487  1.7791  0.6965
  548MPD2    N1 8192   3.735   4.700  13.051 -1.0492  0.0341 -0.0829
  548MPD2    H7 8193   3.727   0.065  13.063  0.8585  0.1054  0.6155
  549TMC3    C1 8194   3.494   4.704  13.072  0.0989  0.1049  0.3625
  549TMC3    C2 8195   3.497   0.102  13.038  0.1507 -0.1171  0.1195
  549TMC3    C3 8196   3.376   0.155  12.998 -0.2509  0.5217  0.3921
  549TMC3    C4 8197   3.377   4.635  13.077  0.2981  0.3438 -0.1880
  549TMC3    C5 8198   3.257   4.687  13.017 -0.6947  0.6653 -0.2565
  549TMC3    C6 8199   3.259   0.085  12.986  0.2145  1.0187 -0.3840
  549TMC3     C 8200   3.619   4.624  13.062 -0.0061 -0.6936  0.2129
  549TMC3     O 8201   3.603   4.506  13.076 -0.1722  0.2335  0.2991
  549TMC3     H 8202   3.581   0.167  13.059 -1.2278  1.4910  0.6354
  549TMC3    H1 8203   3.382   4.535  13.118  2.4953  0.6754  0.3105
  549TMC3    H2 8204   3.169   0.133  12.947 -0.4762 -0.9482 -1.2219
  549TMC3    C7 8205   3.121   4.626  13.017 -0.0610  0.6189  0.2077
  549TMC3    C8 8206   3.368   0.279  12.920 -0.2719 -0.2801  0.4319
  549TMC3    O1 8207   3.030   4.702  12.970  0.6797  0.5591  0.4463
  549TMC3    O2 8208   3.264   0.340  12.922  0.1943 -0.0996  0.1031
  550TMC3    C1 8209   2.533   3.220  12.707 -0.4873  1.0034  0.0283
  550TMC3    C2 8210   2.491   3.276  12.829  0.5057 -0.7950 -0.3768
  550TMC3    C3 8211   2.371   3.345  12.832 -0.5524 -0.0992 -0.1364
  550TMC3    C4 8212   2.460   3.242  12.590  0.0924  0.1425 -0.0876
  550TMC3    C5 8213   2.338   3.299  12.603 -0.5577 -0.4771  0.2882
  550TMC3    C6 8214   2.295   3.354  12.723 -0.4492 -0.0858 -0.1319
  550TMC3     C 8215   2.643   3.121  12.702  0.4514 -0.1776  0.4352
  550TMC3     O 8216   2.699   3.112  12.809  0.6621  0.1735 -0.2904
  550TMC3     H 8217   2.550   3.261  12.918 -0.5710  1.2932  0.6884
  550TMC3    H1 8218   2.493   3.193  12.499  1.3529  1.2755 -0.2310
  550TMC3    H2 8219   2.202   3.410  12.720 -1.6468 -2.1424 -2.2993
  550TMC3    C7 8220   2.234   3.299  12.494  0.2985 -0.5792 -0.5665
  550TMC3    C8 8221   2.318   3.396  12.949 -0.0383  0.4113 -0.4880
  550TMC3    O1 8222   2.135   3.367  12.512  0.4514  0.4501 -0.2273
  550TMC3    O2 8223   2.388   3.402  13.044 -0.9821  0.0192  0.2324
  551TMC3    C1 8224   0.491   0.620  13.767  0.0488 -0.5455 -0.7897
  551TMC3    C2 8225   0.625   0.582  13.775 -0.3899 -0.1352  0.2811
  551TMC3    C3 8226   0.698   0.617  13.883  0.5339  0.1727  0.1523
  551TMC3    C4 8227   0.437   0.700  13.871  0.3382  0.2078 -0.1235
  551TMC3    C5 8228   0.511   0.720  13.982  0.6511 -0.6301  0.7390
  551TMC3    C6 8229   0.641   0.681  13.986  0.3706  0.0849 -0.3868
  551TMC3     C 8230   0.407   0.613  13.642  0.0210  0.0278 -1.2243
  551TMC3     O 8231   0.355   0.718  13.607 -0.2132 -0.0220  0.9894
  551TMC3     H 8232   0.666   0.529  13.690 -0.1728  1.1284 -0.4051
  551TMC3    H1 8233   0.329   0.710  13.878  0.2241 -0.6600 -0.5255
  551TMC3    H2 8234   0.700   0.717  14.069  0.7008  2.5583 -1.6834
  551TMC3    C7 8235   0.467   0.779  14.105  0.0655 -0.0418  0.0627
  551TMC3    C8 8236   0.822   0.676  13.844 -0.2232  0.2970 -1.1181
  551TMC3    O1 8237   0.512   0.737  14.211 -0.3687 -0.1666  0.8699
  551TMC3    O2 8238   0.892   0.614  13.767  0.3693 -0.5398  0.2698
  552MPD2     C 8239   2.372   3.135  14.226  0.8487 -0.3244 -0.0493
  552MPD2    C1 8240   2.368   3.020  14.289  0.0544  0.2641  0.2946
  552MPD2    C2 8241   2.446   2.996  14.405 -0.3668 -0.5698 -0.0092
  552MPD2    C3 8242   2.524   3.083  14.456  0.7337  0.4570  0.1862
  552MPD2    C4 8243   2.536   3.202  14.393  0.6836  0.4042 -0.9436
  552MPD2    C5 8244   2.458   3.232  14.278 -0.2800 -0.1243 -0.7524
  552MPD2     H 8245   2.449   2.897  14.448 -1.9470 -0.4785  0.3161
  552MPD2    H1 8246   2.609   3.270  14.436  0.3793 -0.2035  0.5179
  552MPD2    H2 8247   2.316   3.169  14.140 -0.4571 -1.0287  0.5192
  552MPD2    H3 8248   2.467   3.330  14.232  0.4111  1.1727  2.1440
  552MPD2     N 8249   2.598   3.060  14.579 -0.6245  0.0228  0.1238
  552MPD2    H5 8250   2.632   3.146  14.621 -1.7510 -0.3240  1.7368
  552MPD2    N1 8251   2.274   2.921  14.248 -0.5671 -0.3717  0.2629
  552MPD2    H7 8252   2.267   2.839  14.307  0.5395  0.1700  1.1499
  553TMC3    C1 8253   2.128   2.795  14.131 -0.1970  0.4588  0.3872
  553TMC3    C2 8254   2.059   2.764  14.016  0.0956 -0.5342 -0.2132
  553TMC3    C3 8255   1.984   2.653  14.012  0.7568  0.2353 -0.0331
  553TMC3    C4 8256   2.149   2.699  14.223 -0.0783  0.4133  0.7157
  553TMC3    C5 8257   2.089   2.574  14.199  0.5095  0.3993  0.6230
  553TMC3    C6 8258   1.997   2.548  14.102  0.1807 -0.2817  0.2064
  553TMC3     C 8259   2.196   2.921  14.140 -0.0429 -0.0087 -0.8346
  553TMC3     O 8260   2.182   2.994  14.039  0.1347  0.1602  0.0070
  553TMC3     H 8261   2.036   2.841  13.943 -0.4363 -1.1481 -0.6979
  553TMC3    H1 8262   2.200   2.716  14.317 -0.7431  2.8410  0.6184
  553TMC3    H2 8263   1.951   2.451  14.096  1.9742 -1.2143  1.3947
  553TMC3    C7 8264   2.133   2.461  14.278 -0.5417  0.6658 -0.2103
  553TMC3    C8 8265   1.887   2.639  13.905  0.1881  1.1219  0.9150
  553TMC3    O1 8266   2.058   2.360  14.298  0.1021  0.4093  0.3304
  553TMC3    O2 8267   1.922   2.671  13.793  0.0095  0.1836  0.1548
  554TMC3    C1 8268   3.812   1.658  11.607 -0.1384  0.0913 -0.2287
  554TMC3    C2 8269   3.696   1.663  11.527  0.5486 -0.6070 -0.1466
  554TMC3    C3 8270   3.686   1.770  11.446  0.0300  0.1941  0.8777
  554TMC3    C4 8271   3.904   1.758  11.615 -0.1062 -0.4615 -0.1692
  554TMC3    C5 8272   3.886   1.859  11.525 -0.4638  0.2496  0.2622
  554TMC3    C6 8273   3.775   1.865  11.452  0.0980 -0.0041  0.0831
  554TMC3     C 8274   3.803   1.546  11.697  0.0542  0.0605 -0.1979
  554TMC3     O 8275   3.698   1.486  11.698 -0.1051 -0.2720 -0.0814
  554TMC3     H 8276   3.624   1.585  11.505  0.6540 -0.3730 -1.3242
  554TMC3    H1 8277   3.989   1.763  11.683 -1.4851  0.2899  1.4981
  554TMC3    H2 8278   3.761   1.946  11.381 -0.7339 -1.9573 -1.9789
  554TMC3    C7 8279   3.974   1.965  11.506 -0.6277 -0.1081 -0.7421
  554TMC3    C8 8280   3.666   1.731  11.311  0.7807  0.6069  0.1379
  554TMC3    O1 8281   3.962   2.019  11.400  0.5420  0.1147  0.4792
  554TMC3    O2 8282   3.760   1.732  11.236 -0.0078  0.4135 -0.1123
  555TMC3    C1 8283   3.708   1.510  15.017  0.1052 -0.3973 -0.1453
  555TMC3    C2 8284   3.837   1.469  14.979  0.3170 -0.8240  0.4086
  555TMC3    C3 8285   3.882   1.348  15.024 -0.0239  1.3203  0.4574
  555TMC3    C4 8286   3.644   1.444  15.118 -0.0109 -0.0450 -0.0455
  555TMC3    C5 8287   3.695   1.320  15.157 -0.0041 -0.2715 -0.4466
  555TMC3    C6 8288   3.812   1.266  15.112 -0.1579 -0.2744 -0.4175
  555TMC3     C 8289   3.682   1.657  15.015 -0.1895 -0.3199 -0.3140
  555TMC3     O 8290   3.776   1.729  14.990 -0.3302 -0.3006  0.4905
  555TMC3     H 8291   3.898   1.535  14.919 -0.9944  0.4770  0.4991
  555TMC3    H1 8292   3.544   1.475  15.144  0.0067 -0.7601  0.8798
  555TMC3    H2 8293   3.848   1.171  15.149  2.0028  0.7313  0.0590
  555TMC3    C7 8294   3.627   1.255  15.268 -0.5809  0.3117 -0.3372
  555TMC3    C8 8295   4.012   1.364  15.070 -0.2096  0.6028 -0.2109
  555TMC3    O1 8296   3.598   1.138  15.257  0.0975 -0.0217  0.3605
  555TMC3    O2 8297   4.094   1.427  15.002 -0.4480  0.2072  0.6467
  556MPD2     C 8298   0.985   3.240  10.924 -0.1803  0.5103  0.1581
  556MPD2    C1 8299   1.016   3.119  10.972  0.4351 -0.1578 -0.6282
  556MPD2    C2 8300   0.999   3.024  10.876  0.0943  0.1443  0.3454
  556MPD2    C3 8301   0.982   3.047  10.743  0.3132 -0.1033 -0.4347
  556MPD2    C4 8302   0.958   3.177  10.700 -0.1672 -0.0298  0.3235
  556MPD2    C5 8303   0.940   3.269  10.799  1.0493  0.4969 -0.1941
  556MPD2     H 8304   1.015   2.918  10.898  0.3272 -0.4310 -2.6726
  556MPD2    H1 8305   0.941   3.199  10.595  1.5071 -0.5074 -0.0452
  556MPD2    H2 8306   0.986   3.325  10.991 -1.0482  0.4004  0.3086
  556MPD2    H3 8307   0.902   3.365  10.769 -0.5835  0.1249  0.6697
  556MPD2     N 8308   0.997   2.937  10.651 -0.3244  0.5576  0.4985
  556MPD2    H5 8309   1.009   2.845  10.692  1.3755  0.2538 -0.6997
  556MPD2    N1 8310   1.065   3.105  11.102 -0.0182  0.1602 -0.0529
  556MPD2    H7 8311   1.081   3.193  11.150 -0.2955  0.7186 -0.9803
  557TMC3    C1 8312   1.023   2.816  10.458 -0.4270 -0.3595 -1.1126
  557TMC3    C2 8313   0.927   2.762  10.386 -0.2754  0.0443 -0.3341
  557TMC3    C3 8314   0.918   2.626  10.386  0.4704 -0.1729  0.3820
  557TMC3    C4 8315   1.111   2.745  10.536  0.4316 -0.1899 -0.4548
  557TMC3    C5 8316   1.090   2.611  10.542 -0.6558  0.7037 -0.2865
  557TMC3    C6 8317   0.995   2.546  10.472  0.5153  0.4081  0.1326
  557TMC3     C 8318   0.987   2.942  10.512  0.0346 -0.2084 -0.4272
  557TMC3     O 8319   0.932   3.024  10.438  0.1202 -0.9656  0.4112
  557TMC3     H 8320   0.860   2.824  10.329 -0.4377  0.4402  0.2883
  557TMC3    H1 8321   1.185   2.798  10.595  0.8812 -0.7628 -0.5117
  557TMC3    H2 8322   0.984   2.438  10.469  0.5021  0.4327 -0.6973
  557TMC3    C7 8323   1.077   2.587  10.680 -0.0676 -0.8482 -0.0276
  557TMC3    C8 8324   0.802   2.566  10.316 -0.8176  0.3534  0.0954
  557TMC3    O1 8325   1.042   2.680  10.752 -0.8132 -0.5210 -0.0066
  557TMC3    O2 8326   0.710   2.636  10.291 -0.0382 -0.0817  0.4252
  558TMC3    C1 8327   3.766   0.754  10.690  0.2557  0.7685 -0.3562
  558TMC3    C2 8328   3.624   0.760  10.684  0.9224  0.0620 -0.4810
  558TMC3    C3 8329   3.561   0.803  10.571  0.8361  0.7311 -0.1350
  558TMC3    C4 8330   3.831   0.791  10.578 -0.4452  0.1564  0.9040
  558TMC3    C5 8331   3.760   0.826  10.464 -0.0813 -0.7598 -0.2345
  558TMC3    C6 8332   3.624   0.831  10.454  0.5002 -0.2234 -0.1560
  558TMC3     C 8333   3.841   0.702  10.804 -0.4217 -0.4282  0.0572
  558TMC3     O 8334   3.961   0.719  10.787  0.0628  0.3105 -0.3125
  558TMC3     H 8335   3.568   0.736  10.774  0.0532 -1.8811 -1.5532
  558TMC3    H1 8336   3.938   0.773  10.574 -0.1612  1.7368  1.4711
  558TMC3    H2 8337   3.575   0.883  10.372  0.2377  1.2277  0.9412
  558TMC3    C7 8338   3.842   0.833  10.345  0.3097  0.2908  0.5646
  558TMC3    C8 8339   3.421   0.830  10.576  0.4755 -0.6801 -0.2381
  558TMC3    O1 8340   3.966   0.851  10.354 -0.0726  0.1166  0.3920
  558TMC3    O2 8341   3.354   0.794  10.484  0.0207  0.2739 -0.0122
  559MPD2     C 8342   3.739   1.161  10.339 -0.0767 -0.7186  0.8545
  559MPD2    C1 8343   3.674   1.190  10.457  0.0242  0.1582 -0.1614
  559MPD2    C2 8344   3.747   1.217  10.573  0.9398 -0.7019  0.6213
  559MPD2    C3 8345   3.884   1.210  10.570 -0.2663  0.2158  0.1318
  559MPD2    C4 8346   3.952   1.205  10.448 -0.3796  0.2003  0.2351
  559MPD2    C5 8347   3.874   1.178  10.334  0.3559 -0.1015  0.1206
  559MPD2     H 8348   3.703   1.241  10.669 -2.1774 -0.2913 -0.9127
  559MPD2    H1 8349   4.060   1.203  10.436 -0.5357 -0.6711 -0.9962
  559MPD2    H2 8350   3.680   1.125  10.255 -0.7827  1.9259  0.2234
  559MPD2    H3 8351   3.923   1.171  10.238  3.1194  1.0925  1.4715
  559MPD2     N 8352   3.951   1.208  10.698  0.0040  0.2086  0.1228
  559MPD2    H5 8353   3.888   1.226  10.774  1.6694 -1.4321  1.8943
  559MPD2    N1 8354   3.537   1.190  10.459  0.0441 -0.2741  0.0023
  559MPD2    H7 8355   3.483   1.170  10.375 -0.2792  2.1471 -0.3589
  560TMC3    C1 8356   4.094   1.217  10.881 -0.1824  0.6858  0.5233
  560TMC3    C2 8357   3.994   1.164  10.957 -0.3838 -0.1447  0.4741
  560TMC3    C3 8358   4.019   1.125  11.085  0.1813 -0.1590 -0.5976
  560TMC3    C4 8359   4.214   1.244  10.944  0.1625  0.2329  0.0491
  560TMC3    C5 8360   4.239   1.210  11.075 -0.0007  0.0015 -0.7801
  560TMC3    C6 8361   4.143   1.135  11.140 -0.4901  1.0234  0.4556
  560TMC3     C 8362   4.085   1.201  10.733 -0.4101  1.3722 -0.0652
  560TMC3     O 8363   4.187   1.184  10.666 -0.1681  0.6771 -0.5080
  560TMC3     H 8364   3.897   1.142  10.913 -0.8296  1.6178  0.5517
  560TMC3    H1 8365   4.294   1.277  10.879  0.0301  0.0370 -0.2155
  560TMC3    H2 8366   4.154   1.117  11.246  1.1634  0.0260  0.1083
  560TMC3    C7 8367   4.367   1.171  11.123  1.0159 -0.1971  0.0475
  560TMC3    C8 8368   3.910   1.051  11.150 -0.1801  0.2098 -0.7441
  560TMC3    O1 8369   4.352   1.059  11.159 -0.1947  0.0689 -0.7281
  560TMC3    O2 8370   3.807   1.029  11.089 -0.1676  0.3052 -0.3482
  561TMC3    C1 8371   1.807   0.197  11.375  0.1842 -0.3487  0.8264
  561TMC3    C2 8372   1.703   0.146  11.448  0.1697 -0.5817 -0.4235
  561TMC3    C3 8373   1.639   0.224  11.539  0.3429 -0.2543 -0.0863
  561TMC3    C4 8374   1.837   0.326  11.385  0.1840 -0.6617  0.4044
  561TMC3    C5 8375   1.778   0.402  11.481 -0.2099  0.0321 -0.6906
  561TMC3    C6 8376   1.677   0.358  11.563 -0.2538  0.1705  1.0650
  561TMC3     C 8377   1.834   0.119  11.251  0.2001  0.6186  0.7548
  561TMC3     O 8378   1.751   0.057  11.191  0.0861 -0.5106  0.1181
  561TMC3     H 8379   1.670   0.045  11.425 -1.8789 -0.1456  0.6228
  561TMC3    H1 8380   1.912   0.364  11.318  0.0697 -0.5454  0.3410
  561TMC3    H2 8381   1.639   0.437  11.628 -1.6438  1.1573 -0.9556
  561TMC3    C7 8382   1.803   0.545  11.488  0.2545  0.2062 -0.2314
  561TMC3    C8 8383   1.569   0.156  11.654 -0.0091  0.5920 -0.6676
  561TMC3    O1 8384   1.798   0.592  11.599 -0.1274  0.1464  0.1741
  561TMC3    O2 8385   1.545   0.032  11.646 -0.4386 -0.5551 -0.2133
  562TMC3    C1 8386   2.750   1.760  16.283 -0.7267 -0.4277  0.8445
  562TMC3    C2 8387   2.673   1.866  16.302 -0.3643 -0.7570  0.7033
  562TMC3    C3 8388   2.653   1.900  16.429 -0.8751  0.3971 -0.1847
  562TMC3    C4 8389   2.802   1.690  16.387  0.9330 -0.2331  0.9307
  562TMC3    C5 8390   2.766   1.719  16.516  1.3550 -0.3312 -0.4901
  562TMC3    C6 8391   2.686   1.824  16.542 -0.1588  1.1005 -0.6373
  562TMC3     C 8392   2.768   1.704  16.148  0.1038  0.6625  0.3673
  562TMC3     O 8393   2.860   1.619  16.144 -0.1354  0.8423 -0.6649
  562TMC3     H 8394   2.614   1.907  16.220 -0.7197 -0.4226  1.1251
  562TMC3    H1 8395   2.865   1.606  16.365 -0.4552 -0.3851 -2.4012
  562TMC3    H2 8396   2.650   1.852  16.640  1.9423  1.4260  0.0413
  562TMC3    C7 8397   2.814   1.644  16.630  0.1506 -0.5375 -0.4312
  562TMC3    C8 8398   2.586   2.024  16.455 -0.2307 -0.2579 -0.3311
  562TMC3    O1 8399   2.786   1.698  16.732 -0.1838 -0.5774  0.1875
  562TMC3    O2 8400   2.524   2.042  16.561 -0.0607 -0.3929  0.1706
  563MPD2     C 8401   0.410   3.294  15.980 -0.5508 -0.8148  0.3841
  563MPD2    C1 8402   0.459   3.315  16.110  0.1118 -0.1931 -0.7780
  563MPD2    C2 8403   0.576   3.253  16.146  0.2991  0.6229  0.2569
  563MPD2    C3 8404   0.643   3.170  16.057 -0.0017 -0.4334 -0.0967
  563MPD2    C4 8405   0.592   3.158  15.932  0.3947  0.1302  0.0468
  563MPD2    C5 8406   0.469   3.209  15.899 -0.3110  0.4998  0.3992
  563MPD2     H 8407   0.602   3.256  16.252  0.5600  0.4088  0.1983
  563MPD2    H1 8408   0.626   3.088  15.857 -1.5818 -2.4479  1.5798
  563MPD2    H2 8409   0.314   3.337  15.954  0.2271  0.7424  0.0875
  563MPD2    H3 8410   0.423   3.185  15.803  1.5154 -0.7964 -0.1502
  563MPD2     N 8411   0.753   3.095  16.103 -0.1853  0.1724  0.3743
  563MPD2    H5 8412   0.792   3.124  16.192  1.1208  0.5021 -0.3161
  563MPD2    N1 8413   0.382   3.394  16.199 -0.0685  0.2436 -0.0716
  563MPD2    H7 8414   0.290   3.426  16.170  0.3345  0.8175 -0.7154
  564TMC3    C1 8415   0.330   3.392  16.429 -1.3427  0.9236  0.8785
  564TMC3    C2 8416   0.193   3.387  16.395 -0.1961 -0.4107  0.3896
  564TMC3    C3 8417   0.117   3.292  16.462 -0.7055 -0.1988  0.9180
  564TMC3    C4 8418   0.385   3.305  16.522 -0.1340 -0.8591  0.3680
  564TMC3    C5 8419   0.307   3.228  16.602  0.3340  0.1780 -0.5221
  564TMC3    C6 8420   0.173   3.223  16.560  0.1122 -0.3462  0.2958
  564TMC3     C 8421   0.420   3.430  16.326  0.6260  0.0825  0.6701
  564TMC3     O 8422   0.537   3.449  16.355  0.0064  0.4288  0.0606
  564TMC3     H 8423   0.149   3.461  16.329 -0.5446 -1.1008 -0.1571
  564TMC3    H1 8424   0.491   3.308  16.540 -0.1204 -1.8474  0.4717
  564TMC3    H2 8425   0.113   3.143  16.601 -1.4238  0.0802 -1.1000
  564TMC3    C7 8426   0.358   3.097  16.577 -0.8709 -0.4848 -0.1717
  564TMC3    C8 8427   0.019   3.220  16.382 -0.4008  0.1093  0.5384
  564TMC3    O1 8428   0.321   3.004  16.651  0.5296 -0.1030 -0.2919
  564TMC3    O2 8429   4.680   3.143  16.444  0.3280  0.0283 -0.4553
  565TMC3    C1 8430   0.600   4.311  10.258  0.6209  0.0284  0.5350
  565TMC3    C2 8431   0.528   4.211  10.308 -0.0778  0.4613  0.1125
  565TMC3    C3 8432   0.453   4.133  10.223  1.3756 -0.2104  0.1883
  565TMC3    C4 8433   0.579   4.356  10.132  0.4684 -0.6305  0.2511
  565TMC3    C5 8434   0.492   4.290  10.048 -0.0327  0.3162  0.1572
  565TMC3    C6 8435   0.415   4.188  10.099 -0.5272  0.0868 -0.3337
  565TMC3     C 8436   0.677   4.397  10.352 -0.2780 -0.2451  0.1367
  565TMC3     O 8437   0.761   4.474  10.300 -0.0878 -0.4313  0.6958
  565TMC3     H 8438   0.567   4.159  10.395 -1.6745 -1.7802 -0.5149
  565TMC3    H1 8439   0.611   4.453  10.095  4.1662 -1.7768  0.4742
  565TMC3    H2 8440   0.389   4.114  10.024 -0.3307 -0.0764 -0.2407
  565TMC3    C7 8441   0.430   4.357   9.933 -0.5183  0.3903 -0.4202
  565TMC3    C8 8442   0.344   4.066  10.296  0.2937  0.1254 -0.0315
  565TMC3    O1 8443   0.316   4.317   9.902  0.3552 -0.8920 -0.2725
  565TMC3    O2 8444   0.358   4.047  10.415 -0.1663 -0.3537  0.0061
  566MPD2     C 8445   2.300   0.931  14.702  0.0505  0.0940  0.0219
  566MPD2    C1 8446   2.239   1.040  14.639  0.8803 -0.4537  0.3828
  566MPD2    C2 8447   2.131   1.014  14.560 -0.3439  0.0833  0.6738
  566MPD2    C3 8448   2.083   0.884  14.551 -0.2582 -0.5217 -0.2210
  566MPD2    C4 8449   2.138   0.782  14.624  0.1730  0.6030 -0.1255
  566MPD2    C5 8450   2.248   0.804  14.703  0.0077 -0.4801 -1.0978
  566MPD2     H 8451   2.077   1.088  14.501 -1.8204 -1.6901 -0.1934
  566MPD2    H1 8452   2.093   0.683  14.623  1.0550  0.1960  0.3384
  566MPD2    H2 8453   2.387   0.958  14.761  0.6608  1.4642 -1.5132
  566MPD2    H3 8454   2.307   0.723  14.745 -1.2875  0.3123  2.2316
  566MPD2     N 8455   1.979   0.859  14.456 -0.3711  0.0917 -0.0181
  566MPD2    H5 8456   1.940   0.936  14.402 -2.8225 -2.2993 -1.6373
  566MPD2    N1 8457   2.311   1.159  14.637 -0.0938  0.0472  0.3031
  566MPD2    H7 8458   2.395   1.164  14.695 -2.0635  1.3212  3.0485
  567TMC3    C1 8459   2.427   1.308  14.497 -0.0682 -0.5039  0.0473
  567TMC3    C2 8460   2.448   1.341  14.369  0.6556 -0.2555 -0.0749
  567TMC3    C3 8461   2.568   1.312  14.306 -0.6297  0.0903 -0.4963
  567TMC3    C4 8462   2.535   1.258  14.574 -0.3413  0.3899 -0.2736
  567TMC3    C5 8463   2.656   1.241  14.505  0.1378 -0.0684 -0.6126
  567TMC3    C6 8464   2.670   1.267  14.374 -0.0206  0.4697  0.0541
  567TMC3     C 8465   2.301   1.252  14.530  0.3593 -1.1576  0.4282
  567TMC3     O 8466   2.202   1.275  14.463 -0.0725  0.0749 -0.0432
  567TMC3     H 8467   2.365   1.388  14.317  0.7216  2.2596  2.0853
  567TMC3    H1 8468   2.530   1.239  14.681  0.8213 -2.1947 -0.6677
  567TMC3    H2 8469   2.759   1.240  14.319 -0.3304 -1.6829  0.6237
  567TMC3    C7 8470   2.770   1.234  14.594 -0.4155  0.5069  0.3395
  567TMC3    C8 8471   2.579   1.332  14.160  0.5662 -0.0085 -0.2810
  567TMC3    O1 8472   2.748   1.211  14.709  0.2497 -0.0601 -0.2440
  567TMC3    O2 8473   2.471   1.363  14.115 -0.1503  1.1785 -1.0174
  568MPD2     C 8474   0.255   1.691  16.251  0.7499 -0.1057 -0.3388
  568MPD2    C1 8475   0.259   1.763  16.367 -0.3486 -0.1372  0.0758
  568MPD2    C2 8476   0.203   1.888  16.373  0.1291 -0.0995  0.1535
  568MPD2    C3 8477   0.147   1.944  16.261 -0.0678  0.3750 -0.0301
  568MPD2    C4 8478   0.163   1.885  16.143 -0.1909 -0.3699  0.0359
  568MPD2    C5 8479   0.222   1.761  16.138  0.9037  0.4938 -0.3781
  568MPD2     H 8480   0.190   1.935  16.470  0.7220 -0.3802  0.3695
  568MPD2    H1 8481   0.138   1.923  16.045  1.3173 -2.3190 -1.1214
  568MPD2    H2 8482   0.298   1.592  16.251  2.0840  0.4703 -2.0133
  568MPD2    H3 8483   0.221   1.715  16.039  2.5672  0.0808 -0.1958
  568MPD2     N 8484   0.108   2.080  16.274 -0.5336  0.0832  0.1544
  568MPD2    H5 8485   0.097   2.120  16.367  1.0286 -1.1848  0.8840
  568MPD2    N1 8486   0.336   1.709  16.477 -0.1403  0.0941  0.2198
  568MPD2    H7 8487   0.388   1.622  16.465  0.5509  0.8451 -2.3929
  569TMC3    C1 8488   0.052   2.297  16.223 -0.2519 -0.1276  0.5015
  569TMC3    C2 8489   0.010   2.314  16.349  0.0010  1.5184  0.5963
  569TMC3    C3 8490   4.733   2.444  16.387  0.5125  0.7797 -0.0232
  569TMC3    C4 8491   0.061   2.405  16.135 -0.1425 -0.4407  0.5171
  569TMC3    C5 8492   0.031   2.533  16.172 -0.0763  0.9101  0.3859
  569TMC3    C6 8493   0.007   2.553  16.308 -0.3413  0.0840  0.0981
  569TMC3     C 8494   0.080   2.164  16.175 -0.4842 -0.0447  0.0928
  569TMC3     O 8495   0.087   2.153  16.053 -0.0330 -0.0830  0.8713
  569TMC3     H 8496   4.731   2.232  16.419 -1.7854  2.7239  1.6574
  569TMC3    H1 8497   0.064   2.386  16.029 -1.8918  0.9601  0.2257
  569TMC3    H2 8498   4.709   2.649  16.345 -0.0382 -0.1633  1.0109
  569TMC3    C7 8499   0.048   2.644  16.081  0.0341  1.2733  0.4044
  569TMC3    C8 8500   4.713   2.470  16.529 -0.3297 -0.0155  0.6373
  569TMC3    O1 8501   0.059   2.620  15.960 -0.2930  0.1863 -0.1249
  569TMC3    O2 8502   4.658   2.378  16.587  0.1692  0.0953  0.2998
  570TMC3    C1 8503   4.456   0.692  16.272  0.1095  0.4237 -0.0472
  570TMC3    C2 8504   4.517   0.639  16.157  0.0318 -0.4004  0.0234
  570TMC3    C3 8505   4.642   0.688  16.128 -0.3034 -0.1580  0.1197
  570TMC3    C4 8506   4.507   0.793  16.349 -0.0188  0.7532  0.1574
  570TMC3    C5 8507   4.626   0.839  16.312  0.0887 -0.0050 -0.3073
  570TMC3    C6 8508   4.694   0.787  16.212 -0.4105  0.9548  0.1741
  570TMC3     C 8509   4.379   0.593  16.343  0.1866  1.0471 -0.0177
  570TMC3     O 8510   4.312   0.522  16.266  0.0395  0.8181  0.6647
  570TMC3     H 8511   4.485   0.546  16.112 -0.8757 -0.5718  0.9992
  570TMC3    H1 8512   4.461   0.833  16.439 -1.7753 -0.0154 -0.4003
  570TMC3    H2 8513   0.057   0.828  16.189 -0.2879  0.9429  0.6785
  570TMC3    C7 8514   4.684   0.955  16.376  0.7245 -0.2504  0.3375
  570TMC3    C8 8515   4.656   0.736  15.994  0.6313  0.1958 -0.0690
  570TMC3    O1 8516   0.066   0.962  16.407 -0.6886  0.2166  0.5829
  570TMC3    O2 8517   0.002   0.823  15.970  0.4206 -0.5636  0.4630
  571MPD2     C 8518   1.619   2.726   0.846 -0.2048 -0.5704  0.6747
  571MPD2    C1 8519   1.745   2.668   0.860 -0.2428  0.7203 -0.3439
  571MPD2    C2 8520   1.848   2.749   0.897 -0.4047  1.1114  0.9557
  571MPD2    C3 8521   1.828   2.883   0.942 -0.1810 -0.5948  0.3500
  571MPD2    C4 8522   1.702   2.936   0.934  0.2264 -0.1160 -0.7497
  571MPD2    C5 8523   1.602   2.860   0.879 -0.6756 -0.1943  0.6310
  571MPD2     H 8524   1.946   2.704   0.889 -0.2495  1.8573 -1.1338
  571MPD2    H1 8525   1.679   3.038   0.962 -0.9924 -0.7120  0.4147
  571MPD2    H2 8526   1.536   2.669   0.805 -1.3662  1.1123  0.6596
  571MPD2    H3 8527   1.508   2.914   0.873 -0.7284 -0.1445  1.9017
  571MPD2     N 8528   1.939   2.967   0.976 -0.1003 -0.0541  0.2124
  571MPD2    H5 8529   1.918   3.061   1.006 -1.3059 -0.2702  0.0546
  571MPD2    N1 8530   1.759   2.529   0.824 -0.3549  0.4469  0.1422
  571MPD2    H7 8531   1.674   2.497   0.778  0.8021 -0.1653 -1.5392
  572TMC3    C1 8532   2.157   3.054   0.991 -0.2845 -0.1303 -0.2169
  572TMC3    C2 8533   2.125   3.100   1.111  0.4540 -0.1123 -0.1985
  572TMC3    C3 8534   2.220   3.180   1.171  0.4153  0.1588 -0.2665
  572TMC3    C4 8535   2.276   3.095   0.922 -0.0253  0.4661 -1.3831
  572TMC3    C5 8536   2.355   3.187   0.979  0.2740  0.3292  0.9104
  572TMC3    C6 8537   2.332   3.229   1.106  0.0677  0.4729 -0.1356
  572TMC3     C 8538   2.075   2.938   0.943  0.3643 -0.0530 -0.1967
  572TMC3     O 8539   2.125   2.867   0.857 -0.0958  0.5073 -0.1091
  572TMC3     H 8540   2.047   3.049   1.167  0.5250 -1.4352 -1.3183
  572TMC3    H1 8541   2.308   3.051   0.829 -2.0583  0.0804 -1.8973
  572TMC3    H2 8542   2.380   3.314   1.153 -2.0141  0.6622  1.6167
  572TMC3    C7 8543   2.414   3.273   0.887  0.1231  0.2218 -0.3006
  572TMC3    C8 8544   2.200   3.242   1.303  0.4404  0.2011 -0.0275
  572TMC3    O1 8545   2.362   3.265   0.779  1.0353 -0.8529 -1.1053
  572TMC3    O2 8546   2.296   3.293   1.357  0.1842  0.0482 -0.2718
  573MPD2     C 8547   3.972   3.299   1.464  0.1768  0.0742  0.5367
  573MPD2    C1 8548   3.895   3.406   1.512  0.1470  0.4256 -0.3528
  573MPD2    C2 8549   3.811   3.466   1.426  0.2688 -0.1636 -0.1491
  573MPD2    C3 8550   3.795   3.412   1.296 -0.0733 -0.2212  0.2511
  573MPD2    C4 8551   3.874   3.313   1.251 -1.0263  0.2810 -0.4956
  573MPD2    C5 8552   3.964   3.250   1.331  0.1288 -0.6995  0.8189
  573MPD2     H 8553   3.756   3.558   1.442  0.1919 -0.2501  0.0882
  573MPD2    H1 8554   3.857   3.264   1.156 -2.8703  0.9360 -0.5041
  573MPD2    H2 8555   4.038   3.243   1.529 -2.5441 -1.9512  1.5438
  573MPD2    H3 8556   4.010   3.156   1.302 -2.8910 -1.5212 -1.2750
  573MPD2     N 8557   3.702   3.457   1.201 -0.1384  0.1378  0.6982
  573MPD2    H5 8558   3.696   3.408   1.113 -0.6311  1.0534  0.2114
  573MPD2    N1 8559   3.921   3.449   1.642  0.5944 -0.0737  0.3340
  573MPD2    H7 8560   3.985   3.389   1.693 -0.8634 -1.6004  0.3781
  574TMC3    C1 8561   3.553   3.579   1.082 -0.2568 -0.0676 -0.3997
  574TMC3    C2 8562   3.492   3.704   1.074 -0.4337  0.5887 -0.4901
  574TMC3    C3 8563   3.500   3.767   0.956  0.6540 -0.8475 -0.1423
  574TMC3    C4 8564   3.616   3.531   0.970  0.4829 -0.3214 -0.6537
  574TMC3    C5 8565   3.621   3.601   0.854  0.0699  0.2431  0.4203
  574TMC3    C6 8566   3.554   3.716   0.839 -0.4628  0.4484  0.1396
  574TMC3     C 8567   3.603   3.552   1.218  0.1321  0.0727  0.0051
  574TMC3     O 8568   3.588   3.637   1.302 -0.4439 -0.8155  0.1274
  574TMC3     H 8569   3.442   3.759   1.153 -1.8734 -0.2876 -0.7917
  574TMC3    H1 8570   3.685   3.448   0.970  1.3790  0.4220 -0.5204
  574TMC3    H2 8571   3.572   3.774   0.749 -1.3218  1.2071  0.4565
  574TMC3    C7 8572   3.653   3.515   0.738  0.1743 -0.3490 -0.2786
  574TMC3    C8 8573   3.488   3.917   0.951  0.3110 -0.3870 -0.2518
  574TMC3    O1 8574   3.711   3.410   0.754 -0.3921 -0.3062 -0.1299
  574TMC3    O2 8575   3.494   3.970   1.058 -0.3655  0.7339  0.1355
  575TMC3    C1 8576   4.593   3.626  10.872 -0.0520 -0.1974 -0.1347
  575TMC3    C2 8577   4.472   3.663  10.925  0.8382  0.0884 -0.2707
  575TMC3    C3 8578   4.400   3.756  10.850  0.2426  0.2048  0.1431
  575TMC3    C4 8579   4.647   3.687  10.774  0.4315  0.3114 -0.0789
  575TMC3    C5 8580   4.588   3.796  10.717 -0.5156  0.1911  0.1454
  575TMC3    C6 8581   4.456   3.833  10.755 -0.4444 -0.9409  0.4414
  575TMC3     C 8582   4.680   3.543  10.964  0.6666  0.7331 -0.2522
  575TMC3     O 8583   4.642   3.523  11.078  0.2938  0.1347  0.5248
  575TMC3     H 8584   4.438   3.646  11.026  0.5824  0.5353 -0.2832
  575TMC3    H1 8585   0.008   3.649  10.741 -0.0228 -0.4808 -0.4709
  575TMC3    H2 8586   4.402   3.918  10.714  0.7328  0.1401  1.1393
  575TMC3    C7 8587   4.675   3.868  10.626  0.2181 -0.8582  1.1178
  575TMC3    C8 8588   4.282   3.813  10.913  0.2907 -0.7051 -0.3779
  575TMC3    O1 8589   0.062   3.859  10.647  0.1620 -0.7159 -0.0700
  575TMC3    O2 8590   4.266   3.935  10.905 -0.1107 -0.4257  0.2363
  576MPD2     C 8591   1.175   0.623  12.976  0.5192  0.1202  0.3652
  576MPD2    C1 8592   1.171   0.724  12.879 -0.3061 -0.4445  0.1741
  576MPD2    C2 8593   1.134   0.848  12.921 -0.1246  0.5533 -0.9022
  576MPD2    C3 8594   1.114   0.879  13.055  1.2584  0.3808  0.1673
  576MPD2    C4 8595   1.121   0.780  13.152  0.2124  0.3252  0.3721
  576MPD2    C5 8596   1.158   0.653  13.109  0.7642 -0.1652 -0.6447
  576MPD2     H 8597   1.133   0.925  12.844  1.5004  2.1400  0.6697
  576MPD2    H1 8598   1.094   0.791  13.256  1.9004  2.6619  0.5481
  576MPD2    H2 8599   1.195   0.518  12.954  0.2077  0.8373 -3.3512
  576MPD2    H3 8600   1.159   0.578  13.186 -1.5394 -0.2432 -0.6693
  576MPD2     N 8601   1.080   1.018  13.080 -0.0840 -0.4107 -0.3474
  576MPD2    H5 8602   1.071   1.085  13.004  3.4966  0.6985  0.2189
  576MPD2    N1 8603   1.188   0.706  12.740 -0.5206 -0.4893  0.6292
  576MPD2    H7 8604   1.166   0.783  12.677  1.6132 -0.8687 -0.5465
  577TMC3    C1 8605   1.214   0.612  12.530 -0.8254  0.5904 -0.0640
  577TMC3    C2 8606   1.181   0.505  12.447 -0.0194 -0.3524  0.2007
  577TMC3    C3 8607   1.212   0.519  12.315  0.1945 -0.2575  0.2011
  577TMC3    C4 8608   1.269   0.728  12.483  0.0675  0.3056  0.2293
  577TMC3    C5 8609   1.281   0.742  12.348  0.1668  0.5426 -0.3620
  577TMC3    C6 8610   1.272   0.630  12.265 -0.2703  0.6121 -0.2817
  577TMC3     C 8611   1.215   0.587  12.679 -0.3858  0.3453 -0.2163
  577TMC3     O 8612   1.234   0.477  12.726  0.2551 -0.0491  0.0109
  577TMC3     H 8613   1.141   0.412  12.486  1.9644 -1.4923 -0.5010
  577TMC3    H1 8614   1.269   0.818  12.543  3.2523  1.6364 -1.7789
  577TMC3    H2 8615   1.277   0.642  12.158  3.2388 -0.9151 -0.3012
  577TMC3    C7 8616   1.328   0.875  12.300 -0.2098 -0.5487 -0.1207
  577TMC3    C8 8617   1.243   0.388  12.255 -0.2923 -0.2973  0.2877
  577TMC3    O1 8618   1.376   0.947  12.387 -1.0791 -0.3535 -0.0877
  577TMC3    O2 8619   1.245   0.291  12.330 -0.3972 -0.5150  0.4576
  578MPD2     C 8620   4.512   1.315   1.504  0.0134  0.1510 -0.6983
  578MPD2    C1 8621   4.486   1.190   1.444  0.0901 -0.5116 -0.7338
  578MPD2    C2 8622   4.506   1.071   1.507  0.4985 -0.0515 -0.4548
  578MPD2    C3 8623   4.560   1.066   1.632  0.1117 -0.4928 -0.3800
  578MPD2    C4 8624   4.584   1.189   1.691 -0.1870  0.1587 -0.6625
  578MPD2    C5 8625   4.556   1.313   1.634 -0.6337 -1.2142 -0.1642
  578MPD2     H 8626   4.488   0.970   1.473  0.0143  0.3856 -1.4903
  578MPD2    H1 8627   4.623   1.194   1.792  1.5731 -0.5673 -1.3079
  578MPD2    H2 8628   4.529   1.409   1.453  0.2847  0.5838  0.1877
  578MPD2    H3 8629   4.569   1.400   1.698  0.3724 -0.9509 -0.7160
  578MPD2     N 8630   4.594   0.945   1.686 -0.5210  0.3709  0.1914
  578MPD2    H5 8631   4.576   0.863   1.628 -0.5834  2.1503 -2.2791
  578MPD2    N1 8632   4.457   1.197   1.307 -0.0781  0.3476  0.0616
  578MPD2    H7 8633   4.479   1.285   1.263 -0.8765 -0.3291 -1.7028
  579TMC3    C1 8634   4.734   0.795   1.789 -0.6279 -0.0874 -0.9541
  579TMC3    C2 8635   0.121   0.802   1.850 -1.2766 -0.4242 -0.4508
  579TMC3    C3 8636   0.196   0.692   1.836  0.4811  0.2321  0.3707
  579TMC3    C4 8637   4.698   0.696   1.697  0.2949  0.8134  0.2155
  579TMC3    C5 8638   0.046   0.595   1.684  0.0979  0.3344  0.5047
  579TMC3    C6 8639   0.163   0.595   1.746 -0.2041  0.5221 -0.0839
  579TMC3     C 8640   4.668   0.924   1.801  0.9427 -0.7433  0.7617
  579TMC3     O 8641   4.694   1.002   1.894  0.2876  0.4958  0.3495
  579TMC3     H 8642   0.154   0.891   1.904  0.7688  0.3723 -3.0202
  579TMC3    H1 8643   4.613   0.706   1.630  1.3775 -1.1691 -1.4509
  579TMC3    H2 8644   0.220   0.504   1.755  0.4606  1.0298  0.7839
  579TMC3    C7 8645   0.030   0.490   1.586 -0.3031  0.0537 -0.6775
  579TMC3    C8 8646   0.330   0.706   1.877 -1.2305  0.5755 -0.0394
  579TMC3    O1 8647   0.110   0.394   1.593 -0.3470 -0.1539 -0.5029
  579TMC3    O2 8648   0.363   0.743   1.992  0.3814 -0.2323  0.6341
  580TMC3    C1 8649   3.280   4.709  12.632 -0.3975 -0.8017 -0.3149
  580TMC3    C2 8650   3.404   0.019  12.656 -0.8933  0.5853 -0.0569
  580TMC3    C3 8651   3.493   4.675  12.730  0.4271 -1.1836  0.2442
  580TMC3    C4 8652   3.242   4.580  12.659  0.2771 -0.5018 -0.4409
  580TMC3    C5 8653   3.332   4.503  12.738  0.5012 -0.2443 -0.7089
  580TMC3    C6 8654   3.456   4.549  12.772 -0.0506 -0.2675 -0.8318
  580TMC3     C 8655   3.230   0.036  12.511  0.1451  0.3823 -0.1789
  580TMC3     O 8656   3.311   0.057  12.420 -0.9272  0.3548 -0.4861
  580TMC3     H 8657   3.437   0.114  12.617  0.5868  0.1776  0.1904
  580TMC3    H1 8658   3.141   4.547  12.638  0.8646 -0.7137 -2.8860
  580TMC3    H2 8659   3.524   4.487  12.830 -0.1313  0.1872 -0.2549
  580TMC3    C7 8660   3.310   4.361  12.756  0.8132  1.4198 -0.7759
  580TMC3    C8 8661   3.628   4.721  12.736  0.2192  0.4935  0.0586
  580TMC3    O1 8662   3.364   4.305  12.852  0.0338  0.4407 -0.3961
  580TMC3    O2 8663   3.649   0.105  12.755  0.3044  0.6649 -0.0040
  581MPD2     C 8664   1.783   4.603  15.320  0.1813  0.3419 -0.0041
  581MPD2    C1 8665   1.719   4.637  15.440 -0.0911 -0.0648 -0.1952
  581MPD2    C2 8666   1.581   4.640  15.446 -0.4250 -0.3105 -0.1220
  581MPD2    C3 8667   1.504   4.607  15.337 -0.3528  0.4310  0.4563
  581MPD2    C4 8668   1.568   4.582  15.221  0.0645 -0.7869 -0.3929
  581MPD2    C5 8669   1.703   4.583  15.213 -0.2539 -0.5058 -0.2725
  581MPD2     H 8670   1.534   4.675  15.538  2.8773  0.2321  1.3542
  581MPD2    H1 8671   1.515   4.567  15.128  1.3069 -0.0082 -1.2241
  581MPD2    H2 8672   1.890   4.599  15.307  0.3064 -0.6531  1.3121
  581MPD2    H3 8673   1.743   4.564  15.114 -0.2326  0.3127 -0.4168
  581MPD2     N 8674   1.361   4.606  15.341  0.0744 -0.0887  0.4978
  581MPD2    H5 8675   1.322   4.653  15.422 -1.0279  1.1066 -0.7236
  581MPD2    N1 8676   1.799   4.636  15.553  0.0002  0.2614 -0.2917
  581MPD2    H7 8677   1.896   4.615  15.531  0.4299  0.2418  1.5816
  582TMC3    C1 8678   1.862   4.554  15.763  0.1772 -0.0880  0.4518
  582TMC3    C2 8679   1.828   4.542  15.897  0.4993 -0.8859 -1.3925
  582TMC3    C3 8680   1.812   4.421  15.955  0.0372  0.0512 -0.0682
  582TMC3    C4 8681   1.888   4.438  15.697 -0.3820 -0.5890 -0.7009
  582TMC3    C5 8682   1.856   4.317  15.745 -0.0475  0.1288 -0.5286
  582TMC3    C6 8683   1.831   4.306  15.880  0.2280  0.6175 -0.0384
  582TMC3     C 8684   1.758   4.630  15.681 -0.1824 -0.1825 -0.8984
  582TMC3     O 8685   1.656   4.651  15.741  0.3368  0.2231  0.3864
  582TMC3     H 8686   1.785   4.627  15.949  1.3825 -1.3733  0.1204
  582TMC3    H1 8687   1.905   4.431  15.590  1.4832  0.9297 -0.5238
  582TMC3    H2 8688   1.820   4.206  15.920 -1.6387  0.9512  0.2736
  582TMC3    C7 8689   1.737   4.273  15.670  0.0615 -0.5609 -0.1264
  582TMC3    C8 8690   1.713   4.406  16.062  0.0474 -0.2366  0.5345
  582TMC3    O1 8691   1.760   4.250  15.556 -0.3547  0.1179  0.6726
  582TMC3    O2 8692   1.712   4.489  16.151 -0.2670 -0.3362 -0.6918
  583MPD2     C 8693   1.708   1.363  16.951  0.2828  0.5306 -0.2977
  583MPD2    C1 8694   1.680   1.481  16.889 -0.0292 -0.1489 -0.5612
  583MPD2    C2 8695   1.617   1.581  16.960 -0.1632 -0.2370  1.0032
  583MPD2    C3 8696   1.564   1.559  17.081  0.1461 -0.4479 -0.6594
  583MPD2    C4 8697   1.570   1.439  17.132 -0.4420  0.3927 -0.3797
  583MPD2    C5 8698   1.637   1.339  17.067  0.1654  0.1094  0.0764
  583MPD2     H 8699   1.597   1.674  16.909  2.2685 -0.1634  0.1727
  583MPD2    H1 8700   1.534   1.393  17.223  0.9286  1.4266  0.6696
  583MPD2    H2 8701   1.759   1.283  16.899  1.4988  0.8790  0.3722
  583MPD2    H3 8702   1.654   1.244  17.116  0.4711 -0.3371 -0.8934
  583MPD2     N 8703   1.479   1.653  17.142 -0.4051 -0.3153 -0.4417
  583MPD2    H5 8704   1.458   1.739  17.092  3.1647 -0.3199 -1.9350
  583MPD2    N1 8705   1.723   1.513  16.755  0.0531  0.0633 -0.0283
  583MPD2    H7 8706   1.699   1.605  16.718  1.9049  0.7048  0.3692
  584TMC3    C1 8707   1.312   1.731  17.297 -0.2993  0.0772  0.9755
  584TMC3    C2 8708   1.357   1.861  17.298  0.0092 -0.1731  0.0229
  584TMC3    C3 8709   1.296   1.949  17.381 -0.0625 -0.3303 -0.1119
  584TMC3    C4 8710   1.210   1.692  17.383  0.2242 -0.0788  0.0949
  584TMC3    C5 8711   1.151   1.788  17.465  0.4007  0.1107  0.7698
  584TMC3    C6 8712   1.194   1.920  17.468  0.3582 -0.4284 -0.4939
  584TMC3     C 8713   1.399   1.623  17.252 -0.1852  0.3844  0.7840
  584TMC3     O 8714   1.397   1.532  17.340 -0.1175  0.0149  0.1991
  584TMC3     H 8715   1.437   1.894  17.232 -1.4715  0.0847 -1.6581
  584TMC3    H1 8716   1.186   1.587  17.396  2.5740 -0.7148 -0.7686
  584TMC3    H2 8717   1.138   1.991  17.527  0.0764  0.2548 -1.5906
  584TMC3    C7 8718   1.051   1.743  17.566 -0.6823 -0.4587 -0.5476
  584TMC3    C8 8719   1.327   2.092  17.370 -0.6237  1.0241  0.0351
  584TMC3    O1 8720   1.044   1.811  17.668  0.5142 -0.1472  0.3519
  584TMC3    O2 8721   1.281   2.168  17.453 -0.4642 -0.2874  0.9531
  585MPD2     C 8722   1.356   0.464   0.343  0.2071  0.0287 -0.1192
  585MPD2    C1 8723   1.222   0.499   0.330  0.7203 -0.3189 -0.5123
  585MPD2    C2 8724   1.131   0.397   0.315 -0.2945 -0.4252  0.1094
  585MPD2    C3 8725   1.168   0.265   0.315 -0.2683  0.1528 -0.2928
  585MPD2    C4 8726   1.301   0.234   0.330 -0.2194 -0.2450  0.8530
  585MPD2    C5 8727   1.389   0.333   0.351  0.4002 -0.0743 -0.6961
  585MPD2     H 8728   1.025   0.420   0.310 -0.1778  0.3921  1.2663
  585MPD2    H1 8729   1.334   0.130   0.326  1.6977  0.4373 -1.0818
  585MPD2    H2 8730   1.433   0.540   0.354  0.8550 -1.0689  3.0501
  585MPD2    H3 8731   1.490   0.317   0.387  0.1789  0.7149  0.2854
  585MPD2     N 8732   1.084   0.162   0.294 -0.5342 -0.3234 -0.2890
  585MPD2    H5 8733   1.116   0.066   0.309 -0.0104 -0.0954  0.0568
  585MPD2    N1 8734   1.173   0.635   0.326  0.0789 -0.4010  0.3049
  585MPD2    H7 8735   1.073   0.647   0.332 -0.3151 -2.0111 -3.0728
  586TMC3    C1 8736   0.904   0.068   0.165 -0.3621  0.4488 -0.0681
  586TMC3    C2 8737   0.996   0.006   0.086  0.1466  0.7908  0.2495
  586TMC3    C3 8738   0.945   4.700  17.706  0.2926  0.3975  0.9435
  586TMC3    C4 8739   0.782   0.110   0.125 -0.8002 -0.6186 -0.8315
  586TMC3    C5 8740   0.743   0.074  17.738 -0.3568  0.5859 -0.1914
  586TMC3    C6 8741   0.819   4.731  17.659 -0.2310 -0.0226  0.6178
  586TMC3     C 8742   0.955   0.179   0.243 -0.3139  0.8478 -0.2813
  586TMC3     O 8743   0.883   0.276   0.230 -0.5573  0.1958 -0.9509
  586TMC3     H 8744   1.102   4.732   0.110 -0.0749  0.2072  1.0006
  586TMC3    H1 8745   0.704   0.137   0.195  0.3173 -1.6544  0.8009
  586TMC3    H2 8746   0.782   4.697  17.563  0.5444  0.0066  0.3117
  586TMC3    C7 8747   0.610   0.110  17.706 -0.3936  0.3710 -0.0523
  586TMC3    C8 8748   1.039   4.665  17.601 -0.0701 -0.0791  0.2805
  586TMC3    O1 8749   0.549   0.015  17.656  0.0716 -0.0411 -0.3202
  586TMC3    O2 8750   1.117   4.572  17.629 -0.8899 -0.4934  0.3764
  587TMC3    C1 8751   2.884   4.022  16.308 -0.4482 -0.4706 -0.0253
  587TMC3    C2 8752   2.947   4.101  16.406  0.5810 -0.4854 -0.4789
  587TMC3    C3 8753   3.088   4.104  16.411 -0.4688  0.5236  0.6550
  587TMC3    C4 8754   2.959   3.931  16.243  0.1333  0.0481 -0.6423
  587TMC3    C5 8755   3.095   3.935  16.257  0.8735  0.0998  0.4757
  587TMC3    C6 8756   3.161   4.016  16.341  0.1037 -0.6595 -0.1516
  587TMC3     C 8757   2.744   3.991  16.327 -0.6638  0.2672  0.0171
  587TMC3     O 8758   2.724   3.872  16.307 -0.5473  0.0381  0.4334
  587TMC3     H 8759   2.885   4.145  16.484 -1.0044 -2.0020 -0.8920
  587TMC3    H1 8760   2.905   3.871  16.171  1.6270 -1.0473 -0.8613
  587TMC3    H2 8761   3.267   4.000  16.360  0.2548 -0.4582 -0.8311
  587TMC3    C7 8762   3.167   3.836  16.172 -0.7367  0.4473  0.1192
  587TMC3    C8 8763   3.148   4.178  16.522  0.2880 -0.0428  0.2104
  587TMC3    O1 8764   3.088   3.748  16.133  0.0557 -0.0112  0.3710
  587TMC3    O2 8765   3.255   4.141  16.564  0.4887  0.2902  0.0361
  588TMC3    C1 8766   0.147   1.801  10.121 -1.0759  0.3625 -0.1142
  588TMC3    C2 8767   0.089   1.685  10.088 -0.5299  0.4749 -0.2024
  588TMC3    C3 8768   0.157   1.573  10.097 -0.1694  0.7312  0.3854
  588TMC3    C4 8769   0.279   1.807  10.165  0.2048  0.3961 -0.0973
  588TMC3    C5 8770   0.340   1.684  10.176  0.0785  0.8759 -0.1469
  588TMC3    C6 8771   0.288   1.563  10.139 -0.8178  0.3455  0.0523
  588TMC3     C 8772   0.072   1.920  10.149 -0.3616  0.2393 -0.3176
  588TMC3     O 8773   0.003   1.957  10.055 -0.4766  0.1811 -0.1954
  588TMC3     H 8774   4.723   1.685  10.049 -0.3643  0.0669 -0.6257
  588TMC3    H1 8775   0.326   1.902  10.191 -1.3275  0.9512  0.6763
  588TMC3    H2 8776   0.343   1.470  10.150  0.0961  1.0580  1.5205
  588TMC3    C7 8777   0.471   1.684  10.243  0.1451 -0.0080  0.2077
  588TMC3    C8 8778   0.078   1.454  10.070 -0.0754  0.0647 -0.2563
  588TMC3    O1 8779   0.546   1.586  10.235  0.3520 -0.0372  0.4473
  588TMC3    O2 8780   4.693   1.462  10.043  0.1964 -0.3912  0.0522
  589TMC3    C1 8781   4.646   4.187   1.514  0.1042 -0.2959  0.5199
  589TMC3    C2 8782   0.006   4.285   1.538 -0.1614  0.1695  0.5972
  589TMC3    C3 8783   0.131   4.270   1.485  1.0052  0.2587  0.0201
  589TMC3    C4 8784   4.674   4.078   1.452 -0.0803  0.0052 -0.0750
  589TMC3    C5 8785   0.075   4.050   1.424 -0.3255 -0.1512 -0.3032
  589TMC3    C6 8786   0.171   4.146   1.441  0.5138  0.3126  0.1871
  589TMC3     C 8787   4.507   4.232   1.520  0.2889  0.0962  0.1614
  589TMC3     O 8788   4.432   4.195   1.431  0.1357 -0.9492  0.1053
  589TMC3     H 8789   4.698   4.377   1.578  2.5406  0.8896  1.8375
  589TMC3    H1 8790   4.595   4.006   1.434 -1.4215  1.0885  1.5380
  589TMC3    H2 8791   0.277   4.124   1.443  0.4744  0.1799  0.8368
  589TMC3    C7 8792   0.104   3.920   1.368  0.7139 -0.0425  0.0986
  589TMC3    C8 8793   0.227   4.354   1.550 -0.0078  0.1723 -0.1328
  589TMC3    O1 8794   0.009   3.840   1.376  0.2222 -0.0240 -0.0802
  589TMC3    O2 8795   0.188   4.424   1.646  0.0628  0.0915  0.3209
  590MPD2     C 8796   3.959   2.721  16.996 -0.7817  0.6984  0.2310
  590MPD2    C1 8797   3.913   2.739  16.872 -0.9580  0.2889  0.0377
  590MPD2    C2 8798   3.986   2.821  16.789 -0.1473 -0.2917  0.4422
  590MPD2    C3 8799   4.121   2.855  16.822 -0.1412 -0.0651  0.8628
  590MPD2    C4 8800   4.171   2.817  16.941  0.5017  0.8049  0.3227
  590MPD2    C5 8801   4.092   2.748  17.028 -0.5925 -0.3047 -0.1337
  590MPD2     H 8802   3.946   2.857  16.695 -0.9692 -0.9351  0.5472
  590MPD2    H1 8803   4.277   2.829  16.964  1.0947 -1.1089 -1.3729
  590MPD2    H2 8804   3.908   2.669  17.076  1.7106 -0.6263  0.9581
  590MPD2    H3 8805   4.136   2.721  17.123  1.2697  1.8493 -0.3771
  590MPD2     N 8806   4.199   2.918  16.720  0.1388  0.4525 -0.6782
  590MPD2    H5 8807   4.155   2.927  16.629 -0.5428 -0.7204 -0.4571
  590MPD2    N1 8808   3.790   2.669  16.842 -0.3121  0.8069  0.3555
  590MPD2    H7 8809   3.742   2.629  16.922 -1.3727 -0.6708 -1.0187
  591TMC3    C1 8810   4.377   3.036  16.622 -0.0229  0.6619 -0.1623
  591TMC3    C2 8811   4.378   2.941  16.519  0.3546  0.4571  0.5039
  591TMC3    C3 8812   4.376   2.979  16.386 -0.2933 -0.1924 -0.7704
  591TMC3    C4 8813   4.351   3.165  16.584  0.3622 -0.6383  0.0267
  591TMC3    C5 8814   4.312   3.191  16.450 -0.0798 -0.6450  0.2029
  591TMC3    C6 8815   4.335   3.103  16.350 -0.0206  0.8113 -0.2266
  591TMC3     C 8816   4.325   2.985  16.745 -0.2649  0.2087  0.0267
  591TMC3     O 8817   4.378   3.017  16.852 -0.0510 -0.2706 -0.0443
  591TMC3     H 8818   4.397   2.839  16.550 -0.9263  0.5153  1.4784
  591TMC3    H1 8819   4.339   3.242  16.660 -1.4287 -1.2538  0.3641
  591TMC3    H2 8820   4.296   3.107  16.249  0.8206 -1.0827 -0.6235
  591TMC3    C7 8821   4.260   3.324  16.424  0.8674 -0.4051 -0.2800
  591TMC3    C8 8822   4.403   2.874  16.292 -0.2951  0.5344 -1.1110
  591TMC3    O1 8823   4.227   3.393  16.521  0.4085  0.4183  0.1039
  591TMC3    O2 8824   4.404   2.760  16.340 -0.3365  0.2416 -0.2379
  592MPD2     C 8825   3.736   3.823  12.015 -0.0357  0.3785 -0.0952
  592MPD2    C1 8826   3.797   3.786  12.129 -0.1374 -0.0650  0.3362
  592MPD2    C2 8827   3.728   3.705  12.213  0.3247 -0.4744  0.3899
  592MPD2    C3 8828   3.616   3.635  12.163 -0.5683 -0.2840  0.0487
  592MPD2    C4 8829   3.557   3.684  12.045 -0.1170 -0.4521  0.0372
  592MPD2    C5 8830   3.612   3.775  11.973  0.4671 -1.0487  0.3125
  592MPD2     H 8831   3.761   3.677  12.313  1.2025 -2.0583 -0.3448
  592MPD2    H1 8832   3.469   3.636  12.003  2.0465 -2.1936 -2.5299
  592MPD2    H2 8833   3.783   3.891  11.944  1.2042  0.1448  0.5151
  592MPD2    H3 8834   3.563   3.818  11.886 -1.0688  0.4342  1.8933
  592MPD2     N 8835   3.550   3.549  12.253 -0.2491  0.0011  0.0016
  592MPD2    H5 8836   3.577   3.559  12.350  0.2249  0.4404 -0.1758
  592MPD2    N1 8837   3.924   3.837  12.161 -0.2879 -0.2963 -0.1605
  592MPD2    H7 8838   3.965   3.887  12.082  1.0072 -2.1998 -0.6842
  593TMC3    C1 8839   4.127   3.885  12.276 -0.6112 -0.5525  0.2296
  593TMC3    C2 8840   4.166   3.930  12.397  0.2377  0.0493 -0.1044
  593TMC3    C3 8841   4.289   3.985  12.403  0.4404 -0.1489  0.1842
  593TMC3    C4 8842   4.204   3.889  12.165 -1.2393  0.2741  0.2166
  593TMC3    C5 8843   4.323   3.954  12.175 -0.3593 -0.3966  0.3196
  593TMC3    C6 8844   4.368   4.004  12.292 -0.2021 -0.1906 -0.7433
  593TMC3     C 8845   3.999   3.816  12.274  1.1973  0.5011 -0.3434
  593TMC3     O 8846   3.959   3.775  12.384 -0.0205  0.6094  0.6169
  593TMC3     H 8847   4.105   3.920  12.485  0.2875 -0.5044 -0.1350
  593TMC3    H1 8848   4.170   3.846  12.072  0.3214  2.7935 -1.5003
  593TMC3    H2 8849   4.458   4.064  12.282  0.7670 -1.6803 -1.0682
  593TMC3    C7 8850   4.390   4.007  12.055 -0.2549 -0.4659 -0.2864
  593TMC3    C8 8851   4.336   4.056  12.527 -0.0254 -0.2232 -0.0867
  593TMC3    O1 8852   4.507   4.027  12.069 -0.0556  0.1020  0.5654
  593TMC3    O2 8853   4.271   4.031  12.627 -0.3424 -0.2611 -0.0498
  594MPD2     C 8854   3.366   3.168  14.827  0.3311  0.0097 -0.3093
  594MPD2    C1 8855   3.249   3.210  14.780  0.0249  0.5042  0.3492
  594MPD2    C2 8856   3.243   3.292  14.673  0.0060 -0.0688  0.0922
  594MPD2    C3 8857   3.358   3.325  14.603  0.1865  0.4543 -0.2115
  594MPD2    C4 8858   3.480   3.285  14.661 -0.0990  0.5851 -0.1287
  594MPD2    C5 8859   3.480   3.203  14.767  0.1077 -0.4644  0.0848
  594MPD2     H 8860   3.144   3.328  14.649  0.1746  1.5156  1.7816
  594MPD2    H1 8861   3.576   3.317  14.622  0.7617 -0.7259  0.8915
  594MPD2    H2 8862   3.371   3.123  14.926 -1.5470  1.6974  0.5311
  594MPD2    H3 8863   3.576   3.177  14.811  1.0509 -0.5095 -2.0108
  594MPD2     N 8864   3.340   3.403  14.484 -0.4321 -0.1242 -0.2861
  594MPD2    H5 8865   3.250   3.439  14.453  0.8119  1.4266 -2.0707
  594MPD2    N1 8866   3.136   3.140  14.832 -0.6151 -0.4526 -0.6991
  594MPD2    H7 8867   3.151   3.064  14.898  1.1584  0.5357  0.0365
  595TMC3    C1 8868   3.561   3.730  14.264 -0.7055  0.4194  0.6661
  595TMC3    C2 8869   3.531   3.599  14.255  0.0208  0.8136  0.4391
  595TMC3    C3 8870   3.419   3.554  14.320  0.4964  0.9445  0.2743
  595TMC3    C4 8871   3.490   3.826  14.334  0.1346  0.5811  0.2743
  595TMC3    C5 8872   3.371   3.778  14.384 -0.2067 -0.7446  0.2980
  595TMC3    C6 8873   3.334   3.648  14.376 -0.1224 -0.0024 -0.5832
  595TMC3     C 8874   3.696   3.771  14.227  0.4307  0.5147  0.2667
  595TMC3     O 8875   3.740   3.874  14.281  0.4826  0.5439 -0.0952
  595TMC3     H 8876   3.594   3.520  14.215 -2.4765 -0.4004 -1.0865
  595TMC3    H1 8877   3.532   3.926  14.335 -0.7470  0.9647 -1.6682
  595TMC3    H2 8878   3.243   3.608  14.419 -0.5170  0.0897 -1.3352
  595TMC3    C7 8879   3.316   3.832  14.510  0.1317 -0.6421  0.2851
  595TMC3    C8 8880   3.443   3.437  14.407 -0.1677 -0.5418  0.8434
  595TMC3    O1 8881   3.213   3.783  14.549  0.2379  0.5130  0.1833
  595TMC3    O2 8882   3.554   3.396  14.404  0.6540  0.3760 -0.1804
  596MPD2     C 8883   2.502   1.488  16.893 -0.0916  0.2719  0.2223
  596MPD2    C1 8884   2.475   1.606  16.828 -0.2556  0.4031  1.0320
  596MPD2    C2 8885   2.470   1.595  16.692 -0.6639  0.0430 -0.1975
  596MPD2    C3 8886   2.512   1.488  16.617  0.0030 -0.5913 -0.0089
  596MPD2    C4 8887   2.541   1.374  16.684 -0.0418  0.5421 -0.2125
  596MPD2    C5 8888   2.538   1.374  16.820 -0.6604  0.4947  0.1559
  596MPD2     H 8889   2.441   1.687  16.641 -0.3061 -0.9005 -2.0942
  596MPD2    H1 8890   2.575   1.281  16.640 -0.5076  0.5294 -0.5400
  596MPD2    H2 8891   2.509   1.467  17.000  2.5996  1.2026  0.2230
  596MPD2    H3 8892   2.554   1.281  16.874  0.9695 -0.2795 -1.6801
  596MPD2     N 8893   2.513   1.485  16.477  0.3331  0.2884  0.2914
  596MPD2    H5 8894   2.537   1.396  16.434 -2.4401  1.0530 -2.8502
  596MPD2    N1 8895   2.440   1.733  16.892 -0.7056  0.0373 -0.1608
  596MPD2    H7 8896   2.409   1.808  16.832 -2.3183 -0.8608 -0.4573
  597TMC3    C1 8897   2.378   1.885  17.052  0.1151  0.9107  0.3647
  597TMC3    C2 8898   2.451   1.988  17.003 -0.1910  0.5784 -0.1503
  597TMC3    C3 8899   2.432   2.107  17.064 -0.1692 -0.2237 -0.5467
  597TMC3    C4 8900   2.290   1.897  17.154 -0.0160  0.3692  0.4139
  597TMC3    C5 8901   2.266   2.019  17.206  0.1180  0.1201 -0.5186
  597TMC3    C6 8902   2.348   2.126  17.171 -0.6352 -0.3946  0.4182
  597TMC3     C 8903   2.418   1.744  17.024  0.2605 -0.1919  0.4945
  597TMC3     O 8904   2.399   1.654  17.106 -0.0316 -0.1308  0.1822
  597TMC3     H 8905   2.528   1.965  16.930  2.1972  1.4426  2.1438
  597TMC3    H1 8906   2.242   1.807  17.192 -1.6744  0.7855 -0.7007
  597TMC3    H2 8907   2.335   2.228  17.205 -0.7536  0.1575 -1.2806
  597TMC3    C7 8908   2.147   2.036  17.285  0.7496 -0.7269 -0.2989
  597TMC3    C8 8909   2.513   2.221  17.027  0.4402  0.0145  0.3625
  597TMC3    O1 8910   2.097   1.934  17.330 -0.3353  0.1750  0.3228
  597TMC3    O2 8911   2.542   2.297  17.114  0.0928 -0.1095 -0.4220
  598TMC3    C1 8912   0.253   2.809  15.687 -0.5218 -0.4006  0.6442
  598TMC3    C2 8913   0.168   2.703  15.682 -0.1472  0.4231 -0.8003
  598TMC3    C3 8914   0.071   2.708  15.587 -0.0242 -0.5240 -0.9471
  598TMC3    C4 8915   0.240   2.916  15.602  0.5858  0.3269 -0.5292
  598TMC3    C5 8916   0.155   2.908  15.497 -0.0912  0.9384  0.0816
  598TMC3    C6 8917   0.068   2.808  15.494 -0.9796  0.0951  0.3933
  598TMC3     C 8918   0.378   2.803  15.753  0.3072 -0.2986  0.8890
  598TMC3     O 8919   0.465   2.883  15.722 -0.1644  0.1071 -0.2799
  598TMC3     H 8920   0.175   2.622  15.754  1.0212  0.4573 -0.8761
  598TMC3    H1 8921   0.310   2.998  15.615  0.7058  0.7118 -3.5867
  598TMC3    H2 8922   0.000   2.799  15.410 -0.1098  1.5777 -0.4526
  598TMC3    C7 8923   0.188   2.978  15.372 -0.5617 -0.1000 -0.5027
  598TMC3    C8 8924   4.704   2.601  15.572  0.3266  0.1836  0.6087
  598TMC3    O1 8925   0.129   2.932  15.271  0.2386  0.1797  1.0535
  598TMC3    O2 8926   4.642   2.600  15.471  0.3198 -0.2223 -0.2431
  599MPD2     C 8927   0.409   4.714  15.806  0.1713 -0.6073  0.2815
  599MPD2    C1 8928   0.473   4.702  15.930  0.3014 -0.2029 -0.7943
  599MPD2    C2 8929   0.412   0.031  16.038 -0.6247 -0.1672  0.6678
  599MPD2    C3 8930   0.294   0.097  16.031  0.0628 -0.1070 -0.3285
  599MPD2    C4 8931   0.228   0.096  15.904 -0.2214  0.2484 -0.3518
  599MPD2    C5 8932   0.289   0.036  15.796 -0.5575  0.0743 -0.1231
  599MPD2     H 8933   0.458   0.013  16.135  1.2099 -1.2722 -0.4047
  599MPD2    H1 8934   0.133   0.147  15.891 -1.1461 -1.4259 -0.1836
  599MPD2    H2 8935   0.456   4.663  15.722  0.3651  0.0379 -0.0033
  599MPD2    H3 8936   0.240   0.044  15.699 -1.3241 -0.7237  0.1914
  599MPD2     N 8937   0.226   0.163  16.136 -0.4151 -1.0032 -0.6726
  599MPD2    H5 8938   0.131   0.191  16.118  0.1516  1.3975  0.0543
  599MPD2    N1 8939   0.598   4.625  15.932  0.0054 -0.0293  0.1855
  599MPD2    H7 8940   0.636   4.583  15.848 -1.0566  1.5103 -1.0593
  600TMC3    C1 8941   0.209   0.301  16.321  0.5080 -0.0594 -0.4836
  600TMC3    C2 8942   0.072   0.272  16.339 -0.2944 -0.3650 -0.3131
  600TMC3    C3 8943   0.009   0.351  16.427 -0.0918 -0.8881  0.3203
  600TMC3    C4 8944   0.280   0.387  16.399 -0.7069 -0.1322  0.4072
  600TMC3    C5 8945   0.201   0.466  16.481 -0.0140 -0.5213  0.2361
  600TMC3    C6 8946   0.073   0.445  16.508  0.6952 -0.0240 -0.0697
  600TMC3     C 8947   0.290   0.207  16.244 -1.2789  0.5499  0.0986
  600TMC3     O 8948   0.411   0.212  16.271 -0.2458  0.3671  0.3700
  600TMC3     H 8949   0.017   0.191  16.294  1.2565 -0.9319 -1.1733
  600TMC3    H1 8950   0.381   0.415  16.372 -1.3455 -0.1609 -2.0021
  600TMC3    H2 8951   0.015   0.505  16.577 -0.6227 -1.0110 -0.3122
  600TMC3    C7 8952   0.255   0.579  16.548  0.0492 -0.0491  0.1616
  600TMC3    C8 8953   4.626   0.298  16.474 -0.9781  0.3484  0.1147
  600TMC3    O1 8954   0.191   0.676  16.583 -0.0303  0.0312  0.1528
  600TMC3    O2 8955   4.548   0.249  16.398 -0.1604 -0.1030  0.3299
  601MPD2     C 8956   2.770   3.597   0.700 -0.2658 -0.2607 -0.4003
  601MPD2    C1 8957   2.671   3.524   0.640  0.4517  0.0322  0.2308
  601MPD2    C2 8958   2.591   3.437   0.716  0.0044  0.2540 -0.1139
  601MPD2    C3 8959   2.600   3.426   0.851  0.0685 -0.4972 -0.0554
  601MPD2    C4 8960   2.705   3.491   0.908 -0.5773  0.3412 -0.5061
  601MPD2    C5 8961   2.791   3.566   0.831  0.3830  0.9157 -0.2347
  601MPD2     H 8962   2.509   3.394   0.659  1.3748 -1.3092 -0.8699
  601MPD2    H1 8963   2.706   3.487   1.016 -0.9929 -0.4216 -0.5324
  601MPD2    H2 8964   2.824   3.679   0.654  0.5140 -0.3257  0.4119
  601MPD2    H3 8965   2.869   3.620   0.884  0.8176  1.1992 -1.1744
  601MPD2     N 8966   2.527   3.341   0.930  0.8868  0.3933 -0.2826
  601MPD2    H5 8967   2.564   3.329   1.024 -0.1060 -1.4419 -0.1198
  601MPD2    N1 8968   2.633   3.546   0.503 -0.4317 -0.5272  0.6884
  601MPD2    H7 8969   2.538   3.515   0.485 -0.3013  0.0942 -1.1568
  602TMC3    C1 8970   2.675   3.569   0.266  0.2977  0.3823 -0.2577
  602TMC3    C2 8971   2.735   3.643   0.168  0.2732  0.7369 -0.1124
  602TMC3    C3 8972   2.677   3.646   0.044  0.1053  0.1135 -0.3935
  602TMC3    C4 8973   2.563   3.490   0.242  1.4385 -1.1695 -0.0584
  602TMC3    C5 8974   2.524   3.479   0.113 -0.2124  0.2791  0.5046
  602TMC3    C6 8975   2.571   3.557   0.012 -0.9067 -0.4722  0.1068
  602TMC3     C 8976   2.715   3.596   0.404  0.5485 -0.7682 -0.2547
  602TMC3     O 8977   2.823   3.654   0.415 -0.3584 -0.1497  0.1427
  602TMC3     H 8978   2.813   3.716   0.186  0.2408  0.6064  0.5602
  602TMC3    H1 8979   2.533   3.420   0.319 -0.0349  0.0719  0.5057
  602TMC3    H2 8980   2.558   3.539  17.645  1.1885 -0.5532 -0.1325
  602TMC3    C7 8981   2.412   3.393   0.079 -0.3028  0.4742  0.9568
  602TMC3    C8 8982   2.690   3.760  17.705 -0.2764  0.4975  0.3885
  602TMC3    O1 8983   2.386   3.300   0.155  0.0453 -0.3248 -0.0647
  602TMC3    O2 8984   2.791   3.829  17.715 -0.0257 -0.0103 -1.1939
  603TMC3    C1 8985   4.413   3.891  11.304 -0.3519  0.1892 -0.1488
  603TMC3    C2 8986   4.477   3.788  11.368  0.3081 -0.6074 -0.4428
  603TMC3    C3 8987   4.608   3.756  11.335 -0.3741 -1.0724  0.1186
  603TMC3    C4 8988   4.470   3.957  11.195  0.4619 -0.1002  0.2534
  603TMC3    C5 8989   4.597   3.926  11.163  0.0992 -0.2703 -0.4238
  603TMC3    C6 8990   4.671   3.831  11.240  0.5614 -0.8807 -0.0568
  603TMC3     C 8991   4.296   3.950  11.363  0.2324 -0.9608 -0.1381
  603TMC3     O 8992   4.249   4.038  11.295  0.4256 -0.5048  0.2614
  603TMC3     H 8993   4.451   3.746  11.465  0.7158  0.7238  0.2524
  603TMC3    H1 8994   4.414   4.030  11.138 -1.2602 -0.9797  0.8346
  603TMC3    H2 8995   0.029   3.803  11.191  1.1905 -0.3740  0.8324
  603TMC3    C7 8996   4.659   3.979  11.043  0.0698 -0.1773 -0.4706
  603TMC3    C8 8997   4.684   3.676  11.422 -0.3452  0.1271 -0.2811
  603TMC3    O1 8998   0.047   3.971  11.039 -0.2234 -0.0265  0.2257
  603TMC3    O2 8999   4.621   3.628  11.515 -0.0418 -0.6380  0.6641
  604MPD2     C 9000   1.256   2.166  16.496 -0.1901 -0.0100  0.2285
  604MPD2    C1 9001   1.153   2.211  16.410  0.0361 -0.1335 -0.0868
  604MPD2    C2 9002   1.155   2.205  16.272  0.6891  0.1456 -0.3458
  604MPD2    C3 9003   1.275   2.165  16.212  0.2201 -0.2111  0.2423
  604MPD2    C4 9004   1.374   2.116  16.298 -0.0093 -0.1443  0.4317
  604MPD2    C5 9005   1.366   2.114  16.439  0.1211 -0.3860  0.4643
  604MPD2     H 9006   1.074   2.233  16.206  0.3075 -0.3707 -0.1030
  604MPD2    H1 9007   1.470   2.084  16.258  0.4896  0.6199  1.0209
  604MPD2    H2 9008   1.243   2.174  16.603 -1.3127 -3.1955  0.3340
  604MPD2    H3 9009   1.451   2.067  16.486 -0.1201  0.1725  1.4431
  604MPD2     N 9010   1.288   2.164  16.068 -0.2124 -0.5011 -0.6015
  604MPD2    H5 9011   1.208   2.199  16.015 -0.6561 -1.7480 -0.7445
  604MPD2    N1 9012   1.040   2.259  16.483  0.0017 -0.0926 -0.6805
  604MPD2    H7 9013   1.051   2.266  16.584  1.5713  1.6405 -0.9724
  605TMC3    C1 9014   0.830   2.331  16.534  0.1694  0.2380 -0.3417
  605TMC3    C2 9015   0.866   2.305  16.665 -0.2363 -0.3202  0.0805
  605TMC3    C3 9016   0.847   2.399  16.757  0.5769 -0.1863 -0.5231
  605TMC3    C4 9017   0.754   2.440  16.498  0.0387  0.3013 -0.0153
  605TMC3    C5 9018   0.723   2.528  16.602 -0.3265 -0.7783  0.1344
  605TMC3    C6 9019   0.771   2.509  16.726 -0.6132  0.6690 -0.4069
  605TMC3     C 9020   0.925   2.302  16.431 -0.6232  0.2221  0.0682
  605TMC3     O 9021   0.889   2.308  16.316 -0.0880 -0.7139  0.4490
  605TMC3     H 9022   0.929   2.219  16.683  2.1160  1.6145  1.2105
  605TMC3    H1 9023   0.716   2.443  16.396 -1.0945 -1.1533  0.3543
  605TMC3    H2 9024   0.761   2.587  16.801  1.6527  0.7654 -0.1958
  605TMC3    C7 9025   0.643   2.644  16.574 -0.6369  0.3636 -0.0107
  605TMC3    C8 9026   0.968   2.426  16.836  0.0441  0.6864  0.0483
  605TMC3    O1 9027   0.605   2.709  16.673 -0.0503  0.0769  0.7751
  605TMC3    O2 9028   1.066   2.378  16.787 -0.0623 -0.4510  0.7898
  606TMC3    C1 9029   2.724   1.199  17.354 -0.4997  0.2459  0.1549
  606TMC3    C2 9030   2.819   1.274  17.415  0.0540 -0.3553 -0.1362
  606TMC3    C3 9031   2.795   1.301  17.548  0.0609 -0.3082 -0.5552
  606TMC3    C4 9032   2.609   1.158  17.415 -0.2895  0.8098 -0.6309
  606TMC3    C5 9033   2.585   1.199  17.547 -0.2017 -0.5175 -0.0247
  606TMC3    C6 9034   2.681   1.269  17.613  0.6999 -0.1242  0.3900
  606TMC3     C 9035   2.748   1.150  17.216 -0.0944  0.1289 -0.6578
  606TMC3     O 9036   2.864   1.151  17.180  0.2503 -0.0004  0.3800
  606TMC3     H 9037   2.894   1.322  17.354  0.6066 -1.6751 -0.5011
  606TMC3    H1 9038   2.529   1.098  17.374  1.9579 -0.3489 -3.3167
  606TMC3    H2 9039   2.671   1.302  17.715 -0.4989 -1.2844  0.6427
  606TMC3    C7 9040   2.494   1.123  17.635  0.1800 -0.3829  0.7175
  606TMC3    C8 9041   2.901   1.308  17.640  0.0604  0.9788 -0.5717
  606TMC3    O1 9042   2.527   1.115   0.012 -0.4017  0.9806  0.3946
  606TMC3    O2 9043   2.877   1.264   0.011 -0.8136  0.2711 -0.0033
  607MPD2     C 9044   4.263   3.637  11.940 -1.1339 -0.2258  0.0736
  607MPD2    C1 9045   4.386   3.644  11.995 -0.1893 -0.2673 -0.3681
  607MPD2    C2 9046   4.402   3.607  12.129 -0.2927  0.2387 -0.3445
  607MPD2    C3 9047   4.294   3.579  12.210 -0.0435 -0.9852 -0.3600
  607MPD2    C4 9048   4.170   3.565  12.149  0.1771  0.1585 -0.3368
  607MPD2    C5 9049   4.157   3.592  12.015 -0.6055 -0.2858  0.1001
  607MPD2     H 9050   4.498   3.620  12.178  1.2662 -2.3311 -2.6334
  607MPD2    H1 9051   4.083   3.539  12.210  0.3126 -1.1503 -0.7108
  607MPD2    H2 9052   4.244   3.668  11.838 -2.8959 -1.0055  0.1729
  607MPD2    H3 9053   4.055   3.580  11.981  0.1046 -0.7131 -1.8778
  607MPD2     N 9054   4.313   3.574  12.345 -1.1307  0.0258 -0.5763
  607MPD2    H5 9055   4.405   3.611  12.367 -0.7540 -1.2533  0.0014
  607MPD2    N1 9056   4.495   3.715  11.925 -0.0159 -0.1252 -0.9068
  607MPD2    H7 9057   4.581   3.729  11.976 -1.6223 -0.5664  1.9299
  608TMC3    C1 9058   4.619   3.848  11.774 -0.2343 -0.6024 -0.7532
  608TMC3    C2 9059   4.717   3.864  11.875  0.1650 -0.3890  0.3518
  608TMC3    C3 9060   0.072   3.972  11.861  0.2602 -0.5258 -0.1533
  608TMC3    C4 9061   4.621   3.929  11.670  0.0464  0.9128  0.0535
  608TMC3    C5 9062   4.712   4.021  11.652  0.7436 -0.6559 -0.6090
  608TMC3    C6 9063   0.077   4.049  11.745 -0.5595 -0.3836 -0.1405
  608TMC3     C 9064   4.493   3.775  11.803 -0.0219  0.0078  0.3528
  608TMC3     O 9065   4.397   3.771  11.724  0.3173 -0.1573  0.3118
  608TMC3     H 9066   4.724   3.799  11.961 -2.5738 -1.2007 -0.0364
  608TMC3    H1 9067   4.559   3.906  11.584 -0.7976 -1.0218  1.1587
  608TMC3    H2 9068   0.145   4.131  11.732  1.2316 -1.9862 -0.8383
  608TMC3    C7 9069   4.734   4.075  11.518 -0.0409 -0.3604 -0.0571
  608TMC3    C8 9070   0.124   4.013  11.990  0.2081 -0.2906  1.0725
  608TMC3    O1 9071   4.647   4.085  11.436  0.3359  0.8086 -0.0654
  608TMC3    O2 9072   0.235   4.066  11.993  0.1335  0.1742  0.4737
  609TMC3    C1 9073   3.236   3.355   9.386  0.6276 -0.4149  0.0795
  609TMC3    C2 9074   3.222   3.421   9.266  0.1984 -0.5312 -0.2874
  609TMC3    C3 9075   3.328   3.410   9.181 -0.6459 -0.4224  0.4458
  609TMC3    C4 9076   3.344   3.271   9.420  0.2697 -0.8798 -0.1726
  609TMC3    C5 9077   3.455   3.278   9.338 -0.0998 -0.2433  0.1153
  609TMC3    C6 9078   3.450   3.344   9.218  0.3292  0.7142 -0.4514
  609TMC3     C 9079   3.147   3.392   9.496  0.1657  0.2735 -0.1232
  609TMC3     O 9080   3.141   3.321   9.598  0.1804 -0.2548  0.3240
  609TMC3     H 9081   3.131   3.476   9.249  0.5473  0.9183  2.5359
  609TMC3    H1 9082   3.342   3.208   9.509  2.6924  0.4822  0.8460
  609TMC3    H2 9083   3.534   3.348   9.149  0.0786 -1.1839 -0.8482
  609TMC3    C7 9084   3.568   3.198   9.382  0.3467  0.5855 -0.0197
  609TMC3    C8 9085   3.322   3.487   9.055  0.0567 -0.0024  0.1726
  609TMC3    O1 9086   3.565   3.167   9.498 -0.4347 -0.0536 -0.3250
  609TMC3    O2 9087   3.425   3.513   9.001 -0.3164  0.4267 -0.0861
  610TMC3    C1 9088   4.398   3.820  13.244  0.1989  0.4933 -0.3143
  610TMC3    C2 9089   4.503   3.911  13.254  0.5661  0.2857 -0.4622
  610TMC3    C3 9090   4.630   3.859  13.246  0.2383  0.1250  0.0975
  610TMC3    C4 9091   4.413   3.694  13.219  0.1734  0.1359 -0.3981
  610TMC3    C5 9092   4.540   3.644  13.206  0.0337  0.3577 -0.2634
  610TMC3    C6 9093   4.648   3.724  13.227  0.3466  0.1921 -0.6122
  610TMC3     C 9094   4.257   3.872  13.241  0.3529  0.1323 -0.7704
  610TMC3     O 9095   4.170   3.791  13.217  0.2280 -0.0821  0.0137
  610TMC3     H 9096   4.487   4.015  13.279  0.8899 -0.4405  2.6670
  610TMC3    H1 9097   4.326   3.634  13.194  0.0550  0.0319  0.2636
  610TMC3    H2 9098   0.011   3.677  13.229 -0.6976 -1.9612 -0.2557
  610TMC3    C7 9099   4.563   3.526  13.128 -0.6634  0.2023  0.1211
  610TMC3    C8 9100   0.013   3.947  13.236  0.3511 -0.3273  0.6364
  610TMC3    O1 9101   4.676   3.476  13.120 -0.2204 -0.4611  0.1205
  610TMC3    O2 9102   0.121   3.887  13.238 -0.3275 -0.6903  0.0375
  611MPD2     C 9103   3.605   3.934  10.302 -0.4042  0.4253 -0.5823
  611MPD2    C1 9104   3.738   3.903  10.338 -0.3544 -0.7522 -1.0110
  611MPD2    C2 9105   3.837   4.000  10.341  0.5733 -0.6412 -0.6025
  611MPD2    C3 9106   3.806   4.129  10.312  0.1429 -0.1589 -0.6994
  611MPD2    C4 9107   3.679   4.162  10.283 -0.4966  0.3152  0.6892
  611MPD2    C5 9108   3.582   4.071  10.274 -0.6929  0.2533 -0.3832
  611MPD2     H 9109   3.935   3.984  10.385  0.6538  1.2574 -0.0975
  611MPD2    H1 9110   3.663   4.265  10.253  0.8486  0.3724  0.2084
  611MPD2    H2 9111   3.524   3.862  10.298 -0.6306  0.6011  0.9665
  611MPD2    H3 9112   3.484   4.102  10.238 -0.7435  0.9612  0.3731
  611MPD2     N 9113   3.897   4.235  10.319  0.0170  0.1055 -0.2558
  611MPD2    H5 9114   3.859   4.326  10.297  1.0077  0.6828  0.4251
  611MPD2    N1 9115   3.774   3.767  10.382  0.4177  0.2360 -0.4221
  611MPD2    H7 9116   3.699   3.699  10.387  1.0637 -0.3188  1.6699
  612TMC3    C1 9117   4.122   4.339  10.346 -0.0807  0.8248 -0.4489
  612TMC3    C2 9118   4.247   4.313  10.399 -0.3324 -0.4137  0.4642
  612TMC3    C3 9119   4.342   4.414  10.398  0.2135 -0.5255 -0.0140
  612TMC3    C4 9120   4.098   4.459  10.287 -0.6443  0.7457  0.1786
  612TMC3    C5 9121   4.201   4.554  10.280  0.2969  0.4311  0.2656
  612TMC3    C6 9122   4.322   4.539  10.341 -0.3604  0.0942 -0.1416
  612TMC3     C 9123   4.035   4.221  10.329  0.0235  0.1437 -0.8430
  612TMC3     O 9124   4.103   4.119  10.324 -0.5171  0.1127  0.4680
  612TMC3     H 9125   4.279   4.217  10.438 -0.3752 -1.2464 -1.5595
  612TMC3    H1 9126   4.010   4.470  10.226 -1.5403 -2.7932  0.8033
  612TMC3    H2 9127   4.402   4.612  10.338 -2.1119  1.9943 -0.8586
  612TMC3    C7 9128   4.170   4.666  10.187 -0.3922  0.2100 -0.0519
  612TMC3    C8 9129   4.462   4.407  10.486  0.6732  0.3825 -0.1117
  612TMC3    O1 9130   4.062   4.672  10.129  0.3431  0.1402  0.0126
  612TMC3    O2 9131   4.553   4.489  10.471  0.1376 -0.2660 -0.1146
  613MPD2     C 9132   4.059   1.525  16.505  0.2674  0.1690  0.6737
  613MPD2    C1 9133   4.055   1.404  16.440 -0.8104  0.0750 -0.3077
  613MPD2    C2 9134   3.983   1.303  16.499 -0.1923 -0.3217 -0.2215
  613MPD2    C3 9135   3.896   1.327  16.604 -0.1621  0.2279 -0.7506
  613MPD2    C4 9136   3.900   1.447  16.664  0.3503 -0.2050 -0.3545
  613MPD2    C5 9137   3.983   1.544  16.616 -0.2273 -0.3404 -0.3578
  613MPD2     H 9138   3.980   1.209  16.444 -0.4475  0.1287 -0.9751
  613MPD2    H1 9139   3.848   1.463  16.758  0.7993 -2.2868  0.2580
  613MPD2    H2 9140   4.115   1.609  16.466  0.5344  1.0263  2.9106
  613MPD2    H3 9141   3.993   1.644  16.657 -0.0527  0.2012 -1.7036
  613MPD2     N 9142   3.797   1.235  16.649 -0.4913  0.0279 -0.4634
  613MPD2    H5 9143   3.748   1.268  16.731  1.0863  3.1759 -0.7879
  613MPD2    N1 9144   4.126   1.375  16.325 -0.3058  0.3889 -0.0236
  613MPD2    H7 9145   4.102   1.283  16.291 -0.2854 -0.3925  2.0503
  614TMC3    C1 9146   4.243   1.397  16.128 -0.5356  0.1595 -0.7751
  614TMC3    C2 9147   4.209   1.270  16.127  0.4702  0.4023 -0.3380
  614TMC3    C3 9148   4.136   1.225  16.022  0.3806  0.4624 -0.5055
  614TMC3    C4 9149   4.217   1.481  16.021 -0.1584  0.4047  0.0596
  614TMC3    C5 9150   4.147   1.436  15.913  0.1215  0.6757 -0.2730
  614TMC3    C6 9151   4.112   1.305  15.915 -0.2669 -0.6998  0.2736
  614TMC3     C 9152   4.214   1.460  16.256  0.0383  0.3182  0.3235
  614TMC3     O 9153   4.234   1.579  16.273 -0.3350  0.1349  0.4848
  614TMC3     H 9154   4.232   1.205  16.211 -2.9737  1.9713  1.8235
  614TMC3    H1 9155   4.260   1.580  16.021 -1.0738  0.7967 -1.2216
  614TMC3    H2 9156   4.050   1.262  15.838 -1.2050  0.0054  0.6269
  614TMC3    C7 9157   4.166   1.499  15.787 -0.0794 -0.5013 -0.0349
  614TMC3    C8 9158   4.021   1.164  16.080  0.3029 -0.5602 -0.2063
  614TMC3    O1 9159   4.230   1.603  15.797  0.1530  0.5014  0.1220
  614TMC3    O2 9160   4.008   1.172  16.197 -0.0583  0.2638 -0.3047
  615MPD2     C 9161   3.616   3.097  16.116  0.0229 -0.9446  0.3645
  615MPD2    C1 9162   3.488   3.044  16.158 -0.2364  0.4357 -0.0173
  615MPD2    C2 9163   3.378   3.061  16.070  1.1548 -0.3561 -0.0684
  615MPD2    C3 9164   3.390   3.133  15.955 -1.3422  0.4048  0.7373
  615MPD2    C4 9165   3.510   3.189  15.923  0.7773  0.8621 -0.2240
  615MPD2    C5 9166   3.621   3.168  15.996 -0.5893  0.4113  0.0274
  615MPD2     H 9167   3.281   3.022  16.102 -0.1060  3.1029  0.2708
  615MPD2    H1 9168   3.524   3.243  15.830 -0.0421 -1.8904 -1.9605
  615MPD2    H2 9169   3.710   3.089  16.168 -0.4980  1.8037  1.7152
  615MPD2    H3 9170   3.718   3.210  15.970 -0.8218  0.9985  0.0993
  615MPD2     N 9171   3.280   3.165  15.877  0.9035  0.4563  0.4242
  615MPD2    H5 9172   3.300   3.226  15.798  0.0610  0.1772 -0.0064
  615MPD2    N1 9173   3.460   2.994  16.285 -0.5391 -0.3676 -0.1819
  615MPD2    H7 9174   3.361   2.986  16.309 -0.1415 -1.5651  1.0628
  616TMC3    C1 9175   3.490   2.936  16.507 -0.0102  0.1979  0.1236
  616TMC3    C2 9176   3.570   2.947  16.619 -0.4817 -0.4012 -0.0164
  616TMC3    C3 9177   3.506   2.907  16.732 -0.2592  0.4640 -0.0533
  616TMC3    C4 9178   3.359   2.898  16.508  0.2164  0.1337  1.3950
  616TMC3    C5 9179   3.300   2.877  16.631 -0.5993  0.0007 -0.9968
  616TMC3    C6 9180   3.377   2.878  16.747 -0.7293 -0.9151 -0.1968
  616TMC3     C 9181   3.551   2.966  16.386 -0.1835  0.2718  0.2645
  616TMC3     O 9182   3.678   2.968  16.384 -0.0203 -0.2251  0.1687
  616TMC3     H 9183   3.676   2.950  16.596 -0.3805 -0.0044  0.4898
  616TMC3    H1 9184   3.297   2.872  16.423  0.7054  1.4771  0.6372
  616TMC3    H2 9185   3.330   2.866  16.844  1.2118 -3.9345  0.3552
  616TMC3    C7 9186   3.163   2.841  16.653 -0.2353  0.1657  0.4860
  616TMC3    C8 9187   3.580   2.929  16.851 -0.1779  0.0198  0.3833
  616TMC3    O1 9188   3.132   2.774  16.753  0.1586  0.3918  0.0321
  616TMC3    O2 9189   3.535   2.874  16.950  0.2433  0.2880  0.0000
  617MPD2     C 9190   1.036   0.635  14.115 -0.2491 -0.4213 -0.3088
  617MPD2    C1 9191   1.057   0.737  14.206 -0.4860 -0.3143  0.5639
  617MPD2    C2 9192   0.979   0.725  14.318  0.2175  0.8016  0.3924
  617MPD2    C3 9193   0.869   0.637  14.327  0.2651  0.1430  0.0869
  617MPD2    C4 9194   0.850   0.538  14.236 -0.2207  0.3696  0.1288
  617MPD2    C5 9195   0.945   0.534  14.138  0.4249 -0.0933 -0.3619
  617MPD2     H 9196   0.987   0.805  14.390 -0.8298  1.7985 -0.6148
  617MPD2    H1 9197   0.765   0.473  14.219  0.6767 -0.6813 -0.3409
  617MPD2    H2 9198   1.096   0.633  14.025 -0.6997 -0.4732 -0.6058
  617MPD2    H3 9199   0.936   0.448  14.073  1.8803 -0.5593  0.0488
  617MPD2     N 9200   0.771   0.645  14.426 -0.1330 -0.5401 -0.2642
  617MPD2    H5 9201   0.690   0.586  14.410  1.1487 -2.1439 -0.9049
  617MPD2    N1 9202   1.149   0.848  14.179 -0.4232 -0.3503 -0.0442
  617MPD2    H7 9203   1.215   0.848  14.102  1.5087  0.1195  1.6161
  618TMC3    C1 9204   1.252   1.046  14.239  0.2764  0.2702 -0.0577
  618TMC3    C2 9205   1.361   0.968  14.271 -0.4735 -0.8104 -0.3874
  618TMC3    C3 9206   1.474   0.983  14.194  0.5680 -1.0095  0.1879
  618TMC3    C4 9207   1.255   1.123  14.125 -0.0885 -0.3719 -0.1679
  618TMC3    C5 9208   1.370   1.148  14.062  0.1338  0.0100  0.2334
  618TMC3    C6 9209   1.487   1.077  14.096 -0.3073 -0.5284  0.1671
  618TMC3     C 9210   1.139   0.967  14.248 -0.2904 -0.1368 -0.6085
  618TMC3     O 9211   1.051   1.011  14.320  0.1692  0.0504 -0.1819
  618TMC3     H 9212   1.354   0.901  14.355 -0.4473  0.2787  0.4890
  618TMC3    H1 9213   1.172   1.188  14.096  0.1335 -0.3773 -0.8180
  618TMC3    H2 9214   1.566   1.078  14.021 -0.6657 -1.3662 -0.2155
  618TMC3    C7 9215   1.382   1.261  13.976 -0.0766 -0.2308  0.3399
  618TMC3    C8 9216   1.562   0.869  14.193  0.0904 -0.0424 -0.4108
  618TMC3    O1 9217   1.321   1.359  14.021 -0.3381  0.3458  0.6630
  618TMC3    O2 9218   1.586   0.821  14.304  0.9203  0.1747 -0.0202
  619MPD2     C 9219   1.937   2.376  13.506 -0.0718  0.1192 -0.4316
  619MPD2    C1 9220   1.807   2.340  13.460 -0.1467  0.2185 -0.4566
  619MPD2    C2 9221   1.737   2.256  13.534  0.8002 -0.4166 -0.4118
  619MPD2    C3 9222   1.758   2.236  13.671  0.2524  0.2427  0.0970
  619MPD2    C4 9223   1.882   2.272  13.718 -0.5578 -0.0135  0.5501
  619MPD2    C5 9224   1.970   2.330  13.637  0.7888  0.7578  0.0153
  619MPD2     H 9225   1.653   2.209  13.485  0.0800 -1.3132  1.6793
  619MPD2    H1 9226   1.909   2.261  13.822 -3.2054 -0.8506  1.1513
  619MPD2    H2 9227   2.013   2.418  13.441 -1.5613  1.3741 -1.3647
  619MPD2    H3 9228   2.070   2.347  13.673  0.7938  0.1644  0.2743
  619MPD2     N 9229   1.657   2.187  13.757 -0.0653 -0.5727 -0.2113
  619MPD2    H5 9230   1.680   2.193  13.856 -0.2800 -0.3012 -0.1786
  619MPD2    N1 9231   1.751   2.389  13.340  0.7918  0.6041 -0.4338
  619MPD2    H7 9232   1.659   2.357  13.312  0.3376  2.5313 -1.1381
  620TMC3    C1 9233   1.691   2.554  13.177  0.1634 -0.6537 -0.0026
  620TMC3    C2 9234   1.574   2.544  13.253 -0.1110 -0.2260  0.4473
  620TMC3    C3 9235   1.501   2.655  13.278  0.2110  0.1087  0.3737
  620TMC3    C4 9236   1.719   2.678  13.138 -0.3032  0.0837  0.2652
  620TMC3    C5 9237   1.647   2.787  13.164 -0.2150  1.0118 -0.1834
  620TMC3    C6 9238   1.529   2.779  13.230  0.5092  0.3965 -0.0017
  620TMC3     C 9239   1.797   2.490  13.258  0.3657 -0.6167 -0.1054
  620TMC3     O 9240   1.893   2.558  13.273 -0.5584 -0.8152 -0.2713
  620TMC3     H 9241   1.536   2.452  13.298  1.4601 -0.4722  1.2794
  620TMC3    H1 9242   1.817   2.689  13.093 -0.6385 -0.7363 -0.6748
  620TMC3    H2 9243   1.481   2.870  13.266 -1.7067  0.0176 -2.0300
  620TMC3    C7 9244   1.726   2.895  13.225 -0.0911 -0.5573 -0.1308
  620TMC3    C8 9245   1.438   2.651  13.409  0.1359 -0.4338  0.3162
  620TMC3    O1 9246   1.675   3.006  13.229  0.1502 -0.1677 -0.3526
  620TMC3    O2 9247   1.312   2.640  13.416 -0.9223  0.2492 -0.3308
  621MPD2     C 9248   3.108   1.374  10.152 -0.5490  0.1492 -0.8999
  621MPD2    C1 9249   3.023   1.470  10.196 -0.2437  0.7892  0.4354
  621MPD2    C2 9250   3.073   1.599  10.217 -0.5023  0.5229 -0.0553
  621MPD2    C3 9251   3.200   1.626  10.177 -0.6336 -0.1802  0.3748
  621MPD2    C4 9252   3.292   1.525  10.149 -0.1333  0.5348  0.0944
  621MPD2    C5 9253   3.241   1.402  10.123 -0.3411  1.3013  0.0162
  621MPD2     H 9254   3.010   1.680  10.251 -0.5043  0.9377 -1.0483
  621MPD2    H1 9255   3.397   1.545  10.131 -0.3708 -0.4809 -2.5196
  621MPD2    H2 9256   3.080   1.269  10.144  1.8304 -0.5947  0.2536
  621MPD2    H3 9257   3.316   1.328  10.097 -0.5140  1.3569 -0.6559
  621MPD2     N 9258   3.256   1.758  10.182  0.3496 -0.3130  0.7540
  621MPD2    H5 9259   3.356   1.761  10.162  0.1969 -0.3939 -0.0339
  621MPD2    N1 9260   2.887   1.442  10.223 -0.3715  0.0848  0.1360
  621MPD2    H7 9261   2.833   1.510  10.274 -2.1038 -0.7987 -0.4977
  622TMC3    C1 9262   2.689   1.319  10.205 -0.1557  0.2210 -0.2783
  622TMC3    C2 9263   2.662   1.360  10.335  0.8849  0.0290 -0.4276
  622TMC3    C3 9264   2.547   1.313  10.383 -0.4782  0.6595  0.1587
  622TMC3    C4 9265   2.603   1.241  10.131  0.6731 -0.0397  0.0678
  622TMC3    C5 9266   2.484   1.205  10.188 -0.1218 -0.0119  0.7144
  622TMC3    C6 9267   2.458   1.238  10.318  0.2888 -0.4556 -0.2049
  622TMC3     C 9268   2.816   1.346  10.151  0.0512 -0.5949  0.3445
  622TMC3     O 9269   2.860   1.282  10.059  0.5507  0.0311 -0.1864
  622TMC3     H 9270   2.732   1.414  10.399  1.7956 -1.9125  0.2080
  622TMC3    H1 9271   2.627   1.210  10.030 -1.0088  2.0119 -0.9563
  622TMC3    H2 9272   2.361   1.217  10.363  0.0108  1.2138 -0.0151
  622TMC3    C7 9273   2.381   1.142  10.112  0.4763 -0.7543  0.2845
  622TMC3    C8 9274   2.504   1.364  10.511  0.0646  0.0966 -0.4068
  622TMC3    O1 9275   2.300   1.069  10.169  0.6568  0.0635  0.0353
  622TMC3    O2 9276   2.430   1.292  10.576 -0.0746  0.1971  0.2543
  623MPD2     C 9277   1.493   2.869  15.978 -0.3139 -0.0552 -0.3412
  623MPD2    C1 9278   1.408   2.798  16.055 -1.0691  0.4812 -0.6528
  623MPD2    C2 9279   1.455   2.727  16.164 -0.5695 -0.6070 -0.6616
  623MPD2    C3 9280   1.586   2.753  16.204 -0.2044  0.0685  0.0660
  623MPD2    C4 9281   1.668   2.833  16.130 -0.1761 -0.1709  0.6624
  623MPD2    C5 9282   1.620   2.890  16.013 -0.0934  0.2043  0.6109
  623MPD2     H 9283   1.400   2.670  16.239  1.3644 -0.6930  0.7013
  623MPD2    H1 9284   1.770   2.864  16.149 -0.5900  0.2263  2.3012
  623MPD2    H2 9285   1.458   2.913  15.885 -1.8607  0.0060  0.2668
  623MPD2    H3 9286   1.693   2.952  15.962  0.1262 -1.4460 -1.0785
  623MPD2     N 9287   1.615   2.719  16.333  0.6802 -0.4811 -0.3257
  623MPD2    H5 9288   1.550   2.652  16.372 -0.0558 -0.9859 -2.4126
  623MPD2    N1 9289   1.270   2.786  16.022 -0.0879  0.0699 -0.0067
  623MPD2    H7 9290   1.225   2.860  15.969 -1.9137 -1.5102 -0.7033
  624TMC3    C1 9291   1.791   2.751  16.753  0.4921  0.0179 -0.3472
  624TMC3    C2 9292   1.665   2.727  16.810  0.0119 -0.1172 -0.1108
  624TMC3    C3 9293   1.555   2.725  16.731 -0.6585  0.9550 -0.5312
  624TMC3    C4 9294   1.808   2.748  16.617 -0.0496 -0.0105 -0.5299
  624TMC3    C5 9295   1.697   2.738  16.543  0.0224 -0.0053 -0.3359
  624TMC3    C6 9296   1.571   2.736  16.593  0.0645 -0.4141 -0.4060
  624TMC3     C 9297   1.914   2.752  16.830 -0.6477 -0.8317 -0.0631
  624TMC3     O 9298   1.918   2.792  16.944  0.4985 -0.2798 -0.2243
  624TMC3     H 9299   1.667   2.703  16.916  0.3022 -0.1428 -0.1234
  624TMC3    H1 9300   1.907   2.760  16.575  0.1011  0.8542  0.0801
  624TMC3    H2 9301   1.487   2.744  16.526  0.2674 -0.8910 -0.7199
  624TMC3    C7 9302   1.714   2.779  16.405 -0.5082 -0.5317  0.0766
  624TMC3    C8 9303   1.419   2.709  16.776 -0.3849  0.2553 -0.0539
  624TMC3    O1 9304   1.803   2.860  16.389  0.1863  0.0649 -0.6587
  624TMC3    O2 9305   1.328   2.714  16.693 -0.0335  0.2857  0.6671
  625MPD2     C 9306   1.911   3.833   0.850 -0.1628  0.6262 -0.4985
  625MPD2    C1 9307   2.046   3.843   0.843 -0.8433  0.2868  0.5066
  625MPD2    C2 9308   2.108   3.888   0.961  0.2698 -0.2655  0.3143
  625MPD2    C3 9309   2.037   3.899   1.086 -0.1321 -0.1501  0.0936
  625MPD2    C4 9310   1.902   3.873   1.085 -1.0417  0.0443  0.6055
  625MPD2    C5 9311   1.843   3.844   0.969  0.1777 -0.3309  0.2128
  625MPD2     H 9312   2.215   3.901   0.963  0.2791  0.4208 -3.4120
  625MPD2    H1 9313   1.833   3.876   1.169 -0.8322  4.4456  0.6285
  625MPD2    H2 9314   1.845   3.804   0.770 -0.8165 -1.2980  0.7360
  625MPD2    H3 9315   1.737   3.821   0.972 -0.0736  0.5512 -1.2421
  625MPD2     N 9316   2.109   3.940   1.204 -0.1475  0.2332  0.0764
  625MPD2    H5 9317   2.208   3.959   1.198  0.0534 -0.5514  0.9947
  625MPD2    N1 9318   2.124   3.838   0.724 -0.2067  0.4337 -0.2866
  625MPD2    H7 9319   2.225   3.848   0.731 -0.3995  2.1271 -0.0424
  626TMC3    C1 9320   2.161   3.903   0.507  0.8218 -0.0842 -0.4927
  626TMC3    C2 9321   2.098   3.958   0.398 -0.5960 -0.2380  0.6876
  626TMC3    C3 9322   2.146   4.074   0.337 -0.6507 -0.6385 -0.0208
  626TMC3    C4 9323   2.284   3.960   0.546  1.3099  0.5778 -0.1499
  626TMC3    C5 9324   2.321   4.083   0.488  0.3016 -0.3561  0.3903
  626TMC3    C6 9325   2.255   4.137   0.381  0.1998 -0.0780 -0.2337
  626TMC3     C 9326   2.067   3.846   0.606  0.2053 -0.1539  0.0797
  626TMC3     O 9327   1.957   3.808   0.562 -0.1823  0.9130  0.4141
  626TMC3     H 9328   2.012   3.910   0.353 -0.0615 -1.1294  0.6081
  626TMC3    H1 9329   2.325   3.928   0.641 -0.8940  0.4145  0.7515
  626TMC3    H2 9330   2.295   4.230   0.343  0.0783 -0.3128 -0.9510
  626TMC3    C7 9331   2.381   4.171   0.585 -0.4732 -0.5809  0.8031
  626TMC3    C8 9332   2.079   4.134   0.223  0.2608  0.5455 -0.7000
  626TMC3    O1 9333   2.466   4.125   0.657 -0.1490 -0.0025 -0.1608
  626TMC3    O2 9334   2.149   4.220   0.171  0.1532 -0.2175  0.6798
  627MPD2     C 9335   1.060   4.421  14.698 -0.0517  0.0882 -0.0655
  627MPD2    C1 9336   0.955   4.426  14.791 -0.0323 -0.2353  1.0018
  627MPD2    C2 9337   0.837   4.359  14.762  0.0248  0.3959  0.3609
  627MPD2    C3 9338   0.816   4.319  14.637 -0.3275  0.0299 -0.0195
  627MPD2    C4 9339   0.911   4.331  14.539 -0.4563 -0.4719 -0.2735
  627MPD2    C5 9340   1.039   4.378  14.569 -0.2054  0.1403  0.2344
  627MPD2     H 9341   0.760   4.353  14.838  0.6173 -1.1097  0.8425
  627MPD2    H1 9342   0.884   4.307  14.437 -0.9018  0.6719 -0.4209
  627MPD2    H2 9343   1.157   4.468  14.710 -0.8965  2.5947 -2.9538
  627MPD2    H3 9344   1.114   4.378  14.490  3.1272 -2.9701  3.4126
  627MPD2     N 9345   0.686   4.273  14.601  0.1459 -0.2536 -0.4513
  627MPD2    H5 9346   0.620   4.292  14.676  0.4482  0.8332 -0.4641
  627MPD2    N1 9347   0.985   4.488  14.917 -0.3801 -0.1972  0.3299
  627MPD2    H7 9348   1.078   4.522  14.937  0.1812 -0.7908 -1.2316
  628TMC3    C1 9349   0.948   4.555  15.131  0.7761  0.4155 -0.8569
  628TMC3    C2 9350   1.064   4.506  15.166  0.0233 -0.0735  0.7724
  628TMC3    C3 9351   1.138   4.566  15.265 -0.7873 -0.4593  0.1430
  628TMC3    C4 9352   0.895   4.668  15.194 -0.4898 -0.5503 -0.7470
  628TMC3    C5 9353   0.963   4.717  15.298 -0.6098  0.3014 -0.3349
  628TMC3    C6 9354   1.086   4.674  15.333  0.0234  0.0021 -0.2581
  628TMC3     C 9355   0.888   4.511  15.012  0.3111  0.3423 -1.0370
  628TMC3     O 9356   0.765   4.510  15.011  0.0086 -0.1932 -0.0644
  628TMC3     H 9357   1.093   4.405  15.137  2.8892  1.2026 -0.6978
  628TMC3    H1 9358   0.796   4.707  15.175 -0.3983  0.7933  1.5209
  628TMC3    H2 9359   1.156   0.011  15.371 -1.2913 -0.2815  2.6703
  628TMC3    C7 9360   0.940   0.121  15.339  0.4101  0.1682 -0.4551
  628TMC3    C8 9361   1.278   4.553  15.244 -0.3043  0.2498 -0.1312
  628TMC3    O1 9362   1.016   0.162  15.421 -0.3081 -0.2002 -0.6044
  628TMC3    O2 9363   1.308   4.488  15.147  0.4264 -0.1910 -0.1376
  629MPD2     C 9364   3.983   3.105  17.111 -0.1703 -0.3371 -0.2959
  629MPD2    C1 9365   3.990   3.162  16.987  0.1384 -0.5332 -0.2054
  629MPD2    C2 9366   3.878   3.143  16.902 -0.6706  1.0264 -0.4235
  629MPD2    C3 9367   3.783   3.052  16.941  0.1745  0.3341  0.8385
  629MPD2    C4 9368   3.785   2.991  17.060  0.0888  0.5689  0.2941
  629MPD2    C5 9369   3.884   3.017  17.145 -0.1676 -0.4412  0.1918
  629MPD2     H 9370   3.875   3.201  16.811 -0.8936  2.4389  0.4763
  629MPD2    H1 9371   3.710   2.924  17.102 -0.0011 -0.8856 -2.1799
  629MPD2    H2 9372   4.067   3.125  17.177 -0.1175  1.1998 -0.8223
  629MPD2    H3 9373   3.886   2.972  17.244 -2.4370  1.0915  0.9373
  629MPD2     N 9374   3.681   3.022  16.846 -0.4957 -0.1728 -0.3360
  629MPD2    H5 9375   3.688   3.070  16.757  1.7004  1.2624  0.6057
  629MPD2    N1 9376   4.096   3.255  16.960  0.8185 -0.7545  0.3670
  629MPD2    H7 9377   4.161   3.276  17.035 -0.5806  0.8991  1.1061
  630TMC3    C1 9378   4.233   3.416  16.870 -0.5558  0.2191 -1.0736
  630TMC3    C2 9379   4.230   3.540  16.807  0.2416 -0.0464 -0.5038
  630TMC3    C3 9380   4.322   3.626  16.856  0.4923 -0.7278 -0.5409
  630TMC3    C4 9381   4.315   3.380  16.975 -0.0129 -0.3217 -0.0035
  630TMC3    C5 9382   4.413   3.467  17.005 -0.4409  0.9514  0.2466
  630TMC3    C6 9383   4.419   3.594  16.947 -0.2208 -0.3990  0.2327
  630TMC3     C 9384   4.124   3.319  16.841  0.8487 -0.4749  0.8579
  630TMC3     O 9385   4.048   3.343  16.747  0.2449  0.0264  0.1738
  630TMC3     H 9386   4.162   3.557  16.725  0.7441 -2.7329 -1.4918
  630TMC3    H1 9387   4.329   3.279  17.009 -0.9323  0.0088  1.3404
  630TMC3    H2 9388   4.483   3.671  16.988  0.5107 -1.1119  0.4324
  630TMC3    C7 9389   4.520   3.419  17.093 -0.2438 -0.2736  0.7189
  630TMC3    C8 9390   4.352   3.754  16.786  0.2457  0.1984  0.0452
  630TMC3    O1 9391   4.493   3.318  17.158  0.0720  0.5847 -0.3018
  630TMC3    O2 9392   4.457   3.812  16.811 -0.0952  0.3891  0.2596
  631MPD2     C 9393   2.227   3.161  15.569 -0.9928  0.6304  0.4073
  631MPD2    C1 9394   2.295   3.275  15.539 -0.4167  0.2759  0.2178
  631MPD2    C2 9395   2.427   3.287  15.561  0.8042 -0.1343  0.5211
  631MPD2    C3 9396   2.508   3.182  15.610 -0.1155 -0.6505 -0.2933
  631MPD2    C4 9397   2.439   3.065  15.634 -0.1209  0.7226 -0.1347
  631MPD2    C5 9398   2.304   3.058  15.610 -0.4364  0.0505  0.3357
  631MPD2     H 9399   2.464   3.388  15.554  1.3013 -0.4034 -0.6915
  631MPD2    H1 9400   2.488   2.977  15.675 -0.7142  0.6486  0.4121
  631MPD2    H2 9401   2.125   3.143  15.538 -0.1066 -2.0170 -1.0138
  631MPD2    H3 9402   2.253   2.965  15.629 -2.4340  0.7983 -1.3725
  631MPD2     N 9403   2.648   3.203  15.635 -0.2428  0.2465 -0.9778
  631MPD2    H5 9404   2.676   3.297  15.609  0.5547  0.3255  0.1699
  631MPD2    N1 9405   2.213   3.374  15.478 -0.0844 -0.5216 -0.2116
  631MPD2    H7 9406   2.111   3.369  15.481 -0.1545  0.9666 -0.3631
  632TMC3    C1 9407   2.159   3.561  15.356 -0.0135 -0.4325 -0.1566
  632TMC3    C2 9408   2.060   3.616  15.435  0.5322 -0.4475  0.2100
  632TMC3    C3 9409   1.999   3.725  15.382 -0.3519  0.2606  0.0320
  632TMC3    C4 9410   2.196   3.605  15.234 -0.1401 -0.3571 -0.3544
  632TMC3    C5 9411   2.134   3.722  15.190 -0.7469  0.3124  0.3111
  632TMC3    C6 9412   2.031   3.785  15.260 -0.1090 -0.1186 -1.0001
  632TMC3     C 9413   2.261   3.488  15.424 -0.7964 -0.6101  0.3836
  632TMC3     O 9414   2.373   3.509  15.384 -0.2421  0.7609 -0.6214
  632TMC3     H 9415   2.044   3.579  15.536  3.5563 -2.4024 -0.0444
  632TMC3    H1 9416   2.281   3.562  15.182 -0.2045 -2.5472  1.3377
  632TMC3    H2 9417   1.993   3.880  15.227 -0.6457 -0.8228 -2.3875
  632TMC3    C7 9418   2.162   3.768  15.054  0.2671 -0.1009  0.2170
  632TMC3    C8 9419   1.872   3.764  15.444  0.0187  0.1679 -0.0862
  632TMC3    O1 9420   2.072   3.812  14.986 -0.3961 -0.1855 -0.0050
  632TMC3    O2 9421   1.849   3.725  15.557 -0.1492  0.0345  0.0212
  633MPD2     C 9422   1.753   1.524  17.538 -0.0070 -0.7613 -0.4120
  633MPD2    C1 9423   1.807   1.457  17.432 -0.1042 -0.5345 -0.0928
  633MPD2    C2 9424   1.763   1.323  17.406  1.0479  0.9950  0.2626
  633MPD2    C3 9425   1.689   1.253  17.500 -0.6262  0.6045 -0.0980
  633MPD2    C4 9426   1.660   1.318  17.619  0.2753 -0.0493  0.6304
  633MPD2    C5 9427   1.686   1.456  17.634 -0.2975 -0.3544  0.5722
  633MPD2     H 9428   1.790   1.265  17.318 -0.6549  0.8499 -0.1837
  633MPD2    H1 9429   1.590   1.286  17.696 -0.0978  0.8099  0.6494
  633MPD2    H2 9430   1.786   1.623  17.567 -0.1488 -0.6661 -0.5736
  633MPD2    H3 9431   1.647   1.508  17.720 -3.7307 -0.6337 -0.8422
  633MPD2     N 9432   1.642   1.119  17.496  0.1976 -0.2993 -0.4295
  633MPD2    H5 9433   1.593   1.090  17.580  0.4216  0.6950  0.0476
  633MPD2    N1 9434   1.896   1.519  17.336 -0.2878 -0.2389  0.1830
  633MPD2    H7 9435   1.912   1.619  17.340  1.8021 -0.4890 -1.6945
  634TMC3    C1 9436   2.015   1.501  17.120 -0.1481 -0.4452 -0.7345
  634TMC3    C2 9437   2.101   1.428  17.044  0.3664  0.2404 -0.6850
  634TMC3    C3 9438   2.131   1.467  16.918  0.5388  0.1944  0.2224
  634TMC3    C4 9439   1.962   1.619  17.069  0.0958  0.3568  0.2322
  634TMC3    C5 9440   1.996   1.656  16.939 -1.0524 -0.4903  0.9683
  634TMC3    C6 9441   2.075   1.577  16.858 -0.1378  0.5423 -0.5119
  634TMC3     C 9442   1.962   1.441  17.242  0.5059 -0.1608 -0.7043
  634TMC3     O 9443   2.001   1.327  17.255 -0.7488  0.4178 -0.2266
  634TMC3     H 9444   2.155   1.341  17.080  2.3545  1.1771 -1.3970
  634TMC3    H1 9445   1.909   1.689  17.131 -2.2948 -2.1536  1.0376
  634TMC3    H2 9446   2.116   1.613  16.765 -0.6359  0.9320 -0.5876
  634TMC3    C7 9447   1.940   1.779  16.882  0.8078  1.2289  0.6119
  634TMC3    C8 9448   2.180   1.358  16.827  0.4691  0.2472  0.8039
  634TMC3    O1 9449   1.958   1.800  16.764 -0.2989  0.7998 -0.1843
  634TMC3    O2 9450   2.191   1.245  16.873 -0.1010 -0.2256  0.0957
  635TMC3    C1 9451   1.850   2.310   0.829  0.4497 -0.7184 -0.2614
  635TMC3    C2 9452   1.721   2.266   0.845 -0.0761  0.6695 -0.1265
  635TMC3    C3 9453   1.697   2.134   0.817  0.5174 -0.0494 -0.3052
  635TMC3    C4 9454   1.948   2.221   0.787  0.1983  0.3533 -0.2614
  635TMC3    C5 9455   1.922   2.092   0.750 -0.2163 -0.3999 -0.0118
  635TMC3    C6 9456   1.797   2.050   0.777 -0.0837  0.4224  0.3083
  635TMC3     C 9457   1.877   2.454   0.841  0.5294  0.2563  0.4149
  635TMC3     O 9458   1.985   2.491   0.876 -0.5238 -0.2442  0.3684
  635TMC3     H 9459   1.643   2.333   0.881  1.3266  2.3299 -0.1613
  635TMC3    H1 9460   2.049   2.260   0.776  0.4537 -0.8701 -2.4111
  635TMC3    H2 9461   1.780   1.945   0.757  1.8907  0.1394  0.1711
  635TMC3    C7 9462   2.026   1.989   0.760  0.1280  0.3963 -0.7754
  635TMC3    C8 9463   1.563   2.088   0.819 -0.3787  0.1530  0.0015
  635TMC3    O1 9464   1.995   1.869   0.767 -0.1392  0.0290 -0.3319
  635TMC3    O2 9465   1.484   2.170   0.776 -0.1183  0.6031 -0.4377
  636MPD2     C 9466   2.928   1.460  16.825  0.2862 -0.1654  0.7111
  636MPD2    C1 9467   2.957   1.456  16.693  0.4493 -0.1221  0.0001
  636MPD2    C2 9468   3.066   1.380  16.654 -0.1705 -0.3709 -0.6263
  636MPD2    C3 9469   3.143   1.308  16.740 -0.3116  0.2885 -0.4300
  636MPD2    C4 9470   3.117   1.315  16.877 -0.5728 -0.5574 -0.2363
  636MPD2    C5 9471   3.009   1.389  16.917 -0.7257 -0.1583  0.2099
  636MPD2     H 9472   3.100   1.362  16.552  1.2374 -0.6689 -0.1007
  636MPD2    H1 9473   3.163   1.254  16.954  0.1415  0.4061  0.0927
  636MPD2    H2 9474   2.845   1.519  16.863 -0.1190 -0.1935 -0.1304
  636MPD2    H3 9475   2.994   1.397  17.024 -1.6014 -0.0188  0.0761
  636MPD2     N 9476   3.245   1.228  16.690 -0.1327 -0.1346 -0.1038
  636MPD2    H5 9477   3.252   1.201  16.593  3.1726 -0.1579  0.1402
  636MPD2    N1 9478   2.884   1.534  16.598  0.1394  0.1561 -0.0351
  636MPD2    H7 9479   2.915   1.530  16.502  1.1317  0.4165  0.2645
  637TMC3    C1 9480   3.434   1.104  16.679 -0.3927 -0.0433  0.6102
  637TMC3    C2 9481   3.566   1.116  16.714  0.4706  0.4341 -0.7047
  637TMC3    C3 9482   3.659   1.038  16.647  0.2267 -0.2872  0.1209
  637TMC3    C4 9483   3.379   1.040  16.570  0.1765 -0.2149  0.0817
  637TMC3    C5 9484   3.479   0.965  16.507 -0.1660  0.1614  0.6686
  637TMC3    C6 9485   3.614   0.958  16.546  0.3979 -0.1415  0.6741
  637TMC3     C 9486   3.342   1.175  16.765  1.1408 -0.1790 -0.3270
  637TMC3     O 9487   3.382   1.204  16.878 -0.1246  0.1899  0.0273
  637TMC3     H 9488   3.608   1.174  16.795 -0.7991 -0.9839  0.9442
  637TMC3    H1 9489   3.275   1.044  16.538 -0.0756 -0.6199  0.8516
  637TMC3    H2 9490   3.678   0.886  16.497  0.5486  0.1061  0.5085
  637TMC3    C7 9491   3.468   0.970  16.359  0.6190 -0.4716  0.2453
  637TMC3    C8 9492   3.779   1.105  16.601 -0.4380 -0.3118 -0.5912
  637TMC3    O1 9493   3.356   0.960  16.303 -0.3757  0.0579  0.0621
  637TMC3    O2 9494   3.835   1.051  16.511 -0.2220  0.2989  0.1136
  638MPD2     C 9495   3.081   0.405  15.093 -0.6112 -0.0488  0.3251
  638MPD2    C1 9496   2.992   0.316  15.025  0.7453  0.1375 -0.0589
  638MPD2    C2 9497   2.920   0.226  15.097 -0.0001  0.1482  0.5259
  638MPD2    C3 9498   2.922   0.222  15.238  0.3519  0.0891  0.2383
  638MPD2    C4 9499   3.005   0.312  15.305 -0.2369  0.3031 -0.6725
  638MPD2    C5 9500   3.082   0.392  15.231 -0.0128  0.0975  0.1626
  638MPD2     H 9501   2.859   0.147  15.057  0.5389 -0.8424  1.6371
  638MPD2    H1 9502   3.022   0.316  15.412  0.5075 -1.1924 -0.7335
  638MPD2    H2 9503   3.145   0.484  15.055  0.1820 -0.7774  0.1643
  638MPD2    H3 9504   3.146   0.463  15.280  1.5756 -1.3418  0.1581
  638MPD2     N 9505   2.846   0.115  15.294  0.1055  0.0214  0.2944
  638MPD2    H5 9506   2.805   0.046  15.231  0.6231 -1.4409  1.5729
  638MPD2    N1 9507   2.998   0.302  14.888 -0.0444  0.0525  0.0098
  638MPD2    H7 9508   3.068   0.352  14.834 -0.3868 -0.8500 -1.2829
  639TMC3    C1 9509   2.783   4.702  15.462  0.3700 -0.5214  0.2344
  639TMC3    C2 9510   2.717   4.651  15.355 -0.0233  0.2688  0.1920
  639TMC3    C3 9511   2.728   4.516  15.327 -0.5665 -0.0817 -0.1462
  639TMC3    C4 9512   2.866   4.630  15.542 -0.1110 -0.4523  0.9460
  639TMC3    C5 9513   2.870   4.497  15.510  0.0847 -0.1001 -0.2985
  639TMC3    C6 9514   2.811   4.438  15.398  0.5759 -0.3438  0.4952
  639TMC3     C 9515   2.842   0.092  15.429 -0.1632 -0.6288 -0.2318
  639TMC3     O 9516   2.892   0.156  15.523  0.1971 -0.1211 -0.7896
  639TMC3     H 9517   2.643   4.698  15.292 -2.5120 -1.8787  1.4979
  639TMC3    H1 9518   2.918   4.675  15.626 -0.9989 -1.1280  1.8562
  639TMC3    H2 9519   2.822   4.330  15.395  2.1256 -0.2452  2.7307
  639TMC3    C7 9520   2.982   4.422  15.561  0.1829  0.3241 -0.0036
  639TMC3    C8 9521   2.635   4.462  15.235 -0.3745  0.1887 -1.0128
  639TMC3    O1 9522   3.001   4.411  15.685  0.0350  0.5310 -0.6495
  639TMC3    O2 9523   2.681   4.376  15.159 -0.5649 -0.3928  0.5668
  640MPD2     C 9524   2.808   3.280  10.216  0.5368  0.3132  0.2603
  640MPD2    C1 9525   2.856   3.405  10.179 -0.2995 -0.6318  0.1687
  640MPD2    C2 9526   2.801   3.514  10.238  0.6363 -0.6209  0.9509
  640MPD2    C3 9527   2.699   3.503  10.331 -0.6050 -0.1810  1.0688
  640MPD2    C4 9528   2.650   3.379  10.361 -0.8589 -1.0939  0.4985
  640MPD2    C5 9529   2.709   3.270  10.304 -0.3562 -0.2776 -0.2536
  640MPD2     H 9530   2.848   3.609  10.215  2.2297 -1.3567  1.1577
  640MPD2    H1 9531   2.569   3.357  10.430 -1.1790 -2.3684 -0.2897
  640MPD2    H2 9532   2.854   3.189  10.179 -1.1946 -0.0143 -1.1076
  640MPD2    H3 9533   2.682   3.169  10.332 -2.0573 -0.0235 -0.9776
  640MPD2     N 9534   2.652   3.621  10.399 -0.5656  0.3342 -0.6206
  640MPD2    H5 9535   2.566   3.609  10.451  0.1873  1.1114  0.7943
  640MPD2    N1 9536   2.956   3.417  10.078 -0.1896  0.2554  0.3125
  640MPD2    H7 9537   2.992   3.327  10.048 -1.6660  0.0145 -0.7387
  641TMC3    C1 9538   3.118   3.511   9.935 -0.4833 -0.5765 -0.3611
  641TMC3    C2 9539   3.210   3.421   9.980  0.8800  0.1927  0.4169
  641TMC3    C3 9540   3.328   3.406   9.920 -0.6989  0.2728 -0.4762
  641TMC3    C4 9541   3.155   3.598   9.841 -0.3233 -0.4190 -1.0174
  641TMC3    C5 9542   3.280   3.585   9.787  0.3009  0.6641  0.0917
  641TMC3    C6 9543   3.371   3.491   9.831  0.2470  0.5327 -0.4004
  641TMC3     C 9544   3.006   3.527  10.020 -0.2489  0.1002 -0.7976
  641TMC3     O 9545   2.973   3.642  10.030  0.4466  0.5182  0.2675
  641TMC3     H 9546   3.171   3.344  10.046 -2.1621  0.8787 -0.5553
  641TMC3    H1 9547   3.088   3.667   9.791 -0.4562  0.3388  0.2120
  641TMC3    H2 9548   3.461   3.468   9.774  0.0183 -1.1948 -0.0527
  641TMC3    C7 9549   3.337   3.694   9.696 -0.4713 -0.6789 -0.8168
  641TMC3    C8 9550   3.407   3.283   9.933 -0.2339  0.1140  0.7315
  641TMC3    O1 9551   3.442   3.670   9.633  0.2218 -0.2070 -0.2642
  641TMC3    O2 9552   3.477   3.245   9.841  0.1425  0.3479 -0.1512
  642TMC3    C1 9553   4.143   4.126  12.914  0.2057  0.0143  0.2698
  642TMC3    C2 9554   4.256   4.047  12.940 -0.5654  0.3005 -0.1998
  642TMC3    C3 9555   4.245   3.916  12.901  0.6251  0.6300 -0.5896
  642TMC3    C4 9556   4.018   4.070  12.881  0.9465 -0.0537  0.0626
  642TMC3    C5 9557   4.019   3.928  12.877  0.0990 -0.2619  0.6738
  642TMC3    C6 9558   4.125   3.847  12.879  0.2615  0.0416 -0.1478
  642TMC3     C 9559   4.144   4.266  12.949  0.6346  0.2957 -0.1931
  642TMC3     O 9560   4.251   4.299  13.001 -0.1921 -0.1545 -0.1974
  642TMC3     H 9561   4.332   4.094  13.002 -0.8039 -0.5134  0.7229
  642TMC3    H1 9562   3.925   4.120  12.856  1.4079  0.6712 -0.2056
  642TMC3    H2 9563   4.131   3.742  12.853  1.9831  0.4283 -1.3620
  642TMC3    C7 9564   3.881   3.865  12.887  0.2504 -0.0221  0.5129
  642TMC3    C8 9565   4.370   3.842  12.893 -0.0214  0.4013  0.2507
  642TMC3    O1 9566   3.790   3.939  12.855  0.1349  0.3853  0.6064
  642TMC3    O2 9567   4.369   3.720  12.899 -0.0372  0.1275 -0.8699
  643TMC3    C1 9568   3.757   3.773   0.300 -0.2543  0.6028 -0.6697
  643TMC3    C2 9569   3.639   3.758   0.233 -0.4329 -0.0437 -0.0755
  643TMC3    C3 9570   3.644   3.700   0.108 -0.3135  0.3493 -0.0085
  643TMC3    C4 9571   3.880   3.747   0.244 -0.0490  0.8964 -0.7736
  643TMC3    C5 9572   3.879   3.697   0.118  0.2844  0.6245  0.0267
  643TMC3    C6 9573   3.760   3.656   0.060 -0.1846  0.3689  0.2545
  643TMC3     C 9574   3.755   3.850   0.418  0.2706  0.2621  0.8603
  643TMC3     O 9575   3.670   3.938   0.418  0.1939  0.2255  0.4179
  643TMC3     H 9576   3.547   3.780   0.285 -0.1152  0.1362  0.4100
  643TMC3    H1 9577   3.973   3.787   0.282  0.2905  0.6851 -1.4007
  643TMC3    H2 9578   3.758   3.612  17.700 -0.7728  0.7895  0.0746
  643TMC3    C7 9579   3.958   3.786   0.027 -0.8432 -0.3802 -0.0646
  643TMC3    C8 9580   3.595   3.797   0.009 -0.3080  0.4642 -0.9898
  643TMC3    O1 9581   3.993   3.890   0.081 -0.5080  0.1001  0.0085
  643TMC3    O2 9582   3.552   3.755  17.639  0.4028  0.1914 -0.0396
  644MPD2     C 9583   3.093   4.195   9.944 -0.6690 -0.1874  0.3823
  644MPD2    C1 9584   3.188   4.268   9.882 -0.0547 -0.3580 -0.5025
  644MPD2    C2 9585   3.154   4.382   9.813  0.0076 -0.1577 -0.3651
  644MPD2    C3 9586   3.019   4.414   9.790  0.5897 -0.1855  0.0276
  644MPD2    C4 9587   2.923   4.341   9.849  0.2712  0.4735 -0.4095
  644MPD2    C5 9588   2.961   4.238   9.929 -0.6384 -0.5632 -0.1438
  644MPD2     H 9589   3.233   4.443   9.770  1.1213 -1.1303  0.3428
  644MPD2    H1 9590   2.818   4.363   9.835 -0.0878 -0.9720 -0.0248
  644MPD2    H2 9591   3.119   4.111  10.008 -1.5829  0.1422  1.1680
  644MPD2    H3 9592   2.888   4.193   9.995 -0.3931 -0.3338  0.2946
  644MPD2     N 9593   3.000   4.543   9.723  0.0986 -0.0411 -0.4045
  644MPD2    H5 9594   3.083   4.589   9.687 -0.8099  0.7675 -1.4528
  644MPD2    N1 9595   3.320   4.212   9.899 -0.1972  0.2878 -0.0071
  644MPD2    H7 9596   3.312   4.119   9.939 -2.7652  0.0203 -1.1258
  645TMC3    C1 9597   2.906   0.006   9.643  0.9423 -0.3271 -0.4149
  645TMC3    C2 9598   2.803   0.091   9.652 -0.2677  0.2723  0.4458
  645TMC3    C3 9599   2.798   0.197   9.559  0.3006 -0.7169  0.0791
  645TMC3    C4 9600   3.018   0.035   9.569  0.0231  0.6121  0.0197
  645TMC3    C5 9601   3.006   0.147   9.484  0.1457 -0.2984 -0.5949
  645TMC3    C6 9602   2.906   0.233   9.485  0.5003  0.1603  0.3601
  645TMC3     C 9603   2.881   4.610   9.709  0.0013 -0.1536  0.4225
  645TMC3     O 9604   2.767   4.573   9.724 -0.1655 -0.1753  0.2726
  645TMC3     H 9605   2.718   0.071   9.717 -1.4750  1.5733 -0.7219
  645TMC3    H1 9606   3.097   4.698   9.551 -0.4545 -0.1899  1.1001
  645TMC3    H2 9607   2.905   0.305   9.405  0.5356  0.7887  0.9262
  645TMC3    C7 9608   3.120   0.193   9.410 -0.4205  1.0071  0.3333
  645TMC3    C8 9609   2.675   0.270   9.555 -0.2409  0.8058  0.6176
  645TMC3    O1 9610   3.112   0.285   9.327  0.6767 -0.1617  0.4226
  645TMC3    O2 9611   2.597   0.261   9.649  0.1647 -0.5364  0.0073
  646MPD2     C 9612   2.938   3.924  14.542 -0.0184 -0.4165 -0.1158
  646MPD2    C1 9613   2.898   3.872  14.669  0.0302 -0.1459  0.3047
  646MPD2    C2 9614   2.768   3.891  14.709 -0.7754  0.0748  0.4880
  646MPD2    C3 9615   2.671   3.940  14.624 -0.3760 -0.3023  0.1793
  646MPD2    C4 9616   2.714   3.981  14.504 -0.0993 -0.6428  0.4093
  646MPD2    C5 9617   2.842   3.972  14.462  0.2802  0.8866  0.5764
  646MPD2     H 9618   2.746   3.853  14.808  1.3882  0.9684  1.3177
  646MPD2    H1 9619   2.647   3.995  14.420  0.3060 -0.7483  0.0689
  646MPD2    H2 9620   3.040   3.916  14.506  0.3492  2.9402  0.2058
  646MPD2    H3 9621   2.869   4.015  14.366 -1.3239 -0.9559 -0.6850
  646MPD2     N 9622   2.533   3.928  14.651  0.0064  0.2267  0.3706
  646MPD2    H5 9623   2.497   3.897  14.741 -0.1570 -0.9483 -0.1045
  646MPD2    N1 9624   2.988   3.786  14.744 -0.2167  0.9006  0.1388
  646MPD2    H7 9625   3.075   3.758  14.699  0.1341 -0.6045  1.7488
  647TMC3    C1 9626   3.050   3.623  14.906  0.4736  0.6764  0.5277
  647TMC3    C2 9627   3.003   3.534  14.995  0.4356 -0.0028 -0.4719
  647TMC3    C3 9628   3.098   3.457  15.054 -0.5349 -0.0250  0.6927
  647TMC3    C4 9629   3.178   3.626  14.856  0.7450  0.2290  0.0918
  647TMC3    C5 9630   3.266   3.545  14.919  0.9980  0.7063  0.1949
  647TMC3    C6 9631   3.230   3.465  15.022  0.0306 -0.3709  0.1225
  647TMC3     C 9632   2.951   3.720  14.859 -0.9591  0.6890 -0.3548
  647TMC3     O 9633   2.857   3.734  14.934  0.0315 -0.2823  0.8279
  647TMC3     H 9634   2.898   3.511  15.012  0.0236  0.3918 -2.4275
  647TMC3    H1 9635   3.216   3.700  14.786  0.4416  1.4671  1.2264
  647TMC3    H2 9636   3.300   3.396  15.067  1.4004  0.7249 -0.3056
  647TMC3    C7 9637   3.408   3.583  14.929  0.0159 -0.4104  0.4268
  647TMC3    C8 9638   3.054   3.363  15.161 -0.7246 -0.0158  0.3296
  647TMC3    O1 9639   3.475   3.558  15.033  0.0771 -0.2668 -0.0441
  647TMC3    O2 9640   3.148   3.325  15.227  0.3122  0.1215 -0.1524
  648TMC3    C1 9641   2.474   1.543  16.247 -0.2256  0.3578  0.1958
  648TMC3    C2 9642   2.549   1.432  16.209  0.1083  0.0905 -0.2133
  648TMC3    C3 9643   2.527   1.388  16.082  0.1822  0.8329  0.1573
  648TMC3    C4 9644   2.391   1.605  16.159  0.1302  0.0950  0.0174
  648TMC3    C5 9645   2.381   1.565  16.030  0.2768  0.1018 -0.7189
  648TMC3    C6 9646   2.446   1.452  15.990 -0.4409 -0.6540 -0.2581
  648TMC3     C 9647   2.463   1.580  16.394 -0.1860  0.2182 -0.5594
  648TMC3     O 9648   2.412   1.687  16.427  0.1387  0.2678  0.1644
  648TMC3     H 9649   2.634   1.392  16.263  0.0107 -0.2350 -0.2962
  648TMC3    H1 9650   2.337   1.692  16.194  0.6024  0.7218 -0.7938
  648TMC3    H2 9651   2.435   1.418  15.888 -0.9775  1.0116 -0.7436
  648TMC3    C7 9652   2.275   1.604  15.940  0.5981 -0.2496 -0.5429
  648TMC3    C8 9653   2.608   1.277  16.028 -0.5662 -1.3100 -1.1678
  648TMC3    O1 9654   2.250   1.532  15.848 -0.1056 -0.1623  0.5785
  648TMC3    O2 9655   2.655   1.280  15.915 -0.4144 -0.5293  0.4231
  649TMC3    C1 9656   0.674   2.270  12.846 -0.2731 -1.1522  0.0091
  649TMC3    C2 9657   0.798   2.271  12.794 -0.4874 -0.1435 -0.3889
  649TMC3    C3 9658   0.907   2.285  12.880 -0.3919  1.2038 -0.0836
  649TMC3    C4 9659   0.660   2.246  12.984 -0.2574  0.2747 -0.0464
  649TMC3    C5 9660   0.771   2.247  13.066  0.5346 -0.1834 -0.3625
  649TMC3    C6 9661   0.891   2.279  13.015 -0.2275  1.2224  0.3575
  649TMC3     C 9662   0.547   2.276  12.772 -0.4248 -0.1941  0.2001
  649TMC3     O 9663   0.439   2.260  12.835 -0.7886  0.2555  0.3865
  649TMC3     H 9664   0.810   2.248  12.689  0.0451  1.6360 -0.7227
  649TMC3    H1 9665   0.564   2.229  13.032 -0.6688 -1.2826 -1.4115
  649TMC3    H2 9666   0.974   2.304  13.080  2.2939  0.0958 -2.4405
  649TMC3    C7 9667   0.750   2.208  13.205  0.5651  0.3023 -0.0444
  649TMC3    C8 9668   1.034   2.267  12.816 -0.3816  0.3094 -0.4849
  649TMC3    O1 9669   0.634   2.202  13.243  0.2219 -0.4699 -0.6965
  649TMC3    O2 9670   1.119   2.195  12.865  0.1133  0.4194  0.0897
  650TMC3    C1 9671   3.248   3.716  13.181  0.0258 -0.6514 -0.1776
  650TMC3    C2 9672   3.192   3.821  13.243  0.0896  0.3295 -0.4127
  650TMC3    C3 9673   3.073   3.874  13.195  0.4898 -0.7600 -0.3099
  650TMC3    C4 9674   3.197   3.664  13.063 -0.3819  0.4168 -0.6272
  650TMC3    C5 9675   3.084   3.718  13.016  0.0083 -0.1530  0.0166
  650TMC3    C6 9676   3.017   3.819  13.089 -0.5300  0.4691  0.2797
  650TMC3     C 9677   3.354   3.648  13.247 -0.2562 -0.1801 -0.3054
  650TMC3     O 9678   3.426   3.713  13.323  0.0012 -0.1356  0.1733
  650TMC3     H 9679   3.238   3.854  13.335  2.3086  0.8128 -1.7175
  650TMC3    H1 9680   3.238   3.584  13.003  2.8494  1.9556 -0.4697
  650TMC3    H2 9681   2.939   3.869  13.032 -0.7483 -0.8769 -0.6034
  650TMC3    C7 9682   3.089   3.753  12.872  0.3159 -0.1983 -0.0983
  650TMC3    C8 9683   3.064   4.015  13.202 -0.0383  0.7546 -0.1100
  650TMC3    O1 9684   3.031   3.681  12.794 -0.4138 -0.1997 -0.0869
  650TMC3    O2 9685   3.164   4.079  13.232  0.1835  0.2224  0.2121
  651MPD2     C 9686   2.557   0.846  10.386  1.4975 -0.7065 -0.7591
  651MPD2    C1 9687   2.547   0.934  10.492 -0.1786  0.0776  0.0050
  651MPD2    C2 9688   2.662   1.006  10.519 -0.1419 -0.0760 -0.0179
  651MPD2    C3 9689   2.782   1.000  10.448 -0.3290 -0.0373  0.3826
  651MPD2    C4 9690   2.782   0.908  10.346 -0.5539 -0.2293  0.0998
  651MPD2    C5 9691   2.673   0.833  10.312 -1.6456 -0.2416  0.2331
  651MPD2     H 9692   2.663   1.077  10.602 -0.3652 -1.1228  0.8787
  651MPD2    H1 9693   2.863   0.888  10.277  0.5585  0.8337  1.1038
  651MPD2    H2 9694   2.477   0.775  10.374 -0.0801  0.9733 -0.1406
  651MPD2    H3 9695   2.688   0.766  10.228 -1.3221 -0.2853  0.3243
  651MPD2     N 9696   2.894   1.076  10.496 -0.7104  0.7873  0.2010
  651MPD2    H5 9697   2.876   1.148  10.565  1.1173  1.3571  0.0692
  651MPD2    N1 9698   2.431   0.970  10.559 -0.1106  0.4659 -0.5899
  651MPD2    H7 9699   2.439   1.052  10.618 -0.7487 -0.2426  0.4792
  652TMC3    C1 9700   3.321   1.259  10.510 -0.4451 -0.0534  0.1558
  652TMC3    C2 9701   3.241   1.165  10.475  0.0877 -0.4537 -0.4864
  652TMC3    C3 9702   3.109   1.193  10.471  0.4319  0.4981  0.7888
  652TMC3    C4 9703   3.265   1.379  10.546 -0.1775 -0.1152  0.3086
  652TMC3    C5 9704   3.132   1.404  10.537  0.7005 -0.0791 -0.0515
  652TMC3    C6 9705   3.046   1.309  10.507  0.0725  0.9100 -0.5239
  652TMC3     C 9706   3.452   1.241  10.560 -0.4585  0.4029 -0.3340
  652TMC3     O 9707   3.477   1.293  10.669 -0.9796  1.0704 -0.3896
  652TMC3     H 9708   3.273   1.066  10.444 -0.9624 -0.8268 -0.3932
  652TMC3    H1 9709   3.345   1.448  10.568 -0.7276  0.9189 -0.9305
  652TMC3    H2 9710   2.941   1.313  10.482  0.2213  2.9372 -0.8176
  652TMC3    C7 9711   3.069   1.533  10.583  0.8297  0.3889  0.1979
  652TMC3    C8 9712   3.023   1.071  10.444 -0.3788 -0.7421 -0.3498
  652TMC3    O1 9713   2.948   1.526  10.586 -0.1270 -0.5111  0.4906
  652TMC3    O2 9714   3.062   0.971  10.380  0.1931  0.1418  0.2950
  653MPD2     C 9715   1.241   1.498   0.180 -0.0650 -0.6646  0.4848
  653MPD2    C1 9716   1.298   1.558   0.074  0.3588 -0.1958  0.1194
  653MPD2    C2 9717   1.318   1.494  17.691  0.9255 -0.3494  0.2022
  653MPD2    C3 9718   1.271   1.364  17.678 -0.1808 -0.8088  0.2516
  653MPD2    C4 9719   1.218   1.302   0.051 -0.0411  0.4774 -0.0039
  653MPD2    C5 9720   1.195   1.364   0.171 -0.0350  0.1542 -0.1597
  653MPD2     H 9721   1.388   1.535  17.619  0.0765 -1.4244 -1.2360
  653MPD2    H1 9722   1.182   1.200   0.061  0.9847  0.0478 -0.7307
  653MPD2    H2 9723   1.222   1.553   0.272 -1.0242  0.0228 -0.1219
  653MPD2    H3 9724   1.148   1.321   0.259  1.2249 -1.7040 -0.3942
  653MPD2     N 9725   1.292   1.300  17.555 -0.3875 -0.3280 -0.3509
  653MPD2    H5 9726   1.326   1.348  17.472  1.4089 -1.2283 -0.1321
  653MPD2    N1 9727   1.344   1.695   0.084  0.2921  0.0013  0.3728
  653MPD2    H7 9728   1.304   1.736   0.168  0.4690  0.5404  0.1932
  654TMC3    C1 9729   1.290   1.127  17.388 -0.0854 -0.5411 -0.5434
  654TMC3    C2 9730   1.283   1.227  17.295  0.4066  0.1149 -0.2099
  654TMC3    C3 9731   1.266   1.190  17.164 -0.5274 -0.5076  0.0052
  654TMC3    C4 9732   1.293   0.991  17.351 -0.5380 -0.2601  0.3484
  654TMC3    C5 9733   1.275   0.961  17.221  1.0731  0.1575 -0.6288
  654TMC3    C6 9734   1.257   1.060  17.127  0.6866 -0.2071  0.0099
  654TMC3     C 9735   1.279   1.164  17.534  0.1326  0.4574  0.6742
  654TMC3     O 9736   1.286   1.068  17.609 -0.4501  0.1764  0.0226
  654TMC3     H 9737   1.273   1.330  17.328 -0.0819  0.7988 -2.5033
  654TMC3    H1 9738   1.290   0.916  17.429 -2.6551  0.8707  1.3576
  654TMC3    H2 9739   1.223   1.033  17.028 -1.3184  3.3076 -0.2982
  654TMC3    C7 9740   1.283   0.822  17.176  0.2572  0.2256  0.2697
  654TMC3    C8 9741   1.194   1.279  17.073  0.0987 -0.9292 -0.5958
  654TMC3    O1 9742   1.248   0.802  17.058  0.2158  0.7292 -0.1855
  654TMC3    O2 9743   1.135   1.374  17.120  0.3800 -0.5577  0.0521
  655MPD2     C 9744   3.019   2.031  15.726  0.2185 -0.1744  0.5963
  655MPD2    C1 9745   2.912   1.956  15.685 -0.0928  0.0588 -0.1311
  655MPD2    C2 9746   2.932   1.846  15.598 -0.2627 -1.1567  0.6816
  655MPD2    C3 9747   3.063   1.808  15.568 -0.0724  1.2748  0.3142
  655MPD2    C4 9748   3.175   1.886  15.610  0.1593 -0.0391  0.0079
  655MPD2    C5 9749   3.154   1.997  15.694 -0.3105 -0.3889 -0.3979
  655MPD2     H 9750   2.854   1.780  15.561  1.5015 -2.7594 -0.2104
  655MPD2    H1 9751   3.273   1.847  15.585 -0.6742 -2.8271  1.1675
  655MPD2    H2 9752   2.995   2.123  15.778 -1.8027  0.0955 -0.8127
  655MPD2    H3 9753   3.239   2.053  15.734 -0.3377  0.8847 -2.1374
  655MPD2     N 9754   3.075   1.700  15.477 -0.3356 -0.2177 -0.1682
  655MPD2    H5 9755   2.997   1.641  15.450 -0.0318 -2.3636  3.5707
  655MPD2    N1 9756   2.777   1.992  15.713  0.0119  0.3386  0.6204
  655MPD2    H7 9757   2.705   1.948  15.656 -0.2295  0.2966  0.9549
  656TMC3    C1 9758   2.582   2.089  15.813 -0.0197  0.4078  0.0975
  656TMC3    C2 9759   2.532   2.115  15.940  0.3080  0.0185 -0.2479
  656TMC3    C3 9760   2.404   2.106  15.971 -0.6861 -0.3042 -0.5074
  656TMC3    C4 9761   2.501   2.056  15.711 -0.8338 -0.7456  0.5730
  656TMC3    C5 9762   2.376   2.043  15.748  0.3175 -0.2736  0.0860
  656TMC3    C6 9763   2.313   2.072  15.870  0.2725 -0.0413  0.1791
  656TMC3     C 9764   2.730   2.071  15.814  0.3507 -1.1450  0.1584
  656TMC3     O 9765   2.783   2.113  15.913  0.4728 -0.4366  0.0259
  656TMC3     H 9766   2.602   2.127  16.022  0.6145  0.5808 -0.5961
  656TMC3    H1 9767   2.544   2.037  15.613 -2.7583  1.7938 -0.7448
  656TMC3    H2 9768   2.214   2.044  15.902 -0.1597  0.5759 -0.6168
  656TMC3    C7 9769   2.288   1.989  15.644 -0.0176  0.5927 -0.1297
  656TMC3    C8 9770   2.389   2.031  16.092  0.5104 -0.4387 -0.2213
  656TMC3    O1 9771   2.342   1.937  15.548 -0.1122 -0.4196  0.2306
  656TMC3    O2 9772   2.419   1.911  16.096 -0.4648 -0.4313 -0.3095
  657TMC3    C1 9773   1.087   0.952  15.811 -0.1682 -0.0493 -0.5522
  657TMC3    C2 9774   1.215   0.987  15.853  0.1263 -0.2326 -0.1480
  657TMC3    C3 9775   1.259   1.114  15.832  0.4833 -0.4547 -0.5502
  657TMC3    C4 9776   0.995   1.046  15.776 -0.0076 -0.2933  0.0828
  657TMC3    C5 9777   1.039   1.181  15.767  0.4047  0.2149 -0.2306
  657TMC3    C6 9778   1.173   1.209  15.795 -0.6132 -0.2598  0.3559
  657TMC3     C 9779   1.067   0.820  15.757 -0.4216  0.7700  0.1772
  657TMC3     O 9780   0.961   0.790  15.716  0.6918 -0.1036  0.2003
  657TMC3     H 9781   1.285   0.917  15.896 -0.0151 -1.0052 -1.1702
  657TMC3    H1 9782   0.895   1.017  15.748 -0.3838  2.1287 -1.0950
  657TMC3    H2 9783   1.207   1.312  15.796 -2.0787  0.2188  0.9503
  657TMC3    C7 9784   0.953   1.298  15.753 -0.1277 -0.1576 -0.7488
  657TMC3    C8 9785   1.404   1.132  15.824  0.0904  0.3626 -0.1192
  657TMC3    O1 9786   1.022   1.399  15.722  0.2323 -0.6125  0.7062
  657TMC3    O2 9787   1.459   1.045  15.762  0.6912 -0.4962 -0.3400
  658MPD2     C 9788   3.269   1.350  14.709 -0.8501  1.2173  0.2254
  658MPD2    C1 9789   3.159   1.344  14.794  0.1129  0.5920  0.4120
  658MPD2    C2 9790   3.033   1.304  14.739  0.0209 -0.1468 -0.5521
  658MPD2    C3 9791   3.022   1.282  14.606  0.2774 -0.2824 -0.3240
  658MPD2    C4 9792   3.133   1.298  14.527 -0.2065  0.4438  0.6789
  658MPD2    C5 9793   3.256   1.332  14.572 -0.4107  0.6908 -0.1136
  658MPD2     H 9794   2.947   1.298  14.804  1.4852  1.2777  1.5266
  658MPD2    H1 9795   3.124   1.296  14.419  0.2001  0.9300  0.6389
  658MPD2    H2 9796   3.368   1.366  14.749 -0.1998  0.4362 -1.0733
  658MPD2    H3 9797   3.346   1.330  14.512 -0.9039  2.0330 -0.9034
  658MPD2     N 9798   2.891   1.260  14.533 -0.3524 -0.5074 -0.1637
  658MPD2    H5 9799   2.903   1.264  14.432  0.6598 -1.0037 -0.0558
  658MPD2    N1 9800   3.167   1.364  14.933 -0.1261 -0.7967 -0.3067
  658MPD2    H7 9801   3.080   1.350  14.984  1.1194 -0.0252  2.0252
  659TMC3    C1 9802   3.226   1.425  15.135  0.1086 -0.3329  0.0216
  659TMC3    C2 9803   3.240   1.536  15.212 -0.6362 -0.0493  0.2541
  659TMC3    C3 9804   3.166   1.554  15.322 -0.5108  0.3554  0.2092
  659TMC3    C4 9805   3.165   1.313  15.186  0.0828  0.3554 -0.0689
  659TMC3    C5 9806   3.108   1.331  15.312  0.3934  0.0636  0.4187
  659TMC3    C6 9807   3.113   1.448  15.387  0.0008 -0.0721  0.1187
  659TMC3     C 9808   3.266   1.426  15.001  0.1223 -0.7188  0.1861
  659TMC3     O 9809   3.378   1.468  14.969 -0.3222  0.3891  0.0445
  659TMC3     H 9810   3.313   1.609  15.178 -0.8612  0.0597  0.0011
  659TMC3    H1 9811   3.157   1.222  15.128  1.6372 -0.1662  0.5269
  659TMC3    H2 9812   3.062   1.456  15.482 -1.1658  1.8240 -0.6596
  659TMC3    C7 9813   3.042   1.223  15.382  0.7265  0.4209 -0.4944
  659TMC3    C8 9814   3.185   1.676  15.402  0.4163  0.7164 -0.9508
  659TMC3    O1 9815   2.966   1.242  15.476  0.3441  0.4010 -0.3992
  659TMC3    O2 9816   3.289   1.737  15.386 -0.0090  0.6241  0.1804
  660MPD2     C 9817   0.864   4.261  12.863 -0.1928 -0.3966  0.0706
  660MPD2    C1 9818   0.749   4.314  12.919 -0.2210 -0.3990  0.1344
  660MPD2    C2 9819   0.748   4.355  13.052  0.1948  0.3270  0.0931
  660MPD2    C3 9820   0.855   4.310  13.129  0.4047 -0.0667 -0.5778
  660MPD2    C4 9821   0.969   4.267  13.067 -0.7725 -0.4644 -0.2153
  660MPD2    C5 9822   0.973   4.232  12.943  0.7077 -0.6492  0.7643
  660MPD2     H 9823   0.665   4.406  13.099 -0.9160 -0.3298 -1.1542
  660MPD2    H1 9824   1.060   4.254  13.125 -1.1092  2.1988  0.9062
  660MPD2    H2 9825   0.871   4.237  12.758 -0.3696 -0.1855  0.0124
  660MPD2    H3 9826   1.066   4.193  12.903  0.1553 -1.8770  0.6872
  660MPD2     N 9827   0.867   4.334  13.262 -0.2508  0.1040  0.1364
  660MPD2    H5 9828   0.945   4.287  13.307  0.3966  0.8997 -0.1419
  660MPD2    N1 9829   0.637   4.336  12.839  0.0180  0.4899  0.2494
  660MPD2    H7 9830   0.562   4.394  12.876  1.0908  2.2220 -0.3176
  661TMC3    C1 9831   0.530   4.397  12.644  0.4009  0.4324 -0.1595
  661TMC3    C2 9832   0.570   4.491  12.551  0.6522 -0.1656  0.2847
  661TMC3    C3 9833   0.490   4.513  12.442 -0.0942 -0.0982  0.1569
  661TMC3    C4 9834   0.395   4.352  12.650 -0.4645  0.5863  0.4476
  661TMC3    C5 9835   0.315   4.400  12.551  0.0559 -0.3681 -0.3865
  661TMC3    C6 9836   0.361   4.469  12.442  0.1498 -0.1829  0.1277
  661TMC3     C 9837   0.638   4.325  12.703 -0.2121 -0.6083  0.3854
  661TMC3     O 9838   0.717   4.271  12.627 -0.2617 -0.2972 -0.5396
  661TMC3     H 9839   0.677   4.506  12.549  0.4868  1.2368  2.3713
  661TMC3    H1 9840   0.355   4.271  12.709  0.6626 -1.7045 -1.9651
  661TMC3    H2 9841   0.290   4.501  12.367  1.2148  1.2429 -0.2849
  661TMC3    C7 9842   0.172   4.370  12.544 -0.6836 -0.3333  0.1347
  661TMC3    C8 9843   0.531   4.629  12.359  0.2390 -0.0202 -0.0512
  661TMC3    O1 9844   0.119   4.381  12.437  0.1283  0.7429  0.0794
  661TMC3    O2 9845   0.470   4.632  12.257  0.1968 -0.0311 -0.1396
  662MPD2     C 9846   1.278   0.005  17.175  0.5389  0.3766 -0.6272
  662MPD2    C1 9847   1.254   4.623  17.242  0.4432 -0.0944 -0.6105
  662MPD2    C2 9848   1.170   4.635  17.351 -0.2385  0.3676 -0.2454
  662MPD2    C3 9849   1.103   0.016  17.389  0.6754 -0.3713 -0.1240
  662MPD2    C4 9850   1.102   0.119  17.298  0.4964 -0.0419 -0.2595
  662MPD2    C5 9851   1.195   0.116  17.191 -0.1751  0.4492  0.6577
  662MPD2     H 9852   1.141   4.541  17.396 -0.3858 -0.4840 -2.0911
  662MPD2    H1 9853   1.044   0.210  17.312  0.9838  0.3618 -0.8538
  662MPD2    H2 9854   1.350   0.004  17.094 -0.8461  2.1469 -1.8779
  662MPD2    H3 9855   1.212   0.210  17.138 -0.2300  0.5921  0.8940
  662MPD2     N 9856   1.021   0.017  17.498 -0.7546 -0.2672 -0.2958
  662MPD2    H5 9857   0.952   0.090  17.509 -1.0179 -0.6223  0.3799
  662MPD2    N1 9858   1.313   4.495  17.214 -0.0875 -0.0783  0.4398
  662MPD2    H7 9859   1.293   4.424  17.285 -2.0125  0.1333  0.1016
  663TMC3    C1 9860   1.449   4.330  17.141 -0.0880 -0.0634  0.1414
  663TMC3    C2 9861   1.497   4.296  17.263  0.6586  0.5666  0.2319
  663TMC3    C3 9862   1.586   4.197  17.271 -0.0198 -0.4919  0.2957
  663TMC3    C4 9863   1.468   4.249  17.036 -0.1150  0.5725  0.2819
  663TMC3    C5 9864   1.536   4.139  17.046  0.0423  0.5113 -0.5400
  663TMC3    C6 9865   1.612   4.120  17.160  0.2156 -0.2231 -0.1591
  663TMC3     C 9866   1.402   4.467  17.117 -0.4553 -0.3753 -0.1143
  663TMC3     O 9867   1.416   4.514  17.004 -0.0808  0.3792 -0.0237
  663TMC3     H 9868   1.509   4.379  17.331  0.4339  0.7147  0.0904
  663TMC3    H1 9869   1.410   4.270  16.947 -1.1773  0.1966  0.8811
  663TMC3    H2 9870   1.669   4.028  17.170 -0.4793 -0.6925 -0.5111
  663TMC3    C7 9871   1.466   4.022  17.006 -0.7120  0.9259 -0.0540
  663TMC3    C8 9872   1.563   4.118  17.386  0.4146  0.6229 -0.0764
  663TMC3    O1 9873   1.485   3.926  17.075  0.0544  0.5766 -0.5639
  663TMC3    O2 9874   1.643   4.025  17.403  0.5113 -0.0664 -0.4615
  664MPD2     C 9875   4.174   2.922   0.047 -0.6244  0.6226  0.0201
  664MPD2    C1 9876   4.207   3.055   0.075  0.0047  0.0981 -0.0846
  664MPD2    C2 9877   4.150   3.113   0.188  0.1878 -0.0690  0.0005
  664MPD2    C3 9878   4.070   3.045   0.282 -0.1977  0.4371  0.5404
  664MPD2    C4 9879   4.049   2.911   0.256 -0.4033  0.1419  0.4367
  664MPD2    C5 9880   4.103   2.853   0.140 -0.0354 -0.1837 -0.1691
  664MPD2     H 9881   4.176   3.217   0.205 -2.3441  0.4998  0.5429
  664MPD2    H1 9882   3.987   2.845   0.316 -0.7873  1.2904  1.2859
  664MPD2    H2 9883   4.213   2.869  17.700  2.1562  1.5227  0.7437
  664MPD2    H3 9884   4.084   2.747   0.129 -0.8724 -0.0855  0.3447
  664MPD2     N 9885   4.040   3.106   0.413  0.2350 -0.5710  0.9732
  664MPD2    H5 9886   4.074   3.200   0.429  1.2433 -1.1270  2.1780
  664MPD2    N1 9887   4.300   3.135  17.737  0.4413 -0.4902  0.0339
  664MPD2    H7 9888   4.306   3.232   0.026  0.5360  0.0057 -1.7338
  665TMC3    C1 9889   3.951   3.123   0.629 -0.0935 -0.4946 -0.0378
  665TMC3    C2 9890   3.887   3.043   0.724 -0.0775  0.2776 -0.4846
  665TMC3    C3 9891   3.907   3.085   0.853  0.2054 -0.3832 -0.6856
  665TMC3    C4 9892   4.025   3.232   0.664  0.2774  0.2633 -0.1295
  665TMC3    C5 9893   4.049   3.265   0.789  0.4057  0.1935 -0.2577
  665TMC3    C6 9894   3.977   3.198   0.886  0.4906 -0.3976 -0.2954
  665TMC3     C 9895   3.958   3.048   0.506  0.4152  0.1775  0.3683
  665TMC3     O 9896   3.892   2.947   0.491 -0.4426 -0.2445 -0.1283
  665TMC3     H 9897   3.819   2.962   0.700 -3.4573  2.4903  1.5751
  665TMC3    H1 9898   4.085   3.287   0.592 -0.2184  0.2408 -0.5542
  665TMC3    H2 9899   3.985   3.230   0.989  1.4516 -2.9710  0.4262
  665TMC3    C7 9900   4.081   3.410   0.814 -0.2121 -0.5206  0.3653
  665TMC3    C8 9901   3.814   3.043   0.946  0.2638 -0.4521 -0.8028
  665TMC3    O1 9902   4.097   3.489   0.725 -0.9933  0.1573 -0.1848
  665TMC3    O2 9903   3.852   3.028   1.062  0.5570 -0.2893  0.3155
  666TMC3    C1 9904   3.259   1.988  10.151  0.0917 -0.0319 -0.1171
  666TMC3    C2 9905   3.334   1.977  10.039 -0.7048 -0.3411 -0.3705
  666TMC3    C3 9906   3.357   2.090   9.972 -0.7451  0.1590  0.0289
  666TMC3    C4 9907   3.209   2.106  10.206 -0.5148  0.1365  0.3008
  666TMC3    C5 9908   3.233   2.218  10.128  0.8169 -0.2763  0.8074
  666TMC3    C6 9909   3.298   2.211  10.007 -0.5185 -0.1128 -0.9780
  666TMC3     C 9910   3.185   1.875  10.198  0.2953 -0.1732  0.1325
  666TMC3     O 9911   3.075   1.897  10.252  0.0550  0.2542 -0.0446
  666TMC3     H 9912   3.347   1.879   9.995 -1.7852 -0.1116 -1.1872
  666TMC3    H1 9913   3.156   2.118  10.299 -0.6998  2.0316 -0.0372
  666TMC3    H2 9914   3.312   2.291   9.936  1.6965 -0.6704 -1.1983
  666TMC3    C7 9915   3.208   2.351  10.185 -0.7262 -0.3910  0.6434
  666TMC3    C8 9916   3.415   2.081   9.843  0.2472 -0.2200  0.5815
  666TMC3    O1 9917   3.132   2.369  10.276  0.2584 -0.0995 -0.0167
  666TMC3    O2 9918   3.382   1.982   9.778 -0.0869  0.0344 -0.8634
  667MPD2     C 9919   0.119   3.055  14.846  0.4132 -0.4212 -0.7463
  667MPD2    C1 9920   0.003   3.052  14.914  0.5515 -0.4360 -0.5672
  667MPD2    C2 9921   4.661   2.931  14.908  0.7464  0.0329 -0.3351
  667MPD2    C3 9922   4.689   2.829  14.815 -0.9310 -0.3865 -0.3550
  667MPD2    C4 9923   0.070   2.836  14.740  0.4380 -0.2318  0.4054
  667MPD2    C5 9924   0.147   2.953  14.753  0.1617 -0.7140 -0.1756
  667MPD2     H 9925   4.584   2.925  14.984 -0.8694  2.1299 -1.7782
  667MPD2    H1 9926   0.103   2.763  14.666  2.4483  1.8930 -0.7953
  667MPD2    H2 9927   0.190   3.136  14.850  1.5205 -1.3775 -0.8224
  667MPD2    H3 9928   0.247   2.963  14.712  0.5756  0.8962  1.1813
  667MPD2     N 9929   4.605   2.713  14.810  0.2480 -0.4945 -0.2939
  667MPD2    H5 9930   4.538   2.709  14.887 -0.7831 -1.2722 -1.2406
  667MPD2    N1 9931   4.717   3.158  15.012 -0.6271 -0.1305 -0.4630
  667MPD2    H7 9932   4.652   3.142  15.088 -0.2777  2.6469  0.4363
  668TMC3    C1 9933   0.076   3.325  15.154 -0.3642 -0.2958 -0.6622
  668TMC3    C2 9934   0.156   3.429  15.159 -0.2780  0.1270  0.0297
  668TMC3    C3 9935   0.188   3.477  15.286  0.7827  0.5685 -0.0345
  668TMC3    C4 9936   0.036   3.254  15.266  0.0565  0.2564  0.2265
  668TMC3    C5 9937   0.060   3.319  15.384  0.1398  0.3969  0.0398
  668TMC3    C6 9938   0.135   3.431  15.400 -0.7247 -0.2142  0.0733
  668TMC3     C 9939   0.058   3.271  15.017  0.1888 -0.3127 -0.1879
  668TMC3     O 9940   0.097   3.340  14.920  0.4005  0.0300  0.1500
  668TMC3     H 9941   0.180   3.484  15.069  0.0211 -1.5703 -0.9223
  668TMC3    H1 9942   0.010   3.149  15.258  1.2653  0.0289 -0.7881
  668TMC3    H2 9943   0.170   3.460  15.499 -1.1012  0.5402 -0.0137
  668TMC3    C7 9944   4.723   3.281  15.505 -0.0833  0.2081  0.3671
  668TMC3    C8 9945   0.306   3.562  15.305 -0.9217 -0.5097 -0.2461
  668TMC3    O1 9946   0.028   3.329  15.607  0.3136 -0.2115 -0.1536
  668TMC3    O2 9947   0.325   3.614  15.416  0.1082  0.3557  0.4912
  669TMC3    C1 9948   2.827   2.870  14.935  0.4995  0.0758 -0.0413
  669TMC3    C2 9949   2.718   2.862  14.853  0.0707 -0.4516 -0.2318
  669TMC3    C3 9950   2.703   2.962  14.759  0.3484  0.4983 -0.1379
  669TMC3    C4 9951   2.930   2.962  14.920  0.3132 -0.2665  0.2002
  669TMC3    C5 9952   2.909   3.060  14.829 -0.1057 -0.0245 -0.1423
  669TMC3    C6 9953   2.803   3.051  14.740  0.0152 -0.4934  0.2615
  669TMC3     C 9954   2.826   2.771  15.048 -0.0342 -0.4122  0.0860
  669TMC3     O 9955   2.713   2.727  15.078 -0.1108  0.9193  0.1479
  669TMC3     H 9956   2.666   2.767  14.856 -1.5001  0.3361 -2.8206
  669TMC3    H1 9957   3.015   2.968  14.987  0.2178  1.3710  0.1849
  669TMC3    H2 9958   2.820   3.101  14.645 -0.7258  0.8400  0.8272
  669TMC3    C7 9959   3.007   3.168  14.804  0.1742 -0.2372 -0.0514
  669TMC3    C8 9960   2.602   2.943  14.657 -0.6562 -0.1985  0.5770
  669TMC3    O1 9961   2.953   3.260  14.748  0.0204 -0.3746  0.0544
  669TMC3    O2 9962   2.561   2.830  14.639 -0.7041 -0.5596 -0.1087
  670MPD2     C 9963   1.403   0.276  14.326 -0.2207 -0.2463 -0.3999
  670MPD2    C1 9964   1.299   0.341  14.267 -0.1346  0.1771 -0.0143
  670MPD2    C2 9965   1.195   0.386  14.355 -0.1747 -0.1416 -0.3632
  670MPD2    C3 9966   1.218   0.377  14.495  0.5646  0.2157 -0.4035
  670MPD2    C4 9967   1.321   0.296  14.545  0.5412  0.2510  0.5439
  670MPD2    C5 9968   1.414   0.251  14.462  0.1266 -0.1428  0.5008
  670MPD2     H 9969   1.117   0.447  14.312  1.5106  1.7431 -0.7392
  670MPD2    H1 9970   1.328   0.272  14.650  0.2027  0.4644  0.6153
  670MPD2    H2 9971   1.481   0.230  14.267  0.9239 -0.4593  1.2932
  670MPD2    H3 9972   1.494   0.190  14.503  0.0686 -0.1306  0.6295
  670MPD2     N 9973   1.122   0.427  14.585  0.5481 -0.3243 -0.2537
  670MPD2    H5 9974   1.040   0.474  14.548  2.6575  1.7826 -2.2448
  670MPD2    N1 9975   1.280   0.373  14.133 -0.0984 -0.0540  0.1849
  670MPD2    H7 9976   1.214   0.447  14.111  0.8272  0.4748 -0.7897
  671TMC3    C1 9977   1.012   0.402  14.802  0.5562  0.1688 -0.3474
  671TMC3    C2 9978   1.021   0.316  14.907  0.1760  0.0400  0.0655
  671TMC3    C3 9979   0.945   0.204  14.905  1.4894 -0.2761  0.8894
  671TMC3    C4 9980   0.906   0.384  14.721 -0.1594  0.1929 -0.7429
  671TMC3    C5 9981   0.814   0.287  14.737  0.4076 -0.1734 -0.5255
  671TMC3    C6 9982   0.823   0.204  14.842  0.0460 -0.3165  0.0901
  671TMC3     C 9983   1.134   0.420  14.723  0.2787 -0.0998 -1.1730
  671TMC3     O 9984   1.238   0.427  14.782 -0.6149  0.0056 -0.4671
  671TMC3     H 9985   1.113   0.325  14.963 -0.7221  2.2917  1.2208
  671TMC3    H1 9986   0.887   0.461  14.647 -1.2410 -0.7981 -1.5071
  671TMC3    H2 9987   0.752   0.123  14.851 -2.3919  1.7945 -0.3089
  671TMC3    C7 9988   0.710   0.289  14.641 -0.5635  0.0360 -0.0972
  671TMC3    C8 9989   1.019   0.097  14.854 -0.1195  0.0685 -0.6416
  671TMC3    O1 9990   0.731   0.342  14.532 -0.5192  0.4980  0.2179
  671TMC3    O2 9991   0.969   0.044  14.759 -0.1149 -0.4181  0.3860
  672MPD2     C 9992   1.965   1.097   0.417  0.1723  0.3174 -0.1689
  672MPD2    C1 9993   1.890   1.077   0.530 -0.2249  0.0918 -0.2287
  672MPD2    C2 9994   1.905   1.171   0.635  0.0416 -0.2132 -0.5763
  672MPD2    C3 9995   2.005   1.271   0.628 -0.4136 -0.5002 -0.2937
  672MPD2    C4 9996   2.080   1.279   0.517  0.8900  0.8238  0.5812
  672MPD2    C5 9997   2.053   1.201   0.409  0.7328  0.4892  0.2655
  672MPD2     H 9998   1.839   1.166   0.720 -0.3217  0.3876 -0.8176
  672MPD2    H1 9999   2.146   1.365   0.508 -0.4782  1.8549  0.4503
  672MPD2    H210000   1.948   1.043   0.325 -2.7977  1.9029 -0.5442
  672MPD2    H310001   2.116   1.201   0.321 -0.8980  1.0106 -0.8843
  672MPD2     N10002   2.021   1.374   0.729  0.0137 -0.9477 -0.0986
  672MPD2    H510003   2.107   1.427   0.722  0.7612 -2.1098  0.3436
  672MPD2    N110004   1.810   0.959   0.550 -0.2803  0.0873  0.0892
  672MPD2    H710005   1.775   0.948   0.645  1.0562  4.3245  1.0481
  673TMC3    C110006   1.719   0.750   0.511 -0.0718  0.1430  0.1340
  673TMC3    C210007   1.771   0.627   0.481  0.8166  0.5417 -0.1473
  673TMC3    C310008   1.714   0.515   0.531  0.1452  0.1613  0.0996
  673TMC3    C410009   1.597   0.770   0.574 -0.0555  0.1978 -0.4421
  673TMC3    C510010   1.535   0.654   0.604  0.8610  0.3610  0.2820
  673TMC3    C610011   1.592   0.528   0.593  0.4102 -1.2019  0.1250
  673TMC3     C10012   1.794   0.858   0.455 -0.0944  0.0440  0.6035
  673TMC3     O10013   1.852   0.838   0.348 -0.7321 -0.3589 -0.5103
  673TMC3     H10014   1.859   0.623   0.418  0.9911 -2.4145  0.2626
  673TMC3    H110015   1.571   0.871   0.605  0.4681  0.6250 -1.3785
  673TMC3    H210016   1.553   0.438   0.637  0.0756 -1.2835 -0.3343
  673TMC3    C710017   1.408   0.664   0.666  0.1294 -0.0565  0.1320
  673TMC3    C810018   1.801   0.404   0.565  0.3415 -0.6389  0.4822
  673TMC3    O110019   1.377   0.555   0.714  0.4093  0.2958 -0.1592
  673TMC3    O210020   1.758   0.289   0.551  0.6727 -0.1965 -0.0821
  674MPD2     C10021   1.109   0.510  17.367 -0.1188  0.7036 -0.9575
  674MPD2    C110022   1.140   0.465  17.489  0.2701 -0.0820 -0.8040
  674MPD2    C210023   1.106   0.540  17.601 -0.0087 -0.0884 -0.9879
  674MPD2    C310024   1.050   0.672  17.580 -0.4940 -0.0748 -0.0985
  674MPD2    C410025   1.021   0.718  17.456 -0.6095  0.0402  0.6350
  674MPD2    C510026   1.031   0.629  17.348 -0.1114  0.2554  0.5206
  674MPD2     H10027   1.117   0.503  17.702 -0.8005  0.6821 -0.6227
  674MPD2    H110028   0.974   0.814  17.436  0.3671  0.1342 -1.2272
  674MPD2    H210029   1.136   0.446  17.284 -0.2307  1.0972 -1.2965
  674MPD2    H310030   1.007   0.664  17.248  1.1071  1.4497  0.6420
  674MPD2     N10031   1.044   0.753  17.699 -0.0235  0.1223 -0.9750
  674MPD2    H510032   1.072   0.700   0.041 -1.0128  1.5561  0.2978
  674MPD2    N110033   1.216   0.342  17.502  0.0365  0.1564  0.1072
  674MPD2    H710034   1.262   0.306  17.419  0.1819  1.9878 -0.6272
  675TMC3    C110035   1.347   0.208  17.631 -0.3060 -0.4081 -0.6909
  675TMC3    C210036   1.351   0.097  17.711  0.4554  0.6147 -0.3082
  675TMC3    C310037   1.464   0.066   0.043  0.2150  0.0460  0.4089
  675TMC3    C410038   1.462   0.283  17.621  0.2311 -0.2630  0.1085
  675TMC3    C510039   1.570   0.254  17.697 -0.0793  0.0117  0.1920
  675TMC3    C610040   1.576   0.140   0.033  0.0838  0.0210 -0.4651
  675TMC3     C10041   1.222   0.271  17.618 -0.8232 -0.5999 -0.4437
  675TMC3     O10042   1.148   0.259  17.714  0.1871 -0.2152 -0.0787
  675TMC3     H10043   1.267   0.034  17.738  0.2550  1.3507  0.7840
  675TMC3    H110044   1.455   0.379  17.572 -0.6466 -1.3043 -1.7931
  675TMC3    H210045   1.668   0.105   0.079 -1.9125 -1.4362  2.4210
  675TMC3    C710046   1.686   0.341  17.676  0.5258 -0.1311  0.7826
  675TMC3    C810047   1.462   4.692   0.139  0.0570 -0.0503  0.2967
  675TMC3    O110048   1.699   0.398  17.568 -0.4025 -0.5511  0.2742
  675TMC3    O210049   1.392   4.593   0.120 -0.0940  0.0491 -0.0493
  676MPD2     C10050   3.455   3.876  11.297  0.5728  0.0962 -0.9105
  676MPD2    C110051   3.386   3.797  11.388 -0.2194  0.1013 -0.3471
  676MPD2    C210052   3.357   3.662  11.346  0.3534  0.2017  0.4503
  676MPD2    C310053   3.395   3.612  11.224  0.4068  0.4782  0.5016
  676MPD2    C410054   3.460   3.695  11.138 -0.5417 -0.3417  1.1868
  676MPD2    C510055   3.480   3.826  11.178 -0.1113 -0.7432  0.3514
  676MPD2     H10056   3.303   3.598  11.416  2.5643 -0.7720  1.2526
  676MPD2    H110057   3.479   3.659  11.038 -1.5521  0.7336  0.6191
  676MPD2    H210058   3.479   3.980  11.313 -0.3040 -0.0437  1.4511
  676MPD2    H310059   3.533   3.886  11.105  0.0770 -3.2153 -1.5317
  676MPD2     N10060   3.377   3.483  11.177 -0.2793 -0.1080 -0.5443
  676MPD2    H510061   3.428   3.455  11.094  0.7314 -2.4989  0.8660
  676MPD2    N110062   3.329   3.838  11.507  0.4944  0.2320  0.1312
  676MPD2    H710063   3.268   3.776  11.560  0.1578  1.5538  1.2750
  677TMC3    C110064   3.272   3.984  11.675 -0.0446  0.3548 -0.3859
  677TMC3    C210065   3.147   3.930  11.682 -0.5542 -0.4524 -0.2802
  677TMC3    C310066   3.067   3.970  11.784  0.2047  0.5762 -0.6898
  677TMC3    C410067   3.330   4.059  11.777  0.7439  0.4927  0.1821
  677TMC3    C510068   3.248   4.081  11.887 -0.5392 -0.0676  0.6251
  677TMC3    C610069   3.116   4.037  11.891 -0.0119 -0.2418  0.9195
  677TMC3     C10070   3.352   3.964  11.559  0.5338  0.4917  0.4471
  677TMC3     O10071   3.455   4.031  11.554  0.1642  0.4059 -0.1814
  677TMC3     H10072   3.107   3.873  11.600  0.0443  1.1443 -1.6743
  677TMC3    H110073   3.426   4.108  11.773  1.0319 -0.2060 -1.3095
  677TMC3    H210074   3.048   4.049  11.974  0.0847  0.0755  0.9535
  677TMC3    C710075   3.298   4.124  12.017 -0.0089 -1.3005 -0.1480
  677TMC3    C810076   2.951   3.884  11.802 -0.0830  0.0286 -0.5614
  677TMC3    O110077   3.209   4.142  12.100  0.6231  0.1963  0.0701
  677TMC3    O210078   2.909   3.821  11.707 -0.7199 -0.1110  0.2409
  678MPD2     C10079   0.695   4.519   1.603  0.1368 -0.2365  0.1846
  678MPD2    C110080   0.696   4.429   1.497  0.6005  0.1332  0.1989
  678MPD2    C210081   0.579   4.373   1.465 -0.2916 -0.1421 -0.0480
  678MPD2    C310082   0.472   4.397   1.547  0.0388 -0.0505 -0.7020
  678MPD2    C410083   0.472   4.475   1.658 -0.9955 -0.5603 -0.0459
  678MPD2    C510084   0.589   4.545   1.685 -0.3137 -0.2414  0.1930
  678MPD2     H10085   0.582   4.303   1.383  0.7905  0.1390 -0.2423
  678MPD2    H110086   0.384   4.493   1.718  0.1135  0.4297  1.2874
  678MPD2    H210087   0.787   4.567   1.632 -0.0464 -1.2154  2.3763
  678MPD2    H310088   0.613   4.610   1.768  1.6259 -2.2483  1.1847
  678MPD2     N10089   0.353   4.345   1.493 -0.0835 -0.2257  0.7017
  678MPD2    H510090   0.364   4.289   1.409 -1.5488 -0.7967  0.8884
  678MPD2    N110091   0.809   4.405   1.420  0.1861 -0.1249 -0.0741
  678MPD2    H710092   0.794   4.342   1.341  1.0184 -1.3329  0.7139
  679TMC3    C110093   1.249   4.386   1.276  0.4025 -0.2784  0.1512
  679TMC3    C210094   1.159   4.428   1.370 -0.6715 -0.3000 -0.4848
  679TMC3    C310095   1.029   4.422   1.332 -0.5236  0.0776  0.1728
  679TMC3    C410096   1.201   4.334   1.157  0.4397 -0.3207 -0.6971
  679TMC3    C510097   1.068   4.338   1.120  0.0300  0.7950 -0.6275
  679TMC3    C610098   0.979   4.375   1.213 -0.1377  0.1493  0.0449
  679TMC3     C10099   1.376   4.328   1.320 -0.5147  1.2666 -0.1607
  679TMC3     O10100   1.403   4.227   1.259 -0.3239  0.1179 -0.2268
  679TMC3     H10101   1.191   4.474   1.463 -0.3283  1.8128 -1.6500
  679TMC3    H110102   1.273   4.295   1.087 -0.7039 -1.1572 -1.4177
  679TMC3    H210103   0.876   4.396   1.184  0.2131  3.4680  1.1754
  679TMC3    C710104   1.017   4.265   0.998  0.0033 -0.1139  0.6017
  679TMC3    C810105   0.934   4.461   1.437  0.4972 -0.7982  0.2331
  679TMC3    O110106   0.905   4.289   0.953  0.2994  0.1035 -0.0906
  679TMC3    O210107   0.985   4.518   1.534  0.8357  0.6807 -0.2825
  680MPD2     C10108   0.084   2.488  13.868  0.3437 -0.5504 -0.5534
  680MPD2    C110109   0.182   2.458  13.965  0.3177  0.2553 -0.4021
  680MPD2    C210110   0.253   2.560  14.011 -0.7361 -0.4095  0.5395
  680MPD2    C310111   0.226   2.687  13.970  0.6147  1.3175  0.4717
  680MPD2    C410112   0.119   2.714  13.892  1.2972 -0.1168 -0.3855
  680MPD2    C510113   0.049   2.615  13.838 -0.0988  0.1407 -0.2522
  680MPD2     H10114   0.343   2.546  14.070  0.6740  0.8720 -1.2935
  680MPD2    H110115   0.102   2.809  13.844 -0.7174  0.0880  0.7274
  680MPD2    H210116   0.044   2.408  13.807 -0.0327  0.0099 -1.0311
  680MPD2    H310117   4.719   2.638  13.754 -2.1281 -2.0727  0.7068
  680MPD2     N10118   0.313   2.791  13.999 -0.8093  0.8083  0.1762
  680MPD2    H510119   0.301   2.870  13.937 -1.2873  0.2317 -0.4666
  680MPD2    N110120   0.234   2.326  13.981 -0.1122 -0.1227  0.2325
  680MPD2    H710121   0.304   2.318  14.054  0.5468 -1.2791 -0.5344
  681TMC3    C110122   0.328   2.117  13.940  0.6277  0.5990 -0.1494
  681TMC3    C210123   0.346   2.118  14.071  0.1029 -0.5056 -0.1827
  681TMC3    C310124   0.466   2.098  14.129 -0.2273  0.7007 -0.7501
  681TMC3    C410125   0.436   2.083  13.857 -0.0438  1.4202  0.7289
  681TMC3    C510126   0.556   2.050  13.915  0.6385 -0.3340  0.1090
  681TMC3    C610127   0.571   2.057  14.050 -0.4360  0.2454  0.2766
  681TMC3     C10128   0.233   2.222  13.887  0.1059  0.2690 -0.4888
  681TMC3     O10129   0.202   2.216  13.773  0.1979 -0.3835 -0.2067
  681TMC3     H10130   0.260   2.147  14.131  0.0096  0.4002 -0.7471
  681TMC3    H110131   0.434   2.112  13.753  2.4338 -0.9660 -0.0028
  681TMC3    H210132   0.665   2.041  14.102 -0.0828 -1.4189 -0.8809
  681TMC3    C710133   0.684   2.058  13.839  0.8838  0.4410  0.5340
  681TMC3    C810134   0.494   2.214  14.212 -0.0344 -0.2143 -0.1683
  681TMC3    O110135   0.786   2.066  13.910  0.1446  0.1467  0.7578
  681TMC3    O210136   0.400   2.296  14.221  0.1061  0.1799 -0.4235
  682MPD2     C10137   2.760   3.551  10.739 -0.0800 -0.0876 -0.1985
  682MPD2    C110138   2.722   3.420  10.773  0.2499 -0.2679 -0.5956
  682MPD2    C210139   2.635   3.399  10.880  0.2564  0.3214  0.4888
  682MPD2    C310140   2.587   3.506  10.962 -0.1576 -0.5321  0.1630
  682MPD2    C410141   2.634   3.632  10.929  0.1662 -0.7621  0.1497
  682MPD2    C510142   2.717   3.649  10.825 -0.1488  0.2536  0.1604
  682MPD2     H10143   2.613   3.293  10.890 -1.5948  0.6346 -0.4643
  682MPD2    H110144   2.602   3.703  11.004  1.9931  0.1202  0.0821
  682MPD2    H210145   2.821   3.578  10.653 -0.9854  4.2923  0.5561
  682MPD2    H310146   2.745   3.752  10.802  1.8068  0.5809  3.9468
  682MPD2     N10147   2.511   3.491  11.078 -0.7823 -0.1266 -0.0462
  682MPD2    H510148   2.485   3.574  11.130 -0.5712  1.8392 -3.0685
  682MPD2    N110149   2.756   3.311  10.694  0.3790  0.3566  0.3341
  682MPD2    H710150   2.705   3.226  10.713  2.6616 -0.6401  1.9645
  683TMC3    C110151   2.408   3.384  11.481 -0.1776 -0.0428  0.3278
  683TMC3    C210152   2.310   3.285  11.493 -0.0045  0.2507  0.5427
  683TMC3    C310153   2.250   3.238  11.380 -0.1107 -0.0889 -0.5705
  683TMC3    C410154   2.450   3.419  11.359  0.6501 -0.1866  0.4093
  683TMC3    C510155   2.392   3.365  11.244 -0.0689  0.7938 -1.0214
  683TMC3    C610156   2.296   3.272  11.252  0.1842 -0.3499  0.1015
  683TMC3     C10157   2.453   3.461  11.592  0.0741 -0.4184 -0.1649
  683TMC3     O10158   2.516   3.562  11.576  0.2012  0.7201 -0.1352
  683TMC3     H10159   2.251   3.273  11.583 -1.2828  0.1735 -0.3020
  683TMC3    H110160   2.537   3.483  11.354  0.7251 -0.2159  1.3050
  683TMC3    H210161   2.246   3.232  11.165 -0.8589 -1.8231  1.3943
  683TMC3    C710162   2.445   3.368  11.108 -0.3724 -0.2267 -0.0640
  683TMC3    C810163   2.183   3.110  11.393  0.4696 -0.2851  0.1139
  683TMC3    O110164   2.451   3.259  11.053  0.2054  0.3068 -0.5011
  683TMC3    O210165   2.109   3.076  11.296  0.0077  0.4015 -0.4823
  684MPD2     C10166   1.049   2.883  16.709  0.0770  0.5354  0.1089
  684MPD2    C110167   1.011   2.952  16.598  0.2673 -0.3839  0.7168
  684MPD2    C210168   1.025   3.086  16.605  0.0194 -0.6564  0.5112
  684MPD2    C310169   1.085   3.161  16.709  0.1442 -0.2696 -1.3224
  684MPD2    C410170   1.134   3.096  16.812 -0.5256 -0.4423 -0.8462
  684MPD2    C510171   1.102   2.960  16.817  0.2556  0.5769 -0.3788
  684MPD2     H10172   1.003   3.135  16.511  1.5055 -1.0486 -0.0357
  684MPD2    H110173   1.191   3.135  16.896  0.4168 -0.4434 -1.4790
  684MPD2    H210174   1.042   2.776  16.717  0.8021  0.4188 -0.8364
  684MPD2    H310175   1.136   2.909  16.906  0.3502  0.3515 -0.5421
  684MPD2     N10176   1.114   3.297  16.692 -0.0838 -0.0861  0.4781
  684MPD2    H510177   1.179   3.343  16.755  1.3058  0.5087 -1.3830
  684MPD2    N110178   0.961   2.908  16.476  0.1356  0.6929  0.7339
  684MPD2    H710179   0.940   2.983  16.411  0.2958 -0.0051 -0.1151
  685TMC3    C110180   0.928   2.779  16.296  0.2185  0.1258 -0.0936
  685TMC3    C210181   0.873   2.891  16.243  0.2182 -1.0441  0.2215
  685TMC3    C310182   0.915   2.932  16.120  0.1616 -0.3450  0.2764
  685TMC3    C410183   1.022   2.701  16.237 -0.2377 -0.2243  0.3287
  685TMC3    C510184   1.054   2.734  16.108 -0.6537  0.1043 -0.0896
  685TMC3    C610185   1.012   2.853  16.051 -0.2309 -0.1406  0.5364
  685TMC3     C10186   0.955   2.780  16.433  0.8548 -0.0029  0.1614
  685TMC3     O10187   0.968   2.673  16.490  0.1507 -0.1149 -0.0621
  685TMC3     H10188   0.787   2.944  16.283 -0.7832 -1.5886 -1.1985
  685TMC3    H110189   1.075   2.622  16.289  0.0772 -0.6870 -0.6777
  685TMC3    H210190   1.036   2.878  15.948  0.1016 -1.1521  0.3583
  685TMC3    C710191   1.188   2.687  16.078 -0.1943 -0.2949  0.1233
  685TMC3    C810192   0.817   2.995  16.040 -0.2254  0.2037 -0.0200
  685TMC3    O110193   1.222   2.572  16.112  0.0839 -0.6624 -0.4433
  685TMC3    O210194   0.810   2.952  15.929 -0.1536  0.1173 -0.1362
  686MPD2     C10195   2.502   3.661  15.686 -0.5026  0.5631 -0.9367
  686MPD2    C110196   2.509   3.563  15.783 -0.1796 -0.2415  0.7073
  686MPD2    C210197   2.634   3.510  15.802 -0.2043 -0.2056  0.4692
  686MPD2    C310198   2.745   3.550  15.734 -0.3500  0.2308 -0.5332
  686MPD2    C410199   2.733   3.659  15.649 -0.4754  0.0261  0.1683
  686MPD2    C510200   2.610   3.716  15.632 -0.5072  0.5936 -0.2411
  686MPD2     H10201   2.643   3.436  15.881 -0.2775 -1.1945 -0.4440
  686MPD2    H110202   2.819   3.700  15.597  0.5940  0.6788  2.4540
  686MPD2    H210203   2.405   3.694  15.652 -0.7813 -0.3180 -1.0030
  686MPD2    H310204   2.605   3.792  15.554  0.2359  1.4955  0.5957
  686MPD2     N10205   2.865   3.474  15.743 -0.0638 -0.3970  0.8205
  686MPD2    H510206   2.870   3.394  15.806  0.1958 -3.4025 -3.0246
  686MPD2    N110207   2.395   3.489  15.837  0.0840  0.3323 -0.1868
  686MPD2    H710208   2.418   3.419  15.906  1.0838 -0.4001 -1.2714
  687TMC3    C110209   3.004   3.347  15.647  0.3018 -0.1431  0.1868
  687TMC3    C210210   2.910   3.266  15.597  0.5093  0.1789 -0.0310
  687TMC3    C310211   2.882   3.150  15.657 -0.0921 -0.1091 -0.5685
  687TMC3    C410212   3.085   3.307  15.752 -1.2000 -0.1419  0.6954
  687TMC3    C510213   3.062   3.182  15.803 -0.6499 -0.1620  0.1166
  687TMC3    C610214   2.953   3.101  15.767 -0.5019 -0.0618  0.2598
  687TMC3     C10215   2.962   3.480  15.647 -0.1144  0.3632  0.3581
  687TMC3     O10216   2.993   3.544  15.550  0.7910 -0.1848 -0.2930
  687TMC3     H10217   2.853   3.305  15.514  0.6680  2.7556  1.0665
  687TMC3    H110218   3.146   3.369  15.816 -0.1941 -2.2426  1.7755
  687TMC3    H210219   2.932   3.001  15.802  0.2003 -0.6104 -0.8426
  687TMC3    C710220   3.151   3.130  15.906 -0.5841  0.6746  0.2266
  687TMC3    C810221   2.741   3.104  15.668 -0.4895 -0.8459  0.5098
  687TMC3    O110222   3.103   3.037  15.967 -0.6178  0.4025 -0.2068
  687TMC3    O210223   2.722   2.987  15.698  0.1023 -0.6141  0.1623
  688MPD2     C10224   1.781   2.338  17.477 -0.2317  0.2535  0.2398
  688MPD2    C110225   1.808   2.207  17.504  0.4485  0.0805  0.1056
  688MPD2    C210226   1.919   2.149  17.441 -0.1354 -0.3398 -0.1365
  688MPD2    C310227   2.004   2.226  17.362  0.4193  0.1641 -0.2150
  688MPD2    C410228   1.981   2.361  17.338  0.2842  0.0574  0.5123
  688MPD2    C510229   1.866   2.413  17.395  0.5507  0.0267  0.5091
  688MPD2     H10230   1.935   2.043  17.460  0.4843 -0.2415 -0.0900
  688MPD2    H110231   2.048   2.420  17.278  0.8624  0.6140  1.7046
  688MPD2    H210232   1.692   2.385  17.517 -0.9342 -0.4984 -0.4677
  688MPD2    H310233   1.829   2.515  17.386  1.5566  0.4230  0.8337
  688MPD2     N10234   2.106   2.169  17.292 -0.5409  0.4567 -0.3816
  688MPD2    H510235   2.157   2.242  17.242 -1.4354  0.1133 -1.8222
  688MPD2    N110236   1.732   2.134  17.598  0.2227  0.2508 -0.6711
  688MPD2    H710237   1.748   2.035  17.617 -0.0893  0.0147 -1.6380
  689TMC3    C110238   1.581   2.103   0.036 -0.0989 -0.7327  0.7062
  689TMC3    C210239   1.535   2.137   0.162  0.6826 -0.0362 -0.2470
  689TMC3    C310240   1.430   2.071   0.215 -0.5718 -0.7046 -0.0881
  689TMC3    C410241   1.536   1.991  17.715  0.1023  0.8067  0.2112
  689TMC3    C510242   1.432   1.915   0.040 -0.8710 -0.2756  0.1839
  689TMC3    C610243   1.377   1.954   0.161  0.0529 -0.6391 -0.1285
  689TMC3     C10244   1.650   2.198  17.691 -0.4390 -0.0030 -0.2100
  689TMC3     O10245   1.640   2.317  17.722 -0.0318 -0.1120  0.0695
  689TMC3     H10246   1.572   2.230   0.202 -0.0602 -0.0145  0.3824
  689TMC3    H110247   1.586   1.958  17.625 -0.7043 -0.7327  0.3232
  689TMC3    H210248   1.300   1.896   0.209  0.2603 -0.9009 -0.1159
  689TMC3    C710249   1.422   1.775  17.731 -0.4521 -0.3344 -0.5361
  689TMC3    C810250   1.379   2.123   0.346 -0.3170  0.1019  0.0682
  689TMC3    O110251   1.472   1.748  17.624  0.1506 -0.5576  0.1209
  689TMC3    O210252   1.452   2.191   0.415  0.3193 -0.0504 -0.5564
  690MPD2     C10253   4.176   4.003  15.934  0.2837 -0.1107  0.8268
  690MPD2    C110254   4.176   3.978  15.803  0.1205 -0.8221  0.3743
  690MPD2    C210255   4.285   4.008  15.729 -0.1299 -0.1694  0.1224
  690MPD2    C310256   4.402   4.049  15.788  0.0417  0.6681  0.6339
  690MPD2    C410257   4.415   4.057  15.926  0.1321 -0.3271 -0.2474
  690MPD2    C510258   4.300   4.030  15.999  0.1684  0.1464 -0.4860
  690MPD2     H10259   4.286   4.003  15.621  3.4166 -2.1284  0.2576
  690MPD2    H110260   4.512   4.079  15.969  0.9063 -2.4988 -0.8759
  690MPD2    H210261   4.088   3.991  15.995  0.3240 -0.0354  0.8996
  690MPD2    H310262   4.305   4.035  16.107  0.1310  3.7711 -0.6587
  690MPD2     N10263   4.513   4.075  15.704  0.3677 -0.1961  0.1572
  690MPD2    H510264   4.504   4.110  15.609  0.0849 -0.5575  0.0509
  690MPD2    N110265   4.066   3.929  15.731  0.1101 -0.8010 -0.3976
  690MPD2    H710266   4.085   3.895  15.637 -1.3560 -0.8320 -0.6975
  691TMC3    C110267   3.850   3.848  15.687 -0.8425  0.2669  0.2468
  691TMC3    C210268   3.713   3.871  15.681 -0.1181  0.0080 -0.3835
  691TMC3    C310269   3.630   3.764  15.657 -0.3883  0.5595 -0.1041
  691TMC3    C410270   3.898   3.717  15.671  0.6742  0.4002 -0.3307
  691TMC3    C510271   3.807   3.613  15.661  0.1259  0.0415 -0.4740
  691TMC3    C610272   3.673   3.635  15.654 -0.3555  0.1554  0.2050
  691TMC3     C10273   3.932   3.932  15.771  0.4132 -0.1461  0.0869
  691TMC3     O10274   3.874   3.963  15.874  0.5517 -0.1081  0.5161
  691TMC3     H10275   3.676   3.973  15.674  0.8398  0.2293 -2.4416
  691TMC3    H110276   4.002   3.695  15.694  0.4423  1.9541  2.3217
  691TMC3    H210277   3.604   3.553  15.638  0.1203 -0.4098  1.0920
  691TMC3    C710278   3.861   3.476  15.680  0.5132 -0.3294  0.4991
  691TMC3    C810279   3.485   3.777  15.659 -0.3010  0.1635 -1.1137
  691TMC3    O110280   3.978   3.471  15.695  0.5929  0.2600  0.3433
  691TMC3    O210281   3.422   3.684  15.611  0.0754 -0.2332  0.0265
  692TMC3    C110282   0.814   4.560  16.010  0.2968  0.1482 -0.0775
  692TMC3    C210283   0.915   4.584  16.100  0.7984 -0.0503 -0.3857
  692TMC3    C310284   1.005   4.491  16.139  0.8232  0.0857  0.6173
  692TMC3    C410285   0.817   4.449  15.931  0.5990  0.6314 -0.0415
  692TMC3    C510286   0.924   4.362  15.954  0.0799 -0.5910  0.4942
  692TMC3    C610287   1.015   4.381  16.056  0.2398 -0.3690 -0.0568
  692TMC3     C10288   0.680   4.618  16.045 -0.3714 -0.2404 -0.2440
  692TMC3     O10289   0.661   4.649  16.160 -0.5055  0.2629 -0.0678
  692TMC3     H10290   0.910   4.673  16.161 -0.0238 -0.3613 -0.0025
  692TMC3    H110291   0.738   4.407  15.870  1.0357 -0.5462  0.1942
  692TMC3    H210292   1.108   4.327  16.063  0.1908 -0.3306  0.8377
  692TMC3    C710293   0.893   4.226  15.922  0.8964 -0.2468 -0.5006
  692TMC3    C810294   0.965   4.431  16.269  0.1862 -0.0081  0.8107
  692TMC3    O110295   0.845   4.202  15.812 -0.3832  0.0372  0.1398
  692TMC3    O210296   0.966   4.310  16.258 -0.6909  0.1937  0.0817
  693MPD2     C10297   0.098   2.834  10.930  0.3140  0.2727  0.4268
  693MPD2    C110298   0.080   2.738  11.029 -0.3710 -0.6439 -0.1272
  693MPD2    C210299   0.189   2.696  11.105 -0.1950 -0.4558 -0.3299
  693MPD2    C310300   0.310   2.760  11.088 -0.3175 -0.0477 -0.4915
  693MPD2    C410301   0.334   2.850  10.994  0.0870 -0.2206  0.1021
  693MPD2    C510302   0.226   2.883  10.908  0.1425  0.0495 -0.1999
  693MPD2     H10303   0.158   2.636  11.190 -0.7143 -0.4709 -0.5299
  693MPD2    H110304   0.433   2.895  10.984 -0.4613  0.8237 -0.6881
  693MPD2    H210305   0.014   2.877  10.876  1.3303  2.5627  0.6496
  693MPD2    H310306   0.241   2.960  10.834  1.3500 -1.0083 -1.0564
  693MPD2     N10307   0.431   2.722  11.159  0.6865  0.0503 -0.0664
  693MPD2    H510308   0.522   2.753  11.126  1.3967 -0.8033  1.1105
  693MPD2    N110309   4.680   2.688  11.039 -0.6608  0.1825 -0.4078
  693MPD2    H710310   4.604   2.735  10.990  0.3396  0.1924 -1.9770
  694TMC3    C110311   4.511   2.527  11.087 -0.3907  0.3502 -0.5151
  694TMC3    C210312   4.431   2.572  10.982 -0.2113  0.6169  0.3202
  694TMC3    C310313   4.309   2.518  10.959 -0.7528 -0.5206  0.2464
  694TMC3    C410314   4.473   2.430  11.172 -0.4750 -0.5054  0.5171
  694TMC3    C510315   4.354   2.368  11.140 -0.4536 -0.2147 -0.2281
  694TMC3    C610316   4.273   2.414  11.043 -0.0517 -0.9445 -0.4958
  694TMC3     C10317   4.643   2.580  11.116 -0.6948 -0.0646  0.7303
  694TMC3     O10318   4.710   2.510  11.186 -0.8739  0.4549  0.3772
  694TMC3     H10319   4.462   2.649  10.912 -2.9409  0.5434 -0.9716
  694TMC3    H110320   4.537   2.394  11.251  1.6079 -2.2246 -1.9733
  694TMC3    H210321   4.171   2.377  11.038 -0.0664 -0.8252 -1.0557
  694TMC3    C710322   4.293   2.278  11.241 -0.0530  0.0767  0.2206
  694TMC3    C810323   4.266   2.522  10.824  0.2054  0.3025 -0.2379
  694TMC3    O110324   4.176   2.250  11.221  0.1778  0.1224 -0.0250
  694TMC3    O210325   4.323   2.603  10.756  0.2767  0.0099  0.2059
  695MPD2     C10326   1.069   0.143  13.764 -0.2144  0.6710  0.1618
  695MPD2    C110327   1.025   0.082  13.881  0.6728 -0.3827 -0.2359
  695MPD2    C210328   0.891   0.087  13.914 -0.7709  0.5861  0.1315
  695MPD2    C310329   0.796   0.153  13.838 -0.2810  0.3307  0.1490
  695MPD2    C410330   0.839   0.216  13.723 -0.1738 -0.2972 -0.2718
  695MPD2    C510331   0.977   0.210  13.693  0.3800  0.6254  0.0004
  695MPD2     H10332   0.864   0.037  14.006 -0.1378 -0.2526 -0.1433
  695MPD2    H110333   0.774   0.259  13.647  2.6140  3.4913 -0.5085
  695MPD2    H210334   1.171   0.142  13.729 -0.3430 -1.5941 -0.1047
  695MPD2    H310335   1.001   0.265  13.603  4.8517  0.3972  1.0735
  695MPD2     N10336   0.658   0.147  13.875 -0.3636  0.0975  0.3814
  695MPD2    H510337   0.644   0.100  13.964  2.0476 -0.8201  0.2640
  695MPD2    N110338   1.111   0.005  13.968  0.0868  0.1894 -0.5077
  695MPD2    H710339   1.064   4.700  14.049  0.4985 -1.7236 -1.2367
  696TMC3    C110340   0.423   0.190  13.873 -0.3378  0.5313  0.7649
  696TMC3    C210341   0.416   0.119  13.981 -0.3593 -0.2462 -0.2384
  696TMC3    C310342   0.298   0.096  14.050  0.2987  0.0986 -0.4295
  696TMC3    C410343   0.307   0.252  13.827 -0.0607 -0.0506 -0.0139
  696TMC3    C510344   0.196   0.240  13.905 -0.0018  0.0245 -0.8618
  696TMC3    C610345   0.181   0.151  14.009  0.8073 -0.7277  0.2583
  696TMC3     C10346   0.553   0.195  13.802  0.1954 -0.3897  0.6647
  696TMC3     O10347   0.552   0.266  13.704  0.0892 -0.2606  0.4766
  696TMC3     H10348   0.502   0.073  14.029  0.6156  1.4089 -0.4153
  696TMC3    H110349   0.316   0.333  13.756 -2.6765  1.0743  0.9451
  696TMC3    H210350   0.088   0.149  14.064  1.7479  0.7863  1.9145
  696TMC3    C710351   0.133   0.367  13.936  0.2583 -0.0375 -0.2475
  696TMC3    C810352   0.289   0.048  14.187  0.0498 -1.0007 -0.5162
  696TMC3    O110353   0.115   0.448  13.843 -0.6160  0.0332  0.3887
  696TMC3    O210354   0.172   0.034  14.227  0.4651 -0.4532 -0.3971
  697MPD2     C10355   0.078   1.642  15.733 -0.9735  0.6579  0.2723
  697MPD2    C110356   0.121   1.628  15.601  0.4960  0.0641 -0.3256
  697MPD2    C210357   0.165   1.743  15.532 -0.0990 -0.7211  0.1663
  697MPD2    C310358   0.153   1.863  15.587 -0.9518  0.1373 -0.1926
  697MPD2    C410359   0.111   1.878  15.719 -0.1297  0.3708  0.4676
  697MPD2    C510360   0.071   1.766  15.791 -0.6778  0.2943  0.3819
  697MPD2     H10361   0.192   1.736  15.428 -0.1777  1.0845  0.0338
  697MPD2    H110362   0.098   1.976  15.763 -0.3761  1.3458 -1.7896
  697MPD2    H210363   0.037   1.559  15.789  0.8730 -1.0393 -0.8712
  697MPD2    H310364   0.028   1.799  15.885  0.3833  0.4261  0.8228
  697MPD2     N10365   0.194   1.977  15.513 -0.4056  0.7109 -0.1164
  697MPD2    H510366   0.207   1.964  15.413  2.2745  2.0709  0.0291
  697MPD2    N110367   0.127   1.498  15.553  0.6002 -0.0707  0.1839
  697MPD2    H710368   0.084   1.426  15.609  1.5933  0.8102  2.0827
  698TMC3    C110369   0.220   2.209  15.444  0.1546  0.1442  0.1303
  698TMC3    C210370   0.263   2.338  15.472  0.1375 -0.8543 -0.2438
  698TMC3    C310371   0.330   2.410  15.378 -0.2777  0.2271 -0.2568
  698TMC3    C410372   0.243   2.155  15.320  0.1432 -0.7587  0.7195
  698TMC3    C510373   0.302   2.234  15.220 -0.5199 -0.2085 -0.2397
  698TMC3    C610374   0.347   2.359  15.249 -0.8582 -0.0133  0.4597
  698TMC3     C10375   0.207   2.111  15.554  0.8408  0.1072  0.8398
  698TMC3     O10376   0.209   2.145  15.670  0.0357  0.2784  0.1464
  698TMC3     H10377   0.256   2.372  15.575  0.3876  0.3617 -0.6245
  698TMC3    H110378   0.188   2.070  15.279  1.4603 -1.3048  0.0844
  698TMC3    H210379   0.403   2.422  15.180  0.7905 -2.4337 -0.3818
  698TMC3    C710380   0.297   2.191  15.087  0.2604  0.1090  0.1937
  698TMC3    C810381   0.429   2.504  15.438  0.6898 -0.1802  0.0649
  698TMC3    O110382   0.211   2.111  15.054  0.4293  0.5740 -0.0030
  698TMC3    O210383   0.421   2.521  15.560  0.6338 -0.3106 -0.1773
  699TMC3    C110384   0.813   4.404  13.474  0.4486 -0.1519  0.5205
  699TMC3    C210385   0.819   4.278  13.524 -0.2259  0.8508  0.2343
  699TMC3    C310386   0.794   4.269  13.655  0.1512  0.3395  0.4055
  699TMC3    C410387   0.783   4.512  13.546  0.0474 -0.4979 -0.1760
  699TMC3    C510388   0.749   4.502  13.684 -0.1319  0.0929  0.4676
  699TMC3    C610389   0.753   4.374  13.736  0.4636 -0.1348  0.1931
  699TMC3     C10390   0.785   4.408  13.337 -0.4434  0.6106 -0.3221
  699TMC3     O10391   0.708   4.497  13.302 -0.0403 -0.2852 -0.0916
  699TMC3     H10392   0.838   4.187  13.467  1.2439 -0.6795  3.1670
  699TMC3    H110393   0.775   4.606  13.492  0.1407 -0.5013 -0.1955
  699TMC3    H210394   0.708   4.339  13.828 -1.5125  0.4775 -0.5382
  699TMC3    C710395   0.627   4.562  13.713 -0.3788  0.1343  0.4449
  699TMC3    C810396   0.749   4.134  13.688 -0.3586 -0.0139  0.4221
  699TMC3    O110397   0.578   4.551  13.825  0.2568  0.5625 -0.1336
  699TMC3    O210398   0.670   4.082  13.607 -0.7518 -0.0147 -0.0459
  700TMC3    C110399   4.486   2.317  17.285  1.0291  0.0172  0.0742
  700TMC3    C210400   4.576   2.222  17.257  0.1132  0.3949 -0.3035
  700TMC3    C310401   4.692   2.214  17.331 -0.2529  0.2579  0.4983
  700TMC3    C410402   4.503   2.401  17.380  0.2765 -0.1208 -0.0250
  700TMC3    C510403   4.618   2.397  17.448 -0.3675  0.0342  0.5763
  700TMC3    C610404   4.717   2.300  17.431  0.1745 -1.2475 -0.4016
  700TMC3     C10405   4.429   2.362  17.159 -0.0214 -0.4044  0.7203
  700TMC3     O10406   4.378   2.278  17.086 -0.8116 -0.2111  0.1728
  700TMC3     H10407   4.558   2.147  17.182  1.6227  0.7556 -1.0287
  700TMC3    H110408   4.434   2.483  17.397 -1.7613 -1.6971 -0.5956
  700TMC3    H210409   0.073   2.301  17.489  0.3819  0.9190 -0.7532
  700TMC3    C710410   4.643   2.497  17.544  0.7728  0.6619 -0.8042
  700TMC3    C810411   0.072   2.137  17.279  0.1100  0.2249 -0.0784
  700TMC3    O110412   0.024   2.532  17.564  0.0776 -0.2741  0.0931
  700TMC3    O210413   0.059   2.111  17.156  0.0807  0.2397 -0.1104
  701TMC3    C110414   4.368   1.020  15.859  0.2993 -0.0019 -0.7838
  701TMC3    C210415   4.316   0.989  15.734 -0.4618 -0.3389  0.4115
  701TMC3    C310416   4.320   1.080  15.635  0.3475  0.3767 -0.1016
  701TMC3    C410417   4.435   1.134  15.880  0.2191  0.7199  0.0764
  701TMC3    C510418   4.455   1.211  15.774  0.0077  0.1528 -0.8970
  701TMC3    C610419   4.394   1.193  15.652 -0.4635  0.4369 -0.3903
  701TMC3     C10420   4.340   0.938  15.980 -0.4107  0.4905 -0.0027
  701TMC3     O10421   4.403   0.962  16.083 -0.3538  0.5707  1.0925
  701TMC3     H10422   4.282   0.886  15.726  0.5174 -0.3987 -3.0383
  701TMC3    H110423   4.480   1.150  15.978  2.2733 -1.4394 -0.5355
  701TMC3    H210424   4.395   1.270  15.576 -0.7801  0.8522  0.0303
  701TMC3    C710425   4.526   1.338  15.795  0.6126 -0.5372  0.4854
  701TMC3    C810426   4.252   1.039  15.509 -0.1332 -0.8948  0.0146
  701TMC3    O110427   4.504   1.432  15.726  0.3998 -0.2576  0.3236
  701TMC3    O210428   4.165   0.955  15.518  0.1209  0.2627  0.0545
  702MPD2     C10429   3.795   2.977  10.974 -0.0336  0.3025 -0.2996
  702MPD2    C110430   3.735   3.097  10.940  0.2792  0.5053 -1.0139
  702MPD2    C210431   3.813   3.188  10.868 -0.5127 -0.0866 -0.1852
  702MPD2    C310432   3.944   3.160  10.836  0.4105  0.1264  0.4189
  702MPD2    C410433   4.000   3.039  10.874 -0.0413 -0.2280  0.0086
  702MPD2    C510434   3.927   2.949  10.948  0.2935 -0.0649  0.7031
  702MPD2     H10435   3.761   3.278  10.835 -0.1412 -0.4249 -1.6911
  702MPD2    H110436   4.092   2.992  10.840  0.1046 -1.0456  1.5012
  702MPD2    H210437   3.744   2.896  11.024  1.8749 -0.1583  0.9187
  702MPD2    H310438   3.967   2.851  10.969  0.6040  0.1667  1.2002
  702MPD2     N10439   4.013   3.240  10.746 -0.0856  0.1149 -0.0125
  702MPD2    H510440   4.086   3.194  10.691  0.5391  1.3803 -0.2453
  702MPD2    N110441   3.602   3.121  10.977 -0.4289  0.0626  0.4135
  702MPD2    H710442   3.570   3.216  10.960 -0.4255 -0.0944 -0.4845
  703TMC3    C110443   4.009   3.410  10.584 -0.0085  0.3920 -0.3097
  703TMC3    C210444   3.945   3.319  10.506 -0.2939  0.6844 -0.5351
  703TMC3    C310445   3.835   3.359  10.438  0.3033  0.3346  0.6692
  703TMC3    C410446   3.992   3.550  10.563  0.4724  0.6755  0.1870
  703TMC3    C510447   3.894   3.581  10.467  0.2925  0.0525 -0.3543
  703TMC3    C610448   3.808   3.489  10.405  0.5954 -0.1396 -0.0432
  703TMC3     C10449   3.985   3.375  10.719 -0.7698 -0.4726  0.3783
  703TMC3     O10450   3.907   3.450  10.775 -0.3174 -0.4330 -0.1322
  703TMC3     H10451   3.952   3.214  10.530 -1.1752  0.4991 -1.0871
  703TMC3    H110452   4.038   3.630  10.619  0.3654  1.3473 -0.6857
  703TMC3    H210453   3.730   3.514  10.334  1.4789  0.6355 -0.7410
  703TMC3    C710454   3.894   3.717  10.425  1.1095 -0.4955 -0.2654
  703TMC3    C810455   3.726   3.265  10.455 -0.0773  0.2816 -0.1280
  703TMC3    O110456   4.000   3.775  10.439 -0.2409  0.7736 -0.3793
  703TMC3    O210457   3.758   3.147  10.441 -0.0262 -0.0797 -0.0235
  704TMC3    C110458   1.140   1.559  12.875  0.5973 -0.2161 -0.0132
  704TMC3    C210459   1.216   1.557  12.758 -0.2375  0.3678  0.0772
  704TMC3    C310460   1.348   1.508  12.777 -0.2223 -0.2297 -0.0605
  704TMC3    C410461   1.189   1.530  12.997 -0.0650 -0.0434 -0.1567
  704TMC3    C510462   1.319   1.497  13.003 -0.3160 -0.4360 -0.1580
  704TMC3    C610463   1.402   1.488  12.898 -0.5905  0.4032  0.7607
  704TMC3     C10464   0.995   1.550  12.868 -0.1526  0.0579 -1.4614
  704TMC3     O10465   0.925   1.577  12.961  0.0596 -0.7415  0.0516
  704TMC3     H10466   1.184   1.595  12.662 -2.4056  0.8373  0.9904
  704TMC3    H110467   1.122   1.517  13.082  2.1475 -0.5520  1.5003
  704TMC3    H210468   1.499   1.443  12.884 -1.1133 -0.6874  0.6499
  704TMC3    C710469   1.352   1.425  13.123  0.7637  0.0450  0.2903
  704TMC3    C810470   1.432   1.517  12.662  0.1871  0.1543 -0.7118
  704TMC3    O110471   1.325   1.465  13.235  0.1419  0.2878  0.1542
  704TMC3    O210472   1.376   1.512  12.555 -0.0265 -0.1760 -0.1148
  705MPD2     C10473   0.948   4.347  17.201  0.2992 -0.2833  0.6768
  705MPD2    C110474   0.925   4.460  17.118  0.2025 -0.3399  0.2210
  705MPD2    C210475   0.822   4.542  17.143  0.3243 -0.6567 -0.1485
  705MPD2    C310476   0.745   4.525  17.258 -0.0900 -0.4698 -1.5340
  705MPD2    C410477   0.766   4.411  17.340  0.2400 -0.6736  0.0032
  705MPD2    C510478   0.856   4.315  17.302  0.2400 -0.9650  0.0313
  705MPD2     H10479   0.798   4.613  17.064  0.5094  0.1541  0.5191
  705MPD2    H110480   0.706   4.386  17.427 -0.1730  1.3199  0.3024
  705MPD2    H210481   1.033   4.282  17.185  0.0479 -0.6492  0.8158
  705MPD2    H310482   0.872   4.237  17.374 -0.1940  1.5436  2.8519
  705MPD2     N10483   0.639   4.608  17.294  0.5218 -0.5705 -0.0207
  705MPD2    H510484   0.578   4.589  17.372  0.4315  0.4398  0.1597
  705MPD2    N110485   1.000   4.493  17.005  0.5151  0.3462 -0.0882
  705MPD2    H710486   0.968   4.571  16.949  0.8030  1.0768  0.7479
  706TMC3    C110487   1.241   4.465  16.627  0.3030  0.3445 -0.6114
  706TMC3    C210488   1.215   4.595  16.594  0.2323 -0.5366  0.4885
  706TMC3    C310489   1.145   4.665  16.691 -0.8909  0.0116 -0.4260
  706TMC3    C410490   1.201   4.405  16.746 -0.1367 -0.2131 -0.1215
  706TMC3    C510491   1.152   4.489  16.840  0.0729 -0.1237  0.2927
  706TMC3    C610492   1.117   4.619  16.815  0.5724  0.2241  0.6091
  706TMC3     C10493   1.275   4.368  16.526 -0.2376  1.0710 -0.3102
  706TMC3     O10494   1.235   4.254  16.539 -0.4319 -1.3893  0.5790
  706TMC3     H10495   1.239   4.636  16.496 -1.3681  1.5129  0.9488
  706TMC3    H110496   1.221   4.301  16.768  0.5045 -0.1123 -0.2188
  706TMC3    H210497   1.075   4.688  16.886  0.1879 -1.0892  1.6677
  706TMC3    C710498   1.100   4.419  16.958  0.1757 -0.0957 -0.6142
  706TMC3    C810499   1.114   0.072  16.651  0.1073 -0.4515 -0.4730
  706TMC3    O110500   1.150   4.316  16.996  0.0157  0.1081  0.1107
  706TMC3    O210501   1.142   0.110  16.539 -0.0538  0.5137  0.4879
  707TMC3    C110502   3.174   4.095   2.099 -0.1362 -0.1871 -0.0110
  707TMC3    C210503   3.115   4.028   2.001  0.4037  0.1620  0.1044
  707TMC3    C310504   2.985   3.990   2.018  0.1482 -0.4162  0.4080
  707TMC3    C410505   3.111   4.139   2.211  0.0892  1.1547 -0.2939
  707TMC3    C510506   2.975   4.111   2.220 -0.0055 -0.3338  0.0601
  707TMC3    C610507   2.907   4.035   2.124  0.0661 -0.3319 -0.4807
  707TMC3     C10508   3.317   4.059   2.098 -0.3691  0.5873 -0.5995
  707TMC3     O10509   3.330   3.943   2.063 -0.5019 -0.8391 -0.0097
  707TMC3     H10510   3.180   4.001   1.919 -1.3693  1.0152 -1.5874
  707TMC3    H110511   3.173   4.186   2.286  0.4596  0.0650  0.0829
  707TMC3    H210512   2.800   4.017   2.132 -0.2382  1.3334 -0.7048
  707TMC3    C710513   2.913   4.167   2.340 -0.3860  0.7503  0.1056
  707TMC3    C810514   2.929   3.904   1.916 -0.0808 -1.1855  0.0148
  707TMC3    O110515   2.981   4.245   2.411  0.5387 -0.0732  0.1359
  707TMC3    O210516   2.815   3.923   1.881 -0.6526 -0.1735 -0.2962
  708MPD2     C10517   3.606   3.236  14.093  0.3140  0.4064  0.4636
  708MPD2    C110518   3.637   3.139  14.187 -0.5771  0.4966 -0.3689
  708MPD2    C210519   3.759   3.084  14.208 -0.4458  0.0901 -0.7890
  708MPD2    C310520   3.863   3.129  14.132  0.0865 -0.1571 -0.3709
  708MPD2    C410521   3.844   3.235  14.052 -0.2546  0.2092 -0.5982
  708MPD2    C510522   3.721   3.292  14.042  0.7388  0.6022  0.4953
  708MPD2     H10523   3.777   3.008  14.284  3.0959  0.8827 -0.8249
  708MPD2    H110524   3.918   3.270  13.980  0.7563  0.7778  0.7303
  708MPD2    H210525   3.512   3.290  14.092  0.0496 -0.0927 -1.9084
  708MPD2    H310526   3.701   3.362  13.961  1.9428  0.4717  0.0816
  708MPD2     N10527   4.001   3.087  14.143  0.2190  0.0486  0.1310
  708MPD2    H510528   4.065   3.123  14.073 -1.2405 -0.4703 -1.4798
  708MPD2    N110529   3.530   3.096  14.272 -0.1930 -0.5608  0.4806
  708MPD2    H710530   3.557   3.041  14.353 -3.2252  0.4506  2.1801
  709TMC3    C110531   3.337   3.003  14.333 -0.1627  0.3571 -0.1852
  709TMC3    C210532   3.290   2.902  14.264  0.4097  0.6009  0.0269
  709TMC3    C310533   3.311   2.783  14.324 -0.3001  0.1863  0.6381
  709TMC3    C410534   3.410   2.990  14.449 -0.3930 -0.0810 -0.2090
  709TMC3    C510535   3.437   2.868  14.508 -0.0369  0.2268 -0.3442
  709TMC3    C610536   3.388   2.760  14.440  0.0958  0.6445  0.6541
  709TMC3     C10537   3.396   3.098  14.243  0.1141  0.2650 -0.1236
  709TMC3     O10538   3.336   3.140  14.146  0.0496 -0.0372  0.3668
  709TMC3     H10539   3.246   2.915  14.166  2.8607 -1.0751 -1.2733
  709TMC3    H110540   3.449   3.081  14.493 -0.5102  0.6100 -1.5555
  709TMC3    H210541   3.401   2.660  14.482  0.5920 -0.0593 -1.1756
  709TMC3    C710542   3.576   2.866  14.541 -0.6805  0.2443 -0.8240
  709TMC3    C810543   3.261   2.664  14.256  0.6212  0.5150 -0.4376
  709TMC3    O110544   3.646   2.960  14.502 -0.2490 -0.2869 -0.1303
  709TMC3    O210545   3.223   2.573  14.325 -0.5957 -0.6243  0.0838
  710TMC3    C110546   0.756   4.364   0.204 -0.5787 -0.8204 -0.4629
  710TMC3    C210547   0.831   4.325   0.097 -0.0467  0.5077  0.4855
  710TMC3    C310548   0.918   4.221   0.117 -0.0391  0.1427 -0.3673
  710TMC3    C410549   0.750   4.301   0.321  0.3126 -0.2737 -0.5501
  710TMC3    C510550   0.838   4.202   0.333  0.4826  0.1253  0.1611
  710TMC3    C610551   0.921   4.155   0.234  0.0512 -0.4461 -0.5976
  710TMC3     C10552   0.656   4.474   0.187  1.0231  0.5693 -0.2422
  710TMC3     O10553   0.601   4.481   0.082 -0.3636 -0.3553 -0.0279
  710TMC3     H10554   0.833   4.385   0.007  1.3817 -0.2350  0.0207
  710TMC3    H110555   0.684   4.329   0.403  1.8028  1.6754  0.0026
  710TMC3    H210556   0.988   4.071   0.247 -0.2034 -0.7350 -1.1585
  710TMC3    C710557   0.873   4.180   0.477  0.1620  0.8103 -0.6701
  710TMC3    C810558   1.025   4.195   0.024  0.0942  0.3326 -0.1675
  710TMC3    O110559   0.841   4.271   0.554 -0.0217 -0.0769  0.7207
  710TMC3    O210560   1.024   4.235  17.646  0.3461 -0.4086  0.1791
  711TMC3    C110561   0.171   0.580  15.229  0.4135 -0.0804  0.2836
  711TMC3    C210562   0.133   0.648  15.343  0.4668 -0.4230 -0.2350
  711TMC3    C310563   0.235   0.688  15.424  0.6956  0.0015  0.1724
  711TMC3    C410564   0.295   0.541  15.197 -0.0302 -0.1824 -0.5367
  711TMC3    C510565   0.396   0.583  15.283 -0.3293  0.8749 -0.2807
  711TMC3    C610566   0.365   0.667  15.394  0.1525 -0.1004 -0.0951
  711TMC3     C10567   0.068   0.526  15.146 -0.4238  0.2790 -0.1458
  711TMC3     O10568   0.094   0.418  15.094  0.2485  0.7040  0.2973
  711TMC3     H10569   0.033   0.682  15.366  0.5484 -0.4755  0.1828
  711TMC3    H110570   0.329   0.501  15.102 -0.9266  0.7509 -1.2512
  711TMC3    H210571   0.446   0.687  15.464 -0.1404 -0.7966  0.4425
  711TMC3    C710572   0.474   0.475  15.341 -0.1656 -0.2054  0.6122
  711TMC3    C810573   0.189   0.658  15.556  0.0182  0.2704 -0.0311
  711TMC3    O110574   0.543   0.505  15.441 -0.0972 -0.3333  0.4549
  711TMC3    O210575   0.076   0.616  15.575  0.1854 -0.0056  0.2530
  712MPD2     C10576   1.744   1.534  14.330 -0.1171  0.0988 -0.0880
  712MPD2    C110577   1.616   1.576  14.357 -0.1825 -0.2660  0.2796
  712MPD2    C210578   1.572   1.692  14.300  0.0995  0.1993 -0.3728
  712MPD2    C310579   1.642   1.755  14.196  0.5552  0.4942  0.5924
  712MPD2    C410580   1.764   1.707  14.163 -0.3149 -0.4349 -0.2854
  712MPD2    C510581   1.815   1.605  14.238  0.5053 -0.0847  0.2497
  712MPD2     H10582   1.468   1.712  14.320 -0.0021  0.4467 -1.1318
  712MPD2    H110583   1.817   1.741  14.075  0.8369 -0.0752  0.5368
  712MPD2    H210584   1.789   1.449  14.381 -3.8812 -1.0305  1.3508
  712MPD2    H310585   1.914   1.571  14.210  0.6946 -0.4738  1.3812
  712MPD2     N10586   1.590   1.862  14.121  0.3499  0.1660  0.7447
  712MPD2    H510587   1.648   1.886  14.041 -1.6320  2.2071 -0.1014
  712MPD2    N110588   1.522   1.499  14.423  0.0860 -0.5270 -0.0711
  712MPD2    H710589   1.429   1.538  14.436  1.3821  2.0764  1.3683
  713TMC3    C110590   1.438   2.041  14.064  0.3974 -0.3418  0.1879
  713TMC3    C210591   1.507   2.055  13.945  0.4969  0.6481 -0.6728
  713TMC3    C310592   1.457   2.138  13.847  0.6713  0.3296 -1.1066
  713TMC3    C410593   1.321   2.109  14.080 -0.4462 -0.0284 -0.6204
  713TMC3    C510594   1.278   2.195  13.979 -0.5220 -0.0396 -0.3556
  713TMC3    C610595   1.341   2.209  13.854  0.4078 -0.3835 -0.4727
  713TMC3     C10596   1.480   1.939  14.158 -0.6685  0.0637  0.0686
  713TMC3     O10597   1.409   1.938  14.255 -0.2948  0.4894 -0.3376
  713TMC3     H10598   1.608   2.016  13.939  0.5384  0.3469  1.9526
  713TMC3    H110599   1.255   2.089  14.164 -1.0387  0.8050 -0.8831
  713TMC3    H210600   1.305   2.282  13.783 -1.0073  0.8869  1.5329
  713TMC3    C710601   1.163   2.277  14.013 -0.0290  0.0383 -0.1685
  713TMC3    C810602   1.527   2.164  13.723 -0.4150 -0.1160  0.4510
  713TMC3    O110603   1.138   2.276  14.132 -0.6969 -1.0494  0.5596
  713TMC3    O210604   1.467   2.182  13.618 -0.4575  0.3439  0.1624
  714MPD2     C10605   4.023   0.520   1.419 -0.3184  0.2850  0.4436
  714MPD2    C110606   3.987   0.386   1.420  0.5998  0.2418  0.0400
  714MPD2    C210607   3.863   0.331   1.383  0.9663  0.2355  0.8587
  714MPD2    C310608   3.770   0.422   1.327  0.5016 -0.6365 -0.0389
  714MPD2    C410609   3.801   0.557   1.318 -0.5346 -0.2107  0.5795
  714MPD2    C510610   3.924   0.606   1.365  0.5843 -0.2696 -0.5040
  714MPD2     H10611   3.839   0.226   1.394 -0.9631  0.6426  0.6730
  714MPD2    H110612   3.726   0.627   1.284 -1.1059 -0.9504  0.3355
  714MPD2    H210613   4.122   0.559   1.437  0.2137 -0.9055  0.0911
  714MPD2    H310614   3.952   0.708   1.344 -0.0166  0.3467  1.6922
  714MPD2     N10615   3.631   0.388   1.311  0.0875  0.5816 -0.1211
  714MPD2    H510616   3.596   0.312   1.370 -0.1772  0.3697 -0.5539
  714MPD2    N110617   4.087   0.295   1.466 -0.6946  0.3414 -0.3101
  714MPD2    H710618   4.174   0.331   1.506  0.5929 -0.4534 -2.3629
  715TMC3    C110619   4.221   0.091   1.495 -0.5320 -0.4528  0.0189
  715TMC3    C210620   4.263   4.723   1.414  0.7140 -0.0486 -0.5521
  715TMC3    C310621   4.381   4.663   1.442  0.8786 -0.3435  0.3558
  715TMC3    C410622   4.298   0.142   1.595  0.9600  0.8386  0.2931
  715TMC3    C510623   4.422   0.075   1.623  1.0437  0.1048 -0.2191
  715TMC3    C610624   4.470   4.707   1.543  0.3546 -0.6624  0.3360
  715TMC3     C10625   4.093   0.152   1.452 -0.2863 -0.4431  0.1442
  715TMC3     O10626   4.006   0.073   1.412 -1.1541 -0.5465  0.9357
  715TMC3     H10627   4.202   4.685   1.334 -0.6475  0.1103  0.4053
  715TMC3    H110628   4.255   0.213   1.665 -0.0296 -0.2490  0.8028
  715TMC3    H210629   4.557   4.649   1.569  0.4672 -0.6258  0.0422
  715TMC3    C710630   4.518   0.143   1.709 -0.0533  0.0405 -0.6453
  715TMC3    C810631   4.419   4.552   1.352 -0.5817 -0.2449  0.3689
  715TMC3    O110632   4.630   0.092   1.717  0.0479 -0.1529 -0.2344
  715TMC3    O210633   4.332   4.508   1.280 -0.0684 -0.3120  0.4132
  716MPD2     C10634   3.438   3.060  10.222 -0.4099  0.2597  0.0261
  716MPD2    C110635   3.480   3.116  10.105  0.2076  0.1689 -0.2501
  716MPD2    C210636   3.577   3.049  10.032 -0.0958  0.2603 -0.3408
  716MPD2    C310637   3.646   2.947  10.085  0.7834 -0.1690 -0.0119
  716MPD2    C410638   3.610   2.896  10.206 -0.1296  0.0074  0.0407
  716MPD2    C510639   3.502   2.951  10.276 -0.7145 -0.2956  0.0797
  716MPD2     H10640   3.610   3.088   9.936 -0.6635 -1.6459 -1.3191
  716MPD2    H110641   3.655   2.811  10.256 -1.2249  1.2628  3.1242
  716MPD2    H210642   3.368   3.120  10.279 -0.8777  1.3751 -1.7173
  716MPD2    H310643   3.475   2.909  10.372  1.2946 -0.1012  0.7475
  716MPD2     N10644   3.758   2.900  10.013 -0.1447  0.0616 -0.1092
  716MPD2    H510645   3.772   2.952   9.927 -0.8573 -1.3265 -1.0693
  716MPD2    N110646   3.400   3.225  10.061 -0.2279  0.1668 -0.2646
  716MPD2    H710647   3.337   3.267  10.129 -1.9331 -1.0050 -1.1170
  717TMC3    C110648   3.979   2.792   9.969  1.1929 -0.1520  0.2420
  717TMC3    C210649   3.972   2.841   9.838  0.4087 -0.1497 -0.4095
  717TMC3    C310650   4.090   2.857   9.769  0.4695  0.5994 -0.2605
  717TMC3    C410651   4.097   2.751  10.021  0.5265 -0.0473  0.6408
  717TMC3    C510652   4.214   2.778   9.950  0.5906 -0.6221 -0.4441
  717TMC3    C610653   4.215   2.829   9.823  0.3058 -0.1534  0.3271
  717TMC3     C10654   3.864   2.818  10.057 -0.4835 -0.6892  1.1304
  717TMC3     O10655   3.893   2.784  10.171  0.0130 -0.3457 -0.0579
  717TMC3     H10656   3.876   2.851   9.788  0.2996  1.2797  0.0984
  717TMC3    H110657   4.097   2.710  10.121 -0.1126  0.9628  1.0520
  717TMC3    H210658   4.307   2.848   9.769  0.0454  1.1940  0.3490
  717TMC3    C710659   4.337   2.762  10.021  0.1064  1.0969 -0.4591
  717TMC3    C810660   4.086   2.895   9.627 -0.0345  0.2357  0.1594
  717TMC3    O110661   4.352   2.656  10.079 -0.3080 -0.1154 -0.7697
  717TMC3    O210662   4.188   2.872   9.560  0.6101 -0.0882 -0.0036
  718MPD2     C10663   2.987   1.947  13.095 -0.2248  0.4359  0.1113
  718MPD2    C110664   2.921   1.976  12.977  0.1104  1.2206  0.3940
  718MPD2    C210665   2.802   1.906  12.949  0.1754  0.5977  0.3521
  718MPD2    C310666   2.746   1.811  13.034  0.0166  0.0585 -0.1275
  718MPD2    C410667   2.810   1.804  13.161  0.4590  0.1338  0.2656
  718MPD2    C510668   2.924   1.875  13.190  0.0089  0.2402  0.3319
  718MPD2     H10669   2.755   1.921  12.852 -0.5652  0.1343  0.6327
  718MPD2    H110670   2.775   1.737  13.239 -0.7847  1.7185  1.0851
  718MPD2    H210671   3.083   1.994  13.116 -0.5345  0.7289  0.8513
  718MPD2    H310672   2.962   1.865  13.291  1.8257 -0.3785 -0.4144
  718MPD2     N10673   2.638   1.731  12.986  0.1013  0.7267 -0.1000
  718MPD2    H510674   2.592   1.760  12.900  1.4707  1.5951 -0.5524
  718MPD2    N110675   2.985   2.054  12.880  0.4697 -0.3446 -0.7191
  718MPD2    H710676   3.085   2.061  12.895  0.5614 -0.1160 -1.4271
  719TMC3    C110677   2.984   2.079  12.640  0.0237 -0.0519 -0.1923
  719TMC3    C210678   2.898   2.058  12.536 -0.4393 -0.1004  0.5275
  719TMC3    C310679   2.928   1.964  12.436  0.1601 -0.1364 -0.0710
  719TMC3    C410680   3.111   2.017  12.636 -0.2322  0.6912  0.1701
  719TMC3    C510681   3.139   1.941  12.528  0.4635 -0.3390  0.1870
  719TMC3    C610682   3.049   1.911  12.433 -0.1334 -0.1197 -0.1815
  719TMC3     C10683   2.917   2.107  12.770  0.0639  0.5983 -0.4244
  719TMC3     O10684   2.799   2.139  12.765 -0.5998  0.1252 -0.7599
  719TMC3     H10685   2.803   2.110  12.543 -2.1206 -2.6010 -3.3941
  719TMC3    H110686   3.190   2.047  12.704  2.2714 -1.8807 -1.6557
  719TMC3    H210687   3.080   1.857  12.344 -1.3628 -1.2657  0.0854
  719TMC3    C710688   3.274   1.886  12.515  0.2968 -0.0683  0.3648
  719TMC3    C810689   2.815   1.892  12.381  0.6086  0.5688 -0.3397
  719TMC3    O110690   3.309   1.846  12.403 -0.0649  0.6016 -0.2219
  719TMC3    O210691   2.825   1.769  12.372  0.2874 -0.1619  0.6043
  720MPD2     C10692   1.308   3.585  14.227  0.0506  1.3508  0.3193
  720MPD2    C110693   1.388   3.686  14.169 -0.4236  0.1337 -0.3144
  720MPD2    C210694   1.525   3.679  14.197  0.3064  0.2741 -0.0398
  720MPD2    C310695   1.584   3.574  14.258  0.3191 -0.3882 -0.0354
  720MPD2    C410696   1.512   3.466  14.289 -0.7126  0.8580  0.0895
  720MPD2    C510697   1.376   3.470  14.272 -0.2978  0.1918  0.2656
  720MPD2     H10698   1.592   3.747  14.144  0.5342  0.3912  0.4014
  720MPD2    H110699   1.553   3.375  14.332 -0.6425  0.7137 -0.2828
  720MPD2    H210700   1.200   3.576  14.226  0.0600  1.1815  0.7332
  720MPD2    H310701   1.336   3.379  14.315  0.1126 -0.6928 -1.2299
  720MPD2     N10702   1.727   3.580  14.272 -0.3351 -0.3262  0.0938
  720MPD2    H510703   1.778   3.656  14.228 -1.8927  1.9824  2.2809
  720MPD2    N110704   1.328   3.786  14.086  0.3678  0.4079 -0.2247
  720MPD2    H710705   1.228   3.779  14.067  0.5230  1.4400 -1.4376
  721TMC3    C110706   1.950   3.524  14.318  0.3821  0.4837 -0.4631
  721TMC3    C210707   2.047   3.491  14.408  1.2442 -0.7137  0.1055
  721TMC3    C310708   2.178   3.467  14.371  0.7347  0.1268  0.4796
  721TMC3    C410709   1.981   3.537  14.185  0.2978 -0.3029 -0.1592
  721TMC3    C510710   2.104   3.501  14.149 -0.1065  0.5556  0.3905
  721TMC3    C610711   2.204   3.470  14.242 -0.5683  0.3570  0.0666
  721TMC3     C10712   1.808   3.498  14.346 -0.0032 -0.8468  0.0636
  721TMC3     O10713   1.774   3.417  14.427 -0.1831  0.4422 -0.1675
  721TMC3     H10714   2.010   3.451  14.503 -3.4443  0.5745 -1.1954
  721TMC3    H110715   1.918   3.548  14.098 -1.7995 -2.7232  1.0570
  721TMC3    H210716   2.309   3.481  14.215 -0.9062  0.0198 -1.3763
  721TMC3    C710717   2.172   3.581  14.044 -0.3911 -0.3623  0.2148
  721TMC3    C810718   2.284   3.518  14.448  0.5632 -0.0399 -0.0065
  721TMC3    O110719   2.164   3.703  14.039 -0.5328 -0.9906 -0.0863
  721TMC3    O210720   2.398   3.507  14.403  0.1191 -0.4370 -0.1975
  722MPD2     C10721   0.239   1.856  13.612  0.3599  0.0051  0.7155
  722MPD2    C110722   0.182   1.931  13.506  0.5339 -0.3536  0.0711
  722MPD2    C210723   0.073   1.882  13.446 -0.2387  0.1748 -0.4449
  722MPD2    C310724   0.003   1.778  13.505 -0.7025 -0.2208 -0.1884
  722MPD2    C410725   0.050   1.715  13.616  0.0671  1.0315  0.4399
  722MPD2    C510726   0.167   1.759  13.674  0.2060 -0.0012 -0.4082
  722MPD2     H10727   0.018   1.931  13.367 -0.1246 -1.0868 -1.3023
  722MPD2    H110728   0.003   1.636  13.672 -0.1108  0.5595 -0.3680
  722MPD2    H210729   0.330   1.887  13.661  0.9269  0.6506 -0.7481
  722MPD2    H310730   0.210   1.699  13.753  0.8859  0.1125 -0.6953
  722MPD2     N10731   4.607   1.746  13.452 -0.0902  0.3120 -0.2252
  722MPD2    H510732   4.562   1.800  13.379  0.5788  0.2447 -0.6885
  722MPD2    N110733   0.231   2.054  13.468  0.1124  0.4156 -0.2635
  722MPD2    H710734   0.167   2.105  13.409 -3.9451 -2.6424  1.5022
  723TMC3    C110735   4.411   1.634  13.413 -0.0539  0.8213  0.6902
  723TMC3    C210736   4.340   1.516  13.399  0.0352  0.5686 -0.0352
  723TMC3    C310737   4.231   1.499  13.321 -0.2536 -0.1518  0.7140
  723TMC3    C410738   4.355   1.750  13.356 -0.3632  0.4303 -0.0519
  723TMC3    C510739   4.242   1.730  13.272 -0.0644  0.1292 -0.1676
  723TMC3    C610740   4.179   1.612  13.260  0.7468 -0.0810 -0.2620
  723TMC3     C10741   4.525   1.648  13.503 -0.3995 -0.4121 -0.3091
  723TMC3     O10742   4.534   1.556  13.590  0.4516  0.0711  0.4734
  723TMC3     H10743   4.397   1.427  13.419 -1.1952 -0.1262  0.3723
  723TMC3    H110744   4.398   1.848  13.369 -4.0975  1.6963  2.8818
  723TMC3    H210745   4.095   1.603  13.191  0.1622 -0.0652  0.4504
  723TMC3    C710746   4.168   1.848  13.227 -0.3176  0.6190  0.5991
  723TMC3    C810747   4.200   1.372  13.264 -0.3799  0.9294  0.1630
  723TMC3    O110748   4.114   1.833  13.120  0.5954  0.5503  0.2190
  723TMC3    O210749   4.224   1.272  13.332 -0.3405 -0.6578 -0.7604
  724TMC3    C110750   0.534   0.047  10.671 -0.6001  0.8428 -1.5395
  724TMC3    C210751   0.589   0.141  10.585  0.0655 -0.1376  0.0443
  724TMC3    C310752   0.684   0.224  10.641  1.0530 -0.4325 -0.0335
  724TMC3    C410753   0.555   0.050  10.805  0.5603  0.1675 -0.1205
  724TMC3    C510754   0.648   0.140  10.854  0.1626 -0.2050 -0.0090
  724TMC3    C610755   0.717   0.226  10.774 -0.2341  0.4401  0.7449
  724TMC3     C10756   0.446   4.680  10.620  0.4614  0.9060  0.2488
  724TMC3     O10757   0.416   4.587  10.691 -0.0774  0.3808 -0.0745
  724TMC3     H10758   0.587   0.128  10.477 -1.5205  2.2683 -0.2118
  724TMC3    H110759   0.514   4.710  10.872  1.4811 -0.9563 -0.8165
  724TMC3    H210760   0.792   0.286  10.824 -0.7071  0.9169  0.8903
  724TMC3    C710761   0.690   0.135  10.994 -0.1139  0.2458  0.2097
  724TMC3    C810762   0.752   0.310  10.557  0.0393  0.2426  0.3100
  724TMC3    O110763   0.799   0.170  11.023 -0.4036 -0.7721  0.4910
  724TMC3    O210764   0.736   0.282  10.439 -0.0005  0.0193 -0.1330
  725TMC3    C110765   2.338   3.956  13.453  0.0326  0.0488  0.2243
  725TMC3    C210766   2.219   4.026  13.436  0.6470  0.0278  0.2752
  725TMC3    C310767   2.099   3.963  13.470  0.6904 -0.1818 -0.2705
  725TMC3    C410768   2.340   3.831  13.512  0.0005 -0.0632  0.4297
  725TMC3    C510769   2.222   3.766  13.520  0.7768  0.9808  0.6448
  725TMC3    C610770   2.103   3.834  13.519  0.4895  0.3102 -0.1688
  725TMC3     C10771   2.456   4.031  13.428  0.0784  0.8526  0.4170
  725TMC3     O10772   2.442   4.141  13.381  0.9108  0.8485 -1.0784
  725TMC3     H10773   2.207   4.133  13.423 -1.2154 -0.4743 -2.0272
  725TMC3    H110774   2.431   3.772  13.511  0.5145  0.7495 -0.8333
  725TMC3    H210775   2.013   3.793  13.563 -0.0240  0.2699 -1.2550
  725TMC3    C710776   2.221   3.663  13.419 -0.0288  0.4618  0.1493
  725TMC3    C810777   1.995   3.968  13.365  0.4815  0.0622  0.0890
  725TMC3    O110778   2.325   3.645  13.359 -0.0605  0.2140  0.9552
  725TMC3    O210779   1.890   3.905  13.392  0.3691  0.2179  0.4346
  726MPD2     C10780   0.158   0.508  11.150  0.3742  0.5840 -0.5030
  726MPD2    C110781   0.080   0.470  11.043 -0.0042 -0.5597  0.1284
  726MPD2    C210782   0.002   0.354  11.068 -0.3481 -1.1768  0.3256
  726MPD2    C310783   0.027   0.271  11.180 -0.4548 -0.0744  0.0650
  726MPD2    C410784   0.130   0.308  11.270 -0.3004 -0.2813  0.4630
  726MPD2    C510785   0.190   0.427  11.255 -0.5455  0.3950 -0.1815
  726MPD2     H10786   4.661   0.331  10.994 -0.3044  1.4905 -0.5551
  726MPD2    H110787   0.146   0.247  11.358 -1.0761  0.3753  1.0618
  726MPD2    H210788   0.218   0.598  11.143  0.9276  0.2681  0.1449
  726MPD2    H310789   0.263   0.453  11.331 -2.4727  2.7072  0.8814
  726MPD2     N10790   4.673   0.162  11.214  0.5766  0.8782 -0.2926
  726MPD2    H510791   4.691   0.132  11.310  1.1609 -0.6296 -0.8821
  726MPD2    N110792   0.064   0.542  10.923  0.0576 -0.0244  0.4146
  726MPD2    H710793   0.034   0.488  10.842  2.4964  1.5917 -1.5615
  727TMC3    C110794   0.091   0.714  10.764 -0.0153  0.4955 -0.2074
  727TMC3    C210795   0.157   0.822  10.710  0.4643 -0.6344 -0.4119
  727TMC3    C310796   0.129   0.870  10.586 -0.7090 -0.7962 -0.1505
  727TMC3    C410797   4.719   0.659  10.693 -0.1670 -0.4437  0.3211
  727TMC3    C510798   4.680   0.730  10.581 -0.8022 -0.0251  0.1798
  727TMC3    C610799   0.019   0.825  10.521  0.2041 -0.3901  0.4924
  727TMC3     C10800   0.103   0.675  10.900 -0.1189 -0.1907  0.3248
  727TMC3     O10801   0.159   0.746  10.979 -0.1696  0.1319  0.1433
  727TMC3     H10802   0.235   0.873  10.766 -0.9994  1.3104 -0.1386
  727TMC3    H110803   4.651   0.583  10.728 -0.9524  0.2098  0.1992
  727TMC3    H210804   4.727   0.893  10.441  0.7089  0.2190  0.8309
  727TMC3    C710805   4.576   0.664  10.507  0.1317  0.2594 -0.4769
  727TMC3    C810806   0.188   0.997  10.558  0.1116  1.3850  0.1172
  727TMC3    O110807   4.540   0.552  10.544 -0.2577 -0.1793  0.3330
  727TMC3    O210808   0.300   1.002  10.602 -0.1657  0.0891 -0.5203
  728TMC3    C110809   4.733   4.144  15.656  0.4039  0.1063  0.9833
  728TMC3    C210810   0.119   4.077  15.638  0.5494 -0.7133 -0.4760
  728TMC3    C310811   0.165   4.062  15.510  0.5463 -0.2084 -0.3527
  728TMC3    C410812   4.672   4.208  15.556 -0.4399 -0.1551 -0.1552
  728TMC3    C510813   4.729   4.212  15.431  0.6459  0.2475 -0.1881
  728TMC3    C610814   0.107   4.136  15.411  0.1052  0.2619 -0.4543
  728TMC3     C10815   4.644   4.079  15.755 -0.0330 -0.1829  0.0226
  728TMC3     O10816   4.697   4.036  15.854 -0.2617  0.4613  0.1899
  728TMC3     H10817   0.162   4.018  15.718  0.1954  0.7324  0.7742
  728TMC3    H110818   4.584   4.271  15.571  0.0513  0.5601 -0.2644
  728TMC3    H210819   0.130   4.098  15.313  0.0806 -0.0190 -0.3497
  728TMC3    C710820   4.629   4.178  15.334 -1.0492 -0.8763  0.2847
  728TMC3    C810821   0.310   4.069  15.511 -0.6345  0.4815 -0.4624
  728TMC3    O110822   4.547   4.102  15.382  0.1659 -0.2477 -0.0261
  728TMC3    O210823   0.371   4.047  15.613 -0.0206  0.4978 -0.4051
  729MPD2     C10824   1.692   0.663  16.663  0.9162  0.4357  0.7659
  729MPD2    C110825   1.804   0.613  16.736  0.0785 -0.6094  0.5473
  729MPD2    C210826   1.787   0.603  16.873  0.4248 -0.3256 -0.1179
  729MPD2    C310827   1.672   0.641  16.934  0.2936 -0.1380 -0.5487
  729MPD2    C410828   1.566   0.678  16.864 -0.2923  0.0992 -0.3275
  729MPD2    C510829   1.572   0.693  16.731  0.2537  0.4598  0.7095
  729MPD2     H10830   1.872   0.571  16.932  0.6550  2.3061  0.9725
  729MPD2    H110831   1.480   0.726  16.909  1.0273  1.4063  0.8278
  729MPD2    H210832   1.698   0.672  16.555 -0.6092 -0.1179  0.6474
  729MPD2    H310833   1.486   0.739  16.685  0.0691 -0.5925 -0.0032
  729MPD2     N10834   1.667   0.662  17.071  0.2599 -0.0051 -0.0314
  729MPD2    H510835   1.581   0.692  17.115  2.8244  1.8949  3.6737
  729MPD2    N110836   1.934   0.609  16.676 -0.0947 -0.5052  0.2850
  729MPD2    H710837   1.932   0.627  16.576 -0.1262  0.8954  0.5451
  730TMC3    C110838   1.710   0.708  17.297 -0.5182  0.5587 -0.4455
  730TMC3    C210839   1.775   0.655  17.409 -0.2558 -0.1266 -0.4903
  730TMC3    C310840   1.761   0.725  17.522  0.2363 -0.3050  0.2646
  730TMC3    C410841   1.631   0.813  17.300 -0.0777  0.0601  0.0609
  730TMC3    C510842   1.625   0.886  17.414 -0.2145  0.1719 -0.1624
  730TMC3    C610843   1.689   0.839  17.525  0.2698 -0.1036 -0.5786
  730TMC3     C10844   1.766   0.668  17.166  0.6409 -0.0990  0.5225
  730TMC3     O10845   1.880   0.635  17.162 -0.0918  0.2494  0.1114
  730TMC3     H10846   1.846   0.574  17.396 -1.9150 -1.5768 -0.4506
  730TMC3    H110847   1.580   0.843  17.209 -1.4570  0.8757  1.0991
  730TMC3    H210848   1.697   0.884  17.623  0.6109 -2.6894  0.5802
  730TMC3    C710849   1.656   1.028  17.389  0.1969 -0.3968 -0.0658
  730TMC3    C810850   1.867   0.740  17.611 -0.1502 -0.0303 -0.3418
  730TMC3    O110851   1.698   1.052  17.277  0.3012 -0.1719  0.1958
  730TMC3    O210852   1.829   0.738  17.728  0.5196 -0.2951 -0.3178
  731MPD2     C10853   1.656   3.641  12.603  0.3491 -0.3338  0.0187
  731MPD2    C110854   1.540   3.569  12.566 -0.3872 -0.1337 -0.2269
  731MPD2    C210855   1.436   3.560  12.654 -0.5813 -0.2186  1.0646
  731MPD2    C310856   1.442   3.647  12.771  0.1417  0.5179 -1.1949
  731MPD2    C410857   1.564   3.698  12.812 -0.5872 -0.9098 -0.0247
  731MPD2    C510858   1.670   3.695  12.728  0.0422 -0.1412 -0.0085
  731MPD2     H10859   1.347   3.503  12.630 -2.2742  1.7660  2.5676
  731MPD2    H110860   1.580   3.738  12.912 -0.5916  0.0521 -0.4102
  731MPD2    H210861   1.741   3.659  12.539  0.2399  2.1288  0.5828
  731MPD2    H310862   1.765   3.741  12.751 -1.1984  1.4799  1.7879
  731MPD2     N10863   1.329   3.638  12.859 -0.2565 -0.0026 -0.2579
  731MPD2    H510864   1.258   3.576  12.821  1.1102 -1.1440 -0.9644
  731MPD2    N110865   1.546   3.505  12.441 -0.3641  0.5268  0.1507
  731MPD2    H710866   1.632   3.507  12.387 -1.5726  1.8814 -1.6954
  732TMC3    C110867   1.462   3.408  12.241 -0.2122 -0.4601 -0.5558
  732TMC3    C210868   1.366   3.421  12.146  0.8145 -0.3321  0.5011
  732TMC3    C310869   1.393   3.359  12.026  1.1072  0.6051  0.0468
  732TMC3    C410870   1.579   3.342  12.220 -0.2126 -0.6975  0.2113
  732TMC3    C510871   1.597   3.286  12.099 -0.0006 -0.1465  0.4907
  732TMC3    C610872   1.506   3.295  11.997 -0.2767  0.1499  0.2173
  732TMC3     C10873   1.439   3.460  12.372 -0.1459  0.1992  0.6532
  732TMC3     O10874   1.324   3.446  12.407 -0.0938 -0.2480 -0.1823
  732TMC3     H10875   1.281   3.482  12.175  1.4607  0.0908  1.5112
  732TMC3    H110876   1.641   3.325  12.307  1.4157  1.4494 -0.5421
  732TMC3    H210877   1.516   3.252  11.898  0.4773 -1.3170  0.9310
  732TMC3    C710878   1.725   3.230  12.068 -0.2624 -0.8918  0.3551
  732TMC3    C810879   1.302   3.399  11.925 -0.8678 -0.0687  0.8375
  732TMC3    O110880   1.721   3.153  11.975 -0.5863 -0.5590 -0.0349
  732TMC3    O210881   1.344   3.407  11.815  0.2749 -0.5108  0.0753
  733TMC3    C110882   2.268   1.486  13.008 -1.0002 -0.2823  0.4853
  733TMC3    C210883   2.386   1.500  13.067 -1.2874  0.0469  0.3937
  733TMC3    C310884   2.483   1.556  12.987  0.3404  0.3974 -0.8837
  733TMC3    C410885   2.249   1.501  12.872  0.0178  0.0045  0.1980
  733TMC3    C510886   2.349   1.543  12.793 -0.0814  0.2994 -0.6686
  733TMC3    C610887   2.465   1.580  12.851  0.7258 -0.3443  0.0099
  733TMC3     C10888   2.142   1.480  13.081 -0.1514  0.6179  0.3136
  733TMC3     O10889   2.037   1.510  13.021 -0.0484 -0.2312  0.3781
  733TMC3     H10890   2.403   1.503  13.174 -1.5416 -1.7316  0.4890
  733TMC3    H110891   2.149   1.495  12.831  0.2886  2.4273 -0.8074
  733TMC3    H210892   2.540   1.633  12.793  0.0077 -0.9732 -1.4901
  733TMC3    C710893   2.302   1.605  12.667  0.1434  0.0358  0.1190
  733TMC3    C810894   2.577   1.631  13.062  0.0861  0.1202  0.5244
  733TMC3    O110895   2.189   1.648  12.654  0.6858  0.4683 -0.2100
  733TMC3    O210896   2.611   1.583  13.165  0.1425 -0.2129  0.1571
  734MPD2     C10897   0.135   3.993  12.499  0.0914  0.1536 -0.4199
  734MPD2    C110898   0.013   3.944  12.455 -0.2031  0.1893 -0.6748
  734MPD2    C210899   4.726   3.939  12.318 -0.3779 -0.0015 -1.3016
  734MPD2    C310900   0.073   4.006  12.231 -0.5458 -0.3601 -0.1277
  734MPD2    C410901   0.186   4.074  12.270 -0.0236 -0.4647 -0.0652
  734MPD2    C510902   0.217   4.061  12.405 -0.7657  0.6314  0.1839
  734MPD2     H10903   4.651   3.873  12.276 -0.3518 -0.0525 -1.2684
  734MPD2    H110904   0.255   4.131  12.209  1.2460  0.9407  2.6564
  734MPD2    H210905   0.158   3.985  12.605 -0.2065  0.2669 -0.3449
  734MPD2    H310906   0.308   4.104  12.445 -1.4566  1.0384  1.3222
  734MPD2     N10907   0.039   3.997  12.098 -0.6045 -0.1095 -0.4196
  734MPD2    H510908   4.677   3.975  12.079 -0.8507 -0.6575  1.4630
  734MPD2    N110909   4.663   3.869  12.542  0.2311 -0.5022 -0.1821
  734MPD2    H710910   4.694   3.859  12.638  0.0312  0.0075 -0.0675
  735TMC3    C110911   4.504   3.696  12.597  0.5409 -1.0486  0.8553
  735TMC3    C210912   4.368   3.681  12.578  0.4402  0.2837 -0.0436
  735TMC3    C310913   4.308   3.560  12.568 -0.2365  0.4101 -0.0732
  735TMC3    C410914   4.584   3.584  12.595  0.7079  0.1761  0.1411
  735TMC3    C510915   4.526   3.460  12.595 -0.4467 -0.2498 -0.1578
  735TMC3    C610916   4.391   3.442  12.580  0.1525 -0.3360  0.5283
  735TMC3     C10917   4.559   3.787  12.495 -0.3506  0.1884  0.3603
  735TMC3     O10918   4.499   3.766  12.391 -0.0827 -0.1749  0.7624
  735TMC3     H10919   4.312   3.765  12.540 -2.5583 -1.8679 -0.4077
  735TMC3    H110920   4.692   3.583  12.581  0.3781  0.0866 -2.4028
  735TMC3    H210921   4.341   3.346  12.573  2.0549 -1.3021  0.1082
  735TMC3    C710922   4.612   3.352  12.557  0.2961 -0.6030  0.1767
  735TMC3    C810923   4.231   3.535  12.448  0.2580  0.2703  0.5300
  735TMC3    O110924   4.718   3.383  12.503 -0.3949 -0.8534  0.5651
  735TMC3    O210925   4.147   3.443  12.444  0.2131  0.9345  0.0720
  736MPD2     C10926   4.593   2.998  12.572 -0.2089 -0.1388 -0.0735
  736MPD2    C110927   4.631   3.117  12.526 -0.2075  0.0357 -0.1054
  736MPD2    C210928   4.701   3.116  12.402  0.4558  0.1743  0.6689
  736MPD2    C310929   0.009   2.995  12.343 -0.1424  0.1824 -0.2711
  736MPD2    C410930   4.734   2.883  12.415  0.3873  0.7005  0.0829
  736MPD2    C510931   4.662   2.888  12.530 -0.3378  0.2036  0.2033
  736MPD2     H10932   4.727   3.206  12.347 -0.9405  0.5833  0.6645
  736MPD2    H110933   0.040   2.791  12.376  0.8358  1.1003 -0.4005
  736MPD2    H210934   4.532   2.990  12.661  1.3285  0.7275  1.0593
  736MPD2    H310935   4.653   2.791  12.577  0.2213 -0.1545 -0.4287
  736MPD2     N10936   0.071   2.991  12.211 -0.2068 -0.3402 -0.1776
  736MPD2    H510937   0.106   2.899  12.187  1.4209 -0.1196  1.3425
  736MPD2    N110938   4.563   3.227  12.578 -0.3792  0.3538  0.0505
  736MPD2    H710939   4.482   3.205  12.635 -1.6102 -0.6228 -2.0755
  737TMC3    C110940   0.157   3.064  11.996  0.1860  0.7495 -0.1680
  737TMC3    C210941   0.174   3.168  11.902  0.1939  0.2278  0.0054
  737TMC3    C310942   0.283   3.157  11.818 -0.3158  0.4959 -0.2096
  737TMC3    C410943   0.244   2.954  11.997  0.8082 -0.3665  0.2610
  737TMC3    C510944   0.344   2.947  11.907  0.2457  0.2979  0.2773
  737TMC3    C610945   0.359   3.043  11.810 -0.5436 -0.3934 -0.3069
  737TMC3     C10946   0.080   3.090  12.115  0.0139 -0.0904 -0.3747
  737TMC3     O10947   0.014   3.191  12.113 -0.1727 -0.4877  0.0084
  737TMC3     H10948   0.110   3.255  11.910  1.9281  1.6043 -1.0896
  737TMC3    H110949   0.251   2.887  12.082 -0.3622 -2.9063 -1.6263
  737TMC3    H210950   0.442   3.044  11.740 -0.0088  0.6734  0.3434
  737TMC3    C710951   0.438   2.837  11.922 -0.2640 -0.3436 -1.1161
  737TMC3    C810952   0.339   3.276  11.747 -0.6588  0.2199  0.0889
  737TMC3    O110953   0.408   2.739  11.990 -0.2463  0.2856 -0.2972
  737TMC3    O210954   0.460   3.275  11.719 -0.1341 -0.2684  0.0782
  738MPD2     C10955   0.651   2.685  15.513  0.0599  0.0154  0.0480
  738MPD2    C110956   0.629   2.633  15.385 -0.1815  0.1004  0.1115
  738MPD2    C210957   0.724   2.664  15.294 -0.4567 -0.0331  0.0159
  738MPD2    C310958   0.841   2.739  15.325 -0.2915 -0.3908 -0.1474
  738MPD2    C410959   0.866   2.780  15.453  0.1773 -0.2820  0.4294
  738MPD2    C510960   0.767   2.741  15.538 -0.3656  0.1163  0.5377
  738MPD2     H10961   0.713   2.616  15.198 -3.5474 -1.2927  0.9870
  738MPD2    H110962   0.958   2.821  15.493  1.4349 -0.4861 -2.2449
  738MPD2    H210963   0.600   2.655  15.604  1.4178 -1.5379  0.2883
  738MPD2    H310964   0.779   2.759  15.644  1.9081 -0.2852  0.3507
  738MPD2     N10965   0.929   2.782  15.224 -0.0315  0.1602 -0.1409
  738MPD2    H510966   1.009   2.836  15.255  0.2308  0.1434 -0.7891
  738MPD2    N110967   0.523   2.549  15.350  0.1081  0.2263 -0.3986
  738MPD2    H710968   0.543   2.518  15.256 -0.1783  0.2152 -0.4568
  739TMC3    C110969   1.027   2.809  15.021 -0.2428 -0.0700  0.5250
  739TMC3    C210970   1.014   2.823  14.886  0.4921 -0.5102 -0.1979
  739TMC3    C310971   1.126   2.795  14.811 -0.3358 -0.5859  0.1975
  739TMC3    C410972   1.145   2.768  15.080 -0.4525  0.8691 -0.2470
  739TMC3    C510973   1.252   2.741  15.001  0.2506 -1.1915 -0.1666
  739TMC3    C610974   1.249   2.755  14.867 -0.0478  0.1292  0.0995
  739TMC3     C10975   0.898   2.787  15.089 -0.0251  0.7859 -0.8079
  739TMC3     O10976   0.800   2.756  15.025  0.0739  0.1886  0.1812
  739TMC3     H10977   0.916   2.843  14.845  1.1278  2.6631 -0.1303
  739TMC3    H110978   1.162   2.746  15.184 -0.1654  3.3970  0.2322
  739TMC3    H210979   1.340   2.764  14.809 -0.4358  1.0576 -0.3605
  739TMC3    C710980   1.367   2.684  15.062 -0.0407 -0.2289 -0.0957
  739TMC3    C810981   1.110   2.794  14.665  0.1399 -0.3170 -1.1643
  739TMC3    O110982   1.352   2.627  15.173 -0.1499 -0.3994 -0.1135
  739TMC3    O210983   1.007   2.849  14.631  0.5716  0.0333  0.4771
  740TMC3    C110984   1.598   3.891  14.582  0.3999  0.1478 -0.1131
  740TMC3    C210985   1.667   3.811  14.675  0.5859  0.7289  0.4647
  740TMC3    C310986   1.792   3.768  14.635  0.7421 -0.5455 -0.1780
  740TMC3    C410987   1.645   3.914  14.451  0.4094 -0.3560  0.3221
  740TMC3    C510988   1.774   3.872  14.425 -0.6049 -0.4213 -0.2070
  740TMC3    C610989   1.838   3.796  14.514 -0.3393  0.2281 -0.7320
  740TMC3     C10990   1.467   3.949  14.613 -0.3021  0.5836  0.5033
  740TMC3     O10991   1.431   4.041  14.539 -0.3922 -0.5684  0.5359
  740TMC3     H10992   1.639   3.790  14.778 -0.9047  0.2634 -0.0374
  740TMC3    H110993   1.595   3.987  14.389  1.7714  0.0016 -0.3644
  740TMC3    H210994   1.936   3.758  14.490  0.3658 -0.2687  2.9079
  740TMC3    C710995   1.842   3.896  14.298 -0.2205  0.6711  0.4973
  740TMC3    C810996   1.879   3.671  14.714  0.0133 -0.4607 -0.0422
  740TMC3    O110997   1.958   3.856  14.290  0.7747  0.8164 -0.9888
  740TMC3    O210998   1.977   3.627  14.659 -0.6089  0.4769 -0.0377
  741TMC3    C110999   1.206   3.126  14.511 -0.1477 -0.3236  0.3576
  741TMC3    C211000   1.076   3.132  14.461 -0.0469  0.8401  0.2574
  741TMC3    C311001   0.974   3.150  14.554  0.2053  0.1705 -0.5053
  741TMC3    C411002   1.221   3.129  14.652  0.1982 -1.2401  0.1446
  741TMC3    C511003   1.118   3.155  14.736  0.5577  0.3116 -0.4269
  741TMC3    C611004   0.987   3.157  14.690  0.1601  0.7383 -0.1256
  741TMC3     C11005   1.326   3.102  14.433 -0.3734 -0.3062  0.6026
  741TMC3     O11006   1.433   3.084  14.490 -0.0058 -0.2044  0.5295
  741TMC3     H11007   1.039   3.109  14.362 -1.6018  0.3461  0.9620
  741TMC3    H111008   1.326   3.129  14.680  0.4477  0.3073 -0.7552
  741TMC3    H211009   0.902   3.178  14.755  0.9661 -0.3421  1.2802
  741TMC3    C711010   1.153   3.144  14.878  0.2262  0.1868 -0.5113
  741TMC3    C811011   0.837   3.132  14.508  0.6521  0.2489  0.1399
  741TMC3    O111012   1.265   3.103  14.902 -0.0341 -0.3111 -0.1454
  741TMC3    O211013   0.806   3.200  14.412 -0.5797 -0.6415  0.1252
  742TMC3    C111014   1.354   1.543  15.597 -0.4099  1.0438 -0.3303
  742TMC3    C211015   1.242   1.516  15.527  0.3560 -0.0919  0.0600
  742TMC3    C311016   1.251   1.410  15.449  0.5426 -0.1692 -0.4711
  742TMC3    C411017   1.480   1.485  15.574  0.0117  0.3121  0.1736
  742TMC3    C511018   1.484   1.391  15.474 -0.2259 -0.1898  0.2792
  742TMC3    C611019   1.371   1.344  15.414 -0.2259  0.6601  0.3314
  742TMC3     C11020   1.353   1.636  15.703 -0.5178 -0.4115  0.0995
  742TMC3     O11021   1.455   1.646  15.770  0.2554 -0.0086  0.6622
  742TMC3     H11022   1.147   1.559  15.553 -0.2111 -0.4284 -1.4930
  742TMC3    H111023   1.566   1.496  15.639 -0.2221  2.1588  0.1553
  742TMC3    H211024   1.372   1.267  15.338 -1.6975  1.4335 -0.4715
  742TMC3    C711025   1.616   1.332  15.463  0.2129  0.1156 -0.3098
  742TMC3    C811026   1.129   1.346  15.389 -0.7001 -0.6615 -0.4070
  742TMC3    O111027   1.619   1.216  15.433  0.6112 -0.1518 -0.4008
  742TMC3    O211028   1.152   1.251  15.312  0.2804  0.0070  0.4720
  743MPD2     C11029   3.754   3.389   2.175 -0.8249 -0.7228 -0.5690
  743MPD2    C111030   3.810   3.331   2.068 -0.4503  0.1739  0.0783
  743MPD2    C211031   3.950   3.334   2.060 -0.2239 -0.0702 -0.0684
  743MPD2    C311032   4.024   3.392   2.160 -1.0605 -0.0830 -0.0538
  743MPD2    C411033   3.959   3.455   2.262 -0.2381 -0.4943 -0.4209
  743MPD2    C511034   3.821   3.464   2.270  0.2201  0.4127  0.1642
  743MPD2     H11035   3.999   3.285   1.977  0.0447 -0.9411  0.5989
  743MPD2    H111036   3.997   3.517   2.342 -0.1458 -2.7425  1.2682
  743MPD2    H211037   3.647   3.406   2.173 -0.8249 -0.2005  3.1869
  743MPD2    H311038   3.760   3.518   2.342  2.3893  0.5717  1.8866
  743MPD2     N11039   4.169   3.390   2.150 -1.3939  0.5605 -0.2676
  743MPD2    H511040   4.202   3.342   2.067  1.5654 -0.4139  1.4893
  743MPD2    N111041   3.728   3.294   1.963 -0.0205 -0.2353  0.2972
  743MPD2    H711042   3.628   3.307   1.978  0.4532  1.0368  2.3633
  744TMC3    C111043   3.654   3.241   1.747  0.0244  0.1879 -0.7613
  744TMC3    C211044   3.544   3.322   1.773  0.1670  0.3496  0.2816
  744TMC3    C311045   3.458   3.358   1.673  0.4509 -0.2180  0.0221
  744TMC3    C411046   3.673   3.174   1.632 -0.5503  0.1227 -0.1111
  744TMC3    C511047   3.576   3.221   1.539 -0.8275 -0.5175 -0.0991
  744TMC3    C611048   3.469   3.302   1.551  0.5199 -0.6323  0.1440
  744TMC3     C11049   3.762   3.243   1.842  0.1752 -0.0261 -0.2069
  744TMC3     O11050   3.871   3.207   1.803  0.4140  0.4659 -0.2343
  744TMC3     H11051   3.533   3.372   1.869  0.6412  3.0707 -1.0922
  744TMC3    H111052   3.755   3.104   1.621  0.5260  1.3022  0.3980
  744TMC3    H211053   3.437   3.358   1.464 -0.0763 -1.0271  0.1049
  744TMC3    C711054   3.596   3.160   1.407  0.4098 -0.4585 -0.3416
  744TMC3    C811055   3.362   3.470   1.698 -0.8486 -0.9415  0.1494
  744TMC3    O111056   3.696   3.088   1.388 -0.2046 -0.4891 -0.2333
  744TMC3    O211057   3.390   3.541   1.796 -0.5150 -0.2170 -0.2783
  745TMC3    C111058   1.391   1.332  14.423  0.3556 -0.4427  0.6471
  745TMC3    C211059   1.333   1.298  14.544 -0.2140  1.0140  0.4484
  745TMC3    C311060   1.195   1.311  14.548 -0.0007 -0.3874  1.1892
  745TMC3    C411061   1.329   1.398  14.324 -0.0630  0.0583  0.5834
  745TMC3    C511062   1.188   1.427  14.343  0.0251 -0.0213  0.0825
  745TMC3    C611063   1.124   1.373  14.450  0.1475  0.0977  0.6064
  745TMC3     C11064   1.527   1.364  14.440  0.5047  0.8839 -0.1943
  745TMC3     O11065   1.623   1.286  14.434 -0.5018 -0.0346 -0.3016
  745TMC3     H11066   1.392   1.257  14.624  0.1841  0.8781  0.0848
  745TMC3    H111067   1.388   1.428  14.237 -0.7328  0.0683  0.1352
  745TMC3    H211068   1.017   1.386  14.464  0.2473  0.6610  0.8673
  745TMC3    C711069   1.136   1.543  14.278  0.1385 -0.2520 -0.0328
  745TMC3    C811070   1.128   1.336  14.670 -0.4394 -0.9406 -0.8140
  745TMC3    O111071   1.030   1.587  14.320 -0.2026  0.8806  0.1711
  745TMC3    O211072   1.011   1.369  14.666 -0.3063  0.4246 -0.3194
  746TMC3    C111073   3.293   3.258  11.185  0.4684 -0.1004 -0.1502
  746TMC3    C211074   3.401   3.205  11.124 -0.3335 -0.2522 -0.4899
  746TMC3    C311075   3.388   3.092  11.054 -0.5795 -0.0054 -0.6659
  746TMC3    C411076   3.186   3.175  11.208 -0.0971 -0.5296 -1.0118
  746TMC3    C511077   3.172   3.060  11.126  0.5638 -0.9075  0.1279
  746TMC3    C611078   3.275   3.009  11.055  0.0497 -0.2730 -0.1049
  746TMC3     C11079   3.310   3.388  11.248  0.6601 -0.4128  0.0839
  746TMC3     O11080   3.239   3.402  11.349  0.0475 -0.2732  0.0730
  746TMC3     H11081   3.494   3.258  11.136 -1.3751  1.3311  0.4711
  746TMC3    H111082   3.098   3.221  11.253 -1.0769 -0.4809 -2.9758
  746TMC3    H211083   3.279   2.906  11.023  0.0043  0.7472 -3.3761
  746TMC3    C711084   3.068   2.960  11.167 -0.5257 -0.1760  0.6757
  746TMC3    C811085   3.511   3.027  11.017  0.0852  1.0615 -0.2854
  746TMC3    O111086   3.066   2.859  11.097  0.0099  0.2343  0.2651
  746TMC3    O211087   3.517   2.904  11.010  0.0548  0.3120  0.1450
  747TMC3    C111088   1.105   3.014  11.317  1.3632  0.2163  0.0304
  747TMC3    C211089   1.068   2.904  11.394 -0.4592  0.5032  0.3028
  747TMC3    C311090   1.141   2.859  11.505 -0.4122  0.2498  0.1172
  747TMC3    C411091   1.214   3.086  11.355  0.3120 -0.3313  0.1419
  747TMC3    C511092   1.291   3.038  11.461 -0.0047  0.0196  0.4030
  747TMC3    C611093   1.254   2.932  11.542 -0.0148 -0.0102  0.1934
  747TMC3     C11094   1.078   2.988  11.172 -0.9762  0.5029 -0.4627
  747TMC3     O11095   1.071   2.867  11.135 -0.0158 -0.3633  0.6804
  747TMC3     H11096   0.972   2.858  11.374 -1.1614  2.3597 -0.5976
  747TMC3    H111097   1.245   3.179  11.309  1.8209 -0.2414  1.3271
  747TMC3    H211098   1.315   2.891  11.622 -0.0132 -0.7084 -0.1690
  747TMC3    C711099   1.413   3.110  11.498  0.1547 -0.4568 -0.5644
  747TMC3    C811100   1.074   2.771  11.603  0.1841 -0.5901 -0.4289
  747TMC3    O111101   1.418   3.221  11.455  0.7350 -0.2385  0.3255
  747TMC3    O211102   1.147   2.712  11.682  0.1811  0.0667 -0.4808
  748MPD2     C11103   2.870   0.167   2.071  0.1161 -0.3752  0.0821
  748MPD2    C111104   2.847   0.037   2.034  0.4647  0.0245 -0.0135
  748MPD2    C211105   2.922   4.718   1.927  0.3572 -0.0224  0.1623
  748MPD2    C311106   3.027   0.055   1.876 -0.1786  0.6967 -0.1216
  748MPD2    C411107   3.039   0.195   1.916  0.0589 -0.9028  0.3611
  748MPD2    C511108   2.963   0.247   2.015  0.3252  0.1494 -0.0560
  748MPD2     H11109   2.925   4.614   1.897 -1.0483  0.5264 -1.8266
  748MPD2    H111110   3.116   0.253   1.867  2.0876 -1.4567  2.8458
  748MPD2    H211111   2.813   0.218   2.147 -1.2850 -1.2719 -0.3640
  748MPD2    H311112   2.979   0.349   2.047 -1.4012  0.1122  0.9708
  748MPD2     N11113   3.108   4.733   1.782 -0.3120  0.0872 -0.3939
  748MPD2    H511114   3.089   4.636   1.760 -0.0210  0.3397 -1.7458
  748MPD2    N111115   2.746   4.708   2.101  0.0318  0.6047  0.3854
  748MPD2    H711116   2.706   0.021   2.181  3.1568  3.0609  0.4390
  749TMC3    C111117   3.291   4.696   1.640  0.2896 -1.1049  0.4432
  749TMC3    C211118   3.262   4.567   1.644  0.1956  0.6674  1.1910
  749TMC3    C311119   3.360   4.477   1.608  0.4166 -0.3300  0.5900
  749TMC3    C411120   3.408   0.007   1.585 -0.1719  0.0467  0.3927
  749TMC3    C511121   3.495   4.652   1.533  0.0381 -0.1369 -0.5879
  749TMC3    C611122   3.476   4.514   1.545  0.5860 -0.2721  0.1989
  749TMC3     C11123   3.203   0.060   1.711 -0.3085  0.5931  0.2869
  749TMC3     O11124   3.231   0.179   1.694 -0.2440  0.4816 -0.5898
  749TMC3     H11125   3.173   4.523   1.686  0.2827 -3.1068 -2.5455
  749TMC3    H111126   3.422   0.112   1.561  1.8954  0.3627  3.0755
  749TMC3    H211127   3.554   4.452   1.501 -0.3439  0.1712 -2.0877
  749TMC3    C711128   3.590   4.705   1.433  0.3958  0.2079  0.5822
  749TMC3    C811129   3.328   4.332   1.631  0.7611  0.0965 -1.0400
  749TMC3    O111130   3.632   0.083   1.458 -0.2364  0.1713  0.9868
  749TMC3    O211131   3.211   4.300   1.632  0.2428 -1.0707  0.1476
  750MPD2     C11132   3.699   0.288  11.605  0.1314 -0.1962 -0.3589
  750MPD2    C111133   3.565   0.251  11.612 -0.4980 -0.3336  0.3153
  750MPD2    C211134   3.506   0.161  11.529 -0.2330  0.3112 -0.1949
  750MPD2    C311135   3.582   0.090  11.434  0.1647 -0.0856 -0.4199
  750MPD2    C411136   3.718   0.113  11.438  0.1897  0.4267  0.3918
  750MPD2    C511137   3.779   0.216  11.513  1.1461 -0.1784 -0.4601
  750MPD2     H11138   3.401   0.137  11.547 -0.2472 -0.5886 -1.4799
  750MPD2    H111139   3.782   0.063  11.367  0.3907 -0.8293  1.4631
  750MPD2    H211140   3.739   0.369  11.665  1.6560  0.4643 -2.2510
  750MPD2    H311141   3.886   0.228  11.504  1.1568 -0.5956 -0.9278
  750MPD2     N11142   3.530   0.002  11.339  0.0485  0.2074  0.3384
  750MPD2    H511143   3.595   4.681  11.285 -0.9557 -0.0159 -0.6408
  750MPD2    N111144   3.483   0.321  11.700 -0.5078  0.3785  0.8866
  750MPD2    H711145   3.532   0.395  11.750  1.7974  1.1229 -2.4289
  751TMC3    C111146   3.365   4.634  11.198  0.4852 -0.0349  0.0812
  751TMC3    C211147   3.251   4.561  11.205 -0.2037  0.5798  0.2327
  751TMC3    C311148   3.196   4.520  11.086  0.3122 -0.2947  0.4440
  751TMC3    C411149   3.417   4.683  11.082  0.4414  0.3046 -0.3618
  751TMC3    C511150   3.364   4.633  10.967  0.0760 -0.0147  0.1608
  751TMC3    C611151   3.252   4.555  10.964  0.0442  0.6286  0.0935
  751TMC3     C11152   3.394   4.697  11.326 -0.2557  0.1175 -0.0238
  751TMC3     O11153   3.296   4.709  11.402  0.0517  0.3093 -0.2321
  751TMC3     H11154   3.224   4.514  11.299  0.8452 -0.4250  0.0350
  751TMC3    H111155   3.509   0.006  11.077  0.8845 -0.6077 -2.6823
  751TMC3    H211156   3.215   4.511  10.872 -0.0869 -1.7256  1.2609
  751TMC3    C711157   3.423   4.685  10.845 -0.0559 -0.0433 -0.1667
  751TMC3    C811158   3.118   4.393  11.086 -0.2221  0.9915  0.8236
  751TMC3    O111159   3.497   0.053  10.867  0.2862  0.0031  0.8069
  751TMC3    O211160   3.143   4.321  10.990  0.2361  0.1990  0.1220
  752TMC3    C111161   2.812   0.268  17.411 -0.1743 -0.5520 -0.2550
  752TMC3    C211162   2.846   0.140  17.461  0.1066  0.4480 -0.6671
  752TMC3    C311163   2.828   0.121  17.602  0.0418  0.6138  0.0561
  752TMC3    C411164   2.755   0.363  17.492  0.1979 -0.2840 -0.0390
  752TMC3    C511165   2.724   0.333  17.625  0.1777 -0.4952  0.0928
  752TMC3    C611166   2.754   0.209  17.675  0.2647  0.6346 -0.0210
  752TMC3     C11167   2.852   0.297  17.273  0.2984 -0.5317 -0.4105
  752TMC3     O11168   2.971   0.263  17.249  0.1819 -0.1100 -0.0755
  752TMC3     H11169   2.904   0.066  17.407  0.1051 -2.0262  2.7248
  752TMC3    H111170   2.738   0.460  17.447  2.2882  0.3955  0.6522
  752TMC3    H211171   2.731   0.196   0.041 -0.5624 -0.2089 -0.3040
  752TMC3    C711172   2.676   0.449  17.708 -0.1694  0.2641 -0.0311
  752TMC3    C811173   2.846   4.721  17.654  0.5798 -0.5782  0.0312
  752TMC3    O111174   2.643   0.555  17.655 -0.1367 -0.3507  0.6303
  752TMC3    O211175   2.890   4.636  17.578 -0.0786 -0.2997  0.2857
  753TMC3    C111176   4.219   1.333  13.662  0.3493  0.3214 -0.0405
  753TMC3    C211177   4.322   1.347  13.761 -0.1979 -0.8642  0.2460
  753TMC3    C311178   4.398   1.238  13.789 -0.1896 -0.2851  0.0781
  753TMC3    C411179   4.198   1.203  13.613  0.7401  0.4536  0.3810
  753TMC3    C511180   4.280   1.099  13.658  0.1350 -0.0759 -0.4438
  753TMC3    C611181   4.387   1.112  13.739 -0.1320  0.6939  0.3052
  753TMC3     C11182   4.109   1.429  13.650  0.4811 -0.4721 -0.0988
  753TMC3     O11183   4.007   1.388  13.600 -0.2006  0.1241  0.5353
  753TMC3     H11184   4.349   1.444  13.801 -2.8003  0.3022 -0.8257
  753TMC3    H111185   4.135   1.188  13.526 -1.2916 -0.7502  2.0524
  753TMC3    H211186   4.437   1.024  13.778 -0.8205  1.1207  2.1224
  753TMC3    C711187   4.274   0.973  13.591  0.9714  0.1416  0.4964
  753TMC3    C811188   4.534   1.269  13.817  0.2321 -0.5852 -0.6547
  753TMC3    O111189   4.381   0.909  13.592 -0.0015  0.1679 -0.2067
  753TMC3    O211190   4.611   1.176  13.797  0.2390 -0.0550 -0.1198
  754MPD2     C11191   3.630   0.300  13.359  0.5084  0.0663  0.3268
  754MPD2    C111192   3.618   0.163  13.370 -1.1298 -0.7076 -0.3332
  754MPD2    C211193   3.491   0.109  13.364  0.6591  0.4243  0.2609
  754MPD2    C311194   3.375   0.188  13.354 -0.1969 -0.5222  0.2759
  754MPD2    C411195   3.393   0.326  13.347  0.3214  0.7430 -0.1671
  754MPD2    C511196   3.523   0.381  13.357  0.8769  0.0367  0.2670
  754MPD2     H11197   3.482   0.001  13.359 -0.4623  0.4779  1.2350
  754MPD2    H111198   3.304   0.388  13.354 -1.0456 -1.4438  1.7521
  754MPD2    H211199   3.720   0.357  13.384  0.6892  0.4898 -1.2938
  754MPD2    H311200   3.545   0.487  13.362 -0.3509  0.1906  2.1065
  754MPD2     N11201   3.243   0.136  13.349  0.3202  0.1677 -0.2844
  754MPD2    H511202   3.164   0.199  13.338  0.7400  0.4581 -1.6145
  754MPD2    N111203   3.733   0.089  13.388  0.8920 -0.1164 -0.6624
  754MPD2    H711204   3.812   0.153  13.384  2.6623 -2.3169 -0.6717
  755MPD2     C11205   2.548   0.661  13.356 -0.6263  0.1501 -0.0433
  755MPD2    C111206   2.483   0.539  13.359 -0.0177 -0.1958  0.1624
  755MPD2    C211207   2.560   0.425  13.346 -0.7668 -0.5596 -0.0042
  755MPD2    C311208   2.697   0.430  13.339 -0.1762 -0.1041  0.1538
  755MPD2    C411209   2.759   0.553  13.323 -0.2199  0.0739 -0.8751
  755MPD2    C511210   2.686   0.669  13.332 -0.2877  0.1961  0.7882
  755MPD2     H11211   2.502   0.335  13.356 -0.8085 -0.4110  1.1079
  755MPD2    H111212   2.864   0.564  13.300  0.5337  0.3304  2.7788
  755MPD2    H211213   2.493   0.752  13.377  0.8880  1.1800 -0.5784
  755MPD2    H311214   2.740   0.761  13.315 -0.1728  0.4521  2.5222
  755MPD2     N11215   2.776   0.310  13.336 -0.3262 -0.0303  0.5323
  755MPD2    H511216   2.874   0.329  13.320 -0.3663 -1.6000 -1.5769
  755MPD2    N111217   2.344   0.526  13.366 -0.1074 -0.2284  0.4148
  755MPD2    H711218   2.306   0.432  13.360  1.4170 -0.7858 -0.6008
  756MPD2     C11219   3.927   0.881  10.073  1.1381 -0.7425  0.2918
  756MPD2    C111220   3.822   0.803  10.105  0.3139  0.5134 -0.2341
  756MPD2    C211221   3.749   0.745  10.001  0.3057  0.1287  0.3307
  756MPD2    C311222   3.806   0.746   9.868  0.2367 -0.9167 -0.3103
  756MPD2    C411223   3.919   0.818   9.845  0.8502  0.4398 -0.2900
  756MPD2    C511224   3.973   0.888   9.945 -0.6773  0.1201  0.0780
  756MPD2     H11225   3.660   0.686  10.023 -0.6105  1.2164 -0.5122
  756MPD2    H111226   3.961   0.830   9.746  0.4127  1.8070 -0.3060
  756MPD2    H211227   3.980   0.943  10.146  0.5501  2.9718 -2.4359
  756MPD2    H311228   4.056   0.957   9.926 -0.9510 -0.0801 -1.9270
  756MPD2     N11229   3.739   0.677   9.769  0.1793 -0.7720 -0.8342
  756MPD2    H511230   3.660   0.622   9.803 -2.4879  2.4490 -1.7988
  756MPD2    N111231   3.766   0.797  10.232  0.0023  0.3248  0.1904
  756MPD2    H711232   3.670   0.764  10.239  0.0471  0.0253 -0.5832
  757MPD2     C11233   2.885   0.479   9.751  0.8376  0.0337  0.0552
  757MPD2    C111234   2.989   0.398   9.801  0.4064  0.4234  0.2044
  757MPD2    C211235   3.120   0.407   9.745 -0.5317 -0.1070  0.4810
  757MPD2    C311236   3.144   0.503   9.649  0.5759  0.1582 -0.8726
  757MPD2    C411237   3.041   0.593   9.605 -0.0608  0.1699 -0.3821
  757MPD2    C511238   2.917   0.575   9.653 -0.0981 -0.0932 -0.1846
  757MPD2     H11239   3.200   0.340   9.774 -1.6165 -0.8343  1.8099
  757MPD2    H111240   3.051   0.679   9.540  1.7295  1.1241  1.1818
  757MPD2    H211241   2.783   0.474   9.786  0.9430  0.4143  0.4155
  757MPD2    H311242   2.835   0.643   9.633 -0.3551  0.2173  1.9773
  757MPD2     N11243   3.279   0.507   9.608 -0.3132  0.1124  0.0061
  757MPD2    H511244   3.347   0.446   9.651 -1.3382 -2.0931 -1.5176
  757MPD2    N111245   2.939   0.300   9.884  0.7235  0.1031  0.0714
  757MPD2    H711246   2.844   0.311   9.919 -0.0565 -1.4168 -1.5744
  758MPD2     C11247   3.504   0.019  15.923 -0.0977  0.0657  0.6632
  758MPD2    C111248   3.504   4.655  16.021 -0.1601  0.3002 -0.4535
  758MPD2    C211249   3.414   4.664  16.129  0.2902  0.1337 -0.1651
  758MPD2    C311250   3.346   0.049  16.151 -0.7092 -0.3677  0.4503
  758MPD2    C411251   3.360   0.150  16.060 -0.3812 -0.0693  0.2148
  758MPD2    C511252   3.437   0.141  15.943  0.4043  0.5185 -0.0241
  758MPD2     H11253   3.379   4.575  16.179  1.1698  1.2681  2.4590
  758MPD2    H111254   3.302   0.240  16.074 -1.3444 -1.2167  3.7412
  758MPD2    H211255   3.563   0.004  15.834 -0.4277  2.8943 -0.0326
  758MPD2    H311256   3.438   0.216  15.865  3.4540 -0.9678 -1.4061
  758MPD2     N11257   3.258   0.068  16.260 -0.6683 -0.2583  0.3975
  758MPD2    H511258   3.230   0.165  16.274 -0.4332 -0.2441  0.7954
  758MPD2    N111259   3.571   4.534  15.994 -0.1530  0.0298  0.4022
  758MPD2    H711260   3.625   4.534  15.908  0.6830 -1.2433  0.9378
  759MPD2     C11261   2.837   2.522  10.224  0.3539 -0.1222 -0.7556
  759MPD2    C111262   2.719   2.560  10.284  0.3517  0.3314 -0.2284
  759MPD2    C211263   2.660   2.676  10.258 -0.3282  0.4728  0.1572
  759MPD2    C311264   2.712   2.755  10.155 -0.1960 -0.7466  0.6085
  759MPD2    C411265   2.818   2.709  10.075  0.4378 -0.5448 -0.3511
  759MPD2    C511266   2.882   2.593  10.117 -0.4655  1.0311  0.5737
  759MPD2     H11267   2.568   2.703  10.308 -2.9047  0.5711 -4.5701
  759MPD2    H111268   2.853   2.760   9.987 -0.5702  1.3586  0.3526
  759MPD2    H211269   2.890   2.428  10.235 -1.8740 -1.2510  0.2132
  759MPD2    H311270   2.970   2.552  10.068 -0.5634  1.6167 -0.0953
  759MPD2     N11271   2.649   2.877  10.124  0.5221 -0.0532  0.3449
  759MPD2    H511272   2.570   2.897  10.185  1.2854  0.0043  1.3220
  759MPD2    N111273   2.654   2.487  10.382  0.1453 -0.4064 -0.2235
  759MPD2    H711274   2.564   2.522  10.415 -0.0813 -0.4453 -0.7957
  760MPD2     C11275   1.768   0.024  12.071 -0.6536 -0.2954  0.1920
  760MPD2    C111276   1.895   0.063  12.104  0.1737  0.2680  0.3427
  760MPD2    C211277   1.960   4.724  12.202 -0.2224 -0.3075 -0.5936
  760MPD2    C311278   1.908   4.606  12.256  0.5042 -0.1250  0.4390
  760MPD2    C411279   1.783   4.563  12.212  0.5282  0.0543  0.0034
  760MPD2    C511280   1.713   4.639  12.118 -0.5456  0.4849 -0.0698
  760MPD2     H11281   2.055   0.031  12.234 -0.6964  1.4878 -1.5235
  760MPD2    H111282   1.727   4.476  12.244  1.8519 -1.6743 -2.3594
  760MPD2    H211283   1.704   0.067  11.995 -1.2089 -3.0440 -0.9002
  760MPD2    H311284   1.621   4.603  12.074  0.5892 -1.0318 -1.1727
  760MPD2     N11285   1.970   4.522  12.358  0.0609 -0.4551  0.0510
  760MPD2    H511286   1.910   4.447  12.392  1.8494 -0.0735  4.0131
  760MPD2    N111287   1.958   0.184  12.052  0.2038  0.5721 -0.2070
  760MPD2    H711288   2.052   0.201  12.084 -0.1372 -1.6769  1.9835
  761MPD2     C11289   2.966   3.993  11.379  0.3798  0.6808 -0.6472
  761MPD2    C111290   3.014   3.993  11.252 -0.5148 -0.4450 -0.2562
  761MPD2    C211291   3.042   4.104  11.188 -0.3563  0.1345  0.2887
  761MPD2    C311292   3.032   4.226  11.261  0.2826  0.1849  0.7324
  761MPD2    C411293   2.991   4.231  11.389  0.1435 -0.8057  0.6102
  761MPD2    C511294   2.952   4.112  11.441  0.0817  0.5309 -0.2364
  761MPD2     H11295   3.077   4.102  11.085 -2.5432 -1.1918 -0.4314
  761MPD2    H111296   2.983   4.320  11.450  0.4429 -0.4613  0.1441
  761MPD2    H211297   2.933   3.901  11.427  0.7066  2.0325  2.1652
  761MPD2    H311298   2.927   4.107  11.546  1.2872 -2.0862 -0.0685
  761MPD2     N11299   3.074   4.355  11.212  0.1435 -0.6515  0.0620
  761MPD2    H511300   3.066   4.433  11.277 -2.8271  0.0575 -1.1574
  761MPD2    N111301   3.031   3.862  11.192 -0.0473 -0.5822  0.0122
  761MPD2    H711302   3.019   3.784  11.255  0.9494  0.3075  1.3087
  762MPD2     C11303   3.310   3.130  10.716  0.3529  0.0597  0.1592
  762MPD2    C111304   3.320   3.267  10.728 -0.2764  0.0289 -0.5640
  762MPD2    C211305   3.428   3.329  10.663 -0.1679 -0.5847  0.2568
  762MPD2    C311306   3.515   3.254  10.588  0.0418 -0.4577 -0.1145
  762MPD2    C411307   3.501   3.115  10.570  0.0817 -0.0354  0.9132
  762MPD2    C511308   3.387   3.057  10.633  0.3607 -0.2399  0.2003
  762MPD2     H11309   3.437   3.436  10.659  2.5806 -0.8574 -0.6548
  762MPD2    H111310   3.577   3.056  10.520 -0.2192 -0.5686  1.0924
  762MPD2    H211311   3.244   3.068  10.775  1.8475 -2.6222 -0.9572
  762MPD2    H311312   3.356   2.956  10.610 -2.0168  0.5800 -0.1864
  762MPD2     N11313   3.621   3.325  10.520  0.2368  0.2012 -0.3387
  762MPD2    H511314   3.618   3.425  10.537  2.6631 -0.0827  1.7069
  762MPD2    N111315   3.221   3.338  10.798 -0.5351  0.7345  0.7059
  762MPD2    H711316   3.131   3.294  10.818 -1.8334  2.3180 -1.6617
  763MPD2     C11317   0.016   4.625  16.352 -0.3323 -1.2420  0.3266
  763MPD2    C111318   0.152   4.586  16.346  0.1623  0.5249 -0.2442
  763MPD2    C211319   0.236   4.630  16.442  0.0668  0.3067  0.3552
  763MPD2    C311320   0.199   4.718  16.545  0.0481  0.0117  0.0409
  763MPD2    C411321   0.062   0.011  16.557  0.0173 -0.2003 -0.1818
  763MPD2    C511322   4.713   4.692  16.464 -0.2813  0.2495 -0.5730
  763MPD2     H11323   0.337   4.590  16.435  0.1251  0.4022  0.6303
  763MPD2    H111324   0.015   0.048  16.647  1.8639 -0.5353  0.9308
  763MPD2    H211325   4.670   4.597  16.286 -1.0580  0.9520  0.2929
  763MPD2    H311326   4.609   4.724  16.465 -0.9488 -1.9838  0.0867
  763MPD2     N11327   0.294   0.035  16.633  0.0529  0.0884 -0.3047
  763MPD2    H511328   0.392   0.018  16.615  0.7331  1.8495  1.6493
  763MPD2    N111329   0.204   4.508  16.246  0.1118 -0.2394  1.0763
  763MPD2    H711330   0.305   4.492  16.252  0.2331  0.5630  1.1205
  764MPD2     C11331   3.961   1.606   0.508 -0.0449  0.4306  0.3160
  764MPD2    C111332   3.919   1.540   0.393  0.8452  0.2379 -0.1242
  764MPD2    C211333   3.801   1.470   0.403  1.1892 -0.0955  0.4883
  764MPD2    C311334   3.729   1.471   0.517  0.0877  0.4357 -0.3976
  764MPD2    C411335   3.771   1.533   0.629 -0.3721 -0.2081 -0.0097
  764MPD2    C511336   3.890   1.606   0.620  0.1438 -0.0614 -0.5085
  764MPD2     H11337   3.758   1.415   0.321 -1.4730  2.4677  0.1460
  764MPD2    H111338   3.721   1.529   0.726  0.4703 -2.4370  0.3216
  764MPD2    H211339   4.052   1.663   0.516 -0.2795  1.3028 -3.1651
  764MPD2    H311340   3.915   1.677   0.699 -0.2470  0.5403 -0.9244
  764MPD2     N11341   3.609   1.396   0.520  0.2654  0.6980  0.1237
  764MPD2    H511342   3.590   1.369   0.425  1.0337  0.0444  0.1574
  764MPD2    N111343   3.989   1.537   0.269  0.0857 -0.5969  0.6533
  764MPD2    H711344   3.937   1.504   0.188  0.6723 -0.7365  0.3323
  765MPD2     C11345   3.044   3.960  15.814 -0.2430 -0.2113  0.4908
  765MPD2    C111346   3.144   4.038  15.864  1.4047  0.2270 -0.4152
  765MPD2    C211347   3.278   4.013  15.835  0.3016  0.7806  0.2295
  765MPD2    C311348   3.304   3.899  15.762  1.1928 -0.4279  0.6268
  765MPD2    C411349   3.208   3.824  15.699 -0.2439 -0.2559 -0.3436
  765MPD2    C511350   3.078   3.857  15.728 -1.7715 -0.1179  0.9550
  765MPD2     H11351   3.364   4.073  15.862  2.5163 -2.0226 -0.5293
  765MPD2    H111352   3.210   3.736  15.636 -0.5709 -0.8946  0.5343
  765MPD2    H211353   2.937   3.973  15.828  0.0060  0.5524  1.6811
  765MPD2    H311354   3.006   3.788  15.687  0.0630 -0.9614 -0.8595
  765MPD2     N11355   3.443   3.876  15.736  0.0303  0.0984 -0.3247
  765MPD2    H511356   3.509   3.921  15.799 -2.4503 -0.4353  2.6582
  765MPD2    N111357   3.100   4.146  15.948 -0.5616  0.2076 -0.3990
  765MPD2    H711358   3.002   4.169  15.950 -0.1949  1.5097  2.6392
  766MPD2     C11359   2.483   4.369  15.750  0.0386 -0.4366 -0.0110
  766MPD2    C111360   2.609   4.326  15.755  0.0074 -0.1689 -1.5044
  766MPD2    C211361   2.665   4.251  15.652 -0.0321  0.0739  0.8482
  766MPD2    C311362   2.578   4.208  15.549 -0.5431  0.4231  0.6287
  766MPD2    C411363   2.449   4.252  15.551 -0.0358  0.0340  0.1311
  766MPD2    C511364   2.402   4.338  15.646 -0.0211 -0.0811 -0.4471
  766MPD2     H11365   2.769   4.224  15.664  0.0281  0.3048  0.8435
  766MPD2    H111366   2.382   4.214  15.475 -0.0326 -1.2556  0.7770
  766MPD2    H211367   2.443   4.436  15.825  1.2013 -0.4406  0.6035
  766MPD2    H311368   2.301   4.375  15.638  0.1112  0.4349  0.3400
  766MPD2     N11369   2.614   4.125  15.442 -0.0736 -0.4500  0.0342
  766MPD2    H511370   2.546   4.095  15.373  1.1544 -0.1666 -1.3005
  766MPD2    N111371   2.683   4.371  15.870  0.4131 -0.4069 -0.8019
  766MPD2    H711372   2.638   4.439  15.930  1.5968 -0.7537  0.4918
  767MPD2     C11373   2.284   4.418  15.309  0.5282  0.4966  0.5140
  767MPD2    C111374   2.399   4.402  15.240 -0.6875  0.1173 -1.1304
  767MPD2    C211375   2.390   4.318  15.139  0.2175  0.1746 -0.2885
  767MPD2    C311376   2.276   4.244  15.106 -0.4133 -0.2337 -0.3651
  767MPD2    C411377   2.164   4.253  15.189 -0.0369 -0.5707 -0.0202
  767MPD2    C511378   2.170   4.338  15.294  0.3926  0.3716  0.5625
  767MPD2     H11379   2.478   4.304  15.077 -0.0330 -2.3203 -0.0826
  767MPD2    H111380   2.082   4.183  15.181 -0.9697  0.4793  0.3401
  767MPD2    H211381   2.284   4.493  15.388 -1.6334  0.2738  0.7277
  767MPD2    H311382   2.084   4.341  15.360 -0.2344 -0.4717 -0.2252
  767MPD2     N11383   2.273   4.165  14.990  0.5621 -0.4772  0.2647
  767MPD2    H511384   2.366   4.152  14.952  0.3345 -1.3570 -0.0164
  767MPD2    N111385   2.510   4.474  15.286 -0.1946 -0.1256 -0.5739
  767MPD2    H711386   2.494   4.527  15.371  1.3640  0.8132 -0.8780
  768MPD2     C11387   3.089   2.048  11.011  0.1106  0.5817 -0.2089
  768MPD2    C111388   3.058   2.130  11.117 -0.2142 -0.0455 -0.3792
  768MPD2    C211389   3.166   2.161  11.194 -0.2530 -0.4617  0.2369
  768MPD2    C311390   3.300   2.133  11.159 -0.9486  0.2965  0.7211
  768MPD2    C411391   3.328   2.050  11.048 -0.1389 -0.6099  0.8489
  768MPD2    C511392   3.212   2.006  10.982  0.0071  1.0500  0.0049
  768MPD2     H11393   3.134   2.228  11.273  0.8279 -0.9469  1.0881
  768MPD2    H111394   3.430   2.020  11.027 -0.2619 -0.2102 -0.2916
  768MPD2    H211395   3.010   2.017  10.943  0.2219 -1.9354  0.7971
  768MPD2    H311396   3.208   1.938  10.897 -1.1679 -0.6409  1.4098
  768MPD2     N11397   3.408   2.189  11.238 -0.1621 -0.0390  0.0139
  768MPD2    H511398   3.504   2.162  11.220 -0.0491  0.1841  0.2917
  768MPD2    N111399   2.932   2.187  11.139  0.4501 -0.0893  0.3391
  768MPD2    H711400   2.918   2.238  11.225 -1.3564 -0.1214  0.0558
  769MPD2     C11401   4.218   1.037  14.991 -0.0459  0.0583  0.2372
  769MPD2    C111402   4.169   0.943  15.077  0.0699 -0.2921  0.2093
  769MPD2    C211403   4.192   0.971  15.214  0.2518 -0.3378  0.2194
  769MPD2    C311404   4.259   1.085  15.260  0.0775 -0.9826 -0.3828
  769MPD2    C411405   4.304   1.175  15.166 -0.8517 -0.0489 -0.1251
  769MPD2    C511406   4.282   1.150  15.031 -0.1756 -0.2158  0.5860
  769MPD2     H11407   4.158   0.900  15.289 -2.1188 -0.0936 -0.6352
  769MPD2    H111408   4.363   1.258  15.204  0.1421  0.1393 -2.0907
  769MPD2    H211409   4.201   1.031  14.884  2.7410 -2.2310 -0.0602
  769MPD2    H311410   4.306   1.228  14.961 -0.5599  0.4489  1.1972
  769MPD2     N11411   4.291   1.113  15.400  0.7160  0.2245 -0.3709
  769MPD2    H511412   4.346   1.196  15.418 -0.2167  0.2271  2.4811
  769MPD2    N111413   4.102   0.829  15.028 -0.4107  0.1178  0.4344
  769MPD2    H711414   4.106   0.808  14.928  1.6071 -0.8314  0.7067
  770MPD2     C11415   4.171   4.511  15.045 -0.2905 -0.4271 -0.3540
  770MPD2    C111416   4.049   4.547  14.991  0.1693  0.3741  0.4940
  770MPD2    C211417   4.018   4.684  14.976 -0.2988 -0.6269 -0.3893
  770MPD2    C311418   4.105   0.044  15.012  0.8235  0.3032  0.6125
  770MPD2    C411419   4.217   0.007  15.077 -0.7968  0.1113  0.1679
  770MPD2    C511420   4.252   4.611  15.100 -0.0058 -0.0359  0.3745
  770MPD2     H11421   3.923   4.708  14.930 -0.1174  0.0745 -0.4048
  770MPD2    H111422   4.299   0.069  15.112  0.3046 -2.6609  2.4886
  770MPD2    H211423   4.204   4.410  15.069  3.0946  0.3315 -1.7838
  770MPD2    H311424   4.343   4.586  15.153 -0.5384  2.7687  2.5671
  770MPD2     N11425   4.064   0.179  14.977  0.2334  1.0363  0.2489
  770MPD2    H511426   3.972   0.191  14.935  0.4381 -1.0080 -0.8009
  770MPD2    N111427   3.963   4.442  14.967  0.3326  0.0325  0.3304
  770MPD2    H711428   4.000   4.351  14.995  0.9142  0.5607  1.2754
  771MPD2     C11429   0.045   3.043  13.629 -0.4116 -0.6304  0.6420
  771MPD2    C111430   4.683   3.132  13.655 -0.4417  0.5085 -0.5060
  771MPD2    C211431   4.553   3.080  13.654 -0.6195 -0.4515 -0.6709
  771MPD2    C311432   4.531   2.945  13.634 -0.5739 -0.4122  0.0888
  771MPD2    C411433   4.635   2.860  13.594  0.6627  0.7420  0.2994
  771MPD2    C511434   0.024   2.913  13.583 -0.0081  0.4149 -0.0966
  771MPD2     H11435   4.468   3.136  13.690  0.1000 -0.7103  1.4092
  771MPD2    H111436   4.625   2.758  13.559 -1.8269  1.5606 -1.3766
  771MPD2    H211437   0.149   3.074  13.628 -0.8780  0.8762 -1.2415
  771MPD2    H311438   0.109   2.861  13.541  0.4159  0.2684  0.9512
  771MPD2     N11439   4.400   2.895  13.638 -0.2246  0.2386 -0.1093
  771MPD2    H511440   4.332   2.971  13.639  0.3877  0.7799  0.4106
  771MPD2    N111441   4.705   3.267  13.701 -0.5986 -0.1618  0.4009
  771MPD2    H711442   4.623   3.324  13.718 -1.9165 -1.8007 -0.3882
  772MPD2     C11443   4.554   4.001  13.571 -0.0695  0.4970  0.7117
  772MPD2    C111444   4.516   3.884  13.628  0.1865 -0.5172  0.3411
  772MPD2    C211445   4.382   3.854  13.649  0.3627  0.3070  0.1321
  772MPD2    C311446   4.290   3.961  13.646 -0.1700 -0.0330 -0.4490
  772MPD2    C411447   4.330   4.085  13.596  0.0643 -0.6380 -0.1688
  772MPD2    C511448   4.463   4.105  13.556 -0.2737 -0.1835 -0.0015
  772MPD2     H11449   4.361   3.761  13.701 -0.1564  0.3766  0.0482
  772MPD2    H111450   4.256   4.164  13.593  2.1646  1.2807 -1.0127
  772MPD2    H211451   4.652   4.029  13.537 -1.0263  1.9536 -0.8480
  772MPD2    H311452   4.498   4.200  13.516  0.8422 -0.2981  0.6979
  772MPD2     N11453   4.161   3.963  13.700 -0.1077  0.5291  0.3792
  772MPD2    H511454   4.095   4.039  13.689  0.0208  0.6217  0.2560
  772MPD2    N111455   4.615   3.779  13.655  0.0236 -0.2512  0.3503
  772MPD2    H711456   4.583   3.685  13.677 -0.5776 -0.2373 -0.4748
  773MPD2     C11457   3.845   4.522   0.750 -0.5858  0.0662  0.0890
  773MPD2    C111458   3.911   4.512   0.628 -0.3806  0.9162 -0.1420
  773MPD2    C211459   4.020   4.431   0.621 -0.1735  0.3800 -0.6660
  773MPD2    C311460   4.090   4.397   0.730 -0.3766 -0.1647  0.7762
  773MPD2    C411461   4.038   4.428   0.850 -0.1394 -0.1987  0.3117
  773MPD2    C511462   3.912   4.486   0.864 -0.1210  0.3554  0.2086
  773MPD2     H11463   4.060   4.401   0.525 -0.8828  0.4246 -0.9749
  773MPD2    H111464   4.088   4.399   0.942  0.4472 -1.5889 -0.4407
  773MPD2    H211465   3.748   4.568   0.769 -0.5440 -0.1785  0.8955
  773MPD2    H311466   3.881   4.504   0.966 -5.9741 -1.5064 -1.2771
  773MPD2     N11467   4.215   4.324   0.713 -0.1237 -0.0808  0.1188
  773MPD2    H511468   4.234   4.306   0.615  2.0462 -2.9638  1.0711
  773MPD2    N111469   3.848   4.551   0.505 -0.1726  0.0678 -0.4401
  773MPD2    H711470   3.890   4.500   0.427  1.1815  1.2608 -0.4890
  774MPD2     C11471   3.281   3.911  13.675  0.0158  0.1146 -0.1378
  774MPD2    C111472   3.240   4.027  13.736  0.2196 -0.1361 -0.1851
  774MPD2    C211473   3.314   4.140  13.718  0.0405  0.3255  0.3443
  774MPD2    C311474   3.439   4.134  13.655 -0.1987 -0.6586  0.8672
  774MPD2    C411475   3.482   4.021  13.592  0.5546 -0.0291 -0.1833
  774MPD2    C511476   3.403   3.913  13.605 -0.1452 -0.3753  0.3245
  774MPD2     H11477   3.277   4.236  13.751 -0.5787  1.0877 -2.5813
  774MPD2    H111478   3.570   4.018  13.530  0.5001  0.6105 -0.3011
  774MPD2    H211479   3.214   3.826  13.673 -0.4541  0.4332  1.9779
  774MPD2    H311480   3.426   3.828  13.542  3.0726  1.0377 -0.3990
  774MPD2     N11481   3.509   4.256  13.656  0.1931  0.0415  0.5775
  774MPD2    H511482   3.469   4.334  13.706  1.6805  0.3194  1.3120
  774MPD2    N111483   3.124   4.016  13.815 -0.2936 -0.1053 -0.0197
  774MPD2    H711484   3.078   3.926  13.821  2.4038 -1.5242 -0.6440
  775MPD2     C11485   4.446   0.653  15.689 -0.2380 -0.8446 -0.3902
  775MPD2    C111486   4.542   0.721  15.764  0.1655  0.0960  0.2858
  775MPD2    C211487   4.614   0.814  15.700 -0.1766 -0.2364 -0.0938
  775MPD2    C311488   4.598   0.840  15.564 -0.4839 -0.3246 -0.0074
  775MPD2    C411489   4.505   0.777  15.486 -0.0622 -0.3356 -0.4159
  775MPD2    C511490   4.423   0.685  15.550 -0.3615  0.6191 -0.2592
  775MPD2     H11491   4.701   0.856  15.749 -0.6154 -0.0631  0.5470
  775MPD2    H111492   4.483   0.812  15.386 -0.0502  0.6611 -0.0697
  775MPD2    H211493   4.390   0.572  15.734 -2.3842  0.8416 -0.0413
  775MPD2    H311494   4.345   0.641  15.489  0.0307 -0.2398 -0.1331
  775MPD2     N11495   4.672   0.941  15.498 -0.5446 -0.8994  0.3517
  775MPD2    H511496   4.667   0.950  15.397 -1.3383  0.9915  0.5669
  775MPD2    N111497   4.565   0.679  15.904  0.2322 -0.1114  0.1131
  775MPD2    H711498   4.495   0.618  15.945 -1.7351  1.9423 -0.1831
  776MPD2     C11499   3.111   1.074  11.779  0.5688 -0.4872  0.4290
  776MPD2    C111500   3.230   1.003  11.778  0.5284 -0.3252 -0.0683
  776MPD2    C211501   3.331   1.060  11.707  0.2161  0.0310  0.1914
  776MPD2    C311502   3.325   1.176  11.637  0.1229 -0.1057 -0.1179
  776MPD2    C411503   3.200   1.244  11.639 -1.1546 -0.1610 -0.1359
  776MPD2    C511504   3.094   1.189  11.708 -0.2955  0.0479 -0.0383
  776MPD2     H11505   3.421   1.001  11.692 -0.1277 -0.1308 -1.2881
  776MPD2    H111506   3.187   1.333  11.579 -0.1836  0.5465  0.7180
  776MPD2    H211507   3.020   1.030  11.818  0.7802 -0.1993  1.2314
  776MPD2    H311508   2.998   1.240  11.705 -0.2577  0.1207  0.0161
  776MPD2     N11509   3.427   1.223  11.558  0.0277 -0.2205  0.0715
  776MPD2    H511510   3.413   1.314  11.515 -2.9584 -1.0320 -0.6564
  776MPD2    N111511   3.227   0.874  11.841 -0.2489 -0.2064  0.5758
  776MPD2    H711512   3.147   0.859  11.902  0.1709  0.6711  1.3465
  777MPD2     C11513   3.945   3.801   1.124 -0.6080  0.4365  0.0178
  777MPD2    C111514   4.019   3.710   1.201 -0.1363  0.1877 -0.0911
  777MPD2    C211515   4.069   3.596   1.143 -0.3796 -1.0576 -0.1501
  777MPD2    C311516   4.056   3.563   1.007 -1.1990 -0.4640  0.2197
  777MPD2    C411517   3.987   3.662   0.934  0.7072  0.1936  1.4948
  777MPD2    C511518   3.926   3.770   0.991  0.0728 -0.1874 -0.1877
  777MPD2     H11519   4.117   3.530   1.214 -1.8132  0.8673  2.5929
  777MPD2    H111520   3.970   3.646   0.828  0.8014 -1.6380  1.7543
  777MPD2    H211521   3.896   3.885   1.172 -1.1326 -1.4053  2.7616
  777MPD2    H311522   3.868   3.837   0.928 -0.0927  0.5029  0.6985
  777MPD2     N11523   4.092   3.439   0.945  0.1494  0.1158 -0.3597
  777MPD2    H511524   4.127   3.364   1.003 -0.1103  1.5970  1.7126
  777MPD2    N111525   4.047   3.755   1.327 -0.9084  0.3935 -0.1223
  777MPD2    H711526   4.003   3.845   1.344  0.4717  1.6833 -3.2778
  778MPD2     C11527   0.472   3.799  15.261 -0.3541  0.4247 -0.5327
  778MPD2    C111528   0.448   3.702  15.167 -0.0246  0.4032  0.1090
  778MPD2    C211529   0.509   3.717  15.039 -0.8001 -0.4819  0.3075
  778MPD2    C311530   0.592   3.825  15.008 -1.0760 -0.4388  0.2123
  778MPD2    C411531   0.616   3.911  15.109  1.3946 -0.5917 -0.2046
  778MPD2    C511532   0.558   3.902  15.231  0.1892 -0.4683  0.0325
  778MPD2     H11533   0.496   3.639  14.965  2.8318 -0.4698 -0.3661
  778MPD2    H111534   0.695   3.984  15.094  1.0533 -0.1260  0.2843
  778MPD2    H211535   0.440   3.792  15.364  2.6425 -0.6702  0.3379
  778MPD2    H311536   0.577   3.971  15.312  0.4571 -0.5396  0.0323
  778MPD2     N11537   0.666   3.821  14.888 -0.5246  0.5098 -0.1217
  778MPD2    H511538   0.664   3.734  14.835 -2.3499  0.1130  0.5794
  778MPD2    N111539   0.360   3.594  15.182  0.0995 -0.2498  0.3945
  778MPD2    H711540   0.352   3.538  15.098  1.3044 -1.4497  1.0834
  779MPD2     C11541   4.472   2.466  14.258 -0.0035 -0.8134 -0.1349
  779MPD2    C111542   4.609   2.456  14.263  0.1766  0.6645  0.6389
  779MPD2    C211543   4.684   2.568  14.241  0.8045  0.5812 -0.1002
  779MPD2    C311544   4.625   2.687  14.202  0.8175 -0.7968 -0.1140
  779MPD2    C411545   4.489   2.689  14.193  0.9581  0.2120 -0.1216
  779MPD2    C511546   4.412   2.579  14.217  0.5472  0.3061  0.2799
  779MPD2     H11547   0.057   2.561  14.243  0.6359 -1.5394  2.9671
  779MPD2    H111548   4.435   2.781  14.173  0.5527  0.0567  0.2392
  779MPD2    H211549   4.409   2.381  14.283 -1.4101  0.5121  0.8333
  779MPD2    H311550   4.304   2.576  14.209  0.4473 -2.4373  2.7766
  779MPD2     N11551   4.702   2.800  14.170  0.6561 -0.0546  0.2106
  779MPD2    H511552   0.068   2.796  14.179  0.5114 -0.2916  1.8169
  779MPD2    N111553   4.676   2.339  14.288 -0.4810  0.0392  0.6306
  779MPD2    H711554   0.041   2.345  14.307 -0.1052 -3.0974 -0.3421
  780MPD2     C11555   0.455   2.462   1.131  0.0741  0.0496 -0.0999
  780MPD2    C111556   0.327   2.440   1.075  0.3853 -0.8346  0.3475
  780MPD2    C211557   0.297   2.479   0.947 -0.7020 -0.3952  0.3219
  780MPD2    C311558   0.391   2.552   0.876  0.5576  0.1645 -0.0309
  780MPD2    C411559   0.517   2.569   0.925 -0.0556  0.9105  0.4880
  780MPD2    C511560   0.545   2.527   1.056 -0.3699  0.4495  0.5326
  780MPD2     H11561   0.206   2.449   0.896 -1.1766 -0.6191  1.2854
  780MPD2    H111562   0.592   2.628   0.874 -1.0075  0.4039 -1.5073
  780MPD2    H211563   0.484   2.434   1.232  0.7059  0.4368 -0.1752
  780MPD2    H311564   0.644   2.540   1.098  0.1538 -1.7435 -0.0571
  780MPD2     N11565   0.363   2.590   0.744  0.0883 -0.6289  0.3531
  780MPD2    H511566   0.270   2.571   0.706  0.1081 -0.6226  0.3009
  780MPD2    N111567   0.228   2.372   1.151  0.0991  0.2426  0.2855
  780MPD2    H711568   0.258   2.320   1.234 -0.1120  1.4537  1.1162
  781MPD2     C11569   1.255   3.800  12.154  0.1527  0.1664 -0.0998
  781MPD2    C111570   1.370   3.809  12.227 -0.6749 -0.5437  0.0334
  781MPD2    C211571   1.495   3.775  12.176 -1.0225 -0.1714  1.2052
  781MPD2    C311572   1.497   3.724  12.044  0.8839  0.2858  0.1384
  781MPD2    C411573   1.385   3.732  11.962 -0.5574  0.4695  0.3735
  781MPD2    C511574   1.266   3.750  12.023 -0.3258  0.6958 -0.0689
  781MPD2     H11575   1.586   3.787  12.233 -1.3224 -0.4047  1.7351
  781MPD2    H111576   1.381   3.689  11.862 -3.1474  2.6581 -0.4468
  781MPD2    H211577   1.153   3.802  12.189  0.2726  2.3371  0.1163
  781MPD2    H311578   1.172   3.729  11.972 -0.8850  2.0627  0.3675
  781MPD2     N11579   1.616   3.677  11.983  0.5313 -0.3686 -0.1021
  781MPD2    H511580   1.615   3.651  11.885 -2.7035 -0.3790 -0.0585
  781MPD2    N111581   1.346   3.872  12.346  0.4687  0.4354  0.1469
  781MPD2    H711582   1.252   3.902  12.368  1.0241  1.8876  0.5103
  782MPD2     C11583   3.789   0.268  10.892  0.5057  0.3903 -0.4303
  782MPD2    C111584   3.910   0.286  10.830  0.4968 -0.2168 -0.0613
  782MPD2    C211585   4.021   0.216  10.887 -0.6817  0.7412  0.7855
  782MPD2    C311586   4.001   0.139  11.002  1.1167  0.1464 -0.2582
  782MPD2    C411587   3.874   0.120  11.048 -0.2693  0.0949 -0.0556
  782MPD2    C511588   3.767   0.190  10.998  0.0329  0.0290 -1.0519
  782MPD2     H11589   4.121   0.224  10.844 -1.2963  2.6872 -0.2920
  782MPD2    H111590   3.860   0.071  11.144  0.2513 -1.6204 -0.8660
  782MPD2    H211591   3.701   0.322  10.861  0.9662  2.2026  1.4099
  782MPD2    H311592   3.675   0.184  11.054  1.8779 -0.4389  1.9655
  782MPD2     N11593   4.116   0.084  11.069 -0.3600 -0.1899 -0.2473
  782MPD2    H511594   4.202   0.109  11.022  0.0630  1.3303  1.3174
  782MPD2    N111595   3.928   0.362  10.717  0.2779 -0.0204  0.5753
  782MPD2    H711596   4.024   0.378  10.687  0.4963 -0.1597  1.1883
  783MPD2     C11597   3.396   4.575  10.501  0.8196  0.0606  0.3935
  783MPD2    C111598   3.428   4.665  10.599  0.2656  0.6052  0.7785
  783MPD2    C211599   3.510   0.040  10.571 -0.4990 -0.1592  0.1867
  783MPD2    C311600   3.561   0.058  10.443  0.0257 -0.6250  0.3263
  783MPD2    C411601   3.522   4.704  10.349 -0.3343  0.6397 -0.0047
  783MPD2    C511602   3.434   4.601  10.375  0.2757  0.5639 -0.2631
  783MPD2     H11603   3.528   0.116  10.646 -1.4008  2.8642 -2.6507
  783MPD2    H111604   3.563   4.711  10.249 -1.6124  0.3656 -0.5479
  783MPD2    H211605   3.334   4.487  10.518 -2.1942  2.3567  1.1882
  783MPD2    H311606   3.403   4.531  10.298  0.3379 -0.7363  0.8848
  783MPD2     N11607   3.650   0.164  10.426 -0.1115  0.5148  0.4277
  783MPD2    H511608   3.639   0.243  10.490  0.9731  1.3818 -0.4508
  783MPD2    N111609   3.388   4.628  10.729 -0.2623 -0.4746  0.4192
  783MPD2    H711610   3.356   4.532  10.732  1.3892 -1.0404 -0.1167
  784MPD2     C11611   2.236   0.227   0.762  0.0181 -0.0971  0.1699
  784MPD2    C111612   2.241   0.364   0.770  0.2162  0.6824  0.2537
  784MPD2    C211613   2.142   0.433   0.707  0.1863 -0.3268 -0.8769
  784MPD2    C311614   2.028   0.373   0.655 -0.4074 -0.2619 -0.2797
  784MPD2    C411615   2.028   0.237   0.645  0.2221 -0.1184  0.2596
  784MPD2    C511616   2.136   0.170   0.692 -0.1047  0.4282  0.7493
  784MPD2     H11617   2.141   0.541   0.709 -0.8425 -0.3491  0.2474
  784MPD2    H111618   1.943   0.179   0.610 -0.8951  0.5095  1.9434
  784MPD2    H211619   2.306   0.168   0.821  0.8391  0.5755 -0.1374
  784MPD2    H311620   2.136   0.062   0.685 -1.3378  0.6277 -2.5781
  784MPD2     N11621   1.924   0.452   0.607  0.2672 -0.0148  0.0041
  784MPD2    H511622   1.940   0.551   0.618 -1.2372  0.0694  1.5575
  784MPD2    N111623   2.349   0.429   0.840 -0.2629 -0.4580 -0.0131
  784MPD2    H711624   2.417   0.384   0.901  0.7085 -1.1618 -1.6298
  785MPD2     C11625   1.952   3.493  11.370 -0.3200 -0.4573  0.6363
  785MPD2    C111626   1.859   3.587  11.386 -0.2466 -0.3161  0.3640
  785MPD2    C211627   1.722   3.566  11.351  0.1025  0.4057 -0.3392
  785MPD2    C311628   1.680   3.452  11.287  0.1293 -0.5926 -0.5252
  785MPD2    C411629   1.774   3.354  11.278  0.3525  0.6021  0.1829
  785MPD2    C511630   1.902   3.382  11.319  0.1941  0.3873 -0.7236
  785MPD2     H11631   1.659   3.653  11.368  1.4919  1.3014  0.2591
  785MPD2    H111632   1.759   3.263  11.221 -2.0535 -0.3178  2.2901
  785MPD2    H211633   2.053   3.506  11.407 -1.5656  1.8594  3.1860
  785MPD2    H311634   1.972   3.305  11.289  0.5621  1.1749 -1.8789
  785MPD2     N11635   1.549   3.438  11.243 -0.1588  0.2152  0.0287
  785MPD2    H511636   1.482   3.506  11.279 -0.5926 -0.6660  0.8866
  785MPD2    N111637   1.884   3.710  11.454 -0.4257  0.5347 -0.3810
  785MPD2    H711638   1.805   3.773  11.455  0.5544  1.7580  0.8572
  786MPD2     C11639   0.644   1.383  15.218  0.1620 -1.4833  0.4967
  786MPD2    C111640   0.750   1.301  15.183 -0.1564 -0.0559 -0.1212
  786MPD2    C211641   0.863   1.297  15.262 -0.0215 -0.5425  0.7274
  786MPD2    C311642   0.884   1.385  15.360 -0.0009 -0.0921 -0.0186
  786MPD2    C411643   0.775   1.470  15.391  0.2836  0.0872  0.0004
  786MPD2    C511644   0.655   1.460  15.327 -0.1495  0.3125  0.4654
  786MPD2     H11645   0.934   1.219  15.235 -0.1057 -0.2016 -0.4506
  786MPD2    H111646   0.781   1.543  15.470 -1.1163 -0.0608  0.2304
  786MPD2    H211647   0.547   1.374  15.170  0.6488 -0.2459 -0.7305
  786MPD2    H311648   0.572   1.523  15.359 -0.4685  0.2729 -0.2740
  786MPD2     N11649   1.009   1.404  15.424 -0.3734  0.3314 -0.0885
  786MPD2    H511650   1.012   1.473  15.498  0.9303  0.5993 -0.4004
  786MPD2    N111651   0.752   1.214  15.074  0.0364 -0.5803 -0.2917
  786MPD2    H711652   0.832   1.152  15.076 -0.0987 -0.7019  2.2791
  787MPD2     C11653   1.248   0.750  14.587  0.5679 -0.1230 -0.9511
  787MPD2    C111654   1.232   0.866  14.652  0.2092 -0.1005 -0.0066
  787MPD2    C211655   1.342   0.940  14.704 -0.0117  0.4242 -0.5000
  787MPD2    C311656   1.467   0.890  14.678  0.3727  0.3492  0.5484
  787MPD2    C411657   1.478   0.767  14.611 -0.1766  0.1552 -0.1224
  787MPD2    C511658   1.371   0.700  14.568 -0.2396  0.1118  0.0548
  787MPD2     H11659   1.336   1.012  14.785  0.1312  1.8115 -1.7306
  787MPD2    H111660   1.575   0.724  14.589 -0.3457 -0.4383  0.2929
  787MPD2    H211661   1.162   0.699  14.543  2.1955 -3.0369 -0.7394
  787MPD2    H311662   1.383   0.608  14.513  0.8993  1.1454 -1.4390
  787MPD2     N11663   1.579   0.955  14.735  0.5982 -0.2581 -0.1181
  787MPD2    H511664   1.575   1.050  14.770 -0.2816 -0.6606  0.8971
  787MPD2    N111665   1.104   0.920  14.677 -0.2087  0.3218 -0.5821
  787MPD2    H711666   1.031   0.882  14.618 -3.9132  0.8153  3.6305
  788MPD2     C11667   2.310   4.625   1.434  0.5136  0.1451 -0.3023
  788MPD2    C111668   2.407   4.542   1.382 -0.4897 -0.2097  1.0327
  788MPD2    C211669   2.513   4.606   1.319 -0.2592 -0.1906  0.0085
  788MPD2    C311670   2.523   0.009   1.303 -0.0517  0.1663 -0.2103
  788MPD2    C411671   2.425   0.085   1.360  0.1024  0.2045 -0.3840
  788MPD2    C511672   2.326   0.028   1.431  0.3206 -0.0224  0.9027
  788MPD2     H11673   2.597   4.547   1.285  0.9409  2.8107 -2.2221
  788MPD2    H111674   2.426   0.193   1.350  1.1301  0.1834 -0.5465
  788MPD2    H211675   2.217   4.584   1.471  0.0249  0.9267 -0.6813
  788MPD2    H311676   2.245   0.090   1.468 -1.9284 -0.2904 -3.4401
  788MPD2     N11677   2.620   0.083   1.240 -0.4080  0.6047 -0.3262
  788MPD2    H511678   2.610   0.184   1.241 -0.2147  0.6337 -0.8751
  788MPD2    N111679   2.401   4.398   1.390  0.0771 -0.1020 -0.3824
  788MPD2    H711680   2.456   4.347   1.322  1.1124  0.5369 -0.0342
  789MPD2     C11681   3.227   4.390  16.720 -0.2307 -0.3219 -0.2843
  789MPD2    C111682   3.111   4.392  16.648  0.8909 -0.4624  0.3748
  789MPD2    C211683   3.015   4.492  16.662  0.3616 -0.4824  0.2455
  789MPD2    C311684   3.037   4.601  16.744 -0.3027 -0.1050  0.0544
  789MPD2    C411685   3.157   4.600  16.812 -0.2803  0.0890 -0.1329
  789MPD2    C511686   3.250   4.500  16.800 -0.5795 -0.4428  0.5206
  789MPD2     H11687   2.922   4.494  16.608  1.0276  1.8407 -0.8255
  789MPD2    H111688   3.189   4.682  16.874 -0.5363  0.8476 -1.0068
  789MPD2    H211689   3.301   4.311  16.708  1.5065  1.0453  1.5603
  789MPD2    H311690   3.341   4.507  16.859  0.2459  0.7408 -0.9066
  789MPD2     N11691   2.944   4.707  16.763  0.4274 -0.2296  0.6583
  789MPD2    H511692   2.958   0.022  16.850  2.1353 -0.2099  0.3726
  789MPD2    N111693   3.078   4.292  16.550  0.1969  0.2283 -0.1484
  789MPD2    H711694   2.998   4.312  16.490  1.6118  2.4137 -1.3108
  790MPD2     C11695   3.836   1.237  13.370  0.4531  0.3247 -0.3624
  790MPD2    C111696   3.736   1.328  13.394 -0.1896  0.5990 -0.0222
  790MPD2    C211697   3.646   1.357  13.297  0.1271 -0.0968  0.4726
  790MPD2    C311698   3.643   1.289  13.181  0.5993  0.2529  0.3128
  790MPD2    C411699   3.752   1.199  13.155  0.1442 -0.1498  0.7293
  790MPD2    C511700   3.853   1.183  13.244  0.8861 -0.6102 -0.0598
  790MPD2     H11701   3.583   1.446  13.300  0.1505  0.0201 -1.8557
  790MPD2    H111702   3.754   1.146  13.060 -0.0150 -0.6053  0.9848
  790MPD2    H211703   3.921   1.230  13.436 -0.1737  2.4448  0.6673
  790MPD2    H311704   3.935   1.114  13.228  0.4020 -1.0717 -0.5214
  790MPD2     N11705   3.553   1.344  13.082 -0.0781  0.8492  0.0818
  790MPD2    H511706   3.486   1.415  13.110 -0.1278  0.9666 -0.3291
  790MPD2    N111707   3.750   1.406  13.505  0.1396 -0.0035  0.1321
  790MPD2    H711708   3.831   1.380  13.561  1.5938  0.9982 -1.5185
  791MPD2     C11709   2.949   1.206  12.467  0.6788 -0.0273  0.1517
  791MPD2    C111710   3.000   1.176  12.587  0.5040 -0.3775 -0.2744
  791MPD2    C211711   2.957   1.070  12.660  0.4565  0.0530  0.1779
  791MPD2    C311712   2.856   0.990  12.610  0.0856 -0.7916 -0.1313
  791MPD2    C411713   2.797   1.024  12.490  0.1560 -0.2708  0.0915
  791MPD2    C511714   2.846   1.129  12.413  0.6718  0.4172 -0.2393
  791MPD2     H11715   2.991   1.043  12.760  1.9958 -1.7460 -0.8374
  791MPD2    H111716   2.723   0.961  12.442  0.7491 -1.9438  1.3612
  791MPD2    H211717   2.981   1.292  12.410  3.7170 -0.6773  0.8905
  791MPD2    H311718   2.807   1.139  12.312  0.7133 -1.0632 -0.3964
  791MPD2     N11719   2.812   0.880  12.692 -0.0469 -0.2085 -0.2342
  791MPD2    H511720   2.858   0.871  12.782 -1.5682 -1.5949  0.4019
  791MPD2    N111721   3.099   1.265  12.632  0.3910  0.1500  0.1707
  791MPD2    H711722   3.120   1.342  12.569 -2.5326  1.2413  0.5271
  792MPD2     C11723   3.938   0.814  11.434  0.1103  0.5024  0.6578
  792MPD2    C111724   3.880   0.897  11.341  0.1999 -0.0724  0.5335
  792MPD2    C211725   3.744   0.912  11.341 -0.1280 -0.3359 -0.2950
  792MPD2    C311726   3.668   0.840  11.431  0.0232  0.3167  0.8042
  792MPD2    C411727   3.733   0.756  11.528 -0.1849  0.7244  0.7296
  792MPD2    C511728   3.865   0.747  11.536  0.0319 -0.1131  0.0973
  792MPD2     H11729   3.696   0.981  11.273  2.0442  2.3304  0.9189
  792MPD2    H111730   3.682   0.700  11.605  0.9143 -2.3116 -0.7229
  792MPD2    H211731   4.045   0.796  11.432 -0.2644 -1.8097  0.9016
  792MPD2    H311732   3.913   0.677  11.603  3.9868 -0.6007 -3.2067
  792MPD2     N11733   3.522   0.854  11.444 -0.1227  0.6034  0.1626
  792MPD2    H511734   3.486   0.816  11.532 -0.6848  0.9042  0.0626
  792MPD2    N111735   3.959   0.974  11.253  0.0192  0.3084  0.3387
  792MPD2    H711736   4.058   0.960  11.269 -0.0058  0.3769  0.5645
  793MPD2     C11737   3.139   0.902  10.681 -0.3883  0.1888 -0.5179
  793MPD2    C111738   3.259   0.914  10.747  0.0549  0.3403 -0.1208
  793MPD2    C211739   3.249   0.966  10.872 -0.3213 -0.0901 -0.2094
  793MPD2    C311740   3.132   0.962  10.949 -0.4237 -0.1124 -0.1318
  793MPD2    C411741   3.014   0.955  10.882 -0.7281 -0.2562  0.4501
  793MPD2    C511742   3.021   0.926  10.747 -0.3128  0.2380  0.0991
  793MPD2     H11743   3.342   0.974  10.929  0.3661  0.5201 -1.4177
  793MPD2    H111744   2.922   0.966  10.938 -0.5168 -2.8100  1.3108
  793MPD2    H211745   3.140   0.851  10.585 -2.2616 -0.3397 -0.2480
  793MPD2    H311746   2.933   0.912  10.685  0.6890 -1.6961 -0.9071
  793MPD2     N11747   3.145   0.989  11.091 -0.1096  0.1322 -0.4975
  793MPD2    H511748   3.241   1.001  11.123  0.3543 -0.8785 -1.4896
  793MPD2    N111749   3.386   0.887  10.693  0.2162  0.0978  0.1430
  793MPD2    H711750   3.466   0.893  10.755 -0.2113  0.4109  0.6654
  794MPD2     C11751   3.399   0.477   0.222 -0.5835 -0.0310 -0.0953
  794MPD2    C111752   3.451   0.407   0.115 -0.7558  0.3455 -0.4749
  794MPD2    C211753   3.482   0.472   0.001 -0.3720  0.2285  0.4275
  794MPD2    C311754   3.471   0.610  17.735 -0.0686  0.0680 -0.7080
  794MPD2    C411755   3.427   0.688   0.107  0.3633 -0.0477  0.4010
  794MPD2    C511756   3.385   0.615   0.214 -1.0122 -0.0025  0.4045
  794MPD2     H11757   3.513   0.415  17.653  0.8718  2.4343 -0.5731
  794MPD2    H111758   3.431   0.796   0.105 -0.1738  0.0058  1.6913
  794MPD2    H211759   3.372   0.434   0.318 -1.2073  0.0192 -0.2468
  794MPD2    H311760   3.348   0.666   0.302  1.6425  2.2534  0.2116
  794MPD2     N11761   3.507   0.684  17.623 -0.2115 -0.2902  0.2414
  794MPD2    H511762   3.512   0.784  17.641 -0.6932 -0.1553 -0.3340
  794MPD2    N111763   3.493   0.279   0.132  1.2656  0.1997  0.1353
  794MPD2    H711764   3.543   0.241   0.052 -1.8010  0.2021 -1.7811
  795MPD2     C11765   0.706   2.494  13.953  0.0067 -0.2034 -0.4577
  795MPD2    C111766   0.743   2.441  13.830 -0.1924 -0.0015 -0.7642
  795MPD2    C211767   0.870   2.386  13.810  0.2111 -0.6740 -0.5563
  795MPD2    C311768   0.956   2.372  13.923 -0.5756  0.1134  0.1334
  795MPD2    C411769   0.916   2.427  14.042  0.1489 -0.4812 -0.4653
  795MPD2    C511770   0.796   2.488  14.059  0.3494  0.1017 -0.5645
  795MPD2     H11771   0.898   2.337  13.718 -1.3963 -0.2997 -1.2325
  795MPD2    H111772   0.979   2.433  14.130  1.3469  0.6753 -1.3955
  795MPD2    H211773   0.611   2.543  13.969  0.5823  1.6508 -2.7029
  795MPD2    H311774   0.771   2.539  14.152 -0.8103 -0.8698 -0.3387
  795MPD2     N11775   1.086   2.317  13.909 -0.2358  0.0882 -0.0019
  795MPD2    H511776   1.099   2.296  13.810  0.8920 -0.3739  0.2403
  795MPD2    N111777   0.653   2.435  13.714  0.7077  0.6158  0.6302
  795MPD2    H711778   0.683   2.368  13.644 -1.5277  0.1138  0.1733
  796MPD2     C11779   0.916   3.732  16.032  0.7683  0.0071  0.4520
  796MPD2    C111780   0.980   3.805  16.132  0.1668  0.5518  0.6950
  796MPD2    C211781   0.996   3.940  16.117 -0.6840 -0.5353 -0.0644
  796MPD2    C311782   0.933   4.003  16.021  0.3421  0.6125 -0.1572
  796MPD2    C411783   0.874   3.935  15.918  0.0583  0.4930  0.2919
  796MPD2    C511784   0.866   3.801  15.927 -0.3642  0.1451 -0.6754
  796MPD2     H11785   1.055   3.999  16.186  1.3292 -1.8359 -0.6978
  796MPD2    H111786   0.837   3.985  15.829  0.3340  0.0152 -0.0934
  796MPD2    H211787   0.902   3.625  16.026  1.8641 -0.0801 -0.4589
  796MPD2    H311788   0.820   3.745  15.847 -0.2666 -1.1957  0.2013
  796MPD2     N11789   0.940   4.142  16.019 -0.0655  0.4868  0.3622
  796MPD2    H511790   0.967   4.192  16.103  1.3308  1.7891 -0.8792
  796MPD2    N111791   1.032   3.736  16.240 -0.0208 -0.4825  0.1833
  796MPD2    H711792   1.006   3.639  16.248 -0.2748 -0.5441 -1.3771
  797MPD2     C11793   2.117   3.360   0.033 -0.0568 -0.8485  0.2528
  797MPD2    C111794   2.199   3.428  17.679  0.0679 -0.0351  0.2060
  797MPD2    C211795   2.137   3.500  17.577  0.2168 -0.0501  0.6520
  797MPD2    C311796   2.000   3.492  17.556 -0.8837  0.4497  0.7877
  797MPD2    C411797   1.928   3.433  17.656 -0.2019 -0.4086  0.1012
  797MPD2    C511798   1.983   3.364   0.014  0.1597 -0.3807  0.6564
  797MPD2     H11799   2.208   3.564  17.524  0.7956 -1.0842  0.1818
  797MPD2    H111800   1.820   3.440  17.654 -0.1349  0.1455 -1.7619
  797MPD2    H211801   2.151   3.305   0.119 -0.9151  0.2261  1.2841
  797MPD2    H311802   1.919   3.316   0.087  0.5961 -2.2940 -0.2151
  797MPD2     N11803   1.939   3.574  17.452 -0.0888 -0.6879 -0.3424
  797MPD2    H511804   1.849   3.613  17.474  1.2492  1.2404  1.6642
  797MPD2    N111805   2.339   3.440  17.704 -0.2680 -0.1981  0.6455
  797MPD2    H711806   2.385   3.507  17.644 -2.2758  0.5234 -0.0756
  798MPD2     C11807   2.535   4.049  17.314 -0.2486  0.8087  0.5730
  798MPD2    C111808   2.423   3.994  17.373  0.4773  0.6653 -0.0740
  798MPD2    C211809   2.448   3.909  17.478  1.0438 -0.6839 -0.4909
  798MPD2    C311810   2.579   3.880  17.524  0.0376 -0.2227  0.0825
  798MPD2    C411811   2.688   3.949  17.473 -0.3091  0.6212  0.7145
  798MPD2    C511812   2.657   4.025  17.366 -0.1993  0.1703 -0.1057
  798MPD2     H11813   2.366   3.854  17.521  3.0961 -2.7803  0.7138
  798MPD2    H111814   2.788   3.941  17.515  0.1390  0.0282 -0.4637
  798MPD2    H211815   2.526   4.114  17.228 -1.2880 -0.5543 -0.3480
  798MPD2    H311816   2.742   4.078  17.325 -0.0793  0.8832  1.0499
  798MPD2     N11817   2.585   3.782  17.627 -0.2899 -0.4264 -0.5193
  798MPD2    H511818   2.508   3.729  17.666 -0.0370  0.3919  1.1313
  798MPD2    N111819   2.296   4.008  17.307  0.3184  0.5816  0.4935
  798MPD2    H711820   2.295   4.039  17.211  1.8470 -0.4499  0.1613
  799MPD2     C11821   0.912   0.424  15.328 -0.3424  0.1214  0.0374
  799MPD2    C111822   0.841   0.335  15.250  0.4593 -0.3542 -0.0014
  799MPD2    C211823   0.767   0.385  15.147  0.8439 -0.0359 -0.2920
  799MPD2    C311824   0.756   0.522  15.121  0.3944 -0.1890 -0.1511
  799MPD2    C411825   0.825   0.613  15.206  0.0035  0.3536  0.4753
  799MPD2    C511826   0.897   0.563  15.314  0.7179 -0.2166 -0.5426
  799MPD2     H11827   0.707   0.318  15.087 -0.6993 -1.1117  2.4385
  799MPD2    H111828   0.832   0.719  15.187 -1.9344  0.3338 -0.3472
  799MPD2    H211829   0.967   0.391  15.416 -1.7264  0.6465  1.1180
  799MPD2    H311830   0.947   0.629  15.385  1.3805  0.1535 -1.3550
  799MPD2     N11831   0.685   0.584  15.008 -0.3630 -0.6207 -0.1439
  799MPD2    H511832   0.686   0.685  15.013  0.6307 -0.7644  2.9258
  799MPD2    N111833   0.853   0.193  15.254  0.2583  0.6374  0.3000
  799MPD2    H711834   0.802   0.135  15.188  1.0955  0.4391 -0.1788
  800MPD2     C11835   1.175   1.532  15.136  0.2089  0.4937  0.1246
  800MPD2    C111836   1.298   1.515  15.083  0.4584 -0.2294  0.6966
  800MPD2    C211837   1.311   1.464  14.959  0.7127  0.1624 -0.3135
  800MPD2    C311838   1.202   1.422  14.892 -0.0054  0.2264 -0.4929
  800MPD2    C411839   1.072   1.432  14.950 -0.1705 -0.0834 -0.0558
  800MPD2    C511840   1.065   1.498  15.071 -0.5215  1.0087 -0.0449
  800MPD2     H11841   1.409   1.450  14.915  1.4935  0.5510  1.2994
  800MPD2    H111842   0.980   1.416  14.894  0.0936 -0.3471 -0.4172
  800MPD2    H211843   1.161   1.579  15.233 -1.2275  2.2467 -0.9426
  800MPD2    H311844   0.973   1.509  15.127 -0.7067 -2.2981  0.2767
  800MPD2     N11845   1.225   1.363  14.763  0.2137  0.0649 -0.0447
  800MPD2    H511846   1.322   1.358  14.735  0.3528  1.6600  0.1536
  800MPD2    N111847   1.413   1.557  15.153 -0.0093 -0.2944  0.3178
  800MPD2    H711848   1.403   1.624  15.228  1.8022  1.3590 -0.9098
  801MPD2     C11849   1.543   1.908  14.663 -0.1616  0.4000  0.4858
  801MPD2    C111850   1.561   1.968  14.786 -0.4278  0.3576 -0.3568
  801MPD2    C211851   1.512   2.097  14.804 -0.4750 -0.0509  0.5612
  801MPD2    C311852   1.429   2.155  14.710  0.4668 -0.2007  0.2692
  801MPD2    C411853   1.410   2.091  14.589 -0.2423  0.1942 -0.9141
  801MPD2    C511854   1.477   1.972  14.568 -0.0607 -0.0639 -0.0155
  801MPD2     H11855   1.539   2.152  14.893  1.8515  0.2528 -0.3272
  801MPD2    H111856   1.357   2.128  14.502 -3.1817  0.1478  0.8547
  801MPD2    H211857   1.601   1.820  14.640  0.6451  1.1584 -0.3658
  801MPD2    H311858   1.463   1.909  14.481  2.9009 -2.0267  0.9278
  801MPD2     N11859   1.356   2.274  14.739  0.3714 -0.0460  0.1121
  801MPD2    H511860   1.290   2.303  14.668  1.6861  0.9967 -0.6674
  801MPD2    N111861   1.632   1.903  14.888 -0.0237  0.2158 -0.5877
  801MPD2    H711862   1.667   1.810  14.869  0.8529  0.4183  0.0259
  802MPD2     C11863   1.102   3.634   0.325  0.2107 -0.2076  0.5279
  802MPD2    C111864   0.989   3.567   0.357 -0.1373 -0.8755 -0.3671
  802MPD2    C211865   0.996   3.428   0.375  0.3742  0.0139 -0.4872
  802MPD2    C311866   1.113   3.363   0.355 -0.1926  0.2687 -0.1998
  802MPD2    C411867   1.227   3.430   0.319  0.4918  0.4075 -0.0022
  802MPD2    C511868   1.220   3.567   0.309  0.0010  0.0183 -0.3713
  802MPD2     H11869   0.906   3.369   0.387 -0.3858  1.4417  0.7453
  802MPD2    H111870   1.324   3.389   0.296 -0.3069 -1.1230 -0.6117
  802MPD2    H211871   1.108   3.742   0.327 -0.3840 -0.1780  0.6985
  802MPD2    H311872   1.307   3.620   0.271  0.1820  1.3736  1.9457
  802MPD2     N11873   1.110   3.224   0.356  0.1204 -0.2035  0.1015
  802MPD2    H511874   1.020   3.190   0.387  0.6687 -1.9586 -0.2121
  802MPD2    N111875   0.865   3.631   0.367 -0.1193 -0.1293 -0.1605
  802MPD2    H711876   0.794   3.561   0.385  0.7097 -0.9330  0.0047
  803MPD2     C11877   1.647   0.575  12.143  0.2618 -0.3897 -0.3120
  803MPD2    C111878   1.663   0.680  12.225  0.7304 -0.6454 -0.4786
  803MPD2    C211879   1.629   0.672  12.357  0.1806  0.4029  0.7319
  803MPD2    C311880   1.599   0.551  12.412  0.2318  0.1261  0.8692
  803MPD2    C411881   1.587   0.446  12.328  0.3949  0.0019 -0.1586
  803MPD2    C511882   1.603   0.454  12.192  0.0352  0.0379 -0.4695
  803MPD2     H11883   1.633   0.764  12.414 -1.4445  0.9293  0.0033
  803MPD2    H111884   1.553   0.353  12.374 -1.6872  0.2300 -1.2539
  803MPD2    H211885   1.654   0.582  12.035  0.2329  3.1347 -0.0892
  803MPD2    H311886   1.580   0.375  12.122  0.6576 -1.9342  1.5551
  803MPD2     N11887   1.593   0.544  12.553  0.4182  0.2987 -0.4757
  803MPD2    H511888   1.579   0.451  12.593 -0.4830  0.4304 -0.4832
  803MPD2    N111889   1.691   0.815  12.185 -0.3538 -0.0326 -0.1826
  803MPD2    H711890   1.712   0.876  12.263 -3.1730  1.4252 -0.5693
  804MPD2     C11891   1.469   2.281  17.095  0.3600  0.4635 -0.2996
  804MPD2    C111892   1.436   2.264  17.226  0.2256 -0.4223  0.0272
  804MPD2    C211893   1.452   2.373  17.307 -0.1166  0.2131 -0.1025
  804MPD2    C311894   1.490   2.493  17.264  0.0634 -0.1978  0.6616
  804MPD2    C411895   1.532   2.511  17.138  0.4053 -0.7394  0.0953
  804MPD2    C511896   1.503   2.409  17.051 -0.3051  0.3609  0.5744
  804MPD2     H11897   1.422   2.344  17.407  2.1504 -2.3627 -0.1986
  804MPD2    H111898   1.548   2.609  17.094  0.1485 -0.3406  0.8837
  804MPD2    H211899   1.458   2.198  17.026  0.2352 -0.3007  0.6465
  804MPD2    H311900   1.526   2.420  16.946  2.0636  0.5754  1.1141
  804MPD2     N11901   1.495   2.603  17.354 -0.0778  0.0103  0.3164
  804MPD2    H511902   1.545   2.688  17.330 -2.7384  2.6694  4.0942
  804MPD2    N111903   1.388   2.135  17.259  0.0735  0.1150  0.3781
  804MPD2    H711904   1.388   2.066  17.184 -0.8155  0.6939 -0.1560
  805MPD2     C11905   0.190   0.556  15.845 -0.2382 -0.5964  0.4359
  805MPD2    C111906   0.280   0.637  15.780  0.0124 -0.1444  0.7559
  805MPD2    C211907   0.396   0.671  15.846 -0.0559 -0.0238  0.5799
  805MPD2    C311908   0.409   0.632  15.979 -0.7468 -0.4221 -0.5518
  805MPD2    C411909   0.308   0.559  16.044  0.1485  0.2270  0.1170
  805MPD2    C511910   0.211   0.513  15.970 -0.2457  0.5796  0.5304
  805MPD2     H11911   0.469   0.735  15.799 -0.5484 -0.0867 -0.2802
  805MPD2    H111912   0.316   0.544  16.151  0.6998  2.5094  0.4021
  805MPD2    H211913   0.101   0.517  15.797 -0.1270 -3.2363  2.4014
  805MPD2    H311914   0.128   0.456  16.011 -0.7901  0.1522 -1.1740
  805MPD2     N11915   0.522   0.685  16.049  0.1146  0.8064 -0.0118
  805MPD2    H511916   0.581   0.758  16.009  4.5004 -1.3320  2.6044
  805MPD2    N111917   0.280   0.687  15.650 -0.6474 -0.4854 -0.0606
  805MPD2    H711918   0.365   0.732  15.619 -1.5534  0.4374 -1.2241
  806MPD2     C11919   1.620   4.455   0.569 -0.3048 -0.0354  0.8946
  806MPD2    C111920   1.642   4.591   0.580 -0.0631 -0.2175  0.0250
  806MPD2    C211921   1.600   4.677   0.477 -0.2269  0.0647 -0.7319
  806MPD2    C311922   1.564   4.627   0.355 -0.5244  0.8739 -0.3834
  806MPD2    C411923   1.536   4.492   0.345 -0.3914  0.5226 -0.6997
  806MPD2    C511924   1.566   4.410   0.454  0.0313  0.2134 -0.0850
  806MPD2     H11925   1.621   0.047   0.493  1.2144 -0.6813  2.4360
  806MPD2    H111926   1.503   4.446   0.253  0.5879 -1.2541 -0.1668
  806MPD2    H211927   1.645   4.380   0.643 -3.5206 -3.7263 -1.7062
  806MPD2    H311928   1.552   4.304   0.432 -0.8421  0.7519 -2.1880
  806MPD2     N11929   1.551   4.713   0.245  0.3220  0.4758  0.0958
  806MPD2    H511930   1.587   0.072   0.251 -1.6063  1.1717  0.8197
  806MPD2    N111931   1.685   4.636   0.705 -0.1286 -0.0170 -0.3594
  806MPD2    H711932   1.741   4.576   0.764 -0.0586 -0.3782 -0.7901
  807MPD2     C11933   1.665   0.498   1.351 -0.1385  0.4479 -0.3772
  807MPD2    C111934   1.594   0.378   1.323  0.2185 -0.1049 -0.3720
  807MPD2    C211935   1.470   0.367   1.395  0.0802 -0.6513  0.7637
  807MPD2    C311936   1.441   0.448   1.501 -0.4922 -0.7288  0.1100
  807MPD2    C411937   1.523   0.556   1.532 -0.0706  0.6545  0.4390
  807MPD2    C511938   1.633   0.586   1.448  0.1546  0.0496 -0.4691
  807MPD2     H11939   1.405   0.282   1.381  1.6678 -1.9791  1.4834
  807MPD2    H111940   1.520   0.622   1.618 -1.7151 -1.0606  1.6878
  807MPD2    H211941   1.744   0.528   1.283 -0.3465  0.2261 -0.7132
  807MPD2    H311942   1.696   0.674   1.459  0.9978 -0.3057 -2.4821
  807MPD2     N11943   1.335   0.422   1.590 -0.6092 -0.0301  0.0694
  807MPD2    H511944   1.321   0.489   1.665 -1.1571  0.1842 -0.2251
  807MPD2    N111945   1.633   0.284   1.217 -0.2456  0.2693  0.4064
  807MPD2    H711946   1.563   0.213   1.195  1.1536 -0.9551 -0.1491
  808MPD2     C11947   1.467   1.457  10.844 -0.4158  0.6413 -0.1869
  808MPD2    C111948   1.364   1.494  10.762 -0.6370  0.4917  0.3987
  808MPD2    C211949   1.377   1.608  10.690  0.6820 -0.0529 -0.0358
  808MPD2    C311950   1.494   1.685  10.688  0.3763 -0.3561  1.0111
  808MPD2    C411951   1.588   1.653  10.784 -0.2457 -0.3702 -0.1044
  808MPD2    C511952   1.575   1.537  10.852  0.0692 -0.2855 -0.3339
  808MPD2     H11953   1.292   1.629  10.626  0.4346 -1.1521 -0.0685
  808MPD2    H111954   1.676   1.715  10.794 -1.3255  1.1888 -0.1017
  808MPD2    H211955   1.468   1.368  10.905 -3.7516  0.7516  0.0251
  808MPD2    H311956   1.651   1.506  10.922 -0.8495  0.9223  1.2150
  808MPD2     N11957   1.524   1.803  10.612 -1.0880 -0.2578  0.5750
  808MPD2    H511958   1.592   1.868  10.650 -1.3295 -0.6823  1.7482
  808MPD2    N111959   1.248   1.410  10.760 -0.5290 -0.5781 -0.0056
  808MPD2    H711960   1.166   1.436  10.706  1.2358  0.4860 -2.1763
  809MPD2     C11961   1.753   2.095   9.573 -0.4431 -0.8277 -0.0936
  809MPD2    C111962   1.780   1.983   9.647  0.2736 -0.1580  0.6191
  809MPD2    C211963   1.745   1.973   9.783 -0.2719  0.0551  0.0035
  809MPD2    C311964   1.675   2.073   9.842 -0.0237  0.2181 -0.3024
  809MPD2    C411965   1.646   2.187   9.772 -0.1731 -0.0609  0.1717
  809MPD2    C511966   1.687   2.196   9.639 -0.5186  0.6988 -0.5407
  809MPD2     H11967   1.778   1.888   9.840  1.1340  1.0176  0.6111
  809MPD2    H111968   1.590   2.268   9.816  0.0877  0.2861 -0.1414
  809MPD2    H211969   1.788   2.109   9.472  1.8650 -1.1075  0.6507
  809MPD2    H311970   1.657   2.282   9.581  0.8704  2.3177  1.1697
  809MPD2     N11971   1.626   2.069   9.979  0.3119 -0.6196  0.2971
  809MPD2    H511972   1.576   2.148  10.017 -0.3862 -0.4661 -0.9229
  809MPD2    N111973   1.861   1.879   9.596 -0.2904 -0.3930 -0.2042
  809MPD2    H711974   1.874   1.796   9.653  0.2619  0.0745  0.3503
  810MPD2     C11975   1.031   1.046  10.289 -0.5540 -0.2292  0.4099
  810MPD2    C111976   0.900   1.029  10.329  0.5997 -0.3734 -0.2408
  810MPD2    C211977   0.850   1.132  10.406  0.3445 -0.2541  0.1072
  810MPD2    C311978   0.925   1.236  10.456  0.5516 -0.9971  0.7561
  810MPD2    C411979   1.063   1.231  10.431  0.2821 -0.1122  0.2820
  810MPD2    C511980   1.110   1.149  10.338 -0.1911  0.6234 -0.2629
  810MPD2     H11981   0.743   1.128  10.425  0.2049 -0.7227 -0.7674
  810MPD2    H111982   1.137   1.304  10.462 -2.3267  0.9240  4.1114
  810MPD2    H211983   1.080   0.971  10.228 -0.9972 -0.4988  0.3853
  810MPD2    H311984   1.210   1.134  10.299  0.1166 -2.7436  1.7839
  810MPD2     N11985   0.862   1.345  10.510 -0.1622 -0.6787 -0.1221
  810MPD2    H511986   0.761   1.342  10.522 -0.2260  1.4604 -0.2008
  810MPD2    N111987   0.832   0.910  10.287 -0.0164 -0.9888  0.4498
  810MPD2    H711988   0.859   0.856  10.205  0.4563 -0.5343  0.3089
  811MPD2     C11989   0.045   0.934  10.075 -0.9180 -0.1462 -0.1680
  811MPD2    C111990   0.172   0.969  10.108 -0.2473 -0.4072  0.2339
  811MPD2    C211991   0.202   1.107  10.103 -0.4353  0.1793 -0.0725
  811MPD2    C311992   0.106   1.205  10.069  0.1461  0.1055  0.8051
  811MPD2    C411993   4.717   1.159  10.030  0.4051  0.1307  0.0102
  811MPD2    C511994   4.687   1.022  10.038 -0.0644 -0.5723 -0.1111
  811MPD2     H11995   0.300   1.141  10.134 -1.8632  1.3963  3.1342
  811MPD2    H111996   4.637   1.224   9.997 -0.8460 -1.7396 -0.6716
  811MPD2    H211997   0.017   0.829  10.076  0.7185 -0.5596  3.5182
  811MPD2    H311998   4.591   0.984  10.004 -0.1046  0.8426 -1.5617
  811MPD2     N11999   0.149   1.337  10.087  0.2467  0.0426 -0.2596
  811MPD2    H512000   0.245   1.346  10.120  0.4986  1.0151 -1.2763
  811MPD2    N112001   0.265   0.868  10.132 -0.1395 -0.3838 -0.3936
  811MPD2    H712002   0.227   0.774  10.131 -2.2699  0.4727  0.6532
  812MPD2     C12003   0.375   1.041  12.087 -0.1895 -0.2796 -0.2257
  812MPD2    C112004   0.259   1.075  12.142 -0.3268 -0.0920  0.3384
  812MPD2    C212005   0.247   1.057  12.279  0.1132 -0.1967 -0.6425
  812MPD2    C312006   0.349   1.007  12.353 -0.1858 -0.0329  0.0518
  812MPD2    C412007   0.467   0.978  12.294  0.3913 -0.3334 -0.2842
  812MPD2    C512008   0.485   0.999  12.160 -0.4044  0.1012 -0.7430
  812MPD2     H12009   0.160   1.090  12.334  0.0945  0.9285 -1.3312
  812MPD2    H112010   0.554   0.935  12.341  1.1997 -0.5108 -1.9424
  812MPD2    H212011   0.382   1.036  11.979 -1.8829 -1.3197 -0.2906
  812MPD2    H312012   0.576   0.967  12.111 -0.8731 -2.9313  0.3336
  812MPD2     N12013   0.330   0.980  12.486  0.0959  0.3538  0.6612
  812MPD2    H512014   0.238   1.011  12.515 -0.1020 -0.0842  0.5008
  812MPD2    N112015   0.154   1.104  12.049  0.1805  0.0900 -0.1196
  812MPD2    H712016   0.177   1.129  11.953  1.5923 -2.3134 -0.3997
  813MPD2     C12017   2.581   2.646  13.373  0.0023  0.3442 -0.8973
  813MPD2    C112018   2.649   2.762  13.396  0.2295  0.5550  0.1513
  813MPD2    C212019   2.575   2.864  13.464 -0.4919  0.5506  0.0476
  813MPD2    C312020   2.461   2.837  13.527  0.4247 -0.3330  0.1122
  813MPD2    C412021   2.402   2.718  13.509  0.3698 -0.7123 -0.7322
  813MPD2    C512022   2.460   2.624  13.429  0.5200  0.2695  0.5611
  813MPD2     H12023   2.628   2.952  13.499 -2.2045  1.5984 -0.0089
  813MPD2    H112024   2.299   2.711  13.543 -0.3113  0.4361 -2.5620
  813MPD2    H212025   2.630   2.568  13.316 -0.5178 -0.7213  0.1258
  813MPD2    H312026   2.415   2.529  13.402  0.4854  0.0768  1.3154
  813MPD2     N12027   2.414   2.927  13.618 -0.4255  0.3333  0.3396
  813MPD2    H512028   2.453   3.020  13.607 -0.1846  0.3101  1.0163
  813MPD2    N112029   2.788   2.771  13.355 -0.4475 -0.5437  0.2342
  813MPD2    H712030   2.823   2.866  13.361 -0.9659 -0.3153 -0.3636
  814MPD2     C12031   3.565   3.474  12.913 -0.2413 -0.0830  0.0558
  814MPD2    C112032   3.566   3.582  12.826  0.1033  0.5159  0.7620
  814MPD2    C212033   3.671   3.674  12.849  0.1944  0.3635  0.3458
  814MPD2    C312034   3.776   3.655  12.938  0.1282 -0.1236  0.5207
  814MPD2    C412035   3.770   3.537  13.013  0.1958  0.4301 -0.0574
  814MPD2    C512036   3.659   3.457  13.007  0.7971  0.1976  0.5178
  814MPD2     H12037   3.675   3.761  12.785 -0.2716  0.3915  0.3542
  814MPD2    H112038   3.851   3.510  13.080  0.7257 -0.6635 -1.1357
  814MPD2    H212039   3.487   3.400  12.908  0.3429 -0.4470 -3.5438
  814MPD2    H312040   3.655   3.367  13.068  2.7069 -0.6425 -0.6114
  814MPD2     N12041   3.885   3.739  12.940  0.2533 -0.1314 -0.3691
  814MPD2    H512042   3.971   3.704  12.981 -0.6116 -0.2962  1.2883
  814MPD2    N112043   3.477   3.596  12.725  0.6157 -0.0768  0.4102
  814MPD2    H712044   3.498   3.675  12.664  1.5546 -0.0059  0.8344
  815MPD2     C12045   0.091   1.807  12.082  0.5010  0.5165 -0.3625
  815MPD2    C112046   0.004   1.848  11.981  0.2287  0.0007 -0.4912
  815MPD2    C212047   4.604   1.844  12.021 -0.1043  0.3904  0.1650
  815MPD2    C312048   4.565   1.814  12.146 -0.2694  0.9920  0.0765
  815MPD2    C412049   4.653   1.773  12.241  0.5742 -0.2907  0.4542
  815MPD2    C512050   0.051   1.767  12.203 -0.0102 -0.0774 -0.7095
  815MPD2     H12051   4.525   1.877  11.955 -0.7610 -1.6017 -0.0401
  815MPD2    H112052   4.623   1.731  12.336  0.8694  0.1720  0.7533
  815MPD2    H212053   0.198   1.796  12.065  0.4050  0.0604 -0.6610
  815MPD2    H312054   0.128   1.727  12.267  1.2419  0.0972 -2.1006
  815MPD2     N12055   4.423   1.795  12.174  0.6695  0.3383  0.9377
  815MPD2    H512056   4.359   1.821  12.100 -0.1017 -1.9844  0.8117
  815MPD2    N112057   0.053   1.891  11.858 -0.0083 -0.5297  0.8167
  815MPD2    H712058   0.153   1.877  11.847 -0.3185 -2.8474  0.8995
  816MPD2     C12059   0.378   2.009  17.438 -0.2066  0.3893 -0.4877
  816MPD2    C112060   0.288   2.021  17.336  0.7460  0.2105 -0.2584
  816MPD2    C212061   0.316   1.963  17.211  0.5739  0.0488  0.0142
  816MPD2    C312062   0.437   1.890  17.195  1.0140 -0.4369  0.4448
  816MPD2    C412063   0.526   1.879  17.300 -0.3671 -0.1141  0.0288
  816MPD2    C512064   0.493   1.937  17.421 -0.6720 -0.0972 -0.2470
  816MPD2     H12065   0.249   1.980  17.128  0.9924  0.2648 -0.2801
  816MPD2    H112066   0.625   1.837  17.293  0.2952  1.0139  2.6644
  816MPD2    H212067   0.360   2.057  17.533  2.5713 -1.5323  0.9920
  816MPD2    H312068   0.570   1.940  17.498 -1.1278  0.4202  0.1875
  816MPD2     N12069   0.453   1.817  17.078  0.5962  0.4413 -0.1536
  816MPD2    H512070   0.382   1.823  17.006  1.2166 -1.5534 -0.9642
  816MPD2    N112071   0.169   2.091  17.366  0.4920 -0.1201 -0.2022
  816MPD2    H712072   0.162   2.111  17.465  2.0659 -0.3482 -0.0550
  817MPD2     C12073   3.860   3.378  10.088  0.1129 -0.4797 -0.3291
  817MPD2    C112074   3.950   3.472  10.048 -0.0073  0.2204  0.0210
  817MPD2    C212075   3.907   3.591  10.001 -0.2723 -0.8581 -0.1313
  817MPD2    C312076   3.772   3.622   9.997 -0.6430 -0.4432 -1.2084
  817MPD2    C412077   3.682   3.530  10.043 -0.2349  0.4711 -0.2862
  817MPD2    C512078   3.723   3.411  10.089 -0.3361  0.6684  0.3415
  817MPD2     H12079   3.973   3.670   9.966  0.7824 -1.4786  0.4344
  817MPD2    H112080   3.574   3.542  10.037 -0.4615 -1.7525 -0.5569
  817MPD2    H212081   3.896   3.287  10.135 -0.7313 -0.2762  0.6995
  817MPD2    H312082   3.644   3.351  10.134  0.9426  0.2247  1.9930
  817MPD2     N12083   3.744   3.744   9.937  0.3891  0.1507 -0.0145
  817MPD2    H512084   3.823   3.797   9.902  0.3539  1.0774  1.2899
  817MPD2    N112085   4.088   3.460  10.065 -0.4079  0.5078 -0.9964
  817MPD2    H712086   4.139   3.540  10.030  1.5401  0.0675  0.8939
  818MPD2     C12087   3.218   2.859  10.092  0.7383  0.1450  0.1599
  818MPD2    C112088   3.181   2.796  10.204  0.5731  0.3743  0.2158
  818MPD2    C212089   3.198   2.659  10.209  0.4816 -1.0217  0.0759
  818MPD2    C312090   3.253   2.588  10.107  0.7322 -1.1272 -0.6686
  818MPD2    C412091   3.301   2.656   9.998  0.0251  0.5857  0.0812
  818MPD2    C512092   3.285   2.786   9.996 -0.8430 -0.1692 -0.2843
  818MPD2     H12093   3.150   2.608  10.291 -0.2675 -0.8005 -0.2275
  818MPD2    H112094   3.347   2.600   9.917  1.5101  1.7157  0.1648
  818MPD2    H212095   3.216   2.965  10.070  2.7850  0.2901  0.7051
  818MPD2    H312096   3.342   2.843   9.923  0.6284  0.2060  1.1501
  818MPD2     N12097   3.263   2.446  10.100 -0.0925  0.1382 -0.4556
  818MPD2    H512098   3.314   2.415  10.018  0.3070 -0.2191 -0.0735
  818MPD2    N112099   3.118   2.863  10.310  1.1964  0.2869 -0.4901
  818MPD2    H712100   3.102   2.811  10.395  0.7050  0.7659 -0.2901
  819MPD2     C12101   1.078   0.503  16.107 -1.0098 -0.1926  0.2478
  819MPD2    C112102   1.112   0.366  16.115 -0.0115  0.4448  0.1385
  819MPD2    C212103   1.203   0.330  16.211  0.3954  0.1254  0.4979
  819MPD2    C312104   1.263   0.417  16.294  0.1916 -0.6681  0.0468
  819MPD2    C412105   1.257   0.552  16.269  0.2288  0.1985  0.0392
  819MPD2    C512106   1.162   0.590  16.171  0.2515 -0.3338 -0.1495
  819MPD2     H12107   1.215   0.224  16.229 -2.0070 -0.6671 -2.5132
  819MPD2    H112108   1.313   0.618  16.334 -0.9680  0.4883  0.7706
  819MPD2    H212109   0.998   0.538  16.042 -2.6038  0.6246  2.6369
  819MPD2    H312110   1.154   0.696  16.151 -2.1814 -0.3245  0.8134
  819MPD2     N12111   1.348   0.371  16.406 -0.3657 -0.2298  0.3620
  819MPD2    H512112   1.348   0.275  16.437  1.1994 -0.5423 -0.5840
  819MPD2    N112113   1.051   0.280  16.026 -0.7084 -0.3519 -0.2883
  819MPD2    H712114   0.964   0.311  15.985 -2.1103 -3.5089  0.2917
  820MPD2     C12115   0.407   0.131  15.253  0.2896  0.2597 -0.1325
  820MPD2    C112116   0.459   0.232  15.321  0.6342 -0.4403 -0.3273
  820MPD2    C212117   0.548   0.206  15.426  0.5914  0.1606 -0.3109
  820MPD2    C312118   0.581   0.076  15.459 -0.0728 -0.1907  0.5702
  820MPD2    C412119   0.517   4.711  15.395  0.0408  0.4556 -0.0086
  820MPD2    C512120   0.432   0.000  15.290 -0.4671 -0.5573 -0.5965
  820MPD2     H12121   0.602   0.284  15.477 -0.4589  0.5061  0.2674
  820MPD2    H112122   0.541   4.606  15.412 -1.2311  0.1428 -0.0950
  820MPD2    H212123   0.328   0.148  15.181  1.2679  1.1978 -0.9719
  820MPD2    H312124   0.398   4.654  15.227 -0.7264 -0.5940 -0.4093
  820MPD2     N12125   0.675   0.044  15.558  0.1642 -0.7517 -0.0923
  820MPD2    H512126   0.692   4.681  15.576 -0.8197 -0.6930  1.1334
  820MPD2    N112127   0.439   0.362  15.276  0.0403 -0.2877 -0.2580
  820MPD2    H712128   0.376   0.364  15.196 -0.0778 -0.9568 -0.1766
  821MPD2     C12129   1.116   1.785  14.114  0.5263  0.3499 -0.4330
  821MPD2    C112130   1.197   1.681  14.086 -0.5267 -0.6787 -0.5217
  821MPD2    C212131   1.276   1.684  13.969  0.0337 -0.1418 -0.0009
  821MPD2    C312132   1.258   1.777  13.872 -0.2063 -0.3973  1.1556
  821MPD2    C412133   1.177   1.885  13.901  0.0281  0.2082 -0.3771
  821MPD2    C512134   1.108   1.888  14.017 -0.1092  0.1258 -0.1508
  821MPD2     H12135   1.347   1.604  13.954 -1.8657 -1.8724  0.2146
  821MPD2    H112136   1.171   1.966  13.830 -0.2466 -0.7229 -1.4091
  821MPD2    H212137   1.063   1.788  14.209  0.2536  1.7935 -0.6247
  821MPD2    H312138   1.048   1.973  14.046 -0.4220 -0.1474  0.0115
  821MPD2     N12139   1.334   1.772  13.754 -0.0577 -0.6944 -0.7695
  821MPD2    H512140   1.301   1.832  13.678 -2.4298  0.3967  1.1089
  821MPD2    N112141   1.213   1.571  14.167 -0.0293 -0.4222  0.4198
  821MPD2    H712142   1.279   1.503  14.132  1.4655  2.2220 -1.9822
  822MPD2     C12143   2.010   1.711  15.829 -0.5409  0.3938  0.4636
  822MPD2    C112144   2.083   1.767  15.930 -0.2210  0.2939 -0.5776
  822MPD2    C212145   2.027   1.873  15.996 -0.4073  0.1279 -0.2267
  822MPD2    C312146   1.911   1.927  15.959  0.4837  0.3724  0.5539
  822MPD2    C412147   1.830   1.869  15.865  0.3450  0.2467  0.8501
  822MPD2    C512148   1.880   1.762  15.801 -0.0179  0.2393 -0.3438
  822MPD2     H12149   2.088   1.931  16.065 -1.4482  1.1011 -0.1287
  822MPD2    H112150   1.737   1.913  15.831  1.8705  2.0397 -1.0750
  822MPD2    H212151   2.038   1.626  15.768  0.3786  2.0767 -1.4637
  822MPD2    H312152   1.822   1.702  15.731 -0.3401  4.2913 -3.5741
  822MPD2     N12153   1.856   2.031  16.041 -0.0318  0.4605  0.1016
  822MPD2    H512154   1.756   2.036  16.058  0.1299  0.6165  1.0328
  822MPD2    N112155   2.206   1.718  15.978 -0.0682  0.1975 -0.4740
  822MPD2    H712156   2.238   1.767  16.061 -0.9479  0.7925 -0.4909
  823MPD2     C12157   1.748   2.235  16.884  0.2929  0.2236  0.1004
  823MPD2    C112158   1.744   2.140  16.787  0.1394 -0.9402 -0.1423
  823MPD2    C212159   1.790   2.018  16.824 -0.6778 -0.1448 -0.4358
  823MPD2    C312160   1.828   1.986  16.954 -0.5220 -0.9609 -0.3617
  823MPD2    C412161   1.833   2.082  17.050 -0.0288 -0.2223  0.5945
  823MPD2    C512162   1.785   2.203  17.012 -0.5200  0.2898  0.2321
  823MPD2     H12163   1.787   1.939  16.751  0.1446 -0.1941 -0.4215
  823MPD2    H112164   1.881   2.061  17.145 -1.2752  0.3996  1.3610
  823MPD2    H212165   1.700   2.332  16.872  1.2002  1.0154  2.7250
  823MPD2    H312166   1.796   2.286  17.081  2.5159 -0.7768  1.0622
  823MPD2     N12167   1.894   1.863  16.978  0.1564 -0.5870  0.4293
  823MPD2    H512168   1.902   1.839  17.076  0.0894 -0.2050  0.5305
  823MPD2    N112169   1.712   2.181  16.654 -0.1082 -0.6631  0.2623
  823MPD2    H712170   1.691   2.280  16.646 -2.5226 -1.1210  1.0431
  824MPD2     C12171   2.688   0.967  16.191 -0.4718  0.1148  0.3035
  824MPD2    C112172   2.694   1.058  16.096  0.4172  0.2924  0.4105
  824MPD2    C212173   2.753   1.021  15.975 -0.2390  0.2351 -0.0782
  824MPD2    C312174   2.799   0.893  15.952 -0.7250 -0.5054  0.3899
  824MPD2    C412175   2.797   0.800  16.051  0.0442 -0.1918 -0.4386
  824MPD2    C512176   2.744   0.837  16.173 -0.2543 -0.5489  0.1140
  824MPD2     H12177   2.756   1.095  15.896 -0.5290  2.8050  2.2900
  824MPD2    H112178   2.852   0.707  16.038  0.1666 -0.3054  0.8894
  824MPD2    H212179   2.639   0.999  16.282  0.0295  1.1425  0.2121
  824MPD2    H312180   2.763   0.769  16.255  1.1639  1.0111  1.0674
  824MPD2     N12181   2.870   0.871  15.830  0.1386  0.1023  0.4881
  824MPD2    H512182   2.895   0.952  15.774 -0.6360  1.0206  1.4650
  824MPD2    N112183   2.632   1.181  16.125  0.2708 -0.0682  0.1190
  824MPD2    H712184   2.599   1.198  16.220  1.1210  1.3432  0.1578
  825MPD2     C12185   3.313   1.287  15.662  0.2625  0.9524  0.4430
  825MPD2    C112186   3.347   1.180  15.590  0.0485 -0.1747 -0.4437
  825MPD2    C212187   3.420   1.205  15.478  0.4161 -0.6686 -0.1376
  825MPD2    C312188   3.471   1.329  15.447 -0.0689  0.3601  0.2603
  825MPD2    C412189   3.434   1.433  15.525  0.2398  0.5968 -1.7850
  825MPD2    C512190   3.349   1.408  15.630 -0.4663 -0.6361 -0.0974
  825MPD2     H12191   3.433   1.118  15.414  0.3144 -2.1589  1.8649
  825MPD2    H112192   3.478   1.532  15.517  2.1722 -0.1044  0.3503
  825MPD2    H212193   3.243   1.281  15.744  0.8448 -1.5559  0.7749
  825MPD2    H312194   3.315   1.494  15.688  2.1545  1.5479 -1.7838
  825MPD2     N12195   3.579   1.351  15.356  0.7904  0.4251  1.1550
  825MPD2    H512196   3.626   1.441  15.363  0.7544  0.3722  2.0476
  825MPD2    N112197   3.279   1.060  15.617  0.1192 -0.1980  0.4155
  825MPD2    H712198   3.212   1.059  15.693  2.6481 -0.2973  2.6287
  826MPD2     C12199   2.364   0.358  13.685  0.1534  0.3060 -0.4116
  826MPD2    C112200   2.413   0.474  13.727 -0.1093  0.2442  0.4052
  826MPD2    C212201   2.349   0.555  13.819 -0.0651  0.1991  0.3227
  826MPD2    C312202   2.215   0.524  13.849  0.5854  0.4924 -0.1889
  826MPD2    C412203   2.157   0.400  13.794 -0.1384  0.2462 -0.2624
  826MPD2    C512204   2.236   0.318  13.724  0.3750 -0.4721  1.0898
  826MPD2     H12205   2.401   0.633  13.873 -1.0240  1.5058 -0.6255
  826MPD2    H112206   2.060   0.362  13.823 -0.3360  0.5493 -0.5277
  826MPD2    H212207   2.422   0.294  13.619  1.2906 -1.0437  1.9147
  826MPD2    H312208   2.202   0.220  13.692  0.0459 -0.1175  0.3419
  826MPD2     N12209   2.141   0.599  13.939  0.5066  0.0262  0.0889
  826MPD2    H512210   2.057   0.555  13.975  0.2713  0.5283  0.1509
  826MPD2    N112211   2.552   0.487  13.693 -0.5343 -0.5343  0.3170
  826MPD2    H712212   2.588   0.403  13.650  1.5016 -0.2641  1.4982
  827MPD2     C12213   3.746   1.993   9.923 -0.1629 -0.6787 -0.6261
  827MPD2    C112214   3.703   1.888   9.999  0.3783  0.0406  0.6713
  827MPD2    C212215   3.677   1.772   9.936 -0.2608 -0.2525  0.7293
  827MPD2    C312216   3.705   1.753   9.801  0.2995 -0.0576  0.6490
  827MPD2    C412217   3.740   1.854   9.722  0.8107  0.5508  0.0571
  827MPD2    C512218   3.759   1.972   9.786 -0.4888 -0.5388  0.3652
  827MPD2     H12219   3.650   1.682   9.990 -1.7955  0.3403  0.9598
  827MPD2    H112220   3.748   1.850   9.614  0.1870 -2.6024  0.1170
  827MPD2    H212221   3.759   2.096   9.956  0.7501 -0.0476 -3.0092
  827MPD2    H312222   3.774   2.056   9.719 -2.8267  0.7466  1.4776
  827MPD2     N12223   3.691   1.627   9.751 -0.4292  0.3612  0.4601
  827MPD2    H512224   3.644   1.558   9.808 -0.9775  1.2440  1.0792
  827MPD2    N112225   3.680   1.912  10.137  0.3676  0.1245  0.1057
  827MPD2    H712226   3.716   1.999  10.175 -2.3591  0.0538  2.7891
  828MPD2     C12227   1.623   1.960  12.838 -0.0151 -0.2922  0.3075
  828MPD2    C112228   1.521   1.937  12.753  0.1440  0.8438  0.0169
  828MPD2    C212229   1.550   1.923  12.622 -0.2168  0.2389 -0.8323
  828MPD2    C312230   1.678   1.941  12.573 -0.1499 -0.3811 -0.4310
  828MPD2    C412231   1.774   1.964  12.665  0.4803 -0.6951 -0.0668
  828MPD2    C512232   1.750   1.985  12.798  0.8827 -0.0076 -0.6010
  828MPD2     H12233   1.466   1.914  12.555 -1.7076 -0.6018  1.1585
  828MPD2    H112234   1.871   1.981  12.619  1.2891 -3.1450  0.7542
  828MPD2    H212235   1.597   1.964  12.943 -0.7930  2.9993  0.0061
  828MPD2    H312236   1.836   2.008  12.860  0.2468 -1.3802  0.7763
  828MPD2     N12237   1.718   1.940  12.442  0.1482  0.4845 -0.3235
  828MPD2    H512238   1.817   1.952  12.423  0.7025 -0.5523  1.8499
  828MPD2    N112239   1.386   1.914  12.786  0.5660  0.3166 -0.1705
  828MPD2    H712240   1.317   1.917  12.712 -0.0841  0.0038  0.4190
  829MPD2     C12241   0.765   2.113  12.265 -0.2385 -0.4052 -0.1098
  829MPD2    C112242   0.684   2.054  12.359 -0.6346 -0.2449  0.7131
  829MPD2    C212243   0.751   2.008  12.472  0.2846  0.0199  0.4606
  829MPD2    C312244   0.884   2.023  12.498 -0.2176 -0.5838  0.1311
  829MPD2    C412245   0.963   2.077  12.399 -0.0683  0.0040  0.1631
  829MPD2    C512246   0.902   2.119  12.278 -0.2284  0.1475  0.8140
  829MPD2     H12247   0.687   1.961  12.545 -2.2196  2.0145 -0.4713
  829MPD2    H112248   1.068   2.095  12.418  0.4033 -1.8896 -0.6194
  829MPD2    H212249   0.719   2.142  12.171  0.4139 -0.1061 -0.3343
  829MPD2    H312250   0.969   2.154  12.201 -0.2334  0.2759  0.8677
  829MPD2     N12251   0.953   1.985  12.618  0.2761 -0.6256  0.0982
  829MPD2    H512252   1.055   1.983  12.617  0.3051 -0.2617  2.4830
  829MPD2    N112253   0.541   2.044  12.328  0.4839  0.0762  0.2902
  829MPD2    H712254   0.505   2.083  12.241 -2.1741  0.4130  1.5421
  830MPD2     C12255   1.618   4.498  16.728  0.0311  0.7173  0.3455
  830MPD2    C112256   1.557   4.623  16.699 -0.0849 -0.7594  0.0208
  830MPD2    C212257   1.545   4.667  16.567  0.1292 -0.0283 -0.0912
  830MPD2    C312258   1.618   4.611  16.466  0.3513  1.0968 -0.1316
  830MPD2    C412259   1.700   4.508  16.503 -0.2721 -0.2888 -0.1467
  830MPD2    C512260   1.698   4.447  16.627  0.0537 -0.0524  0.2135
  830MPD2     H12261   1.484   0.019  16.543 -0.5046 -0.7941 -1.2551
  830MPD2    H112262   1.766   4.459  16.432 -1.4517  0.0007 -1.4406
  830MPD2    H212263   1.601   4.446  16.822  0.1583  1.6671  0.8883
  830MPD2    H312264   1.768   4.366  16.642  1.2183  0.5702 -1.8302
  830MPD2     N12265   1.621   4.664  16.338  0.0349  0.5866  0.6809
  830MPD2    H512266   1.669   4.616  16.262 -0.3480 -0.5791  1.1676
  830MPD2    N112267   1.487   4.690  16.804  0.2201  0.2938  0.0157
  830MPD2    H712268   1.469   4.636  16.888  3.6293 -0.4106  0.3227
  831MPD2     C12269   2.210   2.175  16.392 -0.7004 -0.5480 -0.6209
  831MPD2    C112270   2.252   2.074  16.308 -0.4320 -0.2926  0.6584
  831MPD2    C212271   2.193   1.949  16.323 -0.2172  0.1051  0.3379
  831MPD2    C312272   2.095   1.931  16.412 -0.2740  0.5610 -0.0901
  831MPD2    C412273   2.062   2.032  16.500  1.3252  0.1382  0.4528
  831MPD2    C512274   2.114   2.152  16.487  0.1418 -0.1226 -0.0693
  831MPD2     H12275   2.233   1.877  16.253  1.0016  0.4847  0.6365
  831MPD2    H112276   1.988   2.018  16.578  1.0855 -0.0476  0.1886
  831MPD2    H212277   2.233   2.280  16.380 -0.2510 -0.7039 -1.0828
  831MPD2    H312278   2.079   2.226  16.558  1.4580  0.4421 -0.0059
  831MPD2     N12279   2.011   1.815  16.415 -0.1474  0.1382 -0.2679
  831MPD2    H512280   1.940   1.814  16.487 -1.8609  1.1440 -1.9671
  831MPD2    N112281   2.335   2.108  16.195 -0.3199 -0.2072 -0.3737
  831MPD2    H712282   2.329   2.207  16.174  1.4111 -0.0782 -0.2920
  832MPD2     C12283   0.622   3.108  17.467 -0.4329  1.0931  0.4215
  832MPD2    C112284   0.657   3.173  17.351 -0.4259  0.5924  0.8628
  832MPD2    C212285   0.569   3.174  17.243  0.2737  0.7977 -0.0431
  832MPD2    C312286   0.441   3.121  17.252 -0.2412 -0.0216  0.0098
  832MPD2    C412287   0.404   3.061  17.369 -0.4062  0.4041 -0.7119
  832MPD2    C512288   0.493   3.058  17.476 -0.4366 -0.6996 -0.1142
  832MPD2     H12289   0.595   3.224  17.151  0.6857  0.2147 -0.2381
  832MPD2    H112290   0.314   3.002  17.379 -0.7067  0.8184 -0.9866
  832MPD2    H212291   0.695   3.101  17.547  0.2046  1.0420 -0.1669
  832MPD2    H312292   0.459   3.004  17.563 -0.7335 -1.2984 -0.5970
  832MPD2     N12293   0.345   3.126  17.156  0.6948 -0.6436 -0.4603
  832MPD2    H512294   0.263   3.067  17.164  1.0005 -0.8699  0.9274
  832MPD2    N112295   0.784   3.224  17.352 -0.5712 -0.5357  0.3504
  832MPD2    H712296   0.823   3.226  17.445 -1.0139  0.9478  0.5095
  833MPD2     C12297   2.484   4.187  12.831  0.1205  0.1099  0.2046
  833MPD2    C112298   2.533   4.283  12.743  0.3659 -0.0284 -0.1203
  833MPD2    C212299   2.611   4.237  12.633 -0.3764  0.2651  0.0842
  833MPD2    C312300   2.644   4.103  12.623 -0.0935  0.4052  0.2460
  833MPD2    C412301   2.592   4.013  12.712  1.0246 -0.6801  0.2135
  833MPD2    C512302   2.513   4.056  12.816  0.6091 -0.7242  0.0718
  833MPD2     H12303   2.641   4.305  12.554  3.1642 -0.9812  0.3800
  833MPD2    H112304   2.617   3.909  12.697 -2.2274 -1.4618  0.1548
  833MPD2    H212305   2.420   4.208  12.916 -0.7589 -0.2802 -0.3732
  833MPD2    H312306   2.471   3.988  12.889 -1.5506 -1.1183 -1.5555
  833MPD2     N12307   2.719   4.048  12.519  0.3778 -0.9715  0.1543
  833MPD2    H512308   2.744   3.950  12.521  0.0848 -1.0336  0.6541
  833MPD2    N112309   2.507   4.421  12.759  0.1634  0.0661 -0.2366
  833MPD2    H712310   2.438   4.440  12.832  0.1229  0.2732 -0.3310
  834MPD2     C12311   2.302   3.422  11.925  0.2706 -0.8616  0.1835
  834MPD2    C112312   2.385   3.480  11.830 -0.5300 -0.6332 -0.2457
  834MPD2    C212313   2.460   3.596  11.865 -0.4171 -0.2997 -0.6056
  834MPD2    C312314   2.444   3.648  11.995  0.3842 -0.2222  0.1429
  834MPD2    C412315   2.363   3.581  12.085 -0.6094 -0.1971 -0.3212
  834MPD2    C512316   2.288   3.470  12.053 -0.3555  0.3439  0.0033
  834MPD2     H12317   2.531   3.645  11.799  0.0982  0.5402  0.5581
  834MPD2    H112318   2.349   3.604  12.190 -0.5933  1.3744 -0.6650
  834MPD2    H212319   2.252   3.327  11.907 -0.8674 -0.2658  0.2572
  834MPD2    H312320   2.217   3.430  12.124  0.8117  0.4626  1.2449
  834MPD2     N12321   2.516   3.765  12.027  0.1045 -0.2636  0.4303
  834MPD2    H512322   2.576   3.803  11.954 -0.9711 -1.1211 -0.8978
  834MPD2    N112323   2.388   3.419  11.706  0.3871 -0.0973  0.8870
  834MPD2    H712324   2.335   3.333  11.698  1.6915 -0.6082 -2.1732
  835MPD2     C12325   2.480   1.989  11.184  0.8721  0.4815 -0.1581
  835MPD2    C112326   2.368   2.017  11.248 -0.4233  1.3473  0.4103
  835MPD2    C212327   2.355   2.032  11.382  0.6034 -0.6261  0.2410
  835MPD2    C312328   2.470   2.022  11.464  0.0752  0.3755 -0.4792
  835MPD2    C412329   2.586   1.986  11.398  0.5862  0.3462  0.4007
  835MPD2    C512330   2.590   1.968  11.263  0.1730  0.3244  0.6012
  835MPD2     H12331   2.251   2.039  11.410 -0.5532 -1.3767 -3.8595
  835MPD2    H112332   2.678   1.968  11.453  1.2244  0.0821 -0.7396
  835MPD2    H212333   2.490   1.984  11.076 -1.7981 -2.4940 -0.2466
  835MPD2    H312334   2.683   1.963  11.208 -1.3891 -1.2373 -1.8923
  835MPD2     N12335   2.457   2.031  11.605 -0.3666  0.0326  0.0195
  835MPD2    H512336   2.540   1.998  11.654  1.0693  2.5605 -0.7359
  835MPD2    N112337   2.245   2.024  11.178 -0.0126 -0.1081 -0.9203
  835MPD2    H712338   2.158   2.018  11.230  0.2427 -0.2069 -0.5031
  836MPD2     C12339   1.785   2.237  11.931 -0.3104 -0.0328 -0.6056
  836MPD2    C112340   1.879   2.230  12.034  0.2535 -0.5901  0.3362
  836MPD2    C212341   1.847   2.258  12.165 -0.2784 -0.5019  0.5251
  836MPD2    C312342   1.723   2.320  12.189  0.8975 -0.1853  0.6517
  836MPD2    C412343   1.637   2.324  12.087  0.1026 -0.2696 -0.1096
  836MPD2    C512344   1.659   2.282  11.958  0.7860  0.0855 -0.2261
  836MPD2     H12345   1.926   2.255  12.240 -0.8762 -0.1360  1.1668
  836MPD2    H112346   1.537   2.366  12.099  1.7574  3.4312  0.6888
  836MPD2    H212347   1.811   2.206  11.830 -0.4427 -0.8139 -0.4048
  836MPD2    H312348   1.575   2.286  11.890  0.4690  0.7966  0.2107
  836MPD2     N12349   1.682   2.375  12.311 -0.1685 -0.1095 -0.1113
  836MPD2    H512350   1.596   2.429  12.312 -0.5460 -0.7192  0.4138
  836MPD2    N112351   2.009   2.185  11.992  0.1161 -0.8403  0.0079
  836MPD2    H712352   2.021   2.165  11.893 -0.6175  3.0068 -0.8623
  837MPD2     C12353   0.715   1.812  10.366 -0.1899 -0.2488 -0.0307
  837MPD2    C112354   0.590   1.851  10.394 -0.1242 -0.1043 -0.4398
  837MPD2    C212355   0.570   1.960  10.475  1.2984 -0.0890 -0.1774
  837MPD2    C312356   0.678   2.041  10.503  0.5997 -0.6403 -0.1743
  837MPD2    C412357   0.805   2.009  10.463  0.0490 -0.3847 -0.0886
  837MPD2    C512358   0.823   1.888  10.407 -0.1061 -0.2048 -0.2573
  837MPD2     H12359   0.470   1.995  10.501  1.0915 -0.2048 -0.8047
  837MPD2    H112360   0.891   2.060  10.503 -0.8169  1.6671 -0.8389
  837MPD2    H212361   0.735   1.724  10.307  1.3628 -1.0172  1.6148
  837MPD2    H312362   0.922   1.846  10.394  0.3924  0.2909  1.9131
  837MPD2     N12363   0.650   2.165  10.565 -0.0146 -0.2647  0.2539
  837MPD2    H512364   0.555   2.185  10.596 -0.3450  1.7570 -2.0665
  837MPD2    N112365   0.477   1.792  10.332 -0.6090 -0.1817 -0.5424
  837MPD2    H712366   0.389   1.831  10.363 -1.3244 -2.2872  0.0680
  838MPD2     C12367   4.124   4.673  12.633 -0.2428  0.4650  0.0519
  838MPD2    C112368   4.056   4.552  12.600  0.8570  0.5040  0.1049
  838MPD2    C212369   3.918   4.541  12.623 -0.0316 -0.5079  0.2381
  838MPD2    C312370   3.854   4.643  12.682  0.9147 -0.2497  0.0215
  838MPD2    C412371   3.926   0.021  12.726  0.5998  0.3892  0.1543
  838MPD2    C512372   4.060   0.037  12.701 -0.0123  0.6861  0.0851
  838MPD2     H12373   3.864   4.449  12.604 -0.1733 -0.5958  1.0884
  838MPD2    H112374   3.890   0.097  12.794 -0.6331  0.8495 -1.0060
  838MPD2    H212375   4.232   4.683  12.630 -0.3349  1.9055  1.5116
  838MPD2    H312376   4.110   0.122  12.746 -1.6680  1.5257  0.3635
  838MPD2     N12377   3.717   4.624  12.698  0.9636  0.1101  0.2687
  838MPD2    H512378   3.684   4.531  12.675  1.0758  0.8183 -2.8319
  838MPD2    N112379   4.106   4.442  12.522  0.6056  0.3674  0.2843
  838MPD2    H712380   4.032   4.378  12.496  1.7461  0.1794 -2.5001
  839MPD2     C12381   3.448   4.143  12.278  0.4879  0.1263 -0.0537
  839MPD2    C112382   3.506   4.164  12.152  0.2608 -0.5792  0.2835
  839MPD2    C212383   3.639   4.181  12.161 -0.2137  0.0948 -1.2222
  839MPD2    C312384   3.722   4.183  12.272  0.2269  0.4298 -0.1904
  839MPD2    C412385   3.653   4.159  12.392 -0.6792  0.2939 -0.1103
  839MPD2    C512386   3.522   4.133  12.392 -0.0226  0.3252  0.0851
  839MPD2     H12387   3.694   4.193  12.068  0.5464 -0.8985 -0.9011
  839MPD2    H112388   3.698   4.158  12.491 -0.4836  2.1698 -0.1669
  839MPD2    H212389   3.343   4.126  12.299  0.4508 -0.1540 -0.4797
  839MPD2    H312390   3.460   4.119  12.480 -0.5881  1.1110 -0.2042
  839MPD2     N12391   3.867   4.200  12.275  0.2109  0.0685 -0.4321
  839MPD2    H512392   3.902   4.182  12.368 -0.2172 -1.0946 -0.5001
  839MPD2    N112393   3.431   4.161  12.028 -0.2666  1.0997 -0.5485
  839MPD2    H712394   3.490   4.147  11.947  1.4827 -1.4500  1.1573
  840MPD2     C12395   4.054   2.308  10.410  0.0565  0.5224 -0.3392
  840MPD2    C112396   4.024   2.229  10.512  0.0585  0.0247 -0.2393
  840MPD2    C212397   4.074   2.264  10.642  1.5738  0.0382 -0.0356
  840MPD2    C312398   4.144   2.382  10.663  0.0646 -0.7796 -0.1020
  840MPD2    C412399   4.183   2.452  10.546  0.5803 -0.3411  0.0750
  840MPD2    C512400   4.143   2.420  10.421 -0.0406 -0.2292 -0.7533
  840MPD2     H12401   4.053   2.199  10.726 -0.2019  1.2285  0.4368
  840MPD2    H112402   4.247   2.539  10.547  0.0621  0.0068  2.5607
  840MPD2    H212403   4.020   2.279  10.311 -0.9044  0.4089  0.0277
  840MPD2    H312404   4.189   2.485  10.347  0.1622  1.7299  1.1228
  840MPD2     N12405   4.183   2.416  10.798 -0.1183  0.8213  0.2296
  840MPD2    H512406   4.144   2.356  10.871 -0.0403 -1.3100 -1.4935
  840MPD2    N112407   3.938   2.120  10.480 -0.2229  0.5187 -0.0239
  840MPD2    H712408   3.919   2.103  10.382 -2.9776  0.5174  0.5215
  841MPD2     C12409   3.702   2.299  14.488  0.0722  0.1868  0.9695
  841MPD2    C112410   3.754   2.205  14.576  0.2362 -0.0391  0.0468
  841MPD2    C212411   3.889   2.215  14.612  0.3745  0.4357 -0.4275
  841MPD2    C312412   3.971   2.323  14.567  0.0824  0.0809  0.2001
  841MPD2    C412413   3.913   2.411  14.473  0.3383 -0.7817  0.1466
  841MPD2    C512414   3.784   2.389  14.433  0.0932  0.2788 -0.6409
  841MPD2     H12415   3.922   2.154  14.695 -0.5412  0.3122 -0.1600
  841MPD2    H112416   3.965   2.496  14.430 -1.0378 -1.9016 -3.7362
  841MPD2    H212417   3.604   2.281  14.444  1.3392 -1.2081 -1.2394
  841MPD2    H312418   3.748   2.463  14.363  4.2454  0.7187 -2.3330
  841MPD2     N12419   4.100   2.332  14.617 -0.0812  0.6231  0.3053
  841MPD2    H512420   4.134   2.273  14.693  2.2407  1.4755 -0.0704
  841MPD2    N112421   3.684   2.098  14.634 -0.4846  0.0717 -0.3168
  841MPD2    H712422   3.740   2.036  14.692 -0.0760 -0.2705 -1.0825
  842MPD2     C12423   0.114   3.583  17.145 -0.8828  0.4271 -0.5104
  842MPD2    C112424   0.017   3.491  17.163 -0.1163 -0.9410  1.0227
  842MPD2    C212425   0.029   3.401  17.269  1.3004  0.0572  0.2941
  842MPD2    C312426   0.139   3.412  17.354  0.1907  0.6017  0.5758
  842MPD2    C412427   0.241   3.502  17.335 -0.2514  0.6788 -0.4301
  842MPD2    C512428   0.227   3.590  17.229 -0.2943 -0.3088  0.2773
  842MPD2     H12429   4.706   3.310  17.268 -0.1443  0.9900 -1.0593
  842MPD2    H112430   0.336   3.500  17.386 -0.0544  1.4612 -0.7679
  842MPD2    H212431   0.112   3.637  17.052  0.3259 -1.3102 -1.5593
  842MPD2    H312432   0.312   3.653  17.205 -0.9522 -0.7054 -3.0414
  842MPD2     N12433   0.173   3.307  17.448 -0.1572  0.3148 -0.1816
  842MPD2    H512434   0.273   3.296  17.466 -0.5565  2.1901  3.1192
  842MPD2    N112435   4.637   3.494  17.075 -0.0540 -0.4717  0.8580
  842MPD2    H712436   4.632   3.578  17.018 -0.4131 -0.9337  0.2148
  843MPD2     C12437   2.171   3.743   0.106 -0.0474  0.1209  0.6957
  843MPD2    C112438   2.246   3.709   0.214 -0.1235  0.7358 -0.4789
  843MPD2    C212439   2.365   3.770   0.240 -0.3491 -0.0603 -0.4242
  843MPD2    C312440   2.415   3.868   0.155  0.0976 -0.1083 -0.0986
  843MPD2    C412441   2.339   3.901   0.045 -0.8828 -0.2632  1.1573
  843MPD2    C512442   2.217   3.837   0.030 -0.0365  0.3092  0.1428
  843MPD2     H12443   2.413   3.758   0.336 -2.3747 -0.7955  0.4800
  843MPD2    H112444   2.351   3.979  17.709  1.4050 -0.4218  1.3721
  843MPD2    H212445   2.079   3.695   0.077  0.2848 -0.3317  0.3766
  843MPD2    H312446   2.159   3.881  17.688 -0.8457  1.1586  1.1839
  843MPD2     N12447   2.522   3.956   0.190  0.1416 -0.5167 -0.3322
  843MPD2    H512448   2.537   4.024   0.116 -0.4874 -0.1973 -0.1718
  843MPD2    N112449   2.188   3.617   0.305  0.0303  0.0876  0.6348
  843MPD2    H712450   2.090   3.598   0.288  0.1027  0.4744 -0.2524
  844MPD2     C12451   0.050   2.514  16.815  0.5343 -0.1028  0.2805
  844MPD2    C112452   0.114   2.570  16.701  0.8088  0.7585 -0.0281
  844MPD2    C212453   0.232   2.648  16.723 -0.3146  0.3597  0.1509
  844MPD2    C312454   0.282   2.655  16.851 -0.5221  0.6701  0.4263
  844MPD2    C412455   0.229   2.589  16.960  0.1867 -0.3284  0.0829
  844MPD2    C512456   0.110   2.517  16.940  1.1738  0.0231 -0.7657
  844MPD2     H12457   0.296   2.681  16.643 -0.5998  0.3108 -0.0989
  844MPD2    H112458   0.272   2.599  17.059 -1.9174 -0.4689  1.0204
  844MPD2    H212459   4.692   2.458  16.804 -0.4998  2.0147 -1.7489
  844MPD2    H312460   0.073   2.460  17.025  1.1477 -1.5778 -1.8563
  844MPD2     N12461   0.398   2.731  16.860  0.0102  0.2654 -0.3783
  844MPD2    H512462   0.446   2.757  16.774 -0.2430 -1.5114 -1.0372
  844MPD2    N112463   0.063   2.564  16.573 -0.7851  0.7192 -0.1714
  844MPD2    H712464   0.119   2.617  16.506 -2.0638  0.4336 -1.4691
  845MPD2     C12465   0.711   3.652  16.717  0.8133  0.0522  0.1134
  845MPD2    C112466   0.728   3.623  16.847  0.8665  0.6286 -0.3165
  845MPD2    C212467   0.729   3.494  16.886 -0.5189 -0.0097 -0.3185
  845MPD2    C312468   0.739   3.390  16.798  0.1015 -1.1003  0.1978
  845MPD2    C412469   0.730   3.423  16.665 -0.0827  0.2242  0.0595
  845MPD2    C512470   0.717   3.555  16.625  0.0582  0.2146 -0.1576
  845MPD2     H12471   0.721   3.461  16.989  1.7512 -0.3415 -0.2397
  845MPD2    H112472   0.728   3.347  16.588  0.7712  1.0966 -0.8395
  845MPD2    H212473   0.692   3.749  16.672 -0.7906 -0.0543  0.5421
  845MPD2    H312474   0.707   3.583  16.521  0.6876  1.8904  0.2456
  845MPD2     N12475   0.732   3.259  16.843  0.0935 -0.6297  0.4424
  845MPD2    H512476   0.743   3.245  16.943 -1.9545  0.5598  0.8224
  845MPD2    N112477   0.717   3.731  16.938  0.4337  0.0116 -0.2465
  845MPD2    H712478   0.681   3.816  16.897 -1.3479 -0.1169  1.0471
  846MPD2     C12479   1.924   4.002  13.813 -0.1589  0.6449  0.3188
  846MPD2    C112480   1.830   4.082  13.866 -0.6239 -0.2056 -0.2930
  846MPD2    C212481   1.769   4.062  13.989  0.0967  0.2234 -0.2206
  846MPD2    C312482   1.827   3.973  14.069 -0.4070 -0.7197  0.2076
  846MPD2    C412483   1.919   3.885  14.020  0.0445 -0.4182  0.1080
  846MPD2    C512484   1.966   3.900  13.893 -0.4697 -0.0439 -0.4451
  846MPD2     H12485   1.680   4.116  14.022 -0.1585 -0.8709  0.8734
  846MPD2    H112486   1.957   3.805  14.083  0.5073 -0.0833  0.2502
  846MPD2    H212487   1.960   3.991  13.711  0.3504 -0.3086  0.6075
  846MPD2    H312488   2.035   3.827  13.851 -3.5853 -4.1166  1.4206
  846MPD2     N12489   1.778   3.962  14.200 -0.5609 -0.2688  0.6351
  846MPD2    H512490   1.681   3.989  14.213 -0.1937  1.0733  0.6473
  846MPD2    N112491   1.788   4.195  13.798 -0.3009  0.0143 -0.1408
  846MPD2    H712492   1.699   4.235  13.827  0.5594  2.6746 -1.1874
  847MPD2     C12493   2.665   0.211  14.395 -0.2617 -0.6448 -0.6732
  847MPD2    C112494   2.555   0.229  14.478 -0.0336 -0.0166  0.6457
  847MPD2    C212495   2.441   0.154  14.453 -0.4302 -0.3253  0.5177
  847MPD2    C312496   2.444   0.046  14.368  0.3960  0.2189  0.4422
  847MPD2    C412497   2.563   0.016  14.303 -0.4067  0.3142 -0.2397
  847MPD2    C512498   2.668   0.099  14.324  0.2898  0.4657  0.4854
  847MPD2     H12499   2.351   0.171  14.511 -0.7056  1.6541 -0.4949
  847MPD2    H112500   2.565   4.670  14.232 -1.3758 -0.8896  1.0996
  847MPD2    H212501   2.754   0.271  14.412  1.1456 -3.2532  1.1572
  847MPD2    H312502   2.754   0.073  14.264  0.5326 -0.2338  1.1297
  847MPD2     N12503   2.337   4.691  14.351 -0.1083 -0.2540  0.1006
  847MPD2    H512504   2.357   4.601  14.308 -0.6308 -1.0303  1.4898
  847MPD2    N112505   2.549   0.309  14.588 -0.1024  0.1053 -0.0756
  847MPD2    H712506   2.457   0.311  14.631  1.4550  2.2693  3.0923
  848MPD2     C12507   4.536   3.503  16.584  0.3913  0.0473 -0.0629
  848MPD2    C112508   4.666   3.520  16.632  0.8217 -0.0915  0.0192
  848MPD2    C212509   0.002   3.632  16.582  0.0698 -0.3464 -0.0093
  848MPD2    C312510   4.678   3.708  16.484 -0.5994 -0.4239 -0.3309
  848MPD2    C412511   4.559   3.676  16.427 -0.0088  0.4765  0.2461
  848MPD2    C512512   4.492   3.571  16.476 -0.1313 -0.2942 -0.4240
  848MPD2     H12513   0.096   3.656  16.630  0.0768  2.0704 -1.2703
  848MPD2    H112514   4.507   3.738  16.355 -0.3519 -2.5293 -2.1201
  848MPD2    H212515   4.472   3.429  16.630  0.1083 -1.0650 -2.2676
  848MPD2    H312516   4.392   3.540  16.447 -0.0171 -1.0520 -0.0037
  848MPD2     N12517   4.732   3.823  16.427  0.0717  0.0887 -0.4030
  848MPD2    H512518   4.683   3.858  16.346 -0.5494  0.1423 -0.0069
  848MPD2    N112519   4.728   3.440  16.733  1.1505  0.3970 -0.6139
  848MPD2    H712520   0.093   3.453  16.741  1.0951  1.1240 -1.0776
  849MPD2     C12521   3.769   2.624  14.720  0.2768  0.8184  0.8299
  849MPD2    C112522   3.744   2.721  14.627 -0.4708  0.3701 -0.2094
  849MPD2    C212523   3.855   2.782  14.568  0.3560 -0.5572 -0.4192
  849MPD2    C312524   3.982   2.734  14.592  0.0667 -0.4221  0.2494
  849MPD2    C412525   4.008   2.640  14.692 -0.1048  0.4041 -0.7197
  849MPD2    C512526   3.896   2.591  14.762  0.8318 -0.1970  1.2960
  849MPD2     H12527   3.845   2.846  14.481 -0.0504 -3.0080 -2.1720
  849MPD2    H112528   4.108   2.618  14.728 -0.7628 -2.0736 -0.4588
  849MPD2    H212529   3.691   2.563  14.764  0.5403  1.2759  1.9246
  849MPD2    H312530   3.904   2.520  14.843  2.6745 -2.2865 -0.7309
  849MPD2     N12531   4.089   2.799  14.519 -0.3590 -0.0605 -0.9814
  849MPD2    H512532   4.063   2.854  14.438  0.1725 -2.3486 -2.7255
  849MPD2    N112533   3.609   2.747  14.594 -0.8067 -0.3075 -0.1287
  849MPD2    H712534   3.534   2.693  14.635 -1.9794  1.9996  0.7019
  850MPD2     C12535   2.843   0.749  15.336 -0.0087  0.5210  0.9332
  850MPD2    C112536   2.783   0.863  15.392  0.1527  0.6440 -0.0156
  850MPD2    C212537   2.866   0.984  15.391  0.5150  0.3910  0.3782
  850MPD2    C312538   2.998   0.982  15.346  0.3607 -0.0476  0.5030
  850MPD2    C412539   3.054   0.866  15.298 -0.1035  0.1018 -0.0039
  850MPD2    C512540   2.974   0.752  15.292 -0.1113 -0.3509 -0.2042
  850MPD2     H12541   2.817   1.074  15.426  1.5093  1.8073 -1.8414
  850MPD2    H112542   3.156   0.865  15.260 -0.0058 -1.6171  0.2798
  850MPD2    H212543   2.792   0.654  15.338 -0.8960  0.9528 -1.0294
  850MPD2    H312544   3.012   0.658  15.252 -0.8146 -1.4621  1.7187
  850MPD2     N12545   3.073   1.100  15.331  0.4720  0.1159 -0.8672
  850MPD2    H512546   3.154   1.094  15.271 -0.3671 -2.3337 -1.7531
  850MPD2    N112547   2.649   0.870  15.438  0.3526  0.4517 -0.0004
  850MPD2    H712548   2.613   0.959  15.472  2.0601  1.0741  0.2041
  851MPD2     C12549   2.323   0.395  15.820  0.4449 -0.0734  0.0944
  851MPD2    C112550   2.224   0.481  15.819 -0.6041 -0.0643 -0.2364
  851MPD2    C212551   2.109   0.454  15.882 -0.0505  0.0308  0.5154
  851MPD2    C312552   2.086   0.335  15.951  0.7426  0.0206 -0.0909
  851MPD2    C412553   2.195   0.247  15.955  0.1809 -0.1954 -0.4259
  851MPD2    C512554   2.312   0.278  15.886 -0.8788 -0.5493  0.7011
  851MPD2     H12555   2.025   0.523  15.880 -0.7951 -0.8219  1.7761
  851MPD2    H112556   2.188   0.149  16.001 -0.2275  0.2079  0.3819
  851MPD2    H212557   2.418   0.412  15.769 -0.5903  1.7920 -1.2057
  851MPD2    H312558   2.397   0.216  15.910 -1.0166 -1.5139 -1.2825
  851MPD2     N12559   1.952   0.301  15.996 -0.3448  0.4293  0.4729
  851MPD2    H512560   1.880   0.369  15.975 -0.3668  0.7833  1.7108
  851MPD2    N112561   2.252   0.586  15.734 -0.3370  0.2315 -0.2786
  851MPD2    H712562   2.348   0.588  15.701  0.3120  0.0107  1.5851
  852MPD2     C12563   1.426   3.569  10.514 -0.0600  0.9634 -0.6090
  852MPD2    C112564   1.452   3.652  10.620  0.0208  0.2997 -0.8258
  852MPD2    C212565   1.528   3.766  10.605  0.3876  0.3966  0.2629
  852MPD2    C312566   1.592   3.790  10.484  0.2413 -0.6232  0.8873
  852MPD2    C412567   1.570   3.700  10.379  1.2522 -0.0293 -0.3831
  852MPD2    C512568   1.487   3.597  10.392  0.1482 -0.6277  0.7385
  852MPD2     H12569   1.538   3.828  10.693  2.8118  3.7450 -2.3549
  852MPD2    H112570   1.607   3.711  10.277  1.4767  0.5745 -0.2394
  852MPD2    H212571   1.360   3.483  10.513  0.6367  0.3750  2.2159
  852MPD2    H312572   1.464   3.531  10.309 -0.9234  0.4432  0.1927
  852MPD2     N12573   1.684   3.896  10.483  0.4844 -0.7949  0.2818
  852MPD2    H512574   1.702   3.945  10.570  0.3624 -0.6343  0.2160
  852MPD2    N112575   1.399   3.630  10.744  0.5634 -0.1311 -0.5536
  852MPD2    H712576   1.419   3.704  10.811  2.3398 -0.1357 -1.0799
  853MPD2     C12577   3.190   3.077  12.709  0.9920 -1.2635  0.5888
  853MPD2    C112578   3.101   3.157  12.646 -0.1451  0.5248 -0.1727
  853MPD2    C212579   3.088   3.157  12.508  0.5985 -0.7135 -0.0836
  853MPD2    C312580   3.158   3.064  12.434  0.2032  0.1050 -0.4115
  853MPD2    C412581   3.244   2.973  12.499  0.6439  0.0887  0.1628
  853MPD2    C512582   3.255   2.980  12.631  0.5900 -0.1947 -0.1567
  853MPD2     H12583   3.023   3.223  12.451  2.3077 -1.0236 -2.4275
  853MPD2    H112584   3.312   2.908  12.446  0.9797  1.1980 -0.7614
  853MPD2    H212585   3.210   3.081  12.816  0.9853  1.1178  0.4983
  853MPD2    H312586   3.327   2.918  12.683 -1.0980 -0.7898  1.4781
  853MPD2     N12587   3.168   3.064  12.297 -0.0380  0.7790 -0.4726
  853MPD2    H512588   3.219   2.988  12.254 -1.1903  0.1734 -0.7608
  853MPD2    N112589   3.026   3.249  12.734  0.4465  0.5892 -0.0698
  853MPD2    H712590   3.026   3.233  12.834  0.2144 -1.1923 -0.3518
  854MPD2     C12591   4.321   3.353  12.908  0.3785  0.0081 -0.0796
  854MPD2    C112592   4.432   3.364  12.992 -0.3968  0.4954  0.4007
  854MPD2    C212593   4.513   3.250  13.010 -0.4072  0.0152  0.2040
  854MPD2    C312594   4.483   3.126  12.943  0.5657 -0.5635  0.0813
  854MPD2    C412595   4.381   3.124  12.854  0.2038 -0.2157 -0.5057
  854MPD2    C512596   4.302   3.233  12.841  0.7687 -0.3685  0.0672
  854MPD2     H12597   4.605   3.258  13.069 -0.1669 -1.8472  0.0807
  854MPD2    H112598   4.352   3.041  12.792 -0.1903  0.8590 -1.7536
  854MPD2    H212599   4.260   3.442  12.901 -0.1546 -0.3206  0.3601
  854MPD2    H312600   4.216   3.216  12.778 -1.1970  0.9636  2.3778
  854MPD2     N12601   4.565   3.008  12.955  0.0402 -0.8895  0.1058
  854MPD2    H512602   4.533   2.936  12.891 -1.1633  0.9161 -1.3208
  854MPD2    N112603   4.457   3.487  13.055  0.1610 -0.4556 -0.4266
  854MPD2    H712604   4.388   3.561  13.058 -0.1197 -0.6240 -2.2525
  855MPD2     C12605   0.732   2.650  13.469 -0.0873  0.2602  0.3157
  855MPD2    C112606   0.639   2.738  13.512  0.0801  0.5089 -1.0813
  855MPD2    C212607   0.522   2.749  13.439  0.1827 -0.3057  0.0942
  855MPD2    C312608   0.505   2.678  13.323 -0.7975  0.3668  0.0956
  855MPD2    C412609   0.603   2.587  13.281  0.0016 -0.1254 -0.0381
  855MPD2    C512610   0.719   2.577  13.352 -0.3722  0.1208  0.9231
  855MPD2     H12611   0.440   2.810  13.474  0.7678 -0.9503  2.5336
  855MPD2    H112612   0.590   2.528  13.191  0.5069 -0.7996  0.3426
  855MPD2    H212613   0.824   2.637  13.525  0.7088 -3.6606 -1.9043
  855MPD2    H312614   0.804   2.515  13.329 -0.2228  1.1282 -1.2545
  855MPD2     N12615   0.393   2.685  13.246 -0.1470 -0.3479 -0.0498
  855MPD2    H512616   0.384   2.607  13.182  0.3590 -0.6119  0.2004
  855MPD2    N112617   0.643   2.801  13.636  0.7164  0.1294 -0.2520
  855MPD2    H712618   0.568   2.862  13.667 -0.5500  0.7569 -4.4747
  856MPD2     C12619   2.876   4.463  14.023  0.3300 -0.0564  0.3605
  856MPD2    C112620   2.932   4.582  14.059 -0.5029 -0.3221 -0.1798
  856MPD2    C212621   2.858   4.699  14.030 -0.5166 -0.4732  0.5761
  856MPD2    C312622   2.734   4.700  13.976  0.5323 -0.3473  0.3454
  856MPD2    C412623   2.682   4.579  13.937 -0.4877 -0.1734  0.2923
  856MPD2    C512624   2.752   4.463  13.952  0.3761 -0.3473 -0.7426
  856MPD2     H12625   2.897   0.058  14.067  3.1119 -1.6771 -0.1834
  856MPD2    H112626   2.583   4.566  13.894 -0.5735  1.7312 -0.0820
  856MPD2    H212627   2.930   4.370  14.035  0.4870  0.1284  1.0941
  856MPD2    H312628   2.707   4.367  13.928 -0.3660 -0.3657  0.7310
  856MPD2     N12629   2.657   0.084  13.966  0.2256 -0.0885 -0.2250
  856MPD2    H512630   2.559   0.067  13.947  0.2592 -0.9259  0.3543
  856MPD2    N112631   3.066   4.599  14.099  0.8517 -0.0223 -0.0971
  856MPD2    H712632   3.105   4.692  14.109 -1.2442  0.9524 -0.8921
  857MPD2     C12633   4.263   1.067  12.859 -0.2662  0.4774 -0.6101
  857MPD2    C112634   4.282   1.193  12.813 -0.0892 -0.6564 -0.2961
  857MPD2    C212635   4.249   1.297  12.901  0.2585  0.3402  0.3855
  857MPD2    C312636   4.224   1.270  13.033 -0.6170  0.7073  0.0416
  857MPD2    C412637   4.209   1.137  13.076 -0.0029  1.0221 -0.0447
  857MPD2    C512638   4.237   1.037  12.990  0.6492  0.2485 -0.1653
  857MPD2     H12639   4.238   1.400  12.869 -0.9823  0.5449  1.4502
  857MPD2    H112640   4.188   1.106  13.178  0.1352 -1.2001 -0.7113
  857MPD2    H212641   4.296   0.982  12.800  1.7888 -0.7637  2.3663
  857MPD2    H312642   4.234   0.936  13.027 -1.0253  0.8216  1.2550
  857MPD2     N12643   4.202   1.381  13.126 -0.3762 -0.2068 -0.0533
  857MPD2    H512644   4.195   1.477  13.094  0.4921 -0.6714 -1.6104
  857MPD2    N112645   4.324   1.215  12.684  0.1138  0.1470  0.1510
  857MPD2    H712646   4.310   1.140  12.617  0.7611  1.5739 -1.5957
  858MPD2     C12647   0.308   0.770  16.923 -0.0898  0.1783  0.1977
  858MPD2    C112648   0.400   0.682  16.984  0.2260 -0.4038 -0.2264
  858MPD2    C212649   0.464   0.722  17.099  0.3145  0.3462 -1.0570
  858MPD2    C312650   0.437   0.845  17.166  0.6660  0.2091 -0.5190
  858MPD2    C412651   0.347   0.923  17.106  0.0021  0.1836  0.2411
  858MPD2    C512652   0.288   0.893  16.985 -0.2436 -0.0315  0.3384
  858MPD2     H12653   0.547   0.662  17.134  0.1086  0.6497 -0.0415
  858MPD2    H112654   0.316   1.011  17.162  0.3876 -0.8156  2.0374
  858MPD2    H212655   0.250   0.745  16.835 -0.1170 -1.0891  0.5739
  858MPD2    H312656   0.209   0.949  16.935  0.1079  0.0396 -0.1366
  858MPD2     N12657   0.497   0.891  17.288 -0.2980  0.1777 -0.2360
  858MPD2    H512658   0.476   0.989  17.306 -0.7947  0.0753 -0.2500
  858MPD2    N112659   0.415   0.555  16.919 -0.1787  0.4076 -0.1281
  858MPD2    H712660   0.360   0.541  16.835 -0.7145  1.6336  0.0150
  859MPD2     C12661   3.712   3.163  15.256 -0.3501 -0.0347  1.1561
  859MPD2    C112662   3.837   3.109  15.265  0.1831 -0.9347 -0.2910
  859MPD2    C212663   3.855   2.974  15.303 -0.2013 -0.1329  0.8802
  859MPD2    C312664   3.747   2.904  15.344  0.2480  1.0349 -0.2734
  859MPD2    C412665   3.619   2.954  15.327  0.4746  1.5587 -0.5972
  859MPD2    C512666   3.600   3.084  15.288 -0.2415 -0.4695 -0.4345
  859MPD2     H12667   3.951   2.924  15.304  0.4489  1.0942  0.1923
  859MPD2    H112668   3.531   2.901  15.361 -0.2315  2.7960 -0.5006
  859MPD2    H212669   3.707   3.265  15.220  1.8066 -0.0343  0.8745
  859MPD2    H312670   3.504   3.127  15.266  1.3449  2.6010 -1.2920
  859MPD2     N12671   3.756   2.774  15.404 -0.1117 -0.0831 -0.1886
  859MPD2    H512672   3.664   2.731  15.415  0.6349 -1.3616  0.9408
  859MPD2    N112673   3.941   3.190  15.223  0.5214  0.7786 -0.4362
  859MPD2    H712674   3.915   3.283  15.190 -1.8688  0.5621  0.8817
  860MPD2     C12675   1.058   3.524  11.792 -0.1428  0.0975 -0.3209
  860MPD2    C112676   1.059   3.446  11.905 -0.1193  0.6426  0.2670
  860MPD2    C212677   0.941   3.413  11.962 -0.0940  0.5266 -0.1161
  860MPD2    C312678   0.816   3.463  11.918 -0.1965  0.3983  0.0482
  860MPD2    C412679   0.818   3.536  11.799  0.4532 -0.3770  0.2482
  860MPD2    C512680   0.930   3.565  11.746  0.7627  0.0388 -0.0616
  860MPD2     H12681   0.932   3.348  12.048  1.2506 -1.1352 -1.2251
  860MPD2    H112682   0.732   3.581  11.753 -0.2516 -2.0985 -0.1312
  860MPD2    H212683   1.144   3.560  11.738  0.5485  0.3339  0.9357
  860MPD2    H312684   0.938   3.635  11.663 -0.0693  0.1352 -0.0551
  860MPD2     N12685   0.708   3.433  12.000  0.2829  0.2676 -0.2216
  860MPD2    H512686   0.733   3.377  12.081 -0.7856 -0.7462 -0.5943
  860MPD2    N112687   1.175   3.406  11.978 -0.2952  0.1252 -0.4348
  860MPD2    H712688   1.171   3.369  12.072  1.8638 -2.3729 -1.3484
  861MPD2     C12689   0.645   0.952  11.164  0.7572  0.1338 -0.3320
  861MPD2    C112690   0.660   1.087  11.170  0.1731 -0.5696 -0.1546
  861MPD2    C212691   0.584   1.169  11.084  0.9234 -0.1588  0.6308
  861MPD2    C312692   0.478   1.117  11.013  1.3146 -0.1887  1.1977
  861MPD2    C412693   0.468   0.980  10.998 -0.1778 -0.1998 -0.6334
  861MPD2    C512694   0.557   0.902  11.068  0.9379 -0.3964  0.4481
  861MPD2     H12695   0.582   1.276  11.098  1.5288 -0.2775  1.6222
  861MPD2    H112696   0.403   0.939  10.922  0.7299  0.7474 -1.9117
  861MPD2    H212697   0.690   0.885  11.237 -4.0924 -3.0713 -0.2076
  861MPD2    H312698   0.542   0.795  11.064 -1.1960  0.0058 -2.1752
  861MPD2     N12699   0.370   1.185  10.956  0.0114 -0.0761  0.5042
  861MPD2    H512700   0.293   1.134  10.913 -1.1801  1.7832  0.4104
  861MPD2    N112701   0.742   1.149  11.271  0.1266  0.0988 -0.7859
  861MPD2    H712702   0.757   1.249  11.259  0.3354  0.5727  3.4111
  862MPD2     C12703   4.465   1.013  10.764  0.3270 -0.0252  0.7474
  862MPD2    C112704   4.563   1.019  10.857  0.4630  1.1791 -0.1832
  862MPD2    C212705   4.568   0.912  10.949  0.4035 -0.4225 -0.4469
  862MPD2    C312706   4.467   0.815  10.947  0.2591  0.1932  0.4740
  862MPD2    C412707   4.366   0.816  10.850 -0.6497 -0.9826 -0.1494
  862MPD2    C512708   4.375   0.908  10.756  0.2077  0.1045  0.1378
  862MPD2     H12709   4.645   0.907  11.025  0.9555  3.2396 -0.7448
  862MPD2    H112710   4.269   0.770  10.858 -1.5269  0.8015 -0.4818
  862MPD2    H212711   4.455   1.089  10.687 -1.4584  0.7074  1.7091
  862MPD2    H312712   4.298   0.919  10.681 -0.1798  1.8178  0.7947
  862MPD2     N12713   4.465   0.713  11.042  0.1635  0.4516  0.3671
  862MPD2    H512714   4.381   0.656  11.041 -0.7101  1.7519  0.1390
  862MPD2    N112715   4.654   1.118  10.865  0.1959 -0.1209  0.3941
  862MPD2    H712716   4.730   1.097  10.928 -0.2252  1.6893  1.5091
  863MPD2     C12717   3.691   4.464  16.667 -0.1924  0.0179 -0.7903
  863MPD2    C112718   3.636   4.569  16.739  0.1412  0.1946  0.2205
  863MPD2    C212719   3.673   4.579  16.873 -0.2455 -0.4031  0.1903
  863MPD2    C312720   3.767   4.493  16.930 -0.2594 -0.1856  0.2916
  863MPD2    C412721   3.823   4.392  16.854 -0.5294 -0.0678 -1.2297
  863MPD2    C512722   3.779   4.373  16.723 -0.6903  0.7071 -0.0948
  863MPD2     H12723   3.634   4.662  16.931  0.7223 -0.8740  1.5034
  863MPD2    H112724   3.897   4.320  16.887  1.0230  1.9733 -0.3249
  863MPD2    H212725   3.660   4.450  16.564  0.4996 -1.3798 -0.8135
  863MPD2    H312726   3.819   4.288  16.670  1.3162  0.8278  1.2301
  863MPD2     N12727   3.801   4.493  17.069 -0.3266  0.8119 -0.6625
  863MPD2    H512728   3.872   4.428  17.101 -1.2891 -0.7589 -1.7069
  863MPD2    N112729   3.541   4.651  16.676  0.4361 -0.2216  0.5207
  863MPD2    H712730   3.524   4.634  16.578 -1.2064 -2.2553  1.1431
  864MPD2     C12731   0.003   1.116  17.438 -0.8335  0.1813  0.4833
  864MPD2    C112732   4.700   1.071  17.315  0.0165  1.0435 -0.9699
  864MPD2    C212733   0.031   1.121  17.199 -0.3027  0.4933 -0.1433
  864MPD2    C312734   0.130   1.214  17.205 -0.0535 -0.1550 -0.1148
  864MPD2    C412735   0.165   1.261  17.333 -0.0344  0.1908 -0.3368
  864MPD2    C512736   0.106   1.206  17.447  0.7180 -0.4361 -0.4296
  864MPD2     H12737   4.732   1.097  17.099 -0.0927 -0.7614  0.0846
  864MPD2    H112738   0.245   1.333  17.348  1.4205 -1.3975 -0.5563
  864MPD2    H212739   4.691   1.091  17.533 -1.4613  0.2694  0.1947
  864MPD2    H312740   0.142   1.238  17.544  0.5083 -2.1676  0.2150
  864MPD2     N12741   0.194   1.262  17.086  0.5017  0.8825 -0.5165
  864MPD2    H512742   0.161   1.223  16.998 -0.0044  1.7847 -0.7183
  864MPD2    N112743   4.588   0.983  17.312 -0.1105 -0.2033 -0.0610
  864MPD2    H712744   4.545   0.954  17.399 -0.9414  1.3962  0.0666
  865MPD2     C12745   4.483   1.251  16.446 -0.5646 -0.1161 -0.0678
  865MPD2    C112746   4.599   1.179  16.451 -0.4840 -0.0445  0.2083
  865MPD2    C212747   4.711   1.228  16.511 -0.4608 -0.0270  0.3245
  865MPD2    C312748   4.705   1.339  16.589  0.0534 -0.6195 -0.0622
  865MPD2    C412749   4.582   1.400  16.603  0.6128  0.0697  0.1192
  865MPD2    C512750   4.476   1.355  16.533 -0.2638  0.3365  0.2440
  865MPD2     H12751   0.073   1.180  16.506 -1.1070 -1.1024 -1.5667
  865MPD2    H112752   4.571   1.480  16.675  1.7033  2.4035 -2.3127
  865MPD2    H212753   4.398   1.205  16.397 -0.5377 -1.2863  0.9616
  865MPD2    H312754   4.379   1.404  16.545 -0.0438  0.5540  1.1710
  865MPD2     N12755   0.083   1.390  16.652 -0.1582 -0.3608  0.3721
  865MPD2    H512756   0.064   1.454  16.729 -0.4663 -0.3285  0.2719
  865MPD2    N112757   4.586   1.053  16.387  0.1376  0.4681  0.6303
  865MPD2    H712758   4.509   1.041  16.323  1.4699  2.0377 -1.2548
  866MPD2     C12759   1.256   1.596  11.079 -0.0948 -0.6999 -0.8066
  866MPD2    C112760   1.198   1.485  11.144  0.5226 -0.3967 -0.2589
  866MPD2    C212761   1.064   1.493  11.175 -0.2899 -0.0266 -1.0030
  866MPD2    C312762   0.983   1.603  11.132  0.6032  0.3274 -0.4409
  866MPD2    C412763   1.051   1.710  11.074 -0.0037  0.1418 -0.2850
  866MPD2    C512764   1.183   1.707  11.061  0.7435 -0.4993  0.6833
  866MPD2     H12765   1.021   1.413  11.234 -2.7807  1.3755 -0.8814
  866MPD2    H112766   1.000   1.798  11.036 -0.1295  0.0870 -0.2389
  866MPD2    H212767   1.363   1.601  11.061  0.0959 -1.3050  0.1342
  866MPD2    H312768   1.225   1.799  11.021  0.6520 -0.9744 -0.4792
  866MPD2     N12769   0.847   1.623  11.152  0.2128 -0.1614  0.6628
  866MPD2    H512770   0.809   1.716  11.139  3.0418  0.8406 -0.3151
  866MPD2    N112771   1.284   1.383  11.182 -0.5075 -0.1443 -0.0649
  866MPD2    H712772   1.369   1.396  11.129 -1.5974  2.3928 -1.2054
  867MPD2     C12773   4.119   1.043  17.181  0.0047  0.2271  0.0458
  867MPD2    C112774   4.022   1.074  17.275 -0.2941  0.4962  0.2190
  867MPD2    C212775   4.054   1.166  17.371 -0.5098  0.3710 -0.7698
  867MPD2    C312776   4.180   1.223  17.377 -0.9029  0.3011 -1.0877
  867MPD2    C412777   4.268   1.195  17.278  0.3282 -0.0939 -0.1333
  867MPD2    C512778   4.234   1.112  17.175 -0.2238  0.2513  0.3026
  867MPD2     H12779   3.983   1.187  17.451 -0.3797  1.7563 -1.0065
  867MPD2    H112780   4.366   1.241  17.274  1.2703 -2.0760  0.1525
  867MPD2    H212781   4.103   0.957  17.117  1.0847 -0.6750  0.9809
  867MPD2    H312782   4.311   1.084  17.104 -2.7222 -0.1569 -2.2470
  867MPD2     N12783   4.228   1.311  17.483 -0.0148  0.1196 -0.0044
  867MPD2    H512784   4.323   1.341  17.468  1.2158 -2.3834  2.8242
  867MPD2    N112785   3.900   1.001  17.269 -0.3084 -0.0423  0.0427
  867MPD2    H712786   3.906   0.928  17.199  0.2389  2.2271 -2.2457
  868MPD2     C12787   0.384   4.728  13.494 -0.5122  0.7447 -0.3399
  868MPD2    C112788   0.431   4.650  13.601  0.4010 -0.4696 -0.4329
  868MPD2    C212789   0.329   4.591  13.677  0.3857 -0.5847  0.7412
  868MPD2    C312790   0.197   4.603  13.652  0.7147 -0.4555  0.2135
  868MPD2    C412791   0.156   4.685  13.545  0.4671 -0.5264  0.4684
  868MPD2    C512792   0.248   0.016  13.466 -0.5623  0.4567 -0.8240
  868MPD2     H12793   0.354   4.510  13.744  1.4822 -1.0214 -0.1892
  868MPD2    H112794   0.052   4.709  13.525  0.7852  2.7770  2.8731
  868MPD2    H212795   0.460   0.028  13.425 -0.1182 -1.1528 -0.8437
  868MPD2    H312796   0.222   0.066  13.373 -0.9440  0.2737 -0.8160
  868MPD2     N12797   0.102   4.523  13.720  0.2170  0.2456 -0.6238
  868MPD2    H512798   0.132   4.478  13.806  0.5340 -1.5441 -1.6853
  868MPD2    N112799   0.569   4.623  13.613 -0.4050 -0.0964 -0.1255
  868MPD2    H712800   0.629   4.640  13.533  0.6780 -2.9493  0.0810
  869MPD2     C12801   0.976   3.963   1.489  0.2143  0.8686 -0.4135
  869MPD2    C112802   0.997   3.839   1.443 -0.7449 -0.9010 -0.3293
  869MPD2    C212803   1.128   3.795   1.436  0.3763  0.1702 -0.5918
  869MPD2    C312804   1.230   3.865   1.500  0.3756 -0.3878  0.2243
  869MPD2    C412805   1.198   3.987   1.552 -0.0930  0.1463 -0.1165
  869MPD2    C512806   1.075   4.039   1.530 -0.7816  0.0833 -0.1382
  869MPD2     H12807   1.145   3.692   1.407 -1.5032 -0.9824  2.4460
  869MPD2    H112808   1.281   4.038   1.601  0.0503 -1.7662  1.6552
  869MPD2    H212809   0.883   4.018   1.482  1.0988  2.6458  1.7331
  869MPD2    H312810   1.050   4.140   1.561  0.7696  0.7857 -1.1609
  869MPD2     N12811   1.361   3.812   1.527  0.6005 -0.3062  0.2687
  869MPD2    H512812   1.430   3.883   1.552  1.0605 -0.7500  0.2550
  869MPD2    N112813   0.883   3.772   1.394  0.1617  0.7823  0.2762
  869MPD2    H712814   0.794   3.818   1.410 -0.0253 -0.1130  1.8182
  870MPD2     C12815   1.054   1.020   1.464 -0.7167  0.2129 -0.2575
  870MPD2    C112816   1.126   1.138   1.439 -0.3689 -0.7281  0.7796
  870MPD2    C212817   1.050   1.261   1.423  0.6546 -0.1175  0.4659
  870MPD2    C312818   0.920   1.271   1.465  0.8948 -0.4436 -0.5057
  870MPD2    C412819   0.849   1.155   1.495  0.2110  0.0269 -0.5991
  870MPD2    C512820   0.916   1.036   1.494  0.1169 -0.8058 -0.2859
  870MPD2     H12821   1.110   1.350   1.407  0.2496 -0.1713 -1.3364
  870MPD2    H112822   0.743   1.147   1.516  0.5241 -0.7250  0.7057
  870MPD2    H212823   1.110   0.930   1.487  2.3961  2.3554  0.5314
  870MPD2    H312824   0.865   0.952   1.539  1.1972 -2.1041 -1.4665
  870MPD2     N12825   0.869   1.396   1.489  0.6446 -1.1041 -0.3079
  870MPD2    H512826   0.920   1.478   1.458 -0.7187 -0.9550 -2.1399
  870MPD2    N112827   1.263   1.125   1.403 -0.3939 -0.4651  0.4799
  870MPD2    H712828   1.295   1.029   1.393  0.6295  0.0466 -1.1350
  871MPD2     C12829   2.208   1.362  16.461 -0.0819 -0.0242  0.4771
  871MPD2    C112830   2.203   1.308  16.585  0.5882 -0.0864  0.5743
  871MPD2    C212831   2.207   1.170  16.596  0.3393  0.2709  0.2247
  871MPD2    C312832   2.224   1.095  16.482 -0.4988 -0.2415  0.1961
  871MPD2    C412833   2.245   1.148  16.358  0.1825  0.4821 -0.8549
  871MPD2    C512834   2.235   1.289  16.345  0.0003 -1.0888  0.1694
  871MPD2     H12835   2.193   1.122  16.692 -1.1100  1.5100  0.6168
  871MPD2    H112836   2.254   1.082  16.273  0.6208 -0.2951 -0.2026
  871MPD2    H212837   2.199   1.470  16.457  2.1087  0.2647  2.8310
  871MPD2    H312838   2.259   1.343  16.254 -1.1955  0.9780  1.0744
  871MPD2     N12839   2.232   0.950  16.498 -0.2739 -0.5493  0.6131
  871MPD2    H512840   2.181   0.913  16.577 -1.4969  2.1235  1.0723
  871MPD2    N112841   2.193   1.394  16.695  0.3078 -0.4175 -0.5913
  871MPD2    H712842   2.194   1.494  16.682  2.1482 -0.3317  0.1466
  872MPD2     C12843   2.566   3.615  13.737 -0.4965  0.2127 -0.5342
  872MPD2    C112844   2.548   3.672  13.859 -0.0735  0.6214  0.3651
  872MPD2    C212845   2.422   3.638  13.919  0.0414 -0.8757 -0.1856
  872MPD2    C312846   2.335   3.549  13.866  0.0439 -0.0621  0.0026
  872MPD2    C412847   2.372   3.483  13.748  0.1839  0.5108 -0.0096
  872MPD2    C512848   2.478   3.524  13.678 -0.2019  0.2569 -0.3417
  872MPD2     H12849   2.403   3.693  14.011 -0.2133  0.2830 -0.9331
  872MPD2    H112850   2.311   3.402  13.710  0.2115 -0.1996  1.4498
  872MPD2    H212851   2.657   3.629  13.681  0.7782 -0.4571  1.3641
  872MPD2    H312852   2.503   3.477  13.584  0.5372 -1.3306  0.6471
  872MPD2     N12853   2.218   3.509  13.941 -0.3064  0.6030 -0.4159
  872MPD2    H512854   2.193   3.411  13.930  2.8296 -0.3641  1.0156
  872MPD2    N112855   2.643   3.751  13.933 -0.0042  0.8006 -0.8780
  872MPD2    H712856   2.604   3.786  14.020 -0.4132  0.4053 -0.9028
  873MPD2     C12857   0.344   3.833   1.105 -0.2696 -0.4215 -0.9001
  873MPD2    C112858   0.239   3.820   1.189  0.1105 -0.5101  0.0771
  873MPD2    C212859   0.177   3.696   1.191 -0.0376 -0.9981 -0.4345
  873MPD2    C312860   0.204   3.593   1.097 -0.2074  0.5656 -0.0919
  873MPD2    C412861   0.298   3.622   0.999  0.0197  0.9515  0.1852
  873MPD2    C512862   0.371   3.737   1.010 -0.1878 -0.1871  0.3179
  873MPD2     H12863   0.091   3.682   1.255  0.4487 -3.1316 -0.2209
  873MPD2    H112864   0.325   3.552   0.921 -1.6252  0.3405  0.1751
  873MPD2    H212865   0.413   3.915   1.120  0.3785 -1.4348  1.5889
  873MPD2    H312866   0.455   3.750   0.942  0.4177  0.8049  1.2669
  873MPD2     N12867   0.139   3.470   1.089  0.6447  0.3377  0.1824
  873MPD2    H512868   0.144   3.421   1.001  0.4008 -1.0435  0.9386
  873MPD2    N112869   0.218   3.919   1.291 -0.3115 -0.0292  0.6137
  873MPD2    H712870   0.275   4.004   1.292 -1.4558  0.7297  0.1374
  874MPD2     C12871   4.161   3.889  16.505 -1.1758 -0.6175  0.4903
  874MPD2    C112872   4.261   3.881  16.596 -0.2180 -0.1837  0.1874
  874MPD2    C212873   4.376   3.957  16.578  0.1581  0.4904  0.2756
  874MPD2    C312874   4.391   4.035  16.464 -0.0363 -0.5951  0.0950
  874MPD2    C412875   4.285   4.062  16.375  0.5959  0.6704  0.2947
  874MPD2    C512876   4.173   3.981  16.403  0.1020 -0.1002  0.1018
  874MPD2     H12877   4.462   3.947  16.643  0.3391 -0.4636 -0.1151
  874MPD2    H112878   4.302   4.122  16.287  0.8010 -0.4910 -0.4648
  874MPD2    H212879   4.060   3.852  16.518 -1.0520 -0.1935  2.7118
  874MPD2    H312880   4.089   3.989  16.335  1.0002  1.7143 -0.7993
  874MPD2     N12881   4.518   4.085  16.442 -0.2357 -0.2708  0.4015
  874MPD2    H512882   4.586   4.065  16.515  0.8353 -0.6207 -0.6951
  874MPD2    N112883   4.249   3.786  16.698  0.7703  0.5519  0.3269
  874MPD2    H712884   4.163   3.732  16.705 -0.0906  1.3568 -3.7536
  875MPD2     C12885   0.503   2.178  14.609 -0.7089  0.2345 -0.6344
  875MPD2    C112886   0.374   2.161  14.655 -0.1352 -0.3610 -0.2352
  875MPD2    C212887   0.332   2.170  14.788  0.3039 -0.3748  0.1380
  875MPD2    C312888   0.424   2.223  14.880  0.3057  0.5953  0.0661
  875MPD2    C412889   0.550   2.258  14.829 -0.0931  0.3664  0.0851
  875MPD2    C512890   0.590   2.227  14.701  0.4243 -0.8175 -0.3726
  875MPD2     H12891   0.230   2.146  14.816  0.2208 -0.4419 -0.2329
  875MPD2    H112892   0.622   2.299  14.898 -0.0564 -0.9403  0.8150
  875MPD2    H212893   0.541   2.156  14.510 -0.0781  1.5602 -0.6879
  875MPD2    H312894   0.692   2.237  14.665  0.5577 -1.4514 -0.1521
  875MPD2     N12895   0.402   2.242  15.015 -0.3475  1.0080 -0.7600
  875MPD2    H512896   0.479   2.271  15.075  0.3302 -1.3562 -0.4653
  875MPD2    N112897   0.273   2.113  14.565  0.0246  0.0754 -0.1828
  875MPD2    H712898   0.176   2.127  14.591  0.6625  2.4489  0.9700
  876MPD2     C12899   4.152   3.697  16.087 -0.6091 -0.1455 -0.7213
  876MPD2    C112900   4.240   3.605  16.030  0.0491 -0.6176  0.1965
  876MPD2    C212901   4.283   3.494  16.094  0.0559  0.0313 -0.1694
  876MPD2    C312902   4.232   3.462  16.222  0.4316 -0.9235 -0.8567
  876MPD2    C412903   4.151   3.564  16.283 -0.0211 -0.4126 -1.3719
  876MPD2    C512904   4.103   3.676  16.218 -0.7883 -0.3579  0.0105
  876MPD2     H12905   4.354   3.434  16.038 -0.1976  0.0088 -0.4708
  876MPD2    H112906   4.113   3.556  16.385  0.1085  1.1421 -1.1973
  876MPD2    H212907   4.118   3.785  16.034 -0.7537 -0.3921 -1.0408
  876MPD2    H312908   4.023   3.737  16.258 -0.8743 -0.7458  0.4218
  876MPD2     N12909   4.284   3.351  16.293  0.0544 -0.6141  0.3030
  876MPD2    H512910   4.348   3.292  16.240 -0.5662  0.7120 -1.9329
  876MPD2    N112911   4.281   3.639  15.895 -0.1623 -0.3829  0.4591
  876MPD2    H712912   4.231   3.711  15.844  1.4709 -0.0759 -0.7261
  877MPD2     C12913   4.090   3.794  15.179 -0.8522 -0.3284  0.0723
  877MPD2    C112914   4.228   3.791  15.181  0.3299  0.5372  0.1213
  877MPD2    C212915   4.284   3.810  15.059  0.0645  0.3889  0.3132
  877MPD2    C312916   4.211   3.827  14.939 -0.8011  0.4389 -0.6655
  877MPD2    C412917   4.079   3.829  14.947 -0.8868 -0.0790 -0.5016
  877MPD2    C512918   4.012   3.818  15.069  0.4973  0.0705 -0.0560
  877MPD2     H12919   4.392   3.811  15.059  0.0496  1.6870  1.1375
  877MPD2    H112920   4.008   3.842  14.867 -0.2489  0.3687 -1.0004
  877MPD2    H212921   4.034   3.785  15.271  0.1516  2.6658  0.9929
  877MPD2    H312922   3.905   3.837  15.069  0.8086  1.8146 -0.4196
  877MPD2     N12923   4.269   3.851  14.815 -0.0999  0.2871 -0.5235
  877MPD2    H512924   4.207   3.840  14.736 -0.2531 -1.0297 -0.2251
  877MPD2    N112925   4.307   3.803  15.296 -0.1697  0.3922  0.3424
  877MPD2    H712926   4.405   3.791  15.271  0.3494  2.5049  1.3687
  878MPD2     C12927   3.027   2.452  13.854 -0.7299  0.1414 -0.6087
  878MPD2    C112928   3.128   2.538  13.806  0.9355  0.5954  0.2862
  878MPD2    C212929   3.209   2.607  13.894 -0.0520 -0.0006 -0.7377
  878MPD2    C312930   3.186   2.584  14.033 -0.0009 -0.2445 -0.0151
  878MPD2    C412931   3.082   2.503  14.078  0.0397 -0.9067 -0.3217
  878MPD2    C512932   2.999   2.445  13.984  0.5901  0.4832 -0.1297
  878MPD2     H12933   3.282   2.680  13.860  0.2288  1.3868  2.8342
  878MPD2    H112934   3.052   2.502  14.182  0.8471 -0.3810 -0.0818
  878MPD2    H212935   2.958   2.394  13.792  0.1392 -0.1005 -1.3450
  878MPD2    H312936   2.914   2.387  14.017  0.3868  0.4891 -0.6445
  878MPD2     N12937   3.251   2.682  14.119  0.9042  0.2940  0.3153
  878MPD2    H512938   3.307   2.757  14.082  1.2183 -0.1032 -0.0120
  878MPD2    N112939   3.140   2.559  13.667 -0.0800 -0.7808 -0.3485
  878MPD2    H712940   3.066   2.521  13.608 -1.7323  0.6025  0.8135
  879MPD2     C12941   4.189   0.167  17.314  0.5810  0.0053  0.2351
  879MPD2    C112942   4.214   0.055  17.397 -0.6721 -0.3471  0.4065
  879MPD2    C212943   4.186   4.665  17.339 -0.7051  0.8273  0.2120
  879MPD2    C312944   4.131   4.643  17.218  0.3128  0.0291 -0.3427
  879MPD2    C412945   4.086   0.023  17.154  0.1268 -0.2479 -0.4475
  879MPD2    C512946   4.118   0.145  17.203  0.5734 -0.3168  0.3308
  879MPD2     H12947   4.218   4.579  17.396 -0.6675 -0.4311 -1.7342
  879MPD2    H112948   4.045   0.012  17.054 -0.4875 -0.2893 -0.1905
  879MPD2    H212949   4.195   0.266  17.356 -1.2048  0.5045 -0.6962
  879MPD2    H312950   4.080   0.236  17.158 -1.3639 -1.2423  0.1188
  879MPD2     N12951   4.135   4.524  17.142  0.8473 -0.2365 -0.4972
  879MPD2    H512952   4.104   4.529  17.046  0.3104 -2.4690 -0.4293
  879MPD2    N112953   4.272   0.079  17.525 -0.3507  0.2013 -0.2249
  879MPD2    H712954   4.266   0.177  17.554  0.1410 -0.3668  1.8450
  880MPD2     C12955   1.000   0.923   0.849 -0.0142  0.1847 -0.3801
  880MPD2    C112956   1.046   0.991   0.738  1.0028 -0.1946  0.0858
  880MPD2    C212957   1.164   0.942   0.682 -0.2642  0.3943 -0.6557
  880MPD2    C312958   1.221   0.827   0.728 -0.3046 -0.3520  0.6180
  880MPD2    C412959   1.172   0.754   0.833  0.2633  0.0084  0.0805
  880MPD2    C512960   1.054   0.801   0.888  0.5292 -0.4433 -0.2458
  880MPD2     H12961   1.207   0.989   0.595  1.7888  0.9598  0.6717
  880MPD2    H112962   1.220   0.661   0.860  2.2821  1.2034  0.6079
  880MPD2    H212963   0.908   0.960   0.892  0.5982  0.8686  0.3154
  880MPD2    H312964   0.997   0.746   0.962  0.6570 -0.3840 -0.1041
  880MPD2     N12965   1.344   0.786   0.652 -0.2231  0.7328 -0.0237
  880MPD2    H512966   1.387   0.865   0.605 -0.4291  0.2451 -1.0396
  880MPD2    N112967   0.968   1.095   0.688  0.2265  0.0859  0.5486
  880MPD2    H712968   0.883   1.116   0.739 -1.0090  0.8141 -1.7759
  881MPD2     C12969   0.822   1.445  17.548  0.3048  0.2514 -0.6280
  881MPD2    C112970   0.892   1.550  17.605  0.2494 -0.5213 -0.0688
  881MPD2    C212971   0.907   1.551   0.006  0.0699  0.1584  0.0131
  881MPD2    C312972   0.843   1.448   0.082  0.4863 -0.0533  0.2024
  881MPD2    C412973   0.776   1.350   0.013  0.5727 -0.2783 -0.4184
  881MPD2    C512974   0.773   1.343  17.618  0.2132  0.4860 -0.8521
  881MPD2     H12975   0.983   1.612   0.051  2.1747 -2.1695 -0.3835
  881MPD2    H112976   0.726   1.267   0.062 -0.2568 -0.6286 -1.8583
  881MPD2    H212977   0.837   1.426  17.443  0.2306  1.2469 -0.8245
  881MPD2    H312978   0.730   1.259  17.565  0.4874 -0.5586  0.6023
  881MPD2     N12979   0.838   1.438   0.225 -0.3570 -0.1620  0.1614
  881MPD2    H512980   0.799   1.353   0.264  0.3977 -1.0317 -1.0133
  881MPD2    N112981   0.973   1.632  17.522  0.7106  0.1664 -0.2235
  881MPD2    H712982   0.980   1.602  17.426  0.8487  1.0982 -0.4971
  882MPD2     C12983   4.171   3.634  14.115 -0.3982  0.8053 -0.2202
  882MPD2    C112984   4.133   3.732  14.201 -0.2120  0.2616  0.2986
  882MPD2    C212985   3.995   3.743  14.227  0.5015  0.3506  0.5957
  882MPD2    C312986   3.907   3.655  14.159  0.2350 -0.5381 -0.2798
  882MPD2    C412987   3.951   3.559  14.071  0.0520 -0.5916 -0.5708
  882MPD2    C512988   4.088   3.545  14.051 -0.1503  0.0175  0.1133
  882MPD2     H12989   3.963   3.817  14.299 -0.3693 -0.7476  1.3307
  882MPD2    H112990   3.882   3.489  14.024  2.2670 -2.6574 -0.7597
  882MPD2    H212991   4.277   3.616  14.102 -0.2046  0.6841  1.4972
  882MPD2    H312992   4.126   3.460  13.996  0.9735  1.1023 -0.7770
  882MPD2     N12993   3.767   3.668  14.164  0.2322  0.2242 -0.0690
  882MPD2    H512994   3.705   3.606  14.113  1.2920  0.6755 -1.9450
  882MPD2    N112995   4.233   3.801  14.270 -1.1245  0.7274  0.1204
  882MPD2    H712996   4.330   3.779  14.246 -1.4278  1.1426 -1.5142
  883MPD2     C12997   1.365   3.422  16.338 -0.7593 -0.6137 -0.3883
  883MPD2    C112998   1.434   3.526  16.280  0.0498  0.0957  0.3038
  883MPD2    C212999   1.545   3.582  16.342 -0.1209 -0.0357  0.1378
  883MPD2    C313000   1.603   3.528  16.453 -0.4364  0.5481  0.1896
  883MPD2    C413001   1.535   3.426  16.512 -0.0379  0.2063  0.4775
  883MPD2    C513002   1.421   3.373  16.454 -0.4702 -0.8164 -0.1500
  883MPD2     H13003   1.603   3.658  16.291  0.1586 -0.2049  0.2039
  883MPD2    H113004   1.568   3.377  16.602 -0.3369  0.2996  0.6387
  883MPD2    H213005   1.269   3.393  16.295 -0.2977 -3.9258  0.8254
  883MPD2    H313006   1.366   3.291  16.499 -0.4252 -0.3568  0.7472
  883MPD2     N13007   1.730   3.571  16.495 -0.1718 -0.6259 -0.9723
  883MPD2    H513008   1.767   3.658  16.459 -0.6442  0.2887  0.7556
  883MPD2    N113009   1.401   3.583  16.153 -0.0371  0.1994 -0.2579
  883MPD2    H713010   1.469   3.653  16.123  0.7560 -0.3029  0.3629
  884MPD2     C13011   3.454   4.230  15.493  0.4394 -0.2504 -0.1601
  884MPD2    C113012   3.413   4.276  15.368 -0.0138 -0.3932 -0.4849
  884MPD2    C213013   3.284   4.331  15.365 -0.1534 -0.0494  0.5454
  884MPD2    C313014   3.203   4.342  15.476  0.6207 -0.3601  0.1989
  884MPD2    C413015   3.261   4.304  15.598 -0.6047 -0.0605 -0.4267
  884MPD2    C513016   3.382   4.248  15.605  0.3718 -0.3115 -0.3288
  884MPD2     H13017   3.238   4.359  15.271  0.2456 -1.8124 -0.1795
  884MPD2    H113018   3.205   4.309  15.691  1.6363  1.1740  0.8585
  884MPD2    H213019   3.555   4.194  15.506  0.4403  1.3527  4.2132
  884MPD2    H313020   3.425   4.216  15.699  3.9606 -1.7823 -2.4565
  884MPD2     N13021   3.075   4.398  15.458 -0.8161  0.8775  0.9069
  884MPD2    H513022   3.048   4.429  15.365 -0.2407  0.7421  0.6940
  884MPD2    N113023   3.482   4.264  15.248 -0.1639  0.3674 -0.3994
  884MPD2    H713024   3.447   4.314  15.167  2.0567 -0.3065 -1.7672
  885MPD2     C13025   1.716   4.138   0.163 -0.0731 -0.4042 -0.4692
  885MPD2    C113026   1.841   4.188   0.148 -0.1316  0.0179  0.5643
  885MPD2    C213027   1.861   4.305   0.074 -0.3359 -0.2823  0.1579
  885MPD2    C313028   1.753   4.368   0.017  0.0136  0.4655  0.6327
  885MPD2    C413029   1.629   4.308   0.024 -0.4965  0.3004  1.3439
  885MPD2    C513030   1.611   4.203   0.111 -0.2903  0.2765  0.6277
  885MPD2     H13031   1.960   4.350   0.075 -0.6276  0.3823 -1.3273
  885MPD2    H113032   1.541   4.340  17.708  1.0067  3.4653  0.7534
  885MPD2    H213033   1.703   4.046   0.217  0.2458  0.2091  0.6481
  885MPD2    H313034   1.517   4.152   0.129 -0.9360  1.0186 -0.5947
  885MPD2     N13035   1.773   4.495  17.686 -0.7740  0.3447 -0.5791
  885MPD2    H513036   1.872   4.517  17.673 -1.0628  1.1746 -1.3709
  885MPD2    N113037   1.944   4.105   0.214  0.0027 -0.1501 -0.2273
  885MPD2    H713038   1.912   4.025   0.268 -0.0860  0.6157  0.8566
  886MPD2     C13039   2.780   2.968  15.360 -0.2496  0.1266  0.6868
  886MPD2    C113040   2.920   3.002  15.370 -0.7051 -0.1280 -0.1368
  886MPD2    C213041   2.967   3.116  15.301 -0.4589 -0.0743 -0.0486
  886MPD2    C313042   2.881   3.200  15.236 -0.0458 -0.0756 -0.6754
  886MPD2    C413043   2.745   3.171  15.242 -0.4227  0.4914  0.1689
  886MPD2    C513044   2.697   3.063  15.307 -0.3810  0.1961 -0.2684
  886MPD2     H13045   3.073   3.138  15.314 -1.1401  2.1234  1.6957
  886MPD2    H113046   2.681   3.245  15.196 -2.1163 -0.0151  1.6985
  886MPD2    H213047   2.723   2.900  15.422 -0.2306  0.8398  1.5061
  886MPD2    H313048   2.589   3.054  15.312 -0.3633  0.3419  0.3879
  886MPD2     N13049   2.921   3.323  15.169  0.0734 -0.0451 -0.0517
  886MPD2    H513050   2.852   3.360  15.103  0.8009  2.0789  0.3755
  886MPD2    N113051   2.999   2.921  15.445  0.2871  0.1658 -0.6480
  886MPD2    H713052   2.962   2.844  15.500 -0.5342  2.3075  1.7842
  887MPD2     C13053   3.779   2.972  15.715 -0.3956  0.0692 -0.2630
  887MPD2    C113054   3.669   3.027  15.654  0.2418  0.5718 -0.0936
  887MPD2    C213055   3.669   3.160  15.628 -0.2597 -0.0035  0.0555
  887MPD2    C313056   3.780   3.238  15.658 -0.1965 -0.5657  0.3316
  887MPD2    C413057   3.897   3.180  15.711  0.2010 -0.5785 -0.3989
  887MPD2    C513058   3.893   3.046  15.738 -0.4559 -0.2091  0.6737
  887MPD2     H13059   3.579   3.206  15.588 -0.4155 -1.1187 -0.8679
  887MPD2    H113060   3.988   3.226  15.748 -0.6914  0.8740 -0.0515
  887MPD2    H213061   3.778   2.869  15.749  1.2319  0.0817 -0.1573
  887MPD2    H313062   3.981   3.003  15.783  1.4640  2.6018 -0.3118
  887MPD2     N13063   3.767   3.376  15.649  0.5948  0.0511 -0.8442
  887MPD2    H513064   3.683   3.406  15.601 -0.8495 -0.6591  1.2408
  887MPD2    N113065   3.544   2.965  15.647  0.0211 -0.0417 -0.0909
  887MPD2    H713066   3.462   3.014  15.612  0.6055  0.9918 -0.0099
  888MPD2     C13067   0.330   3.097  15.141 -0.1237  0.1067 -0.7834
  888MPD2    C113068   0.367   3.118  15.277  0.2121  0.4744  0.0955
  888MPD2    C213069   0.459   3.221  15.304  0.5156 -0.7283 -0.2095
  888MPD2    C313070   0.524   3.288  15.210  0.2448 -0.2187 -0.1729
  888MPD2    C413071   0.509   3.252  15.083  0.3860 -0.6886  0.2806
  888MPD2    C513072   0.409   3.165  15.044  0.3758  0.6380  0.5669
  888MPD2     H13073   0.475   3.237  15.410 -0.0266 -0.5607 -0.1546
  888MPD2    H113074   0.561   3.302  15.002 -0.5600 -0.2415 -0.0455
  888MPD2    H213075   0.265   3.022  15.099  0.0544 -0.3245 -0.2913
  888MPD2    H313076   0.399   3.142  14.938 -1.2148  0.4849  0.7581
  888MPD2     N13077   0.610   3.394  15.255 -0.2103 -0.0389 -0.0434
  888MPD2    H513078   0.617   3.398  15.356  1.0035  2.2635 -0.2172
  888MPD2    N113079   0.297   3.058  15.385 -0.3904  0.1972  0.2789
  888MPD2    H713080   0.321   3.085  15.480 -1.1391  2.2156 -0.1038
  889MPD2     C13081   4.001   2.092  13.199 -0.5335 -0.1867 -0.2538
  889MPD2    C113082   4.084   2.071  13.306  0.6032 -0.3465 -0.5845
  889MPD2    C213083   4.111   2.176  13.387  0.5831 -0.0633 -0.8507
  889MPD2    C313084   4.037   2.292  13.373 -0.5934  0.4001  0.8361
  889MPD2    C413085   3.948   2.309  13.265  0.0401 -0.9268 -0.0760
  889MPD2    C513086   3.944   2.211  13.170  0.3528  0.3679  0.7348
  889MPD2     H13087   4.175   2.165  13.474  0.3949  0.9251 -0.5918
  889MPD2    H113088   3.876   2.390  13.254 -1.0983 -1.5487  2.5851
  889MPD2    H213089   3.990   2.015  13.123 -2.5497 -0.5017  0.3607
  889MPD2    H313090   3.879   2.211  13.083  0.7252  0.5876  0.4545
  889MPD2     N13091   4.055   2.394  13.469 -0.4052 -0.0080 -0.0150
  889MPD2    H513092   4.133   2.386  13.533  1.0352 -3.9077 -2.2763
  889MPD2    N113093   4.155   1.949  13.321 -0.0191 -0.3440 -0.9638
  889MPD2    H713094   4.211   1.930  13.404 -2.0398 -1.4459  0.1620
  890MPD2     C13095   4.361   4.250  14.912  0.7141 -0.4694  0.6668
  890MPD2    C113096   4.441   4.362  14.927  0.1420  0.1242  0.1285
  890MPD2    C213097   4.536   4.364  15.028  0.2745  0.0052 -0.5522
  890MPD2    C313098   4.552   4.257  15.114 -0.1330 -0.2908  0.7804
  890MPD2    C413099   4.469   4.142  15.090  0.0518  0.0142  0.2792
  890MPD2    C513100   4.382   4.140  14.981 -0.2181  0.0827 -0.3533
  890MPD2     H13101   4.604   4.447  15.042  0.3260  0.2489 -2.1892
  890MPD2    H113102   4.466   4.050  15.147  1.5121 -0.4722 -0.4447
  890MPD2    H213103   4.277   4.241  14.844 -0.2447  0.3668  1.7579
  890MPD2    H313104   4.313   4.059  14.964 -0.1012  0.0034 -0.4484
  890MPD2     N13105   4.643   4.259  15.222 -0.6972 -0.1772  0.0056
  890MPD2    H513106   4.705   4.338  15.239  1.0321 -1.5233 -0.0236
  890MPD2    N113107   4.414   4.470  14.837  0.2405  0.0071  0.0410
  890MPD2    H713108   4.328   4.457  14.785  0.4223  0.8804 -0.4808
  891MPD2     C13109   2.197   2.537  16.784  0.5290  0.1835  0.4430
  891MPD2    C113110   2.126   2.639  16.839 -0.4805  0.0063 -1.0258
  891MPD2    C213111   2.194   2.700  16.947  0.3507  0.3633  0.2223
  891MPD2    C313112   2.324   2.665  16.983  0.7470  0.5139 -0.2910
  891MPD2    C413113   2.388   2.566  16.908  0.4737  0.1878  0.3743
  891MPD2    C513114   2.325   2.504  16.815  0.2038  0.3663 -0.4007
  891MPD2     H13115   2.150   2.785  16.998 -1.3409 -2.0086  2.7813
  891MPD2    H113116   2.490   2.537  16.930 -0.0992 -1.3352  0.9756
  891MPD2    H213117   2.146   2.473  16.713  0.2222  1.4382 -0.4731
  891MPD2    H313118   2.377   2.424  16.764  0.5074  0.6661 -0.5570
  891MPD2     N13119   2.389   2.735  17.086  0.0500  0.4885 -0.0752
  891MPD2    H513120   2.335   2.797  17.145 -0.5971 -0.6563  0.5354
  891MPD2    N113121   2.008   2.665  16.776 -0.1094  0.0587 -0.2568
  891MPD2    H713122   1.985   2.611  16.693 -2.4909 -0.3906  0.6980
  892MPD2     C13123   3.382   3.972  15.007 -0.4482 -0.1060  0.6205
  892MPD2    C113124   3.265   3.965  14.929 -0.0367 -0.2056  0.5257
  892MPD2    C213125   3.277   3.939  14.794  0.7721 -0.1896  0.5453
  892MPD2    C313126   3.402   3.922  14.725 -0.3035  0.2557 -0.5605
  892MPD2    C413127   3.516   3.934  14.801 -0.3342  0.2926  0.5576
  892MPD2    C513128   3.503   3.952  14.939  0.4032 -0.2229  0.4456
  892MPD2     H13129   3.189   3.931  14.731  1.8183 -2.5769 -0.6242
  892MPD2    H113130   3.614   3.908  14.763  0.0542  1.1320  0.9960
  892MPD2    H213131   3.379   4.005  15.110  0.9201 -1.3895  1.0706
  892MPD2    H313132   3.593   3.953  15.000 -0.3303  0.9228  1.5083
  892MPD2     N13133   3.414   3.895  14.586 -0.4537  0.1084 -0.6110
  892MPD2    H513134   3.506   3.910  14.546 -0.0585  1.2364  0.7211
  892MPD2    N113135   3.134   3.995  14.981  0.3609 -0.0785 -0.3157
  892MPD2    H713136   3.050   3.999  14.924 -2.0952 -1.1482  3.2319
  893MPD2     C13137   4.405   2.682   1.247 -0.5716 -0.4645  0.1772
  893MPD2    C113138   4.473   2.579   1.312 -0.1210 -0.0913  0.2547
  893MPD2    C213139   4.408   2.457   1.328  0.1457 -0.3065  0.1340
  893MPD2    C313140   4.284   2.432   1.273  0.4270  0.2399 -0.2496
  893MPD2    C413141   4.234   2.524   1.179 -0.2213  0.8699  0.2574
  893MPD2    C513142   4.297   2.644   1.169  0.6333 -0.3387  0.8162
  893MPD2     H13143   4.451   2.377   1.388  0.7683 -0.5650 -0.6517
  893MPD2    H113144   4.139   2.516   1.127 -1.1297  1.0635  1.9122
  893MPD2    H213145   4.442   2.783   1.250 -1.8564 -0.0110  0.5857
  893MPD2    H313146   4.258   2.727   1.111 -2.1454 -1.8609  0.5105
  893MPD2     N13147   4.206   2.310   1.288  0.0006 -0.1682 -0.5383
  893MPD2    H513148   4.122   2.303   1.231 -0.5846 -1.4290  0.4544
  893MPD2    N113149   4.605   2.612   1.363  0.2729  0.3538  0.0356
  893MPD2    H713150   4.637   2.707   1.349 -0.9579  1.0129  1.8104
  894MPD2     C13151   2.906   4.459   1.497 -0.3902 -0.7506  0.2556
  894MPD2    C113152   2.861   4.593   1.527 -0.0784  0.7080  0.7667
  894MPD2    C213153   2.926   4.699   1.470 -0.6255 -0.7264  0.2623
  894MPD2    C313154   3.039   4.685   1.399  0.5774 -0.1376  0.0801
  894MPD2    C413155   3.089   4.560   1.365 -0.2309  0.0132  0.1839
  894MPD2    C513156   3.017   4.449   1.415  0.0877  0.2410  0.2416
  894MPD2     H13157   2.894   0.061   1.504 -1.1954 -0.3803 -1.2678
  894MPD2    H113158   3.184   4.536   1.320 -0.3742 -2.0587  0.9648
  894MPD2    H213159   2.857   4.366   1.522  0.6700 -0.4214  3.5132
  894MPD2    H313160   3.049   4.348   1.395 -0.4466 -0.2067  1.6275
  894MPD2     N13161   3.112   0.072   1.378 -0.1262 -0.1596  0.1277
  894MPD2    H513162   3.076   0.159   1.414  0.2493 -1.0650  2.7030
  894MPD2    N113163   2.755   4.620   1.614 -0.2581  0.4239  0.1614
  894MPD2    H713164   2.744   4.717   1.639  1.1903  0.4629  0.6217
  895MPD2     C13165   1.949   2.982  13.671  0.1862 -0.1985  0.5018
  895MPD2    C113166   1.838   3.038  13.615  0.0131  0.5897 -0.0274
  895MPD2    C213167   1.799   3.006  13.492  0.7395  0.1310  0.8984
  895MPD2    C313168   1.857   2.903  13.425  0.3823  0.3057  0.2600
  895MPD2    C413169   1.966   2.844  13.482  0.3524 -0.2306 -0.4021
  895MPD2    C513170   2.014   2.888  13.598 -0.4363  0.3231  0.1323
  895MPD2     H13171   1.708   3.056  13.460  1.1335  0.4843  0.3239
  895MPD2    H113172   2.016   2.766  13.425  0.4954 -0.2426 -0.2576
  895MPD2    H213173   1.988   3.011  13.768  1.4550 -3.4133  0.9465
  895MPD2    H313174   2.098   2.834  13.640 -0.4053  0.9900  0.9360
  895MPD2     N13175   1.806   2.843  13.313  0.4239 -1.0874 -0.2920
  895MPD2    H513176   1.839   2.749  13.293  0.3815 -0.9368 -1.0605
  895MPD2    N113177   1.769   3.140  13.676 -0.4686  0.3019  0.1059
  895MPD2    H713178   1.688   3.176  13.628  0.6116  0.6141 -1.4596
  896MPD2     C13179   0.797   0.536   1.751  0.0415  0.0266 -0.2331
  896MPD2    C113180   0.726   0.531   1.638  0.2049  0.2662  0.1874
  896MPD2    C213181   0.587   0.563   1.647 -0.1094  0.3670  0.5739
  896MPD2    C313182   0.538   0.614   1.769  0.1846 -0.0241  0.0570
  896MPD2    C413183   0.614   0.612   1.883 -0.2704  0.1678  0.0939
  896MPD2    C513184   0.744   0.581   1.867  0.5654  0.2876  0.7159
  896MPD2     H13185   0.526   0.571   1.558  1.0202 -0.5872 -0.2822
  896MPD2    H113186   0.578   0.643   1.981 -0.1118 -1.1397  0.5723
  896MPD2    H213187   0.901   0.509   1.748 -0.0262 -0.2767  0.1667
  896MPD2    H313188   0.811   0.592   1.952  3.6315 -0.4353 -1.6095
  896MPD2     N13189   0.403   0.650   1.771 -0.3694  0.0993 -0.0653
  896MPD2    H513190   0.346   0.642   1.688  0.1336  0.0780 -0.4093
  896MPD2    N113191   0.793   0.510   1.513 -0.0614 -0.4881  0.2726
  896MPD2    H713192   0.894   0.499   1.518 -0.1378 -0.5145  1.6742
  897MPD2     C13193   1.098   2.256  10.822 -0.4127 -0.0485 -0.8005
  897MPD2    C113194   1.061   2.388  10.822 -0.1465 -0.1161  0.6777
  897MPD2    C213195   0.989   2.443  10.924 -0.8361  1.0173  0.0140
  897MPD2    C313196   0.930   2.358  11.017 -0.1994 -0.2247  1.1549
  897MPD2    C413197   0.965   2.222  11.012 -0.3342 -0.2456 -0.6594
  897MPD2    C513198   1.053   2.175  10.915 -0.4814 -0.2087  0.0250
  897MPD2     H13199   0.946   2.542  10.919  1.2191  1.9144  0.3279
  897MPD2    H113200   0.927   2.153  11.087 -0.7156  1.0110  0.3077
  897MPD2    H213201   1.183   2.224  10.764  1.3473  2.6295  0.2799
  897MPD2    H313202   1.098   2.077  10.922 -0.0600 -0.0282 -0.1266
  897MPD2     N13203   0.848   2.420  11.114 -0.4156  0.5416 -0.2345
  897MPD2    H513204   0.834   2.521  11.116  1.8342  0.8288  1.0192
  897MPD2    N113205   1.095   2.457  10.705 -0.0296  0.2882 -0.8437
  897MPD2    H713206   1.130   2.394  10.634 -0.4216 -1.0352  0.1372
  898MPD2     C13207   3.537   4.196   0.882 -0.1159 -0.6292  0.3517
  898MPD2    C113208   3.463   4.106   0.805  0.0669  0.0323  0.2006
  898MPD2    C213209   3.408   4.158   0.688  0.9037 -0.7225  0.2458
  898MPD2    C313210   3.414   4.290   0.659 -0.4054 -0.4011  0.6740
  898MPD2    C413211   3.491   4.378   0.740 -0.4165  0.3256 -0.1063
  898MPD2    C513212   3.552   4.324   0.847 -0.3798  0.4875 -0.0292
  898MPD2     H13213   3.358   4.087   0.623 -0.7106  0.5885  0.0459
  898MPD2    H113214   3.519   4.482   0.736 -0.9860  0.5552  1.7809
  898MPD2    H213215   3.591   4.166   0.971 -0.1281  1.4760  1.0596
  898MPD2    H313216   3.607   4.391   0.912 -1.9038  0.5109  1.2225
  898MPD2     N13217   3.366   4.333   0.531  0.0082  0.2281  0.0608
  898MPD2    H513218   3.329   4.266   0.465  1.1404  0.7869 -1.1430
  898MPD2    N113219   3.454   3.969   0.829  0.1151  0.5595  0.3557
  898MPD2    H713220   3.425   3.907   0.753  0.4426  0.1422  0.5697
  899MPD2     C13221   3.900   3.950  17.281 -0.6291  0.1294 -0.0069
  899MPD2    C113222   3.920   4.029  17.399  0.0118  0.4655  0.0337
  899MPD2    C213223   3.951   3.958  17.522  0.0785  0.2821  0.5185
  899MPD2    C313224   3.946   3.817  17.518  0.0153  0.0258 -0.4012
  899MPD2    C413225   3.923   3.754  17.403  0.5474 -0.2829  1.2673
  899MPD2    C513226   3.905   3.816  17.285  0.4816 -0.0430  0.1000
  899MPD2     H13227   3.975   4.003  17.618  1.2700  1.5246 -0.3640
  899MPD2    H113228   3.930   3.646  17.392  1.5875  0.0183 -0.8447
  899MPD2    H213229   3.879   3.999  17.186 -0.9560 -0.1689 -0.0889
  899MPD2    H313230   3.888   3.753  17.198 -3.2331 -0.0045  0.7988
  899MPD2     N13231   3.940   3.739  17.639  0.4025  0.3446  0.8580
  899MPD2    H513232   3.917   3.641  17.626  0.3444  0.1616  2.3395
  899MPD2    N113233   3.913   4.167  17.386 -0.1807  0.4014 -0.3803
  899MPD2    H713234   3.892   4.200  17.292 -1.2635 -0.0623 -0.3121
  900MPD2     C13235   3.605   0.377  12.657 -0.9646  0.0595 -0.5382
  900MPD2    C113236   3.490   0.379  12.727  0.5239 -0.2810 -0.4620
  900MPD2    C213237   3.382   0.444  12.673 -0.4878 -0.8162 -0.2498
  900MPD2    C313238   3.384   0.510  12.550 -1.0780  0.1252 -0.4016
  900MPD2    C413239   3.500   0.498  12.479 -0.9775  0.5480 -0.5010
  900MPD2    C513240   3.606   0.427  12.531 -0.3010 -1.3291 -0.1036
  900MPD2     H13241   3.286   0.447  12.725  0.2575  0.6223  1.0554
  900MPD2    H113242   3.515   0.555  12.388  1.7423 -2.0499 -1.6916
  900MPD2    H213243   3.698   0.333  12.690 -0.2463  1.7622 -0.3078
  900MPD2    H313244   3.689   0.417  12.462  1.6044 -0.1113  1.9715
  900MPD2     N13245   3.274   0.587  12.502 -0.0113 -0.6244  0.3025
  900MPD2    H513246   3.190   0.587  12.560 -0.8893 -0.7334 -0.9587
  900MPD2    N113247   3.482   0.298  12.847 -0.6699  0.1667  0.6818
  900MPD2    H713248   3.562   0.238  12.863 -2.4340 -2.2386  0.4534
  901MPD2     C13249   2.802   4.243  13.093 -0.3015  1.1044  0.2970
  901MPD2    C113250   2.929   4.196  13.116 -0.0714  0.1689  0.2751
  901MPD2    C213251   3.033   4.284  13.099  0.6250 -0.5355  0.2718
  901MPD2    C313252   3.012   4.415  13.066  0.1802  0.5458  0.0831
  901MPD2    C413253   2.885   4.463  13.038 -0.2129 -0.1335  0.9404
  901MPD2    C513254   2.783   4.376  13.044 -0.5981 -0.6787  0.5170
  901MPD2     H13255   3.136   4.254  13.114  0.5438 -0.9736 -0.0659
  901MPD2    H113256   2.868   4.565  13.005 -2.3293 -0.3181  1.4773
  901MPD2    H213257   2.715   4.184  13.118 -0.0765 -0.5410 -2.7616
  901MPD2    H313258   2.681   4.399  13.016 -0.4767  0.3820  0.9471
  901MPD2     N13259   3.124   4.494  13.054  0.0006  0.5282  0.4203
  901MPD2    H513260   3.214   4.447  13.063 -1.0851 -2.4285 -4.1895
  901MPD2    N113261   2.948   4.063  13.155 -0.0401 -0.3112 -0.0615
  901MPD2    H713262   2.876   3.993  13.141  1.4017 -1.6190 -1.0360
  902MPD2     C13263   1.927   3.597  13.206 -0.3280  0.2666  0.0870
  902MPD2    C113264   2.064   3.604  13.232  0.0597  0.3648  0.3102
  902MPD2    C213265   2.149   3.536  13.148 -0.1078  0.1585  0.1071
  902MPD2    C313266   2.096   3.478  13.034  0.0179  0.0586  0.2668
  902MPD2    C413267   1.957   3.480  13.004  0.6921 -0.2775  0.0704
  902MPD2    C513268   1.881   3.545  13.092 -0.4242 -0.8458  0.2905
  902MPD2     H13269   2.254   3.527  13.174  0.1216 -0.2950 -0.9866
  902MPD2    H113270   1.904   3.439  12.919  0.6472 -1.2371  0.5662
  902MPD2    H213271   1.848   3.625  13.275 -0.3797  1.4425 -0.4538
  902MPD2    H313272   1.777   3.565  13.071  0.1894 -1.1921 -3.0896
  902MPD2     N13273   2.180   3.402  12.945 -0.9619  0.1419  0.1957
  902MPD2    H513274   2.133   3.362  12.865 -0.5138 -1.1378  0.5633
  902MPD2    N113275   2.097   3.654  13.362 -0.0207  1.0302  0.1467
  902MPD2    H713276   2.011   3.684  13.407 -0.1544 -2.6483  2.3586
  903MPD2     C13277   2.216   3.114  12.187  0.7613  0.2386  0.6647
  903MPD2    C113278   2.175   3.209  12.277 -0.5742 -0.1837 -0.9913
  903MPD2    C213279   2.053   3.262  12.260 -0.7015 -0.0439 -0.6734
  903MPD2    C313280   1.965   3.212  12.162  0.0339 -0.2933 -0.1873
  903MPD2    C413281   2.014   3.128  12.068 -0.2752 -0.2968 -0.3718
  903MPD2    C513282   2.140   3.091  12.081  0.1467 -0.3065 -0.0570
  903MPD2     H13283   2.014   3.341  12.323 -2.3852 -1.8901  0.5741
  903MPD2    H113284   1.968   3.097  11.975 -0.1555 -0.1257 -0.4852
  903MPD2    H213285   2.320   3.084  12.190  0.8461  0.2655 -1.8487
  903MPD2    H313286   2.176   3.013  12.015  0.2766 -0.8386  0.6470
  903MPD2     N13287   1.827   3.268  12.152 -0.2423  0.0684 -0.3052
  903MPD2    H513288   1.800   3.345  12.212  0.7001  1.5091 -1.7266
  903MPD2    N113289   2.266   3.224  12.385 -0.2588  0.2916  0.1646
  903MPD2    H713290   2.350   3.167  12.385 -0.0388  0.5960  1.8794
  904MPD2     C13291   2.244   2.329  14.530 -0.8431  0.4650  0.3376
  904MPD2    C113292   2.310   2.418  14.448  0.3435 -0.3732  0.9836
  904MPD2    C213293   2.442   2.447  14.481 -0.5440  0.4070 -0.3436
  904MPD2    C313294   2.502   2.395  14.595  0.1491  0.1541 -0.5802
  904MPD2    C413295   2.422   2.325  14.683  0.1246 -0.3484  0.1708
  904MPD2    C513296   2.296   2.282  14.648 -0.4363 -0.5930 -0.1270
  904MPD2     H13297   2.498   2.512  14.414  1.1318 -1.7739 -1.0609
  904MPD2    H113298   2.464   2.277  14.771 -2.9615 -1.3143  1.1194
  904MPD2    H213299   2.139   2.309  14.515 -0.8104  0.5095  0.0496
  904MPD2    H313300   2.233   2.223  14.715 -0.7155 -0.9321 -0.6822
  904MPD2     N13301   2.635   2.442  14.618  0.2395 -0.0435 -0.3444
  904MPD2    H513302   2.677   2.491  14.540 -0.2758 -0.1546 -0.6955
  904MPD2    N113303   2.257   2.488  14.335 -0.2596 -0.4394 -0.6611
  904MPD2    H713304   2.312   2.558  14.288  0.1793  1.4574  2.6626
  905MPD2     C13305   1.517   2.597  13.904 -1.1360 -0.0052  0.3822
  905MPD2    C113306   1.642   2.613  13.852  0.2494 -0.6420 -0.6965
  905MPD2    C213307   1.651   2.617  13.709  0.0664  0.7456  0.1248
  905MPD2    C313308   1.534   2.622  13.636  0.2577 -0.0377 -0.7537
  905MPD2    C413309   1.415   2.598  13.687  0.4827  0.2240 -0.8960
  905MPD2    C513310   1.403   2.583  13.823  0.0847  0.0184  0.3987
  905MPD2     H13311   1.745   2.623  13.655  0.9222 -0.9911  1.4318
  905MPD2    H113312   1.320   2.589  13.635 -0.2869 -1.0716  0.7373
  905MPD2    H213313   1.504   2.591  14.011 -1.5168 -0.6061  0.2986
  905MPD2    H313314   1.308   2.565  13.872  0.6783 -0.4082  1.3930
  905MPD2     N13315   1.543   2.647  13.495  0.2220  0.2636  0.0887
  905MPD2    H513316   1.638   2.673  13.469  0.0231  0.5610 -0.3401
  905MPD2    N113317   1.752   2.622  13.944 -0.2923  0.1138  0.1870
  905MPD2    H713318   1.730   2.615  14.043  0.0002  1.8778  0.3806
  906MPD2     C13319   4.401   2.231  11.596  0.9613  0.0367  0.4049
  906MPD2    C113320   4.328   2.200  11.481  0.0527 -0.2579 -0.2451
  906MPD2    C213321   4.213   2.127  11.487  1.0265 -0.2943  0.0199
  906MPD2    C313322   4.182   2.060  11.599 -0.0086  0.9161  0.0194
  906MPD2    C413323   4.253   2.090  11.715  0.0602 -0.0873 -0.8806
  906MPD2    C513324   4.345   2.191  11.716 -0.2032 -0.6246  0.3894
  906MPD2     H13325   4.160   2.114  11.393  1.7711 -1.8041 -0.1798
  906MPD2    H113326   4.223   2.058  11.814  0.1398 -0.5395 -1.0053
  906MPD2    H213327   4.481   2.302  11.611  1.3842 -0.6738  1.5505
  906MPD2    H313328   4.385   2.226  11.811 -0.3111 -1.1672  0.6355
  906MPD2     N13329   4.067   1.979  11.608  0.6605  0.2422  0.4587
  906MPD2    H513330   4.062   1.926  11.694  1.7797 -1.3280 -0.4379
  906MPD2    N113331   4.370   2.266  11.361  0.8434 -0.1988  0.0759
  906MPD2    H713332   4.464   2.303  11.366  0.5654  0.7936 -2.0117
  907MPD2     C13333   4.185   1.508  15.270 -0.9676 -1.1628 -0.5406
  907MPD2    C113334   4.095   1.417  15.309  0.3262 -0.1139  0.1351
  907MPD2    C213335   4.074   1.402  15.442 -0.4835 -1.1603 -0.1406
  907MPD2    C313336   4.142   1.467  15.545 -0.3882 -0.1468  0.3181
  907MPD2    C413337   4.231   1.561  15.504  0.7669 -0.5792 -0.3931
  907MPD2    C513338   4.237   1.590  15.366 -0.5096  0.5175 -0.4679
  907MPD2     H13339   3.998   1.331  15.473  0.3312 -2.2122 -0.5990
  907MPD2    H113340   4.288   1.625  15.570  4.1498 -2.3867 -1.5596
  907MPD2    H213341   4.223   1.530  15.171 -0.4163 -1.7642 -0.4615
  907MPD2    H313342   4.301   1.672  15.336 -0.0161  0.0185 -0.7755
  907MPD2     N13343   4.110   1.437  15.678  0.2346  0.8919  0.0062
  907MPD2    H513344   4.039   1.366  15.695  1.4973  0.4533  3.2982
  907MPD2    N113345   4.022   1.340  15.211  0.5202 -0.1177  0.3637
  907MPD2    H713346   3.944   1.287  15.250  0.2718  1.2267  1.6969
  908MPD2     C13347   0.541   2.176  10.116  0.2968  0.1089 -0.0381
  908MPD2    C113348   0.672   2.138  10.124 -0.3113 -0.3192  0.0044
  908MPD2    C213349   0.762   2.226  10.173  0.1961 -0.6184  0.1171
  908MPD2    C313350   0.724   2.349  10.218  0.9158 -0.3849  0.0098
  908MPD2    C413351   0.594   2.390  10.202 -0.0375 -0.5324 -0.2890
  908MPD2    C513352   0.508   2.304  10.140  0.0648  0.7638  0.0497
  908MPD2     H13353   0.868   2.202  10.175  0.5199  0.9181  0.8276
  908MPD2    H113354   0.549   2.482  10.236  0.0093  0.3729 -2.7134
  908MPD2    H213355   0.456   2.117  10.084 -0.7909  1.8717 -0.4007
  908MPD2    H313356   0.409   2.343  10.122  1.0104  2.5084 -1.3803
  908MPD2     N13357   0.825   2.435  10.279 -0.5120 -0.0359  0.3184
  908MPD2    H513358   0.922   2.405  10.278 -0.4951  0.0387 -0.3238
  908MPD2    N113359   0.704   2.015  10.068  0.0902 -0.5898 -0.0033
  908MPD2    H713360   0.622   1.959  10.049 -0.8840  1.1787 -1.0115
  909MPD2     C13361   1.433   0.072  11.905  0.2041  0.2212 -0.4668
  909MPD2    C113362   1.456   0.205  11.862 -0.6715  0.1004  1.0962
  909MPD2    C213363   1.394   0.306  11.927 -0.9997  0.0797  0.6399
  909MPD2    C313364   1.321   0.286  12.045 -0.6501  0.0264  0.2108
  909MPD2    C413365   1.313   0.156  12.088  0.3756  0.4409  0.3189
  909MPD2    C513366   1.373   0.056  12.023  0.7241 -0.3856 -0.1022
  909MPD2     H13367   1.406   0.408  11.894  3.7837 -0.1845  1.6171
  909MPD2    H113368   1.254   0.128  12.175  1.2241  1.9395  1.3809
  909MPD2    H213369   1.477   4.722  11.855 -0.1693 -0.5528  0.5140
  909MPD2    H313370   1.352   4.690  12.058 -0.6305 -0.0655 -0.0002
  909MPD2     N13371   1.271   0.398  12.116  0.4411  0.2378  0.3235
  909MPD2    H513372   1.275   0.489  12.072  0.8177  0.1827  0.2451
  909MPD2    N113373   1.526   0.240  11.747 -0.7715 -0.2032  0.2342
  909MPD2    H713374   1.552   0.337  11.737 -0.5456 -0.4707 -1.9047
  910MPD2     C13375   2.490   2.324  16.458 -0.3244 -0.1947 -0.4489
  910MPD2    C113376   2.571   2.256  16.359 -0.8123  0.7238 -0.5215
  910MPD2    C213377   2.602   2.332  16.253  0.3404  0.2898  0.1098
  910MPD2    C313378   2.560   2.466  16.225  1.1620 -0.2023  0.1742
  910MPD2    C413379   2.482   2.522  16.322 -0.2147 -0.1038 -0.3455
  910MPD2    C513380   2.459   2.452  16.438 -0.0662  0.3936 -0.3685
  910MPD2     H13381   2.666   2.280  16.183  0.7610 -0.7021  1.2514
  910MPD2    H113382   2.447   2.624  16.318 -1.4241 -0.5343 -0.6227
  910MPD2    H213383   2.484   2.281  16.558  2.9481  0.4910  0.0674
  910MPD2    H313384   2.396   2.507  16.506 -1.6378  0.0191 -1.5314
  910MPD2     N13385   2.578   2.538  16.102  0.0246  0.1584 -1.0589
  910MPD2    H513386   2.527   2.626  16.101  1.0212  0.7410 -0.4354
  910MPD2    N113387   2.610   2.120  16.359  0.1896  0.4179 -0.5038
  910MPD2    H713388   2.672   2.092  16.284 -2.4580 -0.2473 -2.4499
  911MPD2     C13389   0.549   2.782  16.247 -0.1407 -0.2131 -0.4473
  911MPD2    C113390   0.556   2.773  16.383  0.4697  0.6137 -0.2324
  911MPD2    C213391   0.499   2.876  16.456  0.1021  0.0260  0.4081
  911MPD2    C313392   0.446   2.982  16.383  0.9116  0.0124  0.0709
  911MPD2    C413393   0.438   2.980  16.248 -0.3245  0.0422  0.0057
  911MPD2    C513394   0.490   2.879  16.176  0.3569  0.7617 -1.0800
  911MPD2     H13395   0.513   2.881  16.563  1.0789  2.2790  0.1717
  911MPD2    H113396   0.391   3.058  16.189 -0.1266  0.1471 -0.0139
  911MPD2    H213397   0.593   2.702  16.189  2.5556  0.2666  0.9406
  911MPD2    H313398   0.502   2.878  16.068 -2.5415  1.5347 -1.4191
  911MPD2     N13399   0.385   3.090  16.442  0.6010  0.1994 -1.1006
  911MPD2    H513400   0.372   3.175  16.388 -0.4812  1.0328  0.4877
  911MPD2    N113401   0.626   2.664  16.441  0.0296 -0.6223 -0.0336
  911MPD2    H713402   0.661   2.601  16.370  0.0260  2.1238 -2.4565
  912MPD2     C13403   0.057   3.152  16.021 -0.3040  0.9948 -0.1610
  912MPD2    C113404   0.052   3.128  16.158 -0.1557  0.3812 -0.2891
  912MPD2    C213405   0.043   2.998  16.193  0.0186 -0.7842  0.6095
  912MPD2    C313406   0.048   2.897  16.095 -0.6793 -0.3944  0.3858
  912MPD2    C413407   0.065   2.920  15.963  0.7296 -0.0464  0.4353
  912MPD2    C513408   0.065   3.056  15.924 -0.4057 -0.9042 -0.6355
  912MPD2     H13409   0.021   2.967  16.295 -0.0103  0.0451  0.8515
  912MPD2    H113410   0.055   2.839  15.892  2.5441  1.4467 -1.5473
  912MPD2    H213411   0.046   3.254  15.987  0.0665  1.2476  0.4774
  912MPD2    H313412   0.054   3.079  15.818 -1.9399  1.7631  0.1104
  912MPD2     N13413   0.034   2.762  16.142 -0.6976 -0.4310 -0.0922
  912MPD2    H513414   0.018   2.764  16.243  1.5857  0.2625  0.2693
  912MPD2    N113415   0.043   3.232  16.249 -0.0733 -0.3172 -0.4932
  912MPD2    H713416   0.076   3.321  16.212  2.0162 -1.6988 -1.9506
  913MPD2     C13417   4.562   4.068  10.346  0.1125 -0.0435 -0.2059
  913MPD2    C113418   4.654   4.013  10.432 -0.1405  0.0583  0.5415
  913MPD2    C213419   0.056   4.026  10.393 -0.0237  0.1229 -0.8315
  913MPD2    C313420   0.093   4.070  10.268  0.7284 -0.3890  0.3342
  913MPD2    C413421   4.734   4.111  10.178 -0.3112  0.1696  0.2181
  913MPD2    C513422   4.604   4.110  10.220 -0.0324  0.1532  0.2318
  913MPD2     H13423   0.129   3.980  10.459 -0.4638  1.0669  0.3132
  913MPD2    H113424   0.035   4.146  10.082 -2.3974 -0.1694 -0.6871
  913MPD2    H213425   4.455   4.071  10.365  0.3358 -1.6311  1.3191
  913MPD2    H313426   4.534   4.151  10.147  1.4041 -0.0620 -1.2799
  913MPD2     N13427   0.229   4.076  10.223 -0.1976  0.1981 -0.2284
  913MPD2    H513428   0.246   4.104  10.127  0.6324  2.2727  0.5371
  913MPD2    N113429   4.599   3.946  10.542  0.1652  0.7296 -0.0192
  913MPD2    H713430   4.497   3.942  10.545  0.0962  2.3296 -0.1690
  914MPD2     C13431   3.170   4.127  12.520  0.6299  0.3606  0.2114
  914MPD2    C113432   3.189   4.178  12.647 -0.2728 -0.1449  0.2946
  914MPD2    C213433   3.163   4.092  12.759  0.0140  0.3842  0.2236
  914MPD2    C313434   3.131   3.956  12.748 -0.1222  0.1468  0.2300
  914MPD2    C413435   3.109   3.914  12.617  0.1246  0.2667 -0.4537
  914MPD2    C513436   3.126   3.999  12.506  0.0204  0.2353 -0.5397
  914MPD2     H13437   3.184   4.126  12.860  0.0585 -2.8961  1.3243
  914MPD2    H113438   3.073   3.815  12.593 -0.0499 -0.1916  1.7331
  914MPD2    H213439   3.176   4.199  12.439 -0.4834 -1.0934 -1.1558
  914MPD2    H313440   3.096   3.948  12.415 -1.6446  1.0700 -0.4465
  914MPD2     N13441   3.136   3.879  12.864 -0.5092 -0.5132 -0.2259
  914MPD2    H513442   3.176   3.922  12.947  0.2899  1.8179 -1.8109
  914MPD2    N113443   3.243   4.310  12.652  0.4235  0.8027 -0.8168
  914MPD2    H713444   3.242   4.365  12.567 -1.4808 -0.1138 -1.3866
  915MPD2     C13445   1.436   4.159  16.082 -0.2538 -0.3638 -0.2980
  915MPD2    C113446   1.510   4.273  16.108 -0.0652 -0.1875 -0.2400
  915MPD2    C213447   1.475   4.351  16.219  0.0317 -0.7736 -0.0209
  915MPD2    C313448   1.365   4.324  16.298  0.1023  0.1031  0.6747
  915MPD2    C413449   1.287   4.205  16.264  0.4623  0.0693 -0.3681
  915MPD2    C513450   1.327   4.135  16.149  0.1708 -0.9805 -0.7616
  915MPD2     H13451   1.505   4.452  16.243 -1.9510 -0.0304 -0.7627
  915MPD2    H113452   1.188   4.192  16.307  0.8343 -0.1314  0.4326
  915MPD2    H213453   1.465   4.111  15.989 -1.3633 -2.0946  0.2688
  915MPD2    H313454   1.265   4.051  16.120  1.0046 -2.3088  1.2884
  915MPD2     N13455   1.342   4.405  16.413 -0.1388 -0.1617  0.2470
  915MPD2    H513456   1.404   4.484  16.430  0.4938 -0.7514  0.6726
  915MPD2    N113457   1.626   4.302  16.036 -0.0180 -0.1641  0.0852
  915MPD2    H713458   1.653   4.237  15.963 -1.7920 -0.6347 -0.1611
  916MPD2     C13459   4.436   2.882  15.920 -0.3613  0.6563 -0.1124
  916MPD2    C113460   4.429   2.828  16.044  0.6627  0.1109  0.2273
  916MPD2    C213461   4.413   2.690  16.060  0.4461 -0.0873  0.0757
  916MPD2    C313462   4.416   2.607  15.942  0.5998  0.1925 -0.8757
  916MPD2    C413463   4.418   2.669  15.818  0.0692  0.4128 -0.1751
  916MPD2    C513464   4.429   2.800  15.807 -0.7714  0.1474  0.2511
  916MPD2     H13465   4.406   2.645  16.158 -1.6534 -1.8697 -0.8991
  916MPD2    H113466   4.420   2.613  15.726  1.8930 -2.5844  1.6884
  916MPD2    H213467   4.435   2.990  15.906 -0.8887  0.3287 -2.5397
  916MPD2    H313468   4.434   2.849  15.710  4.7665 -0.2715  0.2903
  916MPD2     N13469   4.393   2.467  15.947  0.6081  0.7008 -0.0786
  916MPD2    H513470   4.380   2.414  15.862  1.6925  1.1939 -0.5493
  916MPD2    N113471   4.434   2.912  16.160 -0.3216  0.0680  0.6252
  916MPD2    H713472   4.459   3.010  16.144  0.1076 -0.0936  0.3048
  917MPD2     C13473   4.275   4.109  11.726  0.3994  0.7402  0.1943
  917MPD2    C113474   4.351   4.115  11.841  0.4790  0.4056 -0.0768
  917MPD2    C213475   4.466   4.199  11.841 -0.8786  0.1704 -0.1939
  917MPD2    C313476   4.502   4.274  11.733 -0.3073 -0.8163 -0.2113
  917MPD2    C413477   4.420   4.277  11.623 -0.3893  0.3500  0.2009
  917MPD2    C513478   4.313   4.192  11.624  0.2807 -0.8456 -0.0290
  917MPD2     H13479   4.524   4.197  11.933 -1.5373  2.9410  0.2910
  917MPD2    H113480   4.446   4.336  11.536 -1.7546  0.7369  0.0518
  917MPD2    H213481   4.178   4.061  11.720  0.9834 -0.2368 -1.3127
  917MPD2    H313482   4.254   4.186  11.533 -2.3670  0.2083  1.6263
  917MPD2     N13483   4.617   4.356  11.740  0.3986 -0.0048  0.6140
  917MPD2    H513484   4.633   4.413  11.657  0.3357  2.1121  2.0660
  917MPD2    N113485   4.308   4.029  11.946 -0.9157  0.4272  0.3190
  917MPD2    H713486   4.214   3.991  11.953 -1.6024  1.8471 -1.1325
  918MPD2     C13487   4.644   4.356  12.791 -0.5562  0.4045 -0.2835
  918MPD2    C113488   4.712   4.321  12.679 -0.0047  0.2890  0.0799
  918MPD2    C213489   4.639   4.248  12.586  0.1538 -0.0740 -0.2000
  918MPD2    C313490   4.506   4.210  12.608 -0.1969  0.3057  0.7931
  918MPD2    C413491   4.444   4.261  12.720 -0.0480 -0.1895  0.6358
  918MPD2    C513492   4.514   4.338  12.810  0.6879 -0.1334 -0.1982
  918MPD2     H13493   4.687   4.212  12.495 -0.6825  0.7252 -0.9521
  918MPD2    H113494   4.336   4.251  12.726 -0.0601 -0.3326  0.1571
  918MPD2    H213495   4.682   4.418  12.872 -0.5886  0.0924 -0.0312
  918MPD2    H313496   4.454   4.383  12.888  1.2572  1.9040 -0.9442
  918MPD2     N13497   4.444   4.138  12.509 -0.4250 -0.0822  0.1312
  918MPD2    H513498   4.503   4.123  12.429 -1.1972  3.1786 -1.0638
  918MPD2    N113499   0.110   4.356  12.665  0.2591  0.3729 -0.5779
  918MPD2    H713500   0.165   4.393  12.742  1.0856 -0.8409 -0.5866
  919MPD2     C13501   0.399   3.525  11.609 -0.0996  0.3047  0.5185
  919MPD2    C113502   0.273   3.475  11.638  0.7156  0.9019  0.1394
  919MPD2    C213503   0.172   3.548  11.582 -0.0358  0.5059  0.2484
  919MPD2    C313504   0.191   3.649  11.491 -0.5117 -0.1805 -0.4089
  919MPD2    C413505   0.316   3.703  11.472  0.2195  0.5339  0.6301
  919MPD2    C513506   0.422   3.645  11.537 -0.5461  0.1482 -0.3542
  919MPD2     H13507   0.071   3.532  11.619 -0.7412  1.8543 -1.0692
  919MPD2    H113508   0.331   3.783  11.400  1.8374 -0.4478 -0.1289
  919MPD2    H213509   0.491   3.482  11.648  0.9273  2.6551  0.7076
  919MPD2    H313510   0.525   3.675  11.522  0.0853 -2.3003 -0.9781
  919MPD2     N13511   0.087   3.705  11.414  0.5803  0.1133  0.1335
  919MPD2    H513512   0.110   3.778  11.348  0.7053  0.3690  0.4613
  919MPD2    N113513   0.246   3.362  11.713 -0.0172 -0.6256 -0.6592
  919MPD2    H713514   0.149   3.340  11.736 -0.9133  1.7742 -2.1171
  920MPD2     C13515   4.678   4.291  10.642  0.1184 -0.5949  0.3375
  920MPD2    C113516   4.553   4.266  10.669 -0.8180 -0.2690 -0.1863
  920MPD2    C213517   4.513   4.188  10.780  0.1869  0.1762 -0.1389
  920MPD2    C313518   4.610   4.126  10.861  0.2110  0.1428 -0.2569
  920MPD2    C413519   0.011   4.162  10.832  0.2639 -0.4512 -0.1097
  920MPD2    C513520   0.041   4.234  10.719  0.3540 -0.5214  0.0621
  920MPD2     H13521   4.409   4.168  10.805  0.4515 -0.8111  0.1930
  920MPD2    H113522   0.090   4.131  10.900 -1.3238 -0.7151  1.6016
  920MPD2    H213523   4.699   4.354  10.556 -2.1347  0.9427  0.8864
  920MPD2    H313524   0.145   4.260  10.704 -0.8295  4.5195  0.6785
  920MPD2     N13525   4.570   4.045  10.966  0.3072 -0.2334 -0.9373
  920MPD2    H513526   4.472   4.040  10.992  0.5055  2.8674  0.4876
  920MPD2    N113527   4.444   4.316  10.591  0.0598  0.8323 -0.0002
  920MPD2    H713528   4.356   4.266  10.592  1.1070 -0.9877  1.9454
  921MPD2     C13529   1.268   2.726  17.104 -0.0782  0.0350  0.0728
  921MPD2    C113530   1.285   2.678  16.975  0.2443  0.5732  0.7270
  921MPD2    C213531   1.174   2.615  16.918 -0.1159  0.3969 -0.6129
  921MPD2    C313532   1.063   2.587  16.991  0.1064 -0.1540  0.1421
  921MPD2    C413533   1.055   2.621  17.125  0.1204 -0.0796  0.5948
  921MPD2    C513534   1.156   2.692  17.174  0.5255  0.4328  0.2458
  921MPD2     H13535   1.178   2.581  16.815 -0.1653 -3.7825  0.7527
  921MPD2    H113536   0.964   2.618  17.184 -0.4125 -2.0748 -0.3646
  921MPD2    H213537   1.341   2.788  17.156  0.5611  0.4371 -1.2955
  921MPD2    H313538   1.150   2.730  17.276 -0.3282  1.3205 -0.1292
  921MPD2     N13539   0.955   2.518  16.936 -0.5111 -0.3208 -0.5883
  921MPD2    H513540   0.866   2.523  16.984 -0.4572 -0.4545 -0.4752
  921MPD2    N113541   1.405   2.711  16.909 -0.4350  0.0749  0.2698
  921MPD2    H713542   1.482   2.736  16.970  1.8823 -0.6440 -2.3708
  922MPD2     C13543   2.308   0.939   0.037 -0.2899 -0.3995 -0.2452
  922MPD2    C113544   2.284   0.989  17.649  0.1861 -0.0326 -0.4470
  922MPD2    C213545   2.171   0.953  17.584  0.0977  0.3784  0.4020
  922MPD2    C313546   2.075   0.869  17.639  0.6332 -0.1926  0.7440
  922MPD2    C413547   2.101   0.828   0.031 -0.4557  0.4650  0.5461
  922MPD2    C513548   2.212   0.861   0.101 -0.6944  0.1523  0.0720
  922MPD2     H13549   2.160   0.976  17.479 -1.0726 -2.3834 -0.0841
  922MPD2    H113550   2.038   0.758   0.085  2.0707 -2.8503 -0.8847
  922MPD2    H213551   2.402   0.950   0.089 -0.1762 -1.6634 -0.1850
  922MPD2    H313552   2.225   0.824   0.202  1.7008 -0.0492 -0.3019
  922MPD2     N13553   1.967   0.824  17.560  0.9115  0.5482 -0.5207
  922MPD2    H513554   1.967   0.844  17.461  1.9711 -0.5944 -0.7425
  922MPD2    N113555   2.385   1.069  17.577  0.4255  0.4256  0.1848
  922MPD2    H713556   2.372   1.085  17.478 -2.9876  0.4634  0.6176
  923MPD2     C13557   3.844   3.043   9.194 -0.7315  0.0932 -0.8171
  923MPD2    C113558   3.774   3.082   9.305  0.2837 -0.6541  0.1332
  923MPD2    C213559   3.821   3.051   9.431 -0.6720  0.3889  0.2812
  923MPD2    C313560   3.933   2.978   9.451 -0.0850 -0.7759  0.2260
  923MPD2    C413561   3.995   2.926   9.338 -0.6190 -1.7739 -0.0306
  923MPD2    C513562   3.955   2.961   9.214 -0.0003 -0.2917  0.0202
  923MPD2     H13563   3.769   3.078   9.523 -2.3198 -3.4491  0.4840
  923MPD2    H113564   4.085   2.867   9.351 -0.7788 -1.5564  2.0103
  923MPD2    H213565   3.817   3.073   9.093  2.2189  2.6427 -0.8700
  923MPD2    H313566   4.010   2.945   9.121  2.4682 -0.6369  1.5393
  923MPD2     N13567   3.974   2.954   9.586 -0.1414 -0.1585  0.7810
  923MPD2    H513568   3.910   2.993   9.654 -0.3242  1.7140 -0.4416
  923MPD2    N113569   3.649   3.154   9.286 -0.2942  0.0759 -0.1474
  923MPD2    H713570   3.618   3.159   9.189 -3.7288  0.3283  0.9751
  924MPD2     C13571   3.541   0.981  16.074 -0.9366  0.1248 -0.4554
  924MPD2    C113572   3.627   0.996  16.183 -0.6071  0.1466  0.6064
  924MPD2    C213573   3.753   1.043  16.155 -0.0665 -0.0684  0.0585
  924MPD2    C313574   3.798   1.070  16.024 -0.0068 -0.1820 -0.3383
  924MPD2    C413575   3.717   1.037  15.923 -0.6828  0.7479 -0.1292
  924MPD2    C513576   3.594   0.986  15.946 -0.3517 -0.1806 -0.1101
  924MPD2     H13577   3.819   1.068  16.237  0.8961  0.2466 -0.8077
  924MPD2    H113578   3.737   1.073  15.823  0.2242 -2.8265 -1.2489
  924MPD2    H213579   3.438   0.947  16.081 -0.2482 -1.6329  1.2772
  924MPD2    H313580   3.546   0.949  15.857  0.1835 -0.0327 -0.4587
  924MPD2     N13581   3.925   1.123  15.990 -0.1672  0.2441 -0.3694
  924MPD2    H513582   3.953   1.123  15.893 -2.2414  1.0222 -0.9604
  924MPD2    N113583   3.590   0.989  16.311 -0.0240 -0.2390 -0.1097
  924MPD2    H713584   3.662   1.010  16.379  1.3673 -0.2761 -1.5706
  925MPD2     C13585   2.467   3.611  14.663  0.6381 -0.6566 -1.0654
  925MPD2    C113586   2.331   3.618  14.680  0.8466 -0.0453 -0.5899
  925MPD2    C213587   2.273   3.665  14.794  0.0406 -1.1342 -0.1450
  925MPD2    C313588   2.354   3.692  14.902  0.9810 -0.1478 -0.1294
  925MPD2    C413589   2.485   3.669  14.900  0.4343 -0.0701 -0.3196
  925MPD2    C513590   2.542   3.637  14.783 -0.3987 -0.3481  0.1718
  925MPD2     H13591   2.166   3.671  14.810  0.3132  1.0792  0.9374
  925MPD2    H113592   2.557   3.677  14.980  0.0711  1.1566 -0.1120
  925MPD2    H213593   2.522   3.587  14.573  1.5845 -0.6037 -0.4991
  925MPD2    H313594   2.647   3.617  14.765 -0.3838  0.3601 -0.5189
  925MPD2     N13595   2.295   3.729  15.027 -0.3932 -0.2549  0.4785
  925MPD2    H513596   2.356   3.731  15.108 -1.3942 -1.1262  1.2477
  925MPD2    N113597   2.249   3.577  14.568 -0.2570  0.1328 -0.3366
  925MPD2    H713598   2.149   3.577  14.586 -0.2836  0.6722 -0.5116
  926MPD2     C13599   0.941   2.054  13.668  0.5133  0.1778 -0.1524
  926MPD2    C113600   0.808   2.065  13.628  0.5139  0.9862  0.5710
  926MPD2    C213601   0.780   2.111  13.497 -0.3525 -0.4596 -0.2384
  926MPD2    C313602   0.883   2.138  13.409  0.2438  0.0860  0.4747
  926MPD2    C413603   1.012   2.110  13.454  0.5864  0.2594  0.6049
  926MPD2    C513604   1.035   2.074  13.577 -0.2157 -0.1775  0.1756
  926MPD2     H13605   0.679   2.107  13.459  0.5692  0.4627 -2.7521
  926MPD2    H113606   1.102   2.126  13.398  0.8022 -1.5617  0.4131
  926MPD2    H213607   0.976   2.021  13.765 -0.9297 -1.1593 -0.1040
  926MPD2    H313608   1.137   2.067  13.612  0.1438 -0.1871 -0.8591
  926MPD2     N13609   0.866   2.186  13.276  0.3272 -0.5353 -0.0519
  926MPD2    H513610   0.952   2.182  13.221  1.0407  0.7219  0.9786
  926MPD2    N113611   0.688   2.048  13.707 -0.4056 -0.0321  0.0840
  926MPD2    H713612   0.604   2.040  13.651 -0.3851  0.8165 -0.0758
  927MPD2     C13613   1.323   3.977   0.078  0.4052  0.2148  1.0085
  927MPD2    C113614   1.242   4.073   0.016  0.0415 -0.2127  0.0067
  927MPD2    C213615   1.287   4.128  17.634 -0.0539  0.1144  0.2755
  927MPD2    C313616   1.412   4.089  17.582 -0.1859 -0.0532 -1.1161
  927MPD2    C413617   1.488   3.992  17.646  0.0545 -0.1882  0.3900
  927MPD2    C513618   1.441   3.931   0.015  0.2196 -0.5684  0.0230
  927MPD2     H13619   1.240   4.211  17.583  0.1192 -1.1367 -1.8981
  927MPD2    H113620   1.588   3.965  17.614  0.1988  1.5871 -0.6339
  927MPD2    H213621   1.291   3.948   0.178  0.9401 -0.2267  1.0531
  927MPD2    H313622   1.501   3.859   0.069 -0.4178 -1.4283 -0.4110
  927MPD2     N13623   1.447   4.153  17.455 -0.2777  0.7228  0.0769
  927MPD2    H513624   1.383   4.226  17.427  1.3008  1.9408 -0.3835
  927MPD2    N113625   1.127   4.121   0.086 -0.2780  0.0624 -0.1676
  927MPD2    H713626   1.124   4.090   0.183 -0.2841  2.9055  0.7637
  928MPD2     C13627   3.352   3.169   1.124  0.1046  0.9194 -0.1220
  928MPD2    C113628   3.461   3.134   1.200 -0.0160 -0.6303  0.1996
  928MPD2    C213629   3.573   3.098   1.123 -0.0348 -0.2542  0.0379
  928MPD2    C313630   3.572   3.085   0.987 -0.1916 -0.9807  0.3556
  928MPD2    C413631   3.455   3.115   0.916  0.1042  0.1875 -0.1340
  928MPD2    C513632   3.352   3.157   0.988 -0.1979  0.2707 -0.5661
  928MPD2     H13633   3.666   3.085   1.177 -0.6403 -1.7449  0.7152
  928MPD2    H113634   3.442   3.108   0.808  0.4815  2.0357 -0.3036
  928MPD2    H213635   3.260   3.194   1.177 -0.2676 -1.1179  0.1988
  928MPD2    H313636   3.263   3.167   0.928  0.9564  2.6878 -1.8872
  928MPD2     N13637   3.684   3.065   0.902  0.4347  0.0191  0.1094
  928MPD2    H513638   3.670   3.088   0.805  1.4330 -0.8961 -0.2552
  928MPD2    N113639   3.474   3.160   1.339 -0.1357  0.4776 -0.0680
  928MPD2    H713640   3.394   3.200   1.387  0.0882  0.1672  0.5631
  929MPD2     C13641   3.628   2.535   9.990 -0.1949  0.1510 -0.3939
  929MPD2    C113642   3.606   2.418  10.060 -0.8823 -0.0342 -0.2063
  929MPD2    C213643   3.578   2.301   9.996 -0.6540 -0.6659 -0.8105
  929MPD2    C313644   3.552   2.295   9.859 -0.3996 -0.0631  0.0763
  929MPD2    C413645   3.563   2.414   9.790  0.4795 -0.1742 -0.1053
  929MPD2    C513646   3.606   2.529   9.855  0.0605  0.1061 -0.7742
  929MPD2     H13647   3.559   2.208  10.048  1.5272 -1.2136 -0.9805
  929MPD2    H113648   3.549   2.410   9.682  0.9445 -1.5448 -0.1213
  929MPD2    H213649   3.648   2.631  10.034 -1.2456 -0.1759  0.8182
  929MPD2    H313650   3.624   2.621   9.799 -2.5053  0.9101 -0.2872
  929MPD2     N13651   3.488   2.189   9.790 -1.1847 -0.1942 -0.2268
  929MPD2    H513652   3.501   2.194   9.690 -1.2886  0.1021 -0.2266
  929MPD2    N113653   3.614   2.422  10.198 -0.4074 -0.1177 -0.2029
  929MPD2    H713654   3.654   2.507  10.235 -0.3813  0.7050 -2.1056
  930MPD2     C13655   0.394   0.101  14.687  0.6780 -0.2985 -0.3234
  930MPD2    C113656   0.501   0.145  14.615  0.4910  0.5747  0.5641
  930MPD2    C213657   0.503   0.138  14.475  0.4715 -0.0504  0.0794
  930MPD2    C313658   0.393   0.086  14.410  0.6050 -0.1160 -0.3643
  930MPD2    C413659   0.288   0.031  14.485  0.9512  0.0394 -0.3261
  930MPD2    C513660   0.290   0.042  14.619 -0.0837  0.4583 -0.5899
  930MPD2     H13661   0.584   0.164  14.408 -0.6152  1.6291 -0.5979
  930MPD2    H113662   0.206   4.720  14.432  1.2372  1.1873 -1.7719
  930MPD2    H213663   0.392   0.104  14.795 -0.0974  0.1863 -0.3564
  930MPD2    H313664   0.202   0.010  14.675 -0.2174  0.7152 -0.6552
  930MPD2     N13665   0.395   0.088  14.269  0.0835 -0.4644 -0.5857
  930MPD2    H513666   0.469   0.146  14.231  0.8635 -0.0836  1.5357
  930MPD2    N113667   0.597   0.220  14.684  0.7399 -0.2102  0.5849
  930MPD2    H713668   0.594   0.226  14.786 -1.0972  0.4547  0.4935
  931MPD2     C13669   1.066   3.899   0.621 -0.1766 -0.0551  0.5870
  931MPD2    C113670   1.012   4.031   0.614 -0.5769  0.2338  0.7395
  931MPD2    C213671   1.015   4.115   0.729 -0.5022 -0.5167 -1.1314
  931MPD2    C313672   1.077   4.074   0.845 -0.5948 -0.2250 -0.0858
  931MPD2    C413673   1.153   3.958   0.837  0.1161  1.0724 -0.1833
  931MPD2    C513674   1.154   3.878   0.728  0.0921 -0.0057  0.2845
  931MPD2     H13675   0.947   4.198   0.745 -2.3097 -1.9386 -1.4251
  931MPD2    H113676   1.220   3.927   0.917  1.0561  3.3763 -0.0623
  931MPD2    H213677   1.059   3.828   0.540  3.7960 -0.8400  0.9415
  931MPD2    H313678   1.211   3.786   0.732 -0.2680 -0.3682 -2.8093
  931MPD2     N13679   1.096   4.158   0.961  0.4440 -0.4857 -0.0480
  931MPD2    H513680   1.173   4.123   1.016  0.2561  1.0195  1.1640
  931MPD2    N113681   0.940   4.064   0.495 -0.1013 -0.2301  0.4695
  931MPD2    H713682   0.929   3.999   0.418 -1.9112 -0.9368  1.3572
  932MPD2     C13683   2.145   2.816  11.450  0.3599  0.0108  0.0099
  932MPD2    C113684   2.215   2.904  11.532  0.4960 -0.6416  1.0565
  932MPD2    C213685   2.278   2.855  11.647 -0.5138  0.2743  0.0604
  932MPD2    C313686   2.298   2.720  11.665 -1.3117  0.5178  0.4007
  932MPD2    C413687   2.217   2.638  11.592  0.0470 -0.3550  0.1269
  932MPD2    C513688   2.132   2.688  11.494 -0.0661  0.1768 -0.3628
  932MPD2     H13689   2.329   2.926  11.709  0.7351  0.2003 -0.8866
  932MPD2    H113690   2.232   2.531  11.597  0.8055 -0.2160  0.9106
  932MPD2    H213691   2.089   2.853  11.365 -0.5021  0.6933  0.8636
  932MPD2    H313692   2.074   2.619  11.435  2.0201 -2.7032  0.9333
  932MPD2     N13693   2.407   2.668  11.740  0.2481  0.0871  0.1041
  932MPD2    H513694   2.407   2.569  11.759 -2.1002 -0.6030 -3.5576
  932MPD2    N113695   2.237   3.045  11.500  0.2238 -0.3186  0.6839
  932MPD2    H713696   2.301   3.093  11.564 -0.6985  0.5057  0.9839
  933MPD2     C13697   3.034   3.549   1.550 -0.7556 -0.2727 -0.0982
  933MPD2    C113698   3.135   3.552   1.644 -0.6649 -0.8303 -0.2418
  933MPD2    C213699   3.122   3.635   1.754 -0.3385  0.3150  0.2098
  933MPD2    C313700   3.016   3.714   1.778 -0.0880  0.2618 -0.8843
  933MPD2    C413701   2.916   3.704   1.685 -0.1616 -0.5434 -0.2246
  933MPD2    C513702   2.929   3.629   1.574  0.0494  0.0992  0.1271
  933MPD2     H13703   3.197   3.625   1.832  2.4223  1.7388 -2.2476
  933MPD2    H113704   2.826   3.764   1.692  0.3647  0.4891 -2.2322
  933MPD2    H213705   3.037   3.477   1.470 -1.8021 -1.3238  0.8124
  933MPD2    H313706   2.844   3.621   1.506  0.6829  0.4559 -0.7037
  933MPD2     N13707   3.014   3.797   1.893  0.0502 -0.1975  0.1617
  933MPD2    H513708   3.105   3.804   1.938 -1.6981  1.2306  3.4160
  933MPD2    N113709   3.250   3.474   1.617 -0.1582 -0.0646  0.4446
  933MPD2    H713710   3.249   3.412   1.536  0.2341  1.5229 -0.7745
  934MPD2     C13711   4.677   0.534   1.995 -0.7799 -0.4434 -0.1290
  934MPD2    C113712   0.009   0.416   1.964 -0.0273 -0.3469 -0.0211
  934MPD2    C213713   4.672   0.320   1.886 -0.2280  0.4486  0.5089
  934MPD2    C313714   4.541   0.345   1.844 -0.2615 -0.6428 -0.3259
  934MPD2    C413715   4.476   0.465   1.879 -0.2429 -0.7498 -0.3285
  934MPD2    C513716   4.549   0.554   1.958 -0.1882 -0.0247 -0.3175
  934MPD2     H13717   4.732   0.236   1.852 -1.0436  0.0542  0.0401
  934MPD2    H113718   4.372   0.484   1.856 -0.4268  0.5978  1.5990
  934MPD2    H213719   4.730   0.618   2.041 -3.2815  0.2946  1.3852
  934MPD2    H313720   4.500   0.649   1.979  3.1884  1.2834  1.6409
  934MPD2     N13721   4.468   0.265   1.755 -0.4450  0.2671  0.0758
  934MPD2    H513722   4.375   0.297   1.729 -0.6512 -0.7500 -0.4372
  934MPD2    N113723   0.145   0.384   2.004  0.4480  0.3539  0.0426
  934MPD2    H713724   0.178   0.293   1.973 -1.7168 -1.0668  1.8351
  935MPD2     C13725   0.017   4.258   1.096 -0.3772 -0.0090  0.6688
  935MPD2    C113726   4.621   4.229   1.131 -0.1535 -0.4603  0.0116
  935MPD2    C213727   4.545   4.325   1.197 -0.1476  0.3445 -0.3129
  935MPD2    C313728   4.607   4.443   1.239 -0.2825  0.6682  0.2097
  935MPD2    C413729   0.003   4.465   1.208 -0.3125  0.7053 -0.6917
  935MPD2    C513730   0.078   4.376   1.136 -0.2719  0.1040 -0.3305
  935MPD2     H13731   4.439   4.306   1.207 -0.3140  0.7774 -1.2679
  935MPD2    H113732   0.051   4.556   1.242 -0.0196  1.1110 -2.1833
  935MPD2    H213733   0.072   4.186   1.037 -0.0938 -0.6606  1.7377
  935MPD2    H313734   0.177   4.408   1.105 -0.8277  1.8049 -0.3299
  935MPD2     N13735   4.552   4.542   1.328 -0.1429  0.1475  0.2101
  935MPD2    H513736   4.617   4.613   1.360  0.2724 -0.3980  0.5869
  935MPD2    N113737   4.558   4.107   1.101  0.4321 -0.3755 -0.6300
  935MPD2    H713738   4.468   4.085   1.142  1.2442 -1.2496  0.6899
  936MPD2     C13739   2.313   1.822  12.467 -0.2497  0.1190  0.5127
  936MPD2    C113740   2.426   1.747  12.500  0.7414 -0.1871  0.1079
  936MPD2    C213741   2.550   1.778  12.453 -0.1019  0.1612 -0.1097
  936MPD2    C313742   2.568   1.906  12.399 -0.4123  0.4786  0.1405
  936MPD2    C413743   2.459   1.989  12.379 -0.0903  0.0464 -0.1990
  936MPD2    C513744   2.337   1.945  12.409 -0.4498  0.4495  0.1139
  936MPD2     H13745   2.629   1.708  12.474 -0.3064  0.2641  1.0181
  936MPD2    H113746   2.479   2.083  12.330  0.4829 -1.0112 -1.9917
  936MPD2    H213747   2.211   1.790  12.487 -0.3140  1.2389  1.9620
  936MPD2    H313748   2.252   2.000  12.370 -1.7985 -2.4553 -1.0429
  936MPD2     N13749   2.697   1.965  12.388 -0.0208  0.4089 -0.3777
  936MPD2    H513750   2.706   2.065  12.374 -0.1785  0.1827 -2.1046
  936MPD2    N113751   2.411   1.638  12.587 -0.5667  0.4207 -0.4669
  936MPD2    H713752   2.494   1.586  12.614 -1.3698 -0.8724 -0.5048
  937MPD2     C13753   0.649   2.629  11.844 -0.2445 -0.4217 -0.3873
  937MPD2    C113754   0.621   2.746  11.778  0.2098 -1.3701  0.6634
  937MPD2    C213755   0.714   2.794  11.698 -0.0910 -0.0549 -0.0033
  937MPD2    C313756   0.836   2.730  11.674  0.4276 -0.8195  0.3063
  937MPD2    C413757   0.856   2.602  11.731 -0.1257 -0.7651 -0.6574
  937MPD2    C513758   0.766   2.555  11.819 -0.3443 -0.4238 -0.0988
  937MPD2     H13759   0.694   2.892  11.656  0.9642 -0.3766 -1.2798
  937MPD2    H113760   0.950   2.549  11.716  0.3908  0.3781 -1.4862
  937MPD2    H213761   0.579   2.577  11.909 -2.6192  2.3925 -0.6798
  937MPD2    H313762   0.777   2.457  11.864 -0.9916 -0.1998  0.5548
  937MPD2     N13763   0.933   2.796  11.598  0.0695  0.2879 -0.2049
  937MPD2    H513764   0.909   2.878  11.543  1.1122  0.6180 -0.1798
  937MPD2    N113765   0.532   2.841  11.822 -0.7351 -0.0771  0.6363
  937MPD2    H713766   0.542   2.934  11.781 -0.8848  0.1245  1.0560
  938MPD2     C13767   3.698   0.081   0.950  0.9370  0.2685 -0.1965
  938MPD2    C113768   3.761   0.120   1.068 -0.3391  0.5533  0.8845
  938MPD2    C213769   3.719   0.069   1.189  0.1339  0.0141  0.3079
  938MPD2    C313770   3.622   4.702   1.193  0.4487 -0.3104 -0.3464
  938MPD2    C413771   3.578   4.647   1.070  0.2089 -0.3956  0.5039
  938MPD2    C513772   3.616   4.705   0.951 -0.0295  0.2137 -0.1304
  938MPD2     H13773   3.771   0.097   1.281  0.2768 -0.6416  0.4264
  938MPD2    H113774   3.509   4.565   1.063  2.1752 -2.0217  0.0387
  938MPD2    H213775   3.715   0.117   0.850 -0.6434  2.3872  0.3042
  938MPD2    H313776   3.587   4.667   0.854 -0.1819 -0.6521  0.2589
  938MPD2     N13777   3.580   4.639   1.312 -0.0746  0.2070 -0.3104
  938MPD2    H513778   3.510   4.566   1.305  1.9308 -1.6648 -0.8223
  938MPD2    N113779   3.855   0.222   1.061 -0.2384 -0.0720  0.1643
  938MPD2    H713780   3.916   0.237   1.140 -1.2065  1.8776  0.5391
  939MPD2     C13781   4.601   1.187   0.812  0.2616 -0.0469  0.2702
  939MPD2    C113782   4.657   1.089   0.884 -0.2794  0.1825  0.8636
  939MPD2    C213783   4.667   0.960   0.835  0.1302 -0.5456  0.8435
  939MPD2    C313784   4.606   0.927   0.720  0.1036  0.0495 -0.1897
  939MPD2    C413785   4.545   1.025   0.645 -0.3194  0.1628 -0.4019
  939MPD2    C513786   4.555   1.159   0.691 -1.0704  0.6823  0.8035
  939MPD2     H13787   4.718   0.892   0.902  1.5202 -0.6992 -0.3753
  939MPD2    H113788   4.493   1.015   0.551 -1.1964  0.7990  0.0123
  939MPD2    H213789   4.592   1.286   0.856 -0.1771  0.1977 -0.3851
  939MPD2    H313790   4.522   1.247   0.638  0.8749  1.8209  1.4863
  939MPD2     N13791   4.602   0.793   0.676 -0.2335 -0.4735 -0.2148
  939MPD2    H513792   4.662   0.728   0.726  1.4867  1.1038 -0.2468
  939MPD2    N113793   4.709   1.124   1.012 -0.2711 -0.0618  0.5424
  939MPD2    H713794   0.007   1.220   1.018  1.3479 -0.6380  0.6975
  940MPD2     C13795   3.137   1.791  13.648  0.0393  0.2656 -0.4257
  940MPD2    C113796   3.015   1.732  13.612 -0.3687 -0.1564 -0.3621
  940MPD2    C213797   3.000   1.684  13.481  0.3399 -0.2556 -0.2820
  940MPD2    C313798   3.108   1.668  13.402 -0.1818 -0.4532  1.0068
  940MPD2    C413799   3.227   1.711  13.447 -0.5127 -0.5918  0.2270
  940MPD2    C513800   3.242   1.774  13.566  0.4534  0.0123  0.3266
  940MPD2     H13801   2.901   1.650  13.455 -0.1635  1.7727 -0.9888
  940MPD2    H113802   3.311   1.709  13.378  0.3783  1.8426  1.2620
  940MPD2    H213803   3.150   1.845  13.741  1.5494  1.1770 -1.1649
  940MPD2    H313804   3.340   1.809  13.595  0.1754  0.8709  0.2414
  940MPD2     N13805   3.106   1.600  13.280  0.1745  0.3783 -0.0710
  940MPD2    H513806   3.171   1.618  13.204  1.9339  0.3986  1.4457
  940MPD2    N113807   2.901   1.738  13.699 -0.0067  1.0074 -0.4880
  940MPD2    H713808   2.810   1.706  13.665 -0.1477  0.9287 -0.0462
  941MPD2     C13809   2.706   0.920   9.909  0.7200  0.1570  0.1818
  941MPD2    C113810   2.783   0.808   9.941  0.4107 -0.1183 -0.4371
  941MPD2    C213811   2.727   0.681   9.958 -0.1699 -0.1556  0.2271
  941MPD2    C313812   2.591   0.672   9.927  0.7347 -0.0605  0.7067
  941MPD2    C413813   2.520   0.779   9.894 -0.1251 -0.4961  1.1368
  941MPD2    C513814   2.567   0.906   9.895  0.3451  0.3455  0.6133
  941MPD2     H13815   2.784   0.593   9.988 -0.3161 -0.4597 -0.3797
  941MPD2    H113816   2.414   0.771   9.872 -0.1234  0.9146  0.5954
  941MPD2    H213817   2.738   1.023   9.907 -1.0209  0.6362 -2.0963
  941MPD2    H313818   2.510   0.991   9.860 -0.7140 -0.4297  0.4567
  941MPD2     N13819   2.518   0.547   9.942 -0.2220  0.1629 -0.6934
  941MPD2    H513820   2.417   0.549   9.947 -0.1259 -0.9650  1.7500
  941MPD2    N113821   2.921   0.807   9.962 -0.2590 -0.5038  0.0232
  941MPD2    H713822   2.971   0.723   9.989 -3.0845 -1.9942  0.6126
  942MPD2     C13823   3.330   3.003   9.197  1.1517 -0.0594 -0.2080
  942MPD2    C113824   3.327   2.930   9.308 -0.1944 -0.6838 -0.0529
  942MPD2    C213825   3.430   2.834   9.331  0.4052  0.5271 -0.4836
  942MPD2    C313826   3.531   2.820   9.237  0.0900 -0.0026  0.5565
  942MPD2    C413827   3.531   2.897   9.120 -0.8254 -0.0696  0.0787
  942MPD2    C513828   3.432   2.987   9.102  0.5055  0.1915 -0.0630
  942MPD2     H13829   3.414   2.766   9.413  2.2025  0.8573  0.1487
  942MPD2    H113830   3.604   2.879   9.043 -1.2627  1.7580 -0.7708
  942MPD2    H213831   3.248   3.061   9.154  2.0064  0.3960 -1.2304
  942MPD2    H313832   3.427   3.043   9.010 -0.4774  0.1105 -0.0571
  942MPD2     N13833   3.644   2.739   9.257  0.0683  0.0038  0.7832
  942MPD2    H513834   3.706   2.724   9.178  0.6176 -1.7358  1.5441
  942MPD2    N113835   3.218   2.920   9.390 -0.5225 -0.1224 -0.1260
  942MPD2    H713836   3.229   2.868   9.476 -0.5905 -0.4115 -0.2942
  943MPD2     C13837   1.275   0.765  10.852  0.2236 -0.1762  0.3777
  943MPD2    C113838   1.223   0.647  10.883 -0.7820 -0.5227  0.0788
  943MPD2    C213839   1.180   0.629  11.014 -0.1309  0.1055 -0.5534
  943MPD2    C313840   1.163   0.742  11.096 -0.7164 -0.2441  0.3911
  943MPD2    C413841   1.198   0.866  11.051  0.2104 -0.1827 -0.5190
  943MPD2    C513842   1.268   0.877  10.934 -0.6711 -0.2463 -0.0931
  943MPD2     H13843   1.147   0.534  11.054  2.8376 -0.5267  0.3891
  943MPD2    H113844   1.178   0.957  11.106  0.6244 -0.1725 -0.3875
  943MPD2    H213845   1.308   0.779  10.750 -0.1219  0.0884  0.2995
  943MPD2    H313846   1.310   0.970  10.900 -0.8648  0.4083  1.4438
  943MPD2     N13847   1.111   0.738  11.228  0.6260 -0.0174  0.0744
  943MPD2    H513848   1.117   0.824  11.280 -0.0273  0.3645 -0.4948
  943MPD2    N113849   1.234   0.544  10.787 -0.5189  0.3184 -0.0064
  943MPD2    H713850   1.265   0.571  10.694 -0.4308 -1.9061 -0.6358
  944MPD2     C13851   0.802   4.211  11.197  0.1120 -0.1087  0.3893
  944MPD2    C113852   0.870   4.317  11.142 -0.3737  1.0846 -0.2856
  944MPD2    C213853   0.858   4.441  11.209 -0.7211 -0.0812  0.2693
  944MPD2    C313854   0.777   4.457  11.318 -0.1789 -0.1017  0.2354
  944MPD2    C413855   0.697   4.347  11.358 -0.1461  0.0059 -0.1811
  944MPD2    C513856   0.718   4.229  11.299 -0.8494 -1.0502  0.5890
  944MPD2     H13857   0.918   4.525  11.178 -0.6722 -0.5384 -0.8950
  944MPD2    H113858   0.629   4.352  11.443  0.1796  1.9979 -0.0328
  944MPD2    H213859   0.812   4.115  11.148 -1.7377  0.9381 -2.0412
  944MPD2    H313860   0.661   4.147  11.342 -0.9641 -0.7817  0.9515
  944MPD2     N13861   0.773   4.582  11.390  0.2587 -0.2887  0.1522
  944MPD2    H513862   0.844   4.652  11.370 -0.5172  0.8672  1.4791
  944MPD2    N113863   0.948   4.295  11.027 -0.2880  0.2830  0.0066
  944MPD2    H713864   0.941   4.200  10.993  0.5774  0.3430 -0.3363
    1TMC1    C113865   4.541   0.482  14.388  0.5005  1.3020  0.3944
    1TMC1    C213866   4.617   0.390  14.451 -0.0881  0.0220  0.6730
    1TMC1    C313867   4.643   0.265  14.395 -0.3251  0.1794  0.7305
    1TMC1    C413868   4.479   0.454  14.263  0.0922 -0.3560  0.2172
    1TMC1    C513869   4.508   0.331  14.215  0.0017  0.4279  0.4312
    1TMC1    C613870   4.588   0.237  14.278  0.3376  0.6458  0.5839
    1TMC1     C13871   4.520   0.602  14.462  0.3506  0.1596  0.3860
    1TMC1     O13872   4.618   0.628  14.532  0.7420 -0.3866 -0.5120
    1TMC1     H13873   4.646   0.410  14.553 -0.0482  1.5130  0.3612
    1TMC1    H113874   4.425   0.526  14.203  0.9387 -0.3640 -0.5607
    1TMC1    H213875   4.589   0.139  14.230  1.0531  0.5557  0.7727
    1TMC1    C713876   4.464   0.327  14.079 -0.0129 -0.1440  0.0803
    1TMC1    C813877   4.683   0.152  14.478  0.4930  0.0925 -0.5947
    1TMC1    O113878   4.535   0.332  13.983 -0.0923  0.0768 -0.2394
    1TMC1    O213879   4.662   0.156  14.599  0.1770 -0.9789  0.5379
    1TMC1    O313880   4.333   0.333  14.070  0.3831 -0.2239  0.5752
    1TMC1    H313881   4.292   0.331  14.159 -0.6202 -0.3473  0.0999
    1TMC1    O513882   4.705   0.047  14.397  0.0967  1.0504 -0.1917
    1TMC1    H513883   0.003   0.079  14.311  1.8346  1.2345  0.5525
    2MPD2     C13884   4.287   1.038  14.593  0.5940 -0.6892  0.3571
    2MPD2    C113885   4.207   0.982  14.494 -0.3236  0.0115  0.3403
    2MPD2    C213886   4.243   0.860  14.444  0.9510 -0.8587 -0.3541
    2MPD2    C313887   4.362   0.795  14.492  0.1637  1.0063 -0.1117
    2MPD2    C413888   4.435   0.854  14.590  0.5789 -0.3386  0.3382
    2MPD2    C513889   4.394   0.974  14.644 -0.2001  0.0994  0.1462
    2MPD2     H13890   4.192   0.832  14.353 -1.7777  0.1399  0.8646
    2MPD2    H113891   4.529   0.808  14.620  1.0628 -1.0739 -2.3195
    2MPD2    H213892   4.259   1.137  14.627 -0.3388 -0.3862 -1.3091
    2MPD2    H313893   4.448   1.009  14.732 -0.1176 -2.0584  0.9478
    2MPD2     N13894   4.403   0.670  14.435 -0.5289  0.2918 -0.5209
    2MPD2    H513895   4.340   0.616  14.376 -1.6629 -0.7614  1.6839
    2MPD2    N113896   4.096   1.062  14.454  0.3794  0.0997 -0.2064
    2MPD2    H713897   4.106   1.160  14.481 -0.0243 -0.0933  0.6562
    3TMC2    C113898   3.899   1.129  14.328 -0.4826 -0.6221 -0.5659
    3TMC2    C213899   3.804   1.092  14.239 -0.1885  0.3607 -0.1099
    3TMC2    C313900   3.722   1.188  14.188  0.4265  0.3355 -0.2409
    3TMC2    C413901   3.901   1.259  14.378  0.4932  0.1838  0.8156
    3TMC2    C513902   3.809   1.344  14.332 -0.3003 -0.2684  0.2775
    3TMC2    C613903   3.722   1.320  14.224 -0.6191  0.1852  0.1935
    3TMC2     C13904   3.996   1.027  14.361 -0.2077  0.0998 -0.7551
    3TMC2     O13905   3.979   0.914  14.318  0.4008 -0.3248 -0.0283
    3TMC2     H13906   3.812   0.995  14.194 -0.9189 -0.2573  1.0748
    3TMC2    H113907   3.971   1.281  14.458  3.5500 -2.6132 -1.1403
    3TMC2    H213908   3.646   1.387  14.187 -0.1041  1.4762  1.4587
    3TMC2    C713909   3.836   1.483  14.382  0.0326  0.2657 -0.0458
    3TMC2    C813910   3.622   1.153  14.082 -0.1973 -0.5058 -0.6556
    3TMC2    O113911   3.937   1.505  14.447  0.0568 -0.3261  0.0513
    3TMC2    O213912   3.610   1.220  13.982 -0.6378 -0.1243  0.0033
    3TMC2    O513913   3.573   1.028  14.106  0.5050 -0.5931 -0.1430
    3TMC2    H513914   3.582   0.996  14.198 -2.3645 -0.8923  0.0213
    4TMC2    C113915   3.252   2.143  13.874  0.1443 -0.9396 -0.3725
    4TMC2    C213916   3.318   2.255  13.834  0.1564 -0.7246  0.2394
    4TMC2    C313917   3.442   2.274  13.891  0.5811 -0.0061 -0.4744
    4TMC2    C413918   3.290   2.052  13.971  0.7372 -0.5575  0.5973
    4TMC2    C513919   3.419   2.078  14.017 -0.1011 -0.0553  0.9436
    4TMC2    C613920   3.494   2.180  13.981  0.4859 -0.2672  0.4585
    4TMC2     C13921   3.112   2.128  13.850  0.0183 -0.4346 -0.4605
    4TMC2     O13922   3.033   2.107  13.940  0.3075 -0.9112 -0.7062
    4TMC2     H13923   3.278   2.333  13.770  1.5929 -0.9798 -0.9399
    4TMC2    H113924   3.232   1.966  14.001  1.3341 -1.0195  0.4189
    4TMC2    H213925   3.602   2.187  13.988  0.4217  1.4499 -0.1027
    4TMC2    C713926   3.478   1.976  14.099 -0.0060  0.0888  0.8948
    4TMC2    C813927   3.527   2.381  13.843 -0.2075  0.5942 -0.5031
    4TMC2    O113928   3.416   1.872  14.114 -0.1354 -0.4995  0.6722
    4TMC2    O213929   3.618   2.432  13.905 -0.4305 -0.3741  0.2071
    4TMC2    O513930   3.510   2.383  13.710 -0.3334 -0.0556 -0.3844
    4TMC2    H513931   3.446   2.316  13.675  1.3673 -1.9025  0.0374
    5MPD2     C13932   2.738   2.144  13.513  0.5648 -0.5316  0.3254
    5MPD2    C113933   2.857   2.186  13.454 -0.0100 -0.1875  0.5179
    5MPD2    C213934   2.976   2.182  13.524  0.6496 -0.4006  0.1894
    5MPD2    C313935   2.974   2.141  13.649  0.5091  0.7108  0.3574
    5MPD2    C413936   2.858   2.091  13.704  0.4605 -0.1055 -0.6392
    5MPD2    C513937   2.737   2.087  13.635  0.0963  0.0269 -0.3189
    5MPD2     H13938   3.064   2.223  13.476  0.1191 -0.4218 -0.7932
    5MPD2    H113939   2.851   2.057  13.807 -2.9763  0.2294 -0.7629
    5MPD2    H213940   2.647   2.136  13.453  0.9239  3.4950 -0.7561
    5MPD2    H313941   2.651   2.034  13.674  0.8207 -1.3990 -0.6685
    5MPD2     N13942   3.093   2.146  13.716 -0.0272  0.3081  0.3373
    5MPD2    H513943   3.172   2.168  13.655  0.2585  1.4594  1.1318
    5MPD2    N113944   2.840   2.240  13.322  0.1522 -0.2832 -0.1444
    5MPD2    H713945   2.744   2.262  13.297  0.3645 -0.0204 -0.7349
    6MPD1     C13946   1.797   3.525  13.589 -0.1254  0.1839 -0.2600
    6MPD1    C113947   1.928   3.509  13.641 -0.4415 -0.5234  0.0701
    6MPD1    C213948   2.005   3.421  13.575  0.2955  0.0869  0.2256
    6MPD1    C313949   1.961   3.342  13.465  0.5185 -0.6467  0.3327
    6MPD1    C413950   1.829   3.345  13.430 -0.1826 -0.1487 -0.0928
    6MPD1    C513951   1.753   3.443  13.490 -0.6300 -0.3976  0.0089
    6MPD1     H13952   2.105   3.412  13.615  0.2829 -0.0739  0.2199
    6MPD1    H113953   1.794   3.290  13.344 -1.5456 -0.1497  0.4733
    6MPD1    H213954   1.740   3.599  13.644 -1.2181 -0.2416 -0.8103
    6MPD1    H313955   1.651   3.460  13.458 -0.1410  0.6817 -0.9958
    6MPD1     N13956   2.043   3.257  13.390  0.3998 -0.4079  0.2737
    6MPD1    H513957   2.003   3.203  13.314  1.0049 -0.1423 -0.2317
    6MPD1    N113958   1.973   3.591  13.745  0.3160  0.2945  0.3444
    6MPD1    H613959   1.898   3.623  13.807 -0.2205 -1.7339  0.7390
    6MPD1    H713960   2.064   3.565  13.781 -0.2394 -0.8696  0.9117
    7MPD2     C13961   2.168   2.596  13.151 -0.0018  0.2994  0.8558
    7MPD2    C113962   2.267   2.665  13.086  0.4274 -0.2612 -0.3595
    7MPD2    C213963   2.385   2.596  13.067 -0.2125  0.0252  0.1133
    7MPD2    C313964   2.411   2.462  13.093  0.4483  0.3912 -0.2494
    7MPD2    C413965   2.304   2.391  13.144 -0.2268 -0.5852  0.0206
    7MPD2    C513966   2.183   2.455  13.161 -0.3663 -0.9227  0.0873
    7MPD2     H13967   2.465   2.660  13.033  0.6340  0.3206  2.7008
    7MPD2    H113968   2.312   2.283  13.146 -2.5229 -0.7424  0.4781
    7MPD2    H213969   2.074   2.641  13.181 -0.4607  1.5334 -2.3203
    7MPD2    H313970   2.094   2.403  13.195  0.1369 -1.0397  1.2399
    7MPD2     N13971   2.528   2.395  13.048  0.6432  0.1253  0.1533
    7MPD2    H513972   2.535   2.296  13.070  1.5365  0.4414  1.3232
    7MPD2    N113973   2.270   2.803  13.068  0.3912  0.1095 -0.3245
    7MPD2    H713974   2.360   2.846  13.049  0.8172  0.4604  2.4455
    8TMC3    C113975   2.744   2.370  12.951 -0.2039  0.0763 -0.4594
    8TMC3    C213976   2.783   2.309  13.065  0.2168 -0.1619 -0.8724
    8TMC3    C313977   2.906   2.323  13.115  0.2034 -0.7077 -0.6467
    8TMC3    C413978   2.833   2.450  12.891 -0.2289 -0.1590 -0.3966
    8TMC3    C513979   2.963   2.455  12.938  0.0733  0.7698  0.3764
    8TMC3    C613980   3.002   2.395  13.054 -0.1744 -0.2076  0.2365
    8TMC3     C13981   2.621   2.448  12.964  0.7977  0.3125 -0.5626
    8TMC3     O13982   2.621   2.559  12.909 -0.2243  0.1389 -0.3762
    8TMC3     H13983   2.709   2.245  13.110 -0.7034  0.7836 -1.0216
    8TMC3    H113984   2.805   2.491  12.795 -0.9965  1.6972  0.6102
    8TMC3    H213985   3.090   2.418  13.114 -0.4999  3.7248 -0.7835
    8TMC3    C713986   3.005   2.595  12.921 -0.0773 -0.0461  0.0942
    8TMC3    C813987   2.944   2.263  13.238  0.3159 -0.7960 -0.0262
    8TMC3    O113988   3.120   2.617  12.953  0.2520 -0.3190 -0.0625
    8TMC3    O213989   3.060   2.246  13.255 -0.7508  0.0350 -0.3322
    9TMC3    C113990   2.237   3.141  13.315 -0.5182  0.2904  0.1152
    9TMC3    C213991   2.372   3.162  13.300  0.2494  0.2910  0.9356
    9TMC3    C313992   2.429   3.113  13.188  0.6876 -0.3403 -0.6421
    9TMC3    C413993   2.153   3.082  13.220  0.4389  0.1320  0.4163
    9TMC3    C513994   2.221   3.021  13.114 -0.0327 -0.2600  0.3101
    9TMC3    C613995   2.357   3.046  13.095 -0.5419 -0.1953 -0.1072
    9TMC3     C13996   2.176   3.225  13.416  0.7135 -0.0990  0.3573
    9TMC3     O13997   2.245   3.285  13.496  0.3715 -0.3145 -0.2419
    9TMC3     H13998   2.431   3.211  13.377  1.8787  0.7299 -0.5860
    9TMC3    H113999   2.055   3.046  13.249 -0.4074  3.5352  1.7311
    9TMC3    H214000   2.402   3.028  12.998 -0.1858 -1.7597  0.3440
    9TMC3    C714001   2.168   2.891  13.083  0.9726  0.1237  0.3084
    9TMC3    C814002   2.577   3.110  13.175 -0.3504  0.3783  0.5542
    9TMC3    O114003   2.046   2.873  13.090  0.1543 -0.2146 -0.1302
    9TMC3    O214004   2.644   3.183  13.240  0.5756  0.3195 -0.2280
   10MPD2     C14005   2.991   2.892  12.994 -0.4540  0.5722  0.1483
   10MPD2    C114006   2.882   2.805  12.981  0.0063  0.1258  0.0178
   10MPD2    C214007   2.760   2.847  13.018 -0.5096  0.1862  0.8541
   10MPD2    C314008   2.738   2.970  13.070 -0.5119 -0.1347 -0.0167
   10MPD2    C414009   2.843   3.055  13.081 -0.1406 -0.9377  0.1674
   10MPD2    C514010   2.969   3.021  13.040 -0.5828 -0.1890  0.0233
   10MPD2     H14011   2.678   2.778  13.000 -0.0770  0.2297 -1.2954
   10MPD2    H114012   2.832   3.156  13.118  1.4874 -0.7270  0.0788
   10MPD2    H214013   3.085   2.861  12.951 -0.8381 -2.3211  1.3841
   10MPD2    H314014   3.044   3.098  13.058 -2.5602  1.8803 -0.5189
   10MPD2     N14015   2.610   3.002  13.104 -0.6045  0.1682  0.5964
   10MPD2    H514016   2.533   2.944  13.070 -0.6829  0.0737  0.9329
   10MPD2    N114017   2.890   2.673  12.936 -0.2626 -0.0102  0.4421
   10MPD2    H714018   2.800   2.627  12.926 -1.3200  1.5406  2.8797
   11MPD2     C14019   3.844   1.786  14.405  0.9541  0.0973 -0.0307
   11MPD2    C114020   3.750   1.714  14.328 -0.3941  0.0678 -0.0597
   11MPD2    C214021   3.663   1.792  14.255 -0.1059 -0.8033  0.1225
   11MPD2    C314022   3.681   1.932  14.241  0.0939 -0.2098 -0.6417
   11MPD2    C414023   3.784   1.993  14.309  1.1170 -0.4113 -0.2318
   11MPD2    C514024   3.862   1.922  14.397  0.5739 -0.4092  0.3343
   11MPD2     H14025   3.570   1.753  14.216 -0.6119  0.3954  0.1282
   11MPD2    H114026   3.801   2.100  14.297  1.1859 -0.2926  0.9109
   11MPD2    H214027   3.903   1.723  14.471 -0.7939 -0.7176  0.7370
   11MPD2    H314028   3.944   1.973  14.446  2.0951 -1.1130 -1.4546
   11MPD2     N14029   3.597   2.014  14.162  0.2549 -0.2239 -0.4981
   11MPD2    H514030   3.634   2.107  14.149  1.9012 -1.0321 -1.6149
   11MPD2    N114031   3.741   1.574  14.329 -0.0947 -0.1401  0.4257
   11MPD2    H714032   3.667   1.537  14.271 -0.6023 -1.0547  1.6510
    1MPD1     C14033   1.691   3.058  16.983 -0.0430 -0.5407  0.0543
    1MPD1    C114034   1.571   3.031  16.925 -0.2113  0.2150 -0.3999
    1MPD1    C214035   1.568   3.045  16.785 -0.1419 -0.9838 -0.8401
    1MPD1    C314036   1.676   3.091  16.714  0.3332  0.0887 -0.2372
    1MPD1    C414037   1.791   3.106  16.781 -0.0946  0.2201 -0.1877
    1MPD1    C514038   1.806   3.086  16.915 -0.4458 -0.4427  0.2941
    1MPD1     H14039   1.477   3.020  16.732 -0.8270 -0.2703 -0.0042
    1MPD1    H114040   1.879   3.144  16.731  0.7818  0.6974  1.6946
    1MPD1    H214041   1.708   3.053  17.090  2.8381 -0.9453 -0.4442
    1MPD1    H314042   1.900   3.107  16.965 -0.6840  0.3021  0.4359
    1MPD1     N14043   1.677   3.120  16.578 -0.1662 -0.3800 -0.1124
    1MPD1    H514044   1.768   3.148  16.541 -2.0277  4.1556 -1.2472
    1MPD1    N114045   1.454   3.032  17.000 -0.0882  0.5593 -0.3624
    1MPD1    H614046   1.372   2.982  16.966  2.0758 -2.3019 -1.3314
    1MPD1    H714047   1.472   2.998  17.094  1.2043 -1.4861 -1.3645
    2MPD1     C14048   2.302   3.581  16.235 -0.1148 -0.8850 -0.3355
    2MPD1    C114049   2.295   3.460  16.306  0.5836 -0.7593 -0.3309
    2MPD1    C214050   2.172   3.393  16.324 -0.0654 -0.0528 -0.1930
    2MPD1    C314051   2.057   3.442  16.262  0.5867  0.2033  0.4385
    2MPD1    C414052   2.070   3.557  16.188  0.0733  0.5827  0.0403
    2MPD1    C514053   2.184   3.629  16.178  0.2983  0.8609  0.2081
    2MPD1     H14054   2.161   3.303  16.384  2.9526 -0.7238 -0.6438
    2MPD1    H114055   1.989   3.609  16.138 -1.3901 -1.4009  0.3307
    2MPD1    H214056   2.391   3.639  16.215 -0.7528  0.4472  0.6645
    2MPD1    H314057   2.179   3.728  16.135 -1.3824 -0.0318 -1.6287
    2MPD1     N14058   1.939   3.371  16.265 -0.0863 -0.2668 -0.3061
    2MPD1    H514059   1.938   3.286  16.321  1.2309 -1.1683 -1.6689
    2MPD1    N114060   2.415   3.421  16.366 -0.2749 -0.3161 -0.8832
    2MPD1    H614061   2.416   3.320  16.381  3.3539 -0.4710 -2.2567
    2MPD1    H714062   2.483   3.443  16.294  0.2922 -2.1027 -0.8957
    3TMC3    C114063   1.716   3.311  16.224 -0.2838  0.5215 -0.7936
    3TMC3    C214064   1.632   3.284  16.118 -0.4586  0.6819  0.1398
    3TMC3    C314065   1.542   3.184  16.132 -0.3272  0.6599 -0.0710
    3TMC3    C414066   1.718   3.240  16.339 -0.2507  0.0141 -0.4261
    3TMC3    C514067   1.626   3.131  16.352 -0.2109 -0.2599 -0.3809
    3TMC3    C614068   1.543   3.108  16.249 -0.6577 -0.5058  0.3319
    3TMC3     C14069   1.821   3.402  16.200  0.3798 -0.2374  0.0992
    3TMC3     O14070   1.798   3.496  16.125  0.2499  0.3188 -1.4735
    3TMC3     H14071   1.633   3.349  16.031  1.7253 -0.4016 -0.6493
    3TMC3    H114072   1.774   3.272  16.427 -0.2788  1.4543 -0.9299
    3TMC3    H214073   1.459   3.039  16.254 -2.4324  1.7778  2.0817
    3TMC3    C714074   1.577   3.089  16.486  0.7339  0.2704 -0.3493
    3TMC3    C814075   1.429   3.174  16.044  0.2306  0.6347 -0.5807
    3TMC3    O114076   1.470   3.037  16.502  0.3839  0.3355  0.0516
    3TMC3    O214077   1.312   3.147  16.082 -0.0531  0.8624 -0.1993
    4MPD1     C14078   1.263   3.268  15.556 -0.0024  0.2313  0.1737
    4MPD1    C114079   1.400   3.267  15.560 -0.0811  0.7050 -0.7154
    4MPD1    C214080   1.470   3.239  15.681  0.9965  0.1942 -0.4482
    4MPD1    C314081   1.399   3.216  15.795  0.5105 -0.1527 -0.7946
    4MPD1    C414082   1.257   3.203  15.782 -0.5871 -0.2998 -0.0261
    4MPD1    C514083   1.195   3.232  15.663  0.4532 -0.5253  0.0885
    4MPD1     H14084   1.574   3.269  15.682  0.3951  2.2408 -0.1746
    4MPD1    H114085   1.202   3.169  15.868 -0.3924 -1.6861 -0.4534
    4MPD1    H214086   1.201   3.293  15.471 -0.2568  1.7479  0.8021
    4MPD1    H314087   1.089   3.224  15.644  0.1319  0.0257  1.6613
    4MPD1     N14088   1.471   3.207  15.919 -0.2995 -0.1201  0.5010
    4MPD1    H514089   1.572   3.216  15.915 -0.7306  3.3019 -2.4010
    4MPD1    N114090   1.472   3.288  15.437 -0.4774 -0.2380 -0.2919
    4MPD1    H614091   1.559   3.336  15.456  0.3182 -0.7787 -2.5296
    4MPD1    H714092   1.411   3.345  15.378 -0.9851  2.4277  2.8145
    1TCq1    O114093   2.754   0.986  11.747 -0.2553 -0.1212 -0.6681
    1TCq1    C114094   2.623   1.013  11.730 -0.4022 -0.3424  0.9661
    1TCq1    O214095   2.553   1.090  11.794 -0.1783  0.2935 -0.0063
    1TCq1    C214096   2.599   0.970  11.586 -0.6925  0.0960 -0.6726
    1TCq1    C314097   2.594   1.075  11.497  0.8158  0.0261  1.1179
    1TCq1    C414098   2.640   1.054  11.371 -0.2019 -0.5792 -1.5179
    1TCq1    C514099   2.645   0.926  11.317  0.0512  0.4160 -0.4938
    1TCq1    C614100   2.663   0.831  11.417  0.2113  0.3310 -0.1564
    1TCq1    C714101   2.646   0.847  11.549  0.3920  0.0975 -1.0467
    1TCq1    C814102   2.713   0.701  11.381  0.0672 -0.2301  0.3086
    1TCq1    O414103   2.668   0.594  11.425  0.3138  0.5497 -0.1755
    1TCq1    C914104   2.615   1.166  11.289 -0.0605  0.2764  0.0503
    1TCq1    O514105   2.603   1.280  11.344  0.0389 -0.5529  0.1879
    1TCq1    O614106   2.632   1.149  11.169 -0.1898  0.2763 -0.0482
    1TCq1    H114107   2.800   0.933  11.678 -2.6113 -2.4614 -0.4417
    1TCq1    H214108   2.590   1.178  11.532 -1.0370  0.5568 -0.6548
    1TCq1    H314109   2.644   0.901  11.212  1.2448 -3.4974  0.4239
    1TCq1    H414110   2.661   0.764  11.617  0.4852  0.0679 -1.1036
    2MPD1     C14111   2.920   0.435  11.005 -0.3938  0.0473  0.1664
    2MPD1    C114112   2.925   0.566  10.966  0.8311 -0.2677  0.3656
    2MPD1    C214113   2.886   0.664  11.057 -0.6556 -0.4433  0.4306
    2MPD1    C314114   2.836   0.623  11.182  0.1468  0.0706  0.4373
    2MPD1    C414115   2.830   0.490  11.214  0.1456  0.1136 -0.2201
    2MPD1    C514116   2.869   0.397  11.126  0.2306  0.0027 -0.6517
    2MPD1     H14117   2.895   0.769  11.034  1.1089 -0.6382  0.2165
    2MPD1    H114118   2.812   0.454  11.315  1.1294 -0.0058 -0.0884
    2MPD1    H214119   2.948   0.352  10.942 -3.3553 -1.1983  0.5027
    2MPD1    H314120   2.867   0.290  11.139 -1.0043  0.0162 -0.7030
    2MPD1     N14121   2.780   0.723  11.263 -0.0303 -0.4022  0.3001
    2MPD1    H514122   2.788   0.820  11.235  1.2013  0.1316  2.4364
    2MPD1    N114123   3.008   0.597  10.855 -0.6911 -0.1158  0.4567
    2MPD1    H614124   2.972   0.683  10.814 -0.9620 -1.3046 -1.7918
    2MPD1    H714125   2.992   0.525  10.785  0.1733  0.1069  0.0279
    1TMC1    C114126   1.318   4.361   0.724  1.0869  0.3459 -0.2942
    1TMC1    C214127   1.274   4.470   0.654 -0.3989 -0.3845 -0.1107
    1TMC1    C314128   1.247   4.466   0.518  0.2009 -0.5193  0.1327
    1TMC1    C414129   1.324   4.244   0.656  0.4423 -0.2322  0.7477
    1TMC1    C514130   1.293   4.237   0.519 -0.3470  0.1481  0.3588
    1TMC1    C614131   1.252   4.349   0.448 -0.3938 -0.6542 -0.3431
    1TMC1     C14132   1.422   4.378   0.829  0.2381 -0.2486  0.1428
    1TMC1     O14133   1.512   4.293   0.826  0.1699 -1.3520 -0.0508
    1TMC1     H14134   1.287   4.569   0.697 -0.6712 -0.4663  0.1607
    1TMC1    H114135   1.361   4.163   0.717  1.6194 -0.5296 -0.3555
    1TMC1    H214136   1.212   4.327   0.349  1.4177  0.0496 -1.2173
    1TMC1    C714137   1.283   4.108   0.457 -0.6155  0.2124 -0.6816
    1TMC1    C814138   1.250   4.598   0.457 -0.5779  0.3149  0.5453
    1TMC1    O114139   1.215   4.088   0.357  0.3640 -0.2736  0.1987
    1TMC1    O214140   1.269   4.695   0.525  0.5036  0.3074 -0.1846
    1TMC1    O314141   1.396   4.037   0.485 -0.3628  0.3216  0.4730
    1TMC1    H314142   1.450   4.070   0.560  1.1695 -3.6686  1.1313
    1TMC1    O514143   1.159   4.582   0.354  0.2437 -0.1262  0.7218
    1TMC1    H514144   1.172   4.491   0.322 -0.1655  0.4053 -0.9346
    2MPD1     C14145   1.629   4.617   1.230  0.3269  0.2524 -0.2904
    2MPD1    C114146   1.505   4.671   1.200 -0.3116  0.3540  0.2091
    2MPD1    C214147   1.440   4.635   1.087  0.0265  0.0112 -0.0332
    2MPD1    C314148   1.487   4.540   1.000  0.6103  0.8287  0.1391
    2MPD1    C414149   1.600   4.471   1.040 -0.1749  0.1487  0.1260
    2MPD1    C514150   1.665   4.514   1.149 -0.7381  0.0790  0.9263
    2MPD1     H14151   1.358   4.698   1.056 -0.2852  0.1748  1.1225
    2MPD1    H114152   1.650   4.387   0.992 -1.1128  0.9548 -2.2522
    2MPD1    H214153   1.689   4.653   1.313  0.7287  0.3056 -0.6054
    2MPD1    H314154   1.745   4.454   1.188  0.0721  2.3059  2.6788
    2MPD1     N14155   1.402   4.489   0.898 -0.2613 -0.0413  0.4204
    2MPD1    H514156   1.312   4.535   0.881  0.4204  2.0000  2.3500
    2MPD1    N114157   1.461   0.053   1.265 -0.3976 -0.0369  0.1748
    2MPD1    H614158   1.492   0.062   1.362 -3.9429  1.9803  1.1054
    2MPD1    H714159   1.360   0.056   1.261 -0.2992  0.7458 -1.3475
    1MPD1     C14160   3.985   2.483  11.841 -0.3752 -0.1156  0.0552
    1MPD1    C114161   4.095   2.532  11.777  0.4632 -0.2158  1.0601
    1MPD1    C214162   4.124   2.660  11.798 -0.4560  0.3853 -0.7239
    1MPD1    C314163   4.046   2.739  11.888 -0.7005 -0.0374  0.6554
    1MPD1    C414164   3.926   2.694  11.942 -0.1206  0.2128  0.0405
    1MPD1    C514165   3.908   2.561  11.923 -0.0135 -0.3756 -0.0911
    1MPD1     H14166   4.205   2.700  11.737  2.0888 -0.2254  2.2725
    1MPD1    H114167   3.876   2.752  12.019  0.7553 -1.3606  1.7871
    1MPD1    H214168   3.946   2.384  11.821 -0.3854 -0.7558  3.1200
    1MPD1    H314169   3.818   2.517  11.966 -0.5658 -1.7417 -2.6724
    1MPD1     N14170   4.105   2.862  11.917  0.3065  0.3070  0.5211
    1MPD1    H514171   4.183   2.889  11.859  3.7368 -2.7340  3.7539
    1MPD1    N114172   4.166   2.455  11.678 -0.3729  0.4772  0.1604
    1MPD1    H614173   4.267   2.463  11.674 -0.2874 -0.7507 -0.1740
    1MPD1    H714174   4.154   2.354  11.683 -2.4263  0.6278 -1.5454
    2MPD1     C14175   3.614   3.577  11.555 -0.5717  0.0935 -0.3325
    2MPD1    C114176   3.529   3.472  11.583 -0.5702 -1.1010  0.2348
    2MPD1    C214177   3.561   3.342  11.536 -0.5676  0.7920  0.0407
    2MPD1    C314178   3.681   3.323  11.463 -0.0109  0.4603  0.7377
    2MPD1    C414179   3.766   3.432  11.444  1.1449 -0.3893 -0.7947
    2MPD1    C514180   3.734   3.559  11.491 -0.1793 -0.0611  0.6713
    2MPD1     H14181   3.501   3.255  11.561  1.6183 -0.9242 -0.6212
    2MPD1    H114182   3.860   3.426  11.390  2.1161  0.5107  0.7608
    2MPD1    H214183   3.589   3.674  11.596  1.2944  0.9646 -1.2802
    2MPD1    H314184   3.810   3.635  11.474 -1.5266  1.3342  0.9295
    2MPD1     N14185   3.732   3.209  11.406  0.8753 -0.1596 -0.0244
    2MPD1    H514186   3.808   3.228  11.342  1.4217 -1.8369  0.1239
    2MPD1    N114187   3.438   3.488  11.690 -0.0515  0.2826 -0.5070
    2MPD1    H614188   3.351   3.436  11.678  0.9491 -0.9761 -2.4797
    2MPD1    H714189   3.396   3.580  11.685 -2.1402 -0.6013  1.2450
    3MPD1     C14190   3.274   2.418  10.941 -0.6053 -0.9230 -0.1698
    3MPD1    C114191   3.225   2.537  10.999 -0.0359  0.1043  0.4899
    3MPD1    C214192   3.311   2.607  11.083 -0.2718  0.4069 -0.4204
    3MPD1    C314193   3.441   2.571  11.099 -0.3995  0.7021  0.1789
    3MPD1    C414194   3.488   2.458  11.036 -0.1059 -0.0877  0.0875
    3MPD1    C514195   3.407   2.382  10.959  0.6377 -0.1597  0.3099
    3MPD1     H14196   3.283   2.688  11.149 -0.0864  0.3284 -0.2438
    3MPD1    H114197   3.591   2.424  11.030 -0.6430 -1.7400  0.3985
    3MPD1    H214198   3.204   2.351  10.892 -1.9682  0.6135 -0.3275
    3MPD1    H314199   3.442   2.298  10.900  0.1270 -0.9260  1.0950
    3MPD1     N14200   3.525   2.658  11.171 -0.4933  0.9225 -0.0070
    3MPD1    H514201   3.476   2.738  11.210 -2.5042  0.1243 -0.9036
    3MPD1    N114202   3.092   2.571  10.999 -0.2003  0.2061 -0.3957
    3MPD1    H614203   3.089   2.672  11.007 -1.8074  0.0688  0.7272
    3MPD1    H714204   3.041   2.547  10.914 -1.2637 -1.0061  0.5788
    4MPD2     C14205   4.148   3.446  11.498  0.2616  0.0615  0.6429
    4MPD2    C114206   4.238   3.367  11.567  0.3603 -1.5756  0.3991
    4MPD2    C214207   4.364   3.357  11.507 -0.5790 -0.0188 -0.8604
    4MPD2    C314208   4.395   3.410  11.381 -0.4976  0.5098  0.0069
    4MPD2    C414209   4.295   3.475  11.313  0.6722 -0.2421  0.0771
    4MPD2    C514210   4.179   3.494  11.376  0.0315  0.0974 -0.4286
    4MPD2     H14211   4.440   3.313  11.570 -0.7651  3.3368  1.7071
    4MPD2    H114212   4.310   3.513  11.213 -1.0237 -0.6538 -0.3372
    4MPD2    H214213   4.050   3.467  11.540 -0.4987  0.9268 -1.5336
    4MPD2    H314214   4.099   3.539  11.319  0.0690 -1.3267 -1.6088
    4MPD2     N14215   4.524   3.372  11.320  0.3743 -0.6611  0.5081
    4MPD2    H514216   4.539   3.400  11.224  0.5012 -2.0282  0.1249
    4MPD2    N114217   4.214   3.321  11.697 -0.1967  0.8145  0.6656
    4MPD2    H714218   4.293   3.275  11.742  1.6525  1.9476 -1.4205
    5TMC3    C114219   4.143   3.287  11.903  0.1020  0.5630  0.2053
    5TMC3    C214220   4.055   3.191  11.953  0.3098 -0.2454  0.0280
    5TMC3    C314221   4.120   3.075  11.985  0.0045  0.3120 -0.3694
    5TMC3    C414222   4.278   3.283  11.930 -0.4920  0.4763 -0.9225
    5TMC3    C514223   4.335   3.164  11.973 -0.1444  0.8338 -0.0995
    5TMC3    C614224   4.256   3.051  12.001 -0.0554  0.6503 -0.9141
    5TMC3     C14225   4.108   3.346  11.782  0.3490  0.1469  0.2380
    5TMC3     O14226   3.995   3.385  11.757  0.6921 -0.1365 -0.1623
    5TMC3     H14227   3.949   3.198  11.931  0.1288 -0.6576  0.7507
    5TMC3    H114228   4.348   3.362  11.907  1.5827 -0.1297  3.2525
    5TMC3    H214229   4.300   2.957  12.031 -0.0927  0.9232 -0.0027
    5TMC3    C714230   4.440   3.133  11.884 -0.6926 -0.6416 -0.8974
    5TMC3    C814231   4.044   2.966  11.983  0.4516  0.3123 -0.1216
    5TMC3    O114232   4.458   3.211  11.788 -0.4021 -0.7775  0.1858
    5TMC3    O214233   3.937   2.970  12.042 -1.0678 -0.5002 -0.0782
    6TMC3    C114234   3.729   2.975  11.334  0.0163  0.0901  0.6815
    6TMC3    C214235   3.660   2.855  11.326  0.3848 -0.1077  0.4482
    6TMC3    C314236   3.729   2.745  11.278  0.1726 -0.4692  0.3288
    6TMC3    C414237   3.867   2.975  11.328  0.0143  0.9171  0.5820
    6TMC3    C514238   3.926   2.862  11.287 -0.1538  0.1852  0.1846
    6TMC3    C614239   3.863   2.746  11.254  0.2685  0.5780 -0.1068
    6TMC3     C14240   3.657   3.089  11.398 -0.0928 -0.7102  0.7761
    6TMC3     O14241   3.542   3.065  11.436 -0.2979  0.2037  0.5777
    6TMC3     H14242   3.552   2.851  11.334  0.5431 -1.6742  1.9496
    6TMC3    H114243   3.921   3.066  11.353 -0.1883  0.9913  0.7473
    6TMC3    H214244   3.920   2.676  11.194  0.1486 -0.1031  0.5754
    6TMC3    C714245   4.072   2.869  11.269  0.0466 -0.4755 -0.1483
    6TMC3    C814246   3.661   2.639  11.197  0.2030  0.1478 -0.0951
    6TMC3    O114247   4.121   2.981  11.234  0.1598  0.1458  0.6325
    6TMC3    O214248   3.732   2.557  11.147 -0.2436 -0.1669 -0.1683
    7MPD2     C14249   0.080   2.834  11.666  0.1811 -0.5128  0.1223
    7MPD2    C114250   0.035   2.965  11.639  0.6742 -0.0368  0.0893
    7MPD2    C214251   4.668   3.024  11.716  0.1891  0.1944 -0.0900
    7MPD2    C314252   4.608   2.961  11.822  0.3786  0.0816  0.3517
    7MPD2    C414253   4.660   2.833  11.850  0.2360 -0.4872 -0.2461
    7MPD2    C514254   0.024   2.772  11.774 -0.4774 -0.1844 -0.5997
    7MPD2     H14255   4.630   3.119  11.682  0.2625  0.9048  1.7750
    7MPD2    H114256   4.619   2.783  11.937  0.5632  2.9199  1.8743
    7MPD2    H214257   0.166   2.791  11.616  1.6708  1.8892  0.5851
    7MPD2    H314258   0.059   2.677  11.814  0.1131  0.6629  0.8903
    7MPD2     N14259   4.510   3.014  11.908  0.7569  0.6675  0.2495
    7MPD2    H514260   4.494   2.956  11.989  1.0723 -0.1043 -0.2365
    7MPD2    N114261   0.083   3.044  11.532  0.3936 -0.0015 -0.7964
    7MPD2    H714262   0.032   3.131  11.519 -0.8727 -0.7235 -0.7280
    8TMC3    C114263   0.148   3.101  11.322 -0.7871  1.2635 -0.4160
    8TMC3    C214264   0.082   3.023  11.232 -0.1006 -0.1422  0.5301
    8TMC3    C314265   4.712   3.079  11.167 -0.0088 -0.9997  0.1309
    8TMC3    C414266   0.105   3.225  11.356 -0.4892 -0.4090 -0.0254
    8TMC3    C514267   4.734   3.273  11.295 -0.5810  0.0480  0.6550
    8TMC3    C614268   4.676   3.207  11.188 -0.1055  0.2573  0.0022
    8TMC3     C14269   0.178   3.019  11.436 -0.2257  0.1719  0.6408
    8TMC3     O14270   0.253   2.924  11.425  0.0842 -0.0769 -0.1361
    8TMC3     H14271   0.108   2.918  11.237 -2.9854 -0.9370 -0.8498
    8TMC3    H114272   0.157   3.282  11.432  0.2475  0.3730 -1.1270
    8TMC3    H214273   4.600   3.255  11.127 -0.5130 -1.9869 -1.2464
    8TMC3    C714274   4.634   3.320  11.386  0.4639 -0.5676  0.3912
    8TMC3    C814275   4.596   2.999  11.187 -0.4319  0.1503  0.4085
    8TMC3    O114276   4.653   3.298  11.506  0.3531 -0.5898 -0.3267
    8TMC3    O214277   4.502   3.015  11.115 -0.1604  0.4590 -0.5103
    9MPD2     C14278   4.534   2.732  11.429 -0.0804 -0.0278  0.8481
    9MPD2    C114279   4.499   2.824  11.333  0.7374 -0.8878 -0.1195
    9MPD2    C214280   4.369   2.832  11.287 -1.0460 -0.3624 -0.5129
    9MPD2    C314281   4.281   2.743  11.340 -0.3147  0.4588 -0.0859
    9MPD2    C414282   4.324   2.638  11.418 -0.2213  0.7169 -0.7014
    9MPD2    C514283   4.448   2.634  11.470 -0.1917  0.4799  0.0357
    9MPD2     H14284   4.335   2.906  11.216 -2.6274 -1.7772 -1.2332
    9MPD2    H114285   4.251   2.569  11.459 -0.2332  1.2684  0.2179
    9MPD2    H214286   4.637   2.732  11.464 -0.0906  0.1524  0.8804
    9MPD2    H314287   4.474   2.576  11.557  0.3883  4.7475  2.7292
    9MPD2     N14288   4.139   2.758  11.327 -0.9033 -0.0296 -0.8223
    9MPD2    H514289   4.080   2.702  11.386  0.5633 -1.2863 -0.5580
    9MPD2    N114290   4.607   2.906  11.290 -0.5429 -0.4134  0.2228
    9MPD2    H714291   4.691   2.892  11.346 -1.4745 -1.6416  1.3332
    1MPD1     C14292   0.556   2.042  16.260  0.1303 -0.3318 -0.9762
    1MPD1    C114293   0.667   1.970  16.291 -0.1735 -0.4285  0.4837
    1MPD1    C214294   0.690   1.952  16.427 -0.0251 -0.5624  0.0187
    1MPD1    C314295   0.609   1.998  16.527 -0.2234  0.4021  0.1834
    1MPD1    C414296   0.493   2.063  16.492 -0.1684  0.2668 -0.5004
    1MPD1    C514297   0.471   2.087  16.358  0.1276 -0.1553 -0.4647
    1MPD1     H14298   0.788   1.909  16.443 -0.0511  0.6694  3.3751
    1MPD1    H114299   0.429   2.113  16.564 -1.2321  3.0477 -3.3743
    1MPD1    H214300   0.536   2.068  16.157 -1.7365 -1.0310 -0.7804
    1MPD1    H314301   0.394   2.159  16.331 -0.2074 -0.5588 -0.5906
    1MPD1     N14302   0.639   1.993  16.663  0.0748  0.6327  0.3048
    1MPD1    H514303   0.567   2.018  16.729 -2.8218  1.1602 -3.0542
    1MPD1    N114304   0.760   1.937  16.191  0.1558 -0.2490  0.4500
    1MPD1    H614305   0.719   1.902  16.105  2.3558 -1.4190 -0.1225
    1MPD1    H714306   0.816   1.860  16.226 -1.4280 -0.7533  1.8159
    2TMC2    C114307   0.705   2.099  17.045  0.7560 -0.1854  0.2936
    2TMC2    C214308   0.800   2.040  17.120 -0.4232  0.5251 -0.2312
    2TMC2    C314309   0.892   1.968  17.056 -0.4621  0.3132 -0.2853
    2TMC2    C414310   0.692   2.084  16.912  0.2091 -0.2558 -0.4269
    2TMC2    C514311   0.784   1.991  16.854  0.0547  0.2097  0.2618
    2TMC2    C614312   0.894   1.938  16.918 -0.6868  0.6265  0.4458
    2TMC2     C14313   0.623   2.216  17.096  0.1435  0.6337 -0.1657
    2TMC2     O14314   0.577   2.304  17.022 -0.2267 -0.1571  0.2690
    2TMC2     H14315   0.806   2.051  17.228  1.1026 -1.7553 -0.0902
    2TMC2    H114316   0.612   2.126  16.852 -2.2097 -3.2133  0.7264
    2TMC2    H214317   0.979   1.890  16.872 -1.3006  0.6701 -0.7188
    2TMC2    C714318   0.766   1.950  16.714 -0.3925 -0.0669  0.2901
    2TMC2    C814319   0.989   1.900  17.136 -0.1192  0.4444  0.3965
    2TMC2    O114320   0.860   1.901  16.655  0.6447 -0.5766 -0.4535
    2TMC2    O214321   1.026   1.785  17.121 -0.5032 -0.2163  0.2254
    2TMC2    O514322   1.036   1.991  17.225 -0.7131  0.0043 -0.6200
    2TMC2    H514323   1.031   2.086  17.200 -3.8525 -0.3448 -1.3927
    3MPD1     C14324   0.320   2.441  17.446 -0.0324 -0.0838 -0.7893
    3MPD1    C114325   0.428   2.385  17.508 -0.2230 -0.6000 -0.1482
    3MPD1    C214326   0.536   2.333  17.431 -0.4049  0.0926 -0.5790
    3MPD1    C314327   0.526   2.318  17.295  0.5690  0.1282 -0.1112
    3MPD1    C414328   0.411   2.370  17.233  0.1611 -0.1625 -0.2515
    3MPD1    C514329   0.315   2.441  17.309  0.0983  0.2632 -0.0457
    3MPD1     H14330   0.620   2.285  17.480  0.4552  1.6895 -0.4846
    3MPD1    H114331   0.393   2.359  17.127  0.5724 -0.4075 -0.2990
    3MPD1    H214332   0.253   2.492  17.514  0.2559 -1.8241  0.7843
    3MPD1    H314333   0.233   2.483  17.252 -0.4245 -0.1497  0.3991
    3MPD1     N14334   0.610   2.225  17.229  0.0641  0.4802  0.2272
    3MPD1    H514335   0.663   2.159  17.285 -2.9175 -1.1277  1.1407
    3MPD1    N114336   0.435   2.403  17.649  1.3322 -0.4625  0.0340
    3MPD1    H614337   0.492   2.337  17.702  1.2754 -2.6838 -2.6544
    3MPD1    H714338   0.342   2.413  17.690  1.4910  2.6574 -0.3363
    1TMC1    C114339   2.095   1.033  13.152 -0.4748  0.3775 -0.2782
    1TMC1    C214340   2.004   1.092  13.068 -0.0786  0.4665  0.0426
    1TMC1    C314341   1.871   1.053  13.070 -0.7007  1.3253  0.7609
    1TMC1    C414342   2.051   0.941  13.244 -0.7254 -0.0652 -0.0981
    1TMC1    C514343   1.914   0.930  13.263 -0.1032 -0.1340 -0.3420
    1TMC1    C614344   1.830   0.977  13.175 -0.0286  0.2927 -0.2296
    1TMC1     C14345   2.228   1.090  13.170  0.2104  0.3093  1.0063
    1TMC1     O14346   2.251   1.176  13.086 -0.3534  0.3465  0.2104
    1TMC1     H14347   2.041   1.151  12.985 -0.5792 -0.3492 -0.7680
    1TMC1    H114348   2.118   0.879  13.302 -1.8729 -2.2070 -1.0742
    1TMC1    H214349   1.731   0.933  13.174 -0.3727  1.0138  1.3275
    1TMC1    C714350   1.870   0.809  13.323 -0.0836  0.6482 -0.2108
    1TMC1    C814351   1.823   0.991  12.948 -0.1277  0.6107 -0.0442
    1TMC1    O114352   1.769   0.816  13.393  0.4528 -0.0568 -0.3061
    1TMC1    O214353   1.793   0.871  12.933  0.5924 -0.0149  0.4013
    1TMC1    O314354   1.916   0.711  13.243 -0.2021  0.0040  0.3542
    1TMC1    H314355   1.980   0.741  13.176 -0.9783 -0.2843 -0.5228
    1TMC1    O514356   1.789   1.095  12.861 -0.3363 -0.2256  0.8631
    1TMC1    H514357   1.813   1.186  12.888  3.5182 -0.8253 -0.5580
    2MPD2     C14358   2.486   1.210  13.236  0.3440 -0.7537 -0.0201
    2MPD2    C114359   2.420   1.116  13.315 -0.2229  0.6987 -0.6979
    2MPD2    C214360   2.482   1.093  13.443 -0.5445  0.1602  0.1032
    2MPD2    C314361   2.604   1.141  13.471 -0.7746 -1.2757  0.1256
    2MPD2    C414362   2.670   1.225  13.384 -0.6770 -0.8784 -0.2629
    2MPD2    C514363   2.602   1.266  13.270 -0.4230 -0.0434  0.5209
    2MPD2     H14364   2.427   1.028  13.510  0.4170 -0.7156  0.0470
    2MPD2    H114365   2.768   1.270  13.390 -1.2681  0.2090  1.1624
    2MPD2    H214366   2.444   1.249  13.144 -0.0145  0.6556  0.7328
    2MPD2    H314367   2.648   1.345  13.213 -0.9436 -0.4533 -0.4620
    2MPD2     N14368   2.664   1.101  13.589 -0.4839 -0.0418 -0.2001
    2MPD2    H514369   2.603   1.060  13.659 -1.2942  0.7846 -0.4207
    2MPD2    N114370   2.296   1.058  13.283 -0.4380 -0.5290  0.2954
    2MPD2    H714371   2.252   0.992  13.345 -1.7999  0.2476  0.1676
    3TCq1    O114372   2.713   1.028  14.161  0.3617  0.6622 -0.3075
    3TCq1    C114373   2.626   1.007  14.057  0.0397  0.1077  0.6710
    3TCq1    O214374   2.511   1.052  14.047  0.1790  0.5992  0.1880
    3TCq1    C214375   2.724   0.978  13.954  0.1878 -0.3727 -0.0706
    3TCq1    C314376   2.840   0.922  13.978  0.5808  0.6735  0.6407
    3TCq1    C414377   2.948   0.926  13.895 -0.3248 -0.5120 -1.2254
    3TCq1    C514378   2.937   0.998  13.788 -0.2269  0.0163  0.2352
    3TCq1    C614379   2.816   1.062  13.760  0.1948  0.2841 -0.6278
    3TCq1    C714380   2.702   1.040  13.836  0.3531  0.0383  1.0256
    3TCq1    C814381   2.796   1.117  13.629  0.1871 -1.1267  1.0814
    3TCq1    O414382   2.892   1.137  13.560  0.3762 -0.3755  0.2282
    3TCq1    C914383   3.074   0.855  13.922 -0.7498 -0.8417 -0.4969
    3TCq1    O514384   3.109   0.828  14.042 -0.1980 -0.0502 -0.7262
    3TCq1    O614385   3.139   0.817  13.822 -0.2402  0.0306  0.2599
    3TCq1    H114386   2.807   1.018  14.135  0.1686  1.3042 -1.2567
    3TCq1    H214387   2.851   0.859  14.065 -0.9711 -0.2501  0.1598
    3TCq1    H314388   3.025   1.019  13.729  0.5154 -2.3015  0.5274
    3TCq1    H414389   2.601   1.078  13.821  0.5501 -0.4005 -1.4528
    1MPD2     C14390   1.920   2.228  14.917 -0.4080 -0.5948  0.3966
    1MPD2    C114391   1.922   2.191  14.786 -0.2961  0.3932  0.4757
    1MPD2    C214392   2.012   2.090  14.753  0.8874  0.1634 -0.1934
    1MPD2    C314393   2.111   2.041  14.846  0.2729 -0.3608  0.1683
    1MPD2    C414394   2.098   2.067  14.977  0.1286 -0.3944  0.3920
    1MPD2    C514395   2.003   2.163  15.009  0.1613 -0.2169  0.0150
    1MPD2     H14396   2.023   2.060  14.649  1.8632  0.7956 -0.2802
    1MPD2    H114397   2.154   2.014  15.053 -0.8133 -1.8087  0.0850
    1MPD2    H214398   1.853   2.300  14.964  0.3443 -0.2787  0.9774
    1MPD2    H314399   1.989   2.191  15.112  0.7435 -0.3011  0.1172
    1MPD2     N14400   2.208   1.959  14.792 -0.0878 -0.5977 -0.3820
    1MPD2    H514401   2.199   1.929  14.695  0.3178 -0.9027 -0.3243
    1MPD2    N114402   1.820   2.242  14.700 -0.0591  0.3113  0.7912
    1MPD2    H714403   1.768   2.324  14.732  0.3013  0.7862  0.1667
    2TMC3    C114404   1.720   2.293  14.488 -0.0271 -0.2487  0.2649
    2TMC3    C214405   1.674   2.212  14.388 -0.0883 -0.4520 -0.0428
    2TMC3    C314406   1.687   2.269  14.265  0.4720 -0.7022  0.6053
    2TMC3    C414407   1.753   2.423  14.479  1.0831  0.3572 -0.4044
    2TMC3    C514408   1.733   2.475  14.351 -0.1756  0.0919 -0.3443
    2TMC3    C614409   1.694   2.402  14.243  0.6470 -0.7838  0.0734
    2TMC3     C14410   1.805   2.207  14.567 -0.2857 -0.0811 -0.0692
    2TMC3     O14411   1.855   2.107  14.510 -0.2974  0.1815 -0.2301
    2TMC3     H14412   1.644   2.108  14.393 -1.8226  0.0706  0.5909
    2TMC3    H114413   1.782   2.491  14.559  1.8729  1.3198 -1.5066
    2TMC3    H214414   1.686   2.447  14.145  2.6616 -3.0051 -1.1141
    2TMC3    C714415   1.761   2.612  14.335  0.1486  0.1346 -0.3109
    2TMC3    C814416   1.760   2.198  14.166  0.0553  0.1900 -0.4604
    2TMC3    O114417   1.709   2.654  14.233  0.0154 -0.5258 -0.2193
    2TMC3    O214418   1.750   2.232  14.050  0.0364  0.4739  0.3516
    3TCq1    O114419   2.638   3.330  14.945  0.2933 -0.2171 -0.8970
    3TCq1    C114420   2.582   3.295  14.830  0.5536 -0.0990  0.7244
    3TCq1    O214421   2.624   3.298  14.718  0.1013 -0.8794  0.3719
    3TCq1    C214422   2.458   3.227  14.865  0.5021  0.6164 -0.0965
    3TCq1    C314423   2.468   3.115  14.948 -0.6338  0.3758  0.8927
    3TCq1    C414424   2.395   3.008  14.916  0.4246 -0.3822  0.0845
    3TCq1    C514425   2.301   3.010  14.818  0.3261  0.2873  0.2073
    3TCq1    C614426   2.292   3.118  14.739  0.4582  0.7459  0.5765
    3TCq1    C714427   2.374   3.226  14.759 -0.4521  0.3874  0.4097
    3TCq1    C814428   2.196   3.122  14.627 -0.0342  0.2812 -0.0099
    3TCq1    O414429   2.152   3.231  14.589  0.1774  0.4704  0.5204
    3TCq1    C914430   2.413   2.894  14.997  0.3293  0.3200  0.3761
    3TCq1    O514431   2.490   2.903  15.097 -0.1080  0.2717 -0.0259
    3TCq1    O614432   2.353   2.784  14.968 -0.8436 -0.1581 -0.2507
    3TCq1    H114433   2.573   3.347  15.016 -1.0679 -1.6192 -1.7973
    3TCq1    H214434   2.545   3.098  15.023 -0.3071 -0.1578  0.4365
    3TCq1    H314435   2.235   2.924  14.811  2.5375 -1.1414 -2.8205
    3TCq1    H414436   2.369   3.305  14.685  1.7028 -0.7327 -0.9410
    4MPD2     C14437   1.970   3.070  14.429  0.6414 -0.0982 -0.4060
    4MPD2    C114438   2.047   2.974  14.496  0.1981  0.3092  0.2749
    4MPD2    C214439   2.000   2.839  14.495  1.0798  0.4321 -0.0557
    4MPD2    C314440   1.885   2.803  14.427 -0.1885  0.1035 -0.0551
    4MPD2    C414441   1.804   2.899  14.374  0.5567 -0.0146 -0.2930
    4MPD2    C514442   1.848   3.029  14.374  0.7430  1.4548  0.1644
    4MPD2     H14443   2.056   2.764  14.550 -0.2198 -1.0827 -0.8284
    4MPD2    H114444   1.713   2.877  14.319  0.2859 -2.5837  1.1542
    4MPD2    H214445   1.997   3.175  14.432  1.0261 -0.1720 -1.2390
    4MPD2    H314446   1.782   3.100  14.326 -0.3628 -0.5364 -1.1987
    4MPD2     N14447   1.849   2.666  14.419  0.0505 -0.7423 -0.4226
    4MPD2    H514448   1.892   2.600  14.482  0.5847  0.5683  0.5943
    4MPD2    N114449   2.160   2.997  14.575 -0.0155 -0.6659  0.5011
    4MPD2    H714450   2.202   2.917  14.622  2.5656  0.0249 -0.6257
    5TMC2    C114451   2.359   1.829  14.501  0.0772 -0.8747 -0.1703
    5TMC2    C214452   2.471   1.900  14.472  0.3741  0.5197  0.2287
    5TMC2    C314453   2.560   1.936  14.572  0.5156  1.1301  0.7038
    5TMC2    C414454   2.332   1.810  14.633 -0.1956 -0.5180  0.7679
    5TMC2    C514455   2.407   1.858  14.736 -0.4380 -0.5422  0.3575
    5TMC2    C614456   2.522   1.924  14.703 -0.4657 -0.7476  0.2374
    5TMC2     C14457   2.234   1.858  14.434  0.3969  0.1349  0.9038
    5TMC2     O14458   2.147   1.891  14.515  0.1702  0.0203  0.4889
    5TMC2     H14459   2.500   1.922  14.370 -1.8408 -2.3048 -0.9847
    5TMC2    H114460   2.247   1.746  14.649 -0.2979 -0.8874 -1.3294
    5TMC2    H214461   2.589   1.966  14.778  3.5244 -3.2680 -1.9069
    5TMC2    C714462   2.335   1.928  14.842 -0.4455  0.3062 -0.0485
    5TMC2    C814463   2.669   2.020  14.547  0.0943 -0.1351 -0.1551
    5TMC2    O114464   2.388   1.989  14.936 -0.4245 -0.4133  0.5127
    5TMC2    O214465   2.760   2.042  14.631 -0.0480  0.4470  0.3900
    5TMC2    O514466   2.668   2.074  14.424  0.2957 -0.4573  0.1430
    5TMC2    H514467   2.594   2.049  14.365  1.7068  1.4883 -2.4398
    6MPD2     C14468   1.950   2.014  14.025 -0.3471 -0.3052  0.1055
    6MPD2    C114469   1.934   2.021  14.160 -0.3037  0.7319 -0.1041
    6MPD2    C214470   2.022   1.964  14.250  0.4633 -0.0520  0.2366
    6MPD2    C314471   2.133   1.901  14.202 -0.2823 -0.1343  0.4670
    6MPD2    C414472   2.148   1.883  14.071  0.0999 -0.3966  0.4327
    6MPD2    C514473   2.060   1.943  13.983 -0.3983 -0.2085 -0.2036
    6MPD2     H14474   2.017   1.984  14.356 -1.5212  1.9960 -0.2281
    6MPD2    H114475   2.234   1.831  14.029  0.3296 -0.4581  0.9824
    6MPD2    H214476   1.887   2.057  13.948 -0.2671 -0.0059  0.2059
    6MPD2    H314477   2.082   1.937  13.877 -0.5291  2.5772 -0.3795
    6MPD2     N14478   2.235   1.858  14.293  1.0506  0.2404 -0.2438
    6MPD2    H514479   2.320   1.825  14.248 -0.0529 -0.6825 -1.6613
    6MPD2    N114480   1.832   2.095  14.222  0.0577  0.0929  0.2305
    6MPD2    H714481   1.835   2.092  14.323  0.2145  0.2134  0.2293
  945NH3     N114482   3.770   0.258   1.690  0.3244 -0.3697  0.2483
  945NH3     H214483   3.711   0.235   1.769  0.8183  3.1949  1.6281
  945NH3     H314484   3.749   0.357   1.680 -4.1593 -1.4214 -0.9770
  945NH3     H414485   3.731   0.222   1.604  0.2559 -0.9407  0.5192
  946SOD     NA14486   2.506   2.677  15.083 -0.0420 -0.1443  0.4234
  947SOD     NA14487   1.373   0.162   9.644  0.0427 -0.3539  0.3557
  948SOD     NA14488   0.832   1.622   8.785  0.3483 -0.1121  0.0837
  949SOD     NA14489   3.250   0.361   3.988  0.2988 -0.1146  0.2785
  950SOD     NA14490   3.898   4.586  11.727  0.5254  0.0955 -0.2482
  951SOD     NA14491   4.096   2.831   2.751  0.5762 -0.3296  0.4499
  952SOD     NA14492   3.234   0.724  14.183 -0.1416  0.1528  0.2404
  953SOD     NA14493   3.372   0.131  17.325  0.5570 -0.2022  0.2879
  954SOL     OW14494   3.792   0.468   5.574 -0.7279 -0.3413 -0.4149
  954SOL    HW114495   3.861   0.489   5.638  0.6797  0.4734 -2.1826
  954SOL    HW214496   3.741   0.549   5.570 -0.2039 -0.0258 -0.7895
  955SOL     OW14497   3.527   1.617   2.724 -0.6105  0.6648 -0.4446
  955SOL    HW114498   3.502   1.567   2.646  0.4059 -2.0926  1.0104
  955SOL    HW214499   3.587   1.682   2.686 -0.3822  0.7583  0.0747
  956SOL     OW14500   4.173   2.890   8.939  0.3868  0.3144  0.1926
  956SOL    HW114501   4.186   2.982   8.917 -0.3377  0.8848  2.1293
  956SOL    HW214502   4.251   2.870   8.992 -0.9810 -0.6439  1.8420
  957SOL     OW14503   2.129   4.340   5.285  0.0891 -0.3650 -0.0358
  957SOL    HW114504   2.166   4.394   5.215 -0.6342  0.2021  0.0229
  957SOL    HW214505   2.048   4.386   5.309 -1.3284 -3.0306  0.3252
  958SOL     OW14506   2.171   2.867   9.488 -0.2016 -0.4910  0.1629
  958SOL    HW114507   2.165   2.930   9.560 -1.6420  0.2556 -0.6144
  958SOL    HW214508   2.137   2.785   9.525 -1.4469  0.0490  0.2060
  959SOL     OW14509   2.233   0.686   2.094  0.0582  0.7449  0.5696
  959SOL    HW114510   2.167   0.749   2.122 -0.9666 -0.2465  0.3464
  959SOL    HW214511   2.309   0.744   2.087  0.6337  0.3195  3.1443
  960SOL     OW14512   1.119   3.448   9.406 -0.7409 -0.0874  0.0406
  960SOL    HW114513   1.083   3.477   9.322  0.4842  0.1484 -0.4085
  960SOL    HW214514   1.146   3.530   9.447 -1.8033 -1.4090  3.3744
  961SOL     OW14515   1.731   4.388   5.761  0.0512  0.5158  0.7016
  961SOL    HW114516   1.801   4.342   5.715  1.0212  1.7940  0.8948
  961SOL    HW214517   1.664   4.331   5.725 -1.4378  2.4691  0.3669
  962SOL     OW14518   4.137   4.386   2.849  0.1501 -0.0045 -0.6489
  962SOL    HW114519   4.183   4.303   2.845 -0.6892 -0.4561 -0.9718
  962SOL    HW214520   4.190   4.432   2.784 -0.0579  2.7652  1.1443
  963SOL     OW14521   4.415   2.932   7.846 -0.2706 -0.1585  0.2542
  963SOL    HW114522   4.327   2.927   7.809  0.1852 -2.2534 -0.5625
  963SOL    HW214523   4.465   2.907   7.768  2.9299 -0.7293  2.5081
  964SOL     OW14524   2.398   2.427  10.167  0.4799  0.0506 -0.2270
  964SOL    HW114525   2.314   2.416  10.122  1.1389 -2.5467 -0.8763
  964SOL    HW214526   2.396   2.518  10.196 -0.9714  0.4594 -1.5707
  965SOL     OW14527   4.164   1.371   6.724  0.2288 -0.0806 -0.9850
  965SOL    HW114528   4.207   1.455   6.705  0.2628  0.3274  0.9044
  965SOL    HW214529   4.152   1.371   6.819 -0.6294  0.0627 -1.0921
  966SOL     OW14530   1.094   0.115   5.080 -0.2224  0.2349  0.0427
  966SOL    HW114531   1.092   0.031   5.032  3.3813 -1.1709  2.3502
  966SOL    HW214532   1.078   0.094   5.172  1.1020 -0.4887  0.1136
  967SOL     OW14533   1.125   3.051  12.115 -0.0545 -0.3475 -0.5497
  967SOL    HW114534   1.095   3.134  12.154 -2.4897 -0.9106 -1.2377
  967SOL    HW214535   1.071   3.049  12.036  0.1020 -0.4017 -0.6551
  968SOL     OW14536   3.630   3.798   8.633 -0.1481  0.5193 -0.1771
  968SOL    HW114537   3.693   3.871   8.635 -0.1526  0.5253 -0.2556
  968SOL    HW214538   3.589   3.805   8.719 -1.4551  3.5322 -1.0548
  969SOL     OW14539   4.215   4.095   7.271 -0.3694  0.0122 -0.3013
  969SOL    HW114540   4.215   4.123   7.362 -0.2119 -1.9042  0.2829
  969SOL    HW214541   4.178   4.172   7.227 -2.3645 -0.9690 -0.3642
  970SOL     OW14542   1.822   2.569   5.472 -0.6884  0.5725 -0.0977
  970SOL    HW114543   1.732   2.598   5.456 -0.7963  0.7123  0.7452
  970SOL    HW214544   1.831   2.486   5.425  2.1671 -0.9877  3.2650
  971SOL     OW14545   0.460   3.416  17.608 -0.0460 -0.3902  0.1635
  971SOL    HW114546   0.481   3.425  17.515 -0.0254 -1.1722  0.0948
  971SOL    HW214547   0.537   3.450  17.654 -0.3799 -0.6429  0.9173
  972SOL     OW14548   0.455   0.318  15.753  0.2612  0.1873 -0.2056
  972SOL    HW114549   0.539   0.274  15.748  0.3269  0.1509  1.2713
  972SOL    HW214550   0.481   0.390  15.810  2.0165  0.7740 -1.7163
  973SOL     OW14551   2.053   2.324   8.317  0.1595 -0.4579  0.3303
  973SOL    HW114552   2.117   2.383   8.357 -0.5040  1.8082 -1.9674
  973SOL    HW214553   1.966   2.360   8.336  0.1143  0.5299 -1.7927
  974SOL     OW14554   3.135   0.853   1.845 -0.2650 -0.0989  0.2029
  974SOL    HW114555   3.219   0.899   1.835  0.0158 -0.4565  0.9299
  974SOL    HW214556   3.140   0.834   1.938  0.4969 -2.5142 -0.3259
  975SOL     OW14557   3.102   1.966   9.660 -0.0981  0.0172 -0.5282
  975SOL    HW114558   3.080   1.880   9.696  4.9641 -0.5864  1.0790
  975SOL    HW214559   3.164   1.996   9.727 -1.3610 -1.3648  1.2838
  976SOL     OW14560   4.072   2.641   8.180  0.3216  0.1472 -0.1507
  976SOL    HW114561   4.131   2.603   8.115 -0.9029 -1.2980 -0.4233
  976SOL    HW214562   3.997   2.581   8.182 -0.2534  0.8041 -2.3983
  977SOL     OW14563   3.752   1.135   5.044 -0.5346  0.1661  0.4954
  977SOL    HW114564   3.736   1.044   5.022 -0.2091  0.1200  0.4394
  977SOL    HW214565   3.666   1.168   5.019  0.6251  2.7758 -0.0498
  978SOL     OW14566   0.595   1.368   4.073 -0.0065 -0.4393  0.1233
  978SOL    HW114567   0.667   1.404   4.022 -0.4191  2.2012  1.4107
  978SOL    HW214568   0.570   1.298   4.012 -0.6800 -0.9511  0.9887
  979SOL     OW14569   3.334   4.023  13.037  0.0400 -0.3433 -0.7516
  979SOL    HW114570   3.430   4.023  13.037  0.0278 -1.8769 -1.3915
  979SOL    HW214571   3.299   4.058  13.119 -2.9794  0.6217 -2.4571
  980SOL     OW14572   2.806   3.431   7.811  0.1132 -0.0333  0.2947
  980SOL    HW114573   2.778   3.376   7.884 -1.5698 -2.1719 -1.9813
  980SOL    HW214574   2.898   3.444   7.834  0.7156 -1.9751 -1.0718
  981SOL     OW14575   3.848   3.319  16.211  0.1557 -0.0828  0.4095
  981SOL    HW114576   3.910   3.344  16.280  0.1410  0.5975  0.1732
  981SOL    HW214577   3.887   3.346  16.128 -3.0483  1.8487 -0.4369
  982SOL     OW14578   1.075   3.665   3.450 -0.0715 -0.1348 -0.0187
  982SOL    HW114579   1.075   3.712   3.534 -0.1386  0.6109 -0.4286
  982SOL    HW214580   1.149   3.609   3.472 -0.7364 -1.2713 -0.6904
  983SOL     OW14581   0.305   2.153   0.511  0.5047  0.2654 -0.1701
  983SOL    HW114582   0.323   2.085   0.576 -0.6348 -0.5634 -0.7063
  983SOL    HW214583   0.268   2.101   0.439 -1.3050  1.2911  0.0168
  984SOL     OW14584   2.969   1.705   8.562 -0.0625 -0.6277  0.0695
  984SOL    HW114585   2.936   1.793   8.541  1.0607 -0.6240 -1.6731
  984SOL    HW214586   2.901   1.639   8.551 -0.7096  0.1820 -0.8136
  985SOL     OW14587   0.673   3.790   5.905 -0.0398  0.6120 -0.1114
  985SOL    HW114588   0.596   3.809   5.959 -1.3372 -2.1526 -1.0111
  985SOL    HW214589   0.712   3.874   5.880  1.1227  0.3531  0.8027
  986SOL     OW14590   3.029   2.414   5.518  0.1890 -0.0035  0.3791
  986SOL    HW114591   2.974   2.418   5.597  2.0107 -1.4987  1.7459
  986SOL    HW214592   3.114   2.398   5.561  0.6531  1.6602  0.0972
  987SOL     OW14593   4.021   2.438  16.492 -0.3145 -0.4985 -0.3536
  987SOL    HW114594   3.981   2.455  16.406  2.3676  0.3526 -1.4418
  987SOL    HW214595   4.111   2.446  16.460 -0.7536  0.0553 -1.4498
  988SOL     OW14596   2.090   2.514   5.378  0.4697  0.0580  0.0893
  988SOL    HW114597   2.000   2.482   5.373  0.4859  0.2555 -1.4488
  988SOL    HW214598   2.074   2.605   5.403  3.9593  0.6551  0.1832
  989SOL     OW14599   3.366   1.007   5.582 -0.0576  0.6052 -0.4555
  989SOL    HW114600   3.405   1.094   5.574  0.8434  0.0796 -1.9822
  989SOL    HW214601   3.281   1.017   5.539 -1.2409  0.0390  1.7939
  990SOL     OW14602   2.437   4.448  14.211 -0.0787 -0.1364 -0.1933
  990SOL    HW114603   2.383   4.386  14.162  0.8171 -0.5055 -0.7162
  990SOL    HW214604   2.502   4.397  14.260 -0.6803 -0.4421  0.2829
  991SOL     OW14605   2.268   4.487  13.800  0.1446 -0.3116  0.2273
  991SOL    HW114606   2.228   4.567  13.765  1.1581 -0.5000 -1.3733
  991SOL    HW214607   2.263   4.426  13.726  1.6286 -0.6744  0.4315
  992SOL     OW14608   2.031   0.927   4.742  0.6327 -0.0822 -0.0691
  992SOL    HW114609   2.090   0.864   4.783 -0.5989  0.1870  2.1020
  992SOL    HW214610   1.965   0.862   4.717  1.3103 -0.7514 -0.1217
  993SOL     OW14611   0.120   3.442  15.842  0.2212 -0.2846  0.2766
  993SOL    HW114612   0.198   3.481  15.803 -0.8035  0.4348 -1.0204
  993SOL    HW214613   0.065   3.414  15.769  2.1129 -0.7819 -0.9355
  994SOL     OW14614   1.715   2.310   6.701  0.6714 -0.0630  0.2658
  994SOL    HW114615   1.786   2.258   6.739 -0.0343 -0.9120  0.4051
  994SOL    HW214616   1.683   2.337   6.787 -0.6537 -1.9111  0.3415
  995SOL     OW14617   3.243   4.383  12.326  0.0131  0.5730  0.4346
  995SOL    HW114618   3.272   4.318  12.261  0.1913  0.8442  0.2427
  995SOL    HW214619   3.179   4.432  12.274 -0.2793  0.8850  1.0915
  996SOL     OW14620   1.948   0.527  12.374  0.5010 -0.7554  0.4579
  996SOL    HW114621   1.947   0.621  12.392  3.7182 -0.6156 -0.0351
  996SOL    HW214622   1.858   0.515  12.404  0.8860 -1.8046  1.2147
  997SOL     OW14623   2.696   4.151   1.570  0.3815  0.1787 -0.0719
  997SOL    HW114624   2.789   4.162   1.587  0.0452  0.4220  1.6126
  997SOL    HW214625   2.678   4.241   1.597  2.6641  1.0093 -1.3397
  998SOL     OW14626   2.897   2.091  12.118  0.5534 -0.5149  0.2938
  998SOL    HW114627   2.846   2.016  12.087  0.1660  0.1621 -0.7352
  998SOL    HW214628   2.834   2.163  12.116  0.2037 -0.8398 -0.5788
  999SOL     OW14629   2.399   1.720   6.869 -0.4592 -0.7171 -0.2043
  999SOL    HW114630   2.469   1.753   6.813 -1.4474 -0.6848 -1.4315
  999SOL    HW214631   2.391   1.628   6.843 -0.8000 -1.0672  1.1020
 1000SOL     OW14632   1.972   3.413   1.995  0.5485 -0.0149 -0.0421
 1000SOL    HW114633   1.879   3.429   2.006  0.4233  0.4788 -1.7848
 1000SOL    HW214634   2.002   3.368   2.073  0.4043 -1.0535 -0.5935
 1001SOL     OW14635   0.284   3.010   7.252 -0.0416 -0.2992  0.1333
 1001SOL    HW114636   0.206   2.960   7.277  0.7040 -1.8203 -0.5568
 1001SOL    HW214637   0.324   3.032   7.336 -0.6164  0.0660  0.3134
 1002SOL     OW14638   0.832   2.037   5.784  0.0720 -0.1269  0.1434
 1002SOL    HW114639   0.862   2.002   5.867 -2.0305  0.6813  1.2560
 1002SOL    HW214640   0.914   2.039   5.734 -0.8323  2.2820 -1.2881
 1003SOL     OW14641   1.391   1.487   8.544 -0.6683  0.7433 -0.0016
 1003SOL    HW114642   1.304   1.493   8.502  0.3197 -1.6967 -2.4245
 1003SOL    HW214643   1.427   1.575   8.550  0.5117  0.1478  1.5215
 1004SOL     OW14644   0.468   2.952   8.436  0.0343 -0.3653  0.0190
 1004SOL    HW114645   0.405   3.021   8.413 -0.3545 -0.8654 -0.4147
 1004SOL    HW214646   0.426   2.908   8.510  1.0391  1.0679  1.4330
 1005SOL     OW14647   3.450   1.654  16.145  0.1794  0.7939  0.1054
 1005SOL    HW114648   3.500   1.717  16.094  3.1208 -0.6240  1.2708
 1005SOL    HW214649   3.522   1.601  16.178 -1.0693 -1.1212 -0.2927
 1006SOL     OW14650   1.287   2.543  11.533 -0.0123 -0.0320 -0.5128
 1006SOL    HW114651   1.325   2.473  11.587 -0.8856 -1.4218 -1.6802
 1006SOL    HW214652   1.260   2.597  11.607  2.8563  0.6414  0.0372
 1007SOL     OW14653   0.454   3.003  13.086  0.2656 -0.4139 -0.1974
 1007SOL    HW114654   0.549   2.992  13.088  0.3285  0.6528  2.2077
 1007SOL    HW214655   0.436   2.952  13.164  3.8509  1.2760  1.7466
 1008SOL     OW14656   2.819   4.405  16.923 -0.4920  0.3960  0.4618
 1008SOL    HW114657   2.876   4.438  16.992  0.7853  2.4103 -1.5656
 1008SOL    HW214658   2.877   4.335  16.893 -1.6193 -0.7682  1.0017
 1009SOL     OW14659   0.853   2.135   8.379  1.1445 -0.3143  0.1281
 1009SOL    HW114660   0.831   2.070   8.312  0.3660  1.0022 -0.8929
 1009SOL    HW214661   0.772   2.118   8.426  0.6127  0.0492 -0.6469
 1010SOL     OW14662   3.732   0.618   5.915  0.0504 -0.3482 -0.1746
 1010SOL    HW114663   3.746   0.709   5.941 -0.6787  0.0793 -1.3013
 1010SOL    HW214664   3.645   0.593   5.946 -0.7545  2.4636 -0.2482
 1011SOL     OW14665   4.246   3.297   6.490 -0.3696 -0.2951  0.8330
 1011SOL    HW114666   4.228   3.231   6.557  0.5688 -0.4176  0.9560
 1011SOL    HW214667   4.225   3.377   6.539 -1.0191 -0.5580  0.9907
 1012SOL     OW14668   2.453   2.514   3.253  0.7422 -0.3070 -0.0926
 1012SOL    HW114669   2.362   2.487   3.241  0.6230 -0.4632  1.1689
 1012SOL    HW214670   2.440   2.546   3.343 -0.7090 -0.3265 -0.2877
 1013SOL     OW14671   1.862   2.994   2.662  0.2930  0.0484 -0.1954
 1013SOL    HW114672   1.818   3.074   2.693 -1.2864 -1.0115  0.2828
 1013SOL    HW214673   1.816   2.922   2.704  0.3631  0.7053  1.0128
 1014SOL     OW14674   3.239   0.082  15.022  0.2724 -0.0529  0.4645
 1014SOL    HW114675   3.204   0.020  14.959 -1.4642  0.8198  0.5917
 1014SOL    HW214676   3.151   0.110  15.046 -0.9565 -3.3812 -0.1788
 1015SOL     OW14677   0.514   1.057   7.892  0.1754  0.3191 -0.0796
 1015SOL    HW114678   0.454   1.030   7.823 -1.5228  0.7866  1.2173
 1015SOL    HW214679   0.513   0.980   7.949  0.6065  0.0545 -0.4286
 1016SOL     OW14680   3.030   0.574   9.292 -0.1413 -0.7080 -0.1414
 1016SOL    HW114681   3.054   0.496   9.341  3.4367  2.2481  2.8959
 1016SOL    HW214682   3.104   0.628   9.321  0.2629 -1.5438  0.3645
 1017SOL     OW14683   1.615   1.201   0.845  0.1772  0.2370 -0.0934
 1017SOL    HW114684   1.685   1.262   0.820  0.6507  0.5235  1.9232
 1017SOL    HW214685   1.664   1.120   0.860  1.0165  0.5630 -1.0815
 1018SOL     OW14686   2.994   2.940   5.205 -0.0947 -0.1249 -0.0488
 1018SOL    HW114687   3.047   2.973   5.132  0.8168 -0.5776  0.3978
 1018SOL    HW214688   3.024   2.849   5.202 -1.1108 -0.4918  1.1927
 1019SOL     OW14689   0.197   1.055   8.066  0.0096 -0.2309 -0.7018
 1019SOL    HW114690   0.277   1.051   8.120 -0.1858  0.4738 -0.3618
 1019SOL    HW214691   0.157   0.973   8.095  1.3196 -0.5784  0.1777
 1020SOL     OW14692   3.780   2.708   4.401  0.1093 -0.6196 -0.4445
 1020SOL    HW114693   3.795   2.777   4.337 -0.0901  0.6453  0.8726
 1020SOL    HW214694   3.770   2.633   4.341  1.2984 -0.9843 -0.1807
 1021SOL     OW14695   3.083   4.578   2.171 -0.2122 -0.4431 -0.2010
 1021SOL    HW114696   3.004   4.629   2.153 -1.3351 -2.0652  0.1355
 1021SOL    HW214697   3.073   4.567   2.265  0.7628 -1.1694 -0.1821
 1022SOL     OW14698   1.442   3.774   1.125 -0.4288 -0.4755  0.2774
 1022SOL    HW114699   1.351   3.747   1.111 -0.7868  0.9966 -0.2159
 1022SOL    HW214700   1.488   3.738   1.050  0.5954  1.2680  0.0814
 1023SOL     OW14701   1.124   1.443   1.101  0.3139  0.0058 -0.1718
 1023SOL    HW114702   1.097   1.399   1.020  1.1173 -0.2842 -0.2829
 1023SOL    HW214703   1.209   1.406   1.126 -0.2482 -0.1952  1.4248
 1024SOL     OW14704   4.140   2.719  15.734 -0.0618  0.1425 -0.2743
 1024SOL    HW114705   4.127   2.790  15.797 -0.8931 -0.0849 -0.1867
 1024SOL    HW214706   4.183   2.763  15.661  3.7239  0.3963  2.1320
 1025SOL     OW14707   1.316   2.831   5.473 -0.4715  0.1721  0.5324
 1025SOL    HW114708   1.269   2.815   5.554 -2.7773 -1.7777 -1.1955
 1025SOL    HW214709   1.303   2.925   5.461  0.6324  0.2320 -0.2807
 1026SOL     OW14710   0.975   0.932   6.978 -0.3483 -0.9686  0.1037
 1026SOL    HW114711   0.905   0.997   6.974  0.7439  0.3198  1.7116
 1026SOL    HW214712   0.948   0.860   6.921 -1.8266 -1.4887  1.4486
 1027SOL     OW14713   3.756   2.689  15.105 -0.3462 -0.2407 -0.1974
 1027SOL    HW114714   3.730   2.777  15.079  2.6166  0.9230  0.7521
 1027SOL    HW214715   3.849   2.690  15.081 -1.3628  0.2987 -4.1162
 1028SOL     OW14716   1.802   3.552   3.420 -0.0600  0.1334  0.0986
 1028SOL    HW114717   1.780   3.463   3.392 -0.6463  0.5127 -0.6384
 1028SOL    HW214718   1.727   3.568   3.477 -1.1927  1.2823 -1.7222
 1029SOL     OW14719   2.448   2.809   9.410  0.4352 -0.1530 -0.2724
 1029SOL    HW114720   2.360   2.805   9.446 -0.3683 -0.2658 -2.2808
 1029SOL    HW214721   2.442   2.780   9.319 -1.2919  0.1166 -0.2415
 1030SOL     OW14722   2.173   1.910   8.245  0.0129 -0.3118  0.3728
 1030SOL    HW114723   2.124   1.910   8.327 -0.9523 -0.4351 -0.2016
 1030SOL    HW214724   2.101   1.931   8.184  1.3335 -0.1729 -1.1361
 1031SOL     OW14725   4.063   2.664   9.086 -0.4055  0.9282 -1.2572
 1031SOL    HW114726   4.094   2.753   9.072 -0.2558  0.5914 -3.0552
 1031SOL    HW214727   3.968   2.665   9.072 -0.4937  1.9761 -0.5437
 1032SOL     OW14728   2.479   2.377   6.373  0.0899  0.1609 -0.0614
 1032SOL    HW114729   2.419   2.369   6.448  0.5985  0.0591  0.3322
 1032SOL    HW214730   2.556   2.418   6.413 -0.7491  1.6624  0.0507
 1033SOL     OW14731   2.512   0.409   5.169  0.7017  0.2470  0.3025
 1033SOL    HW114732   2.575   0.462   5.120 -0.6731  0.5647 -1.1018
 1033SOL    HW214733   2.429   0.447   5.142 -0.4418 -3.1940 -1.0777
 1034SOL     OW14734   0.761   4.652   5.213  0.0483 -0.7361 -0.3988
 1034SOL    HW114735   0.695   4.584   5.198  1.3944 -1.9883 -0.6726
 1034SOL    HW214736   0.732   4.709   5.142  1.9379  2.8604  1.7320
 1035SOL     OW14737   0.063   0.308   7.922  0.1870  0.0330  0.8583
 1035SOL    HW114738   0.030   0.279   7.837 -1.8038 -2.5262  2.4938
 1035SOL    HW214739   0.122   0.379   7.895 -2.4642  1.9836  0.2169
 1036SOL     OW14740   3.212   4.358   8.415  0.0882  0.0285  0.0012
 1036SOL    HW114741   3.276   4.387   8.479 -0.9056  2.0705  0.0911
 1036SOL    HW214742   3.214   4.430   8.351  1.4177 -1.6934 -1.8923
 1037SOL     OW14743   1.583   1.485   1.713 -0.1819 -0.5342  0.4075
 1037SOL    HW114744   1.537   1.567   1.696 -0.0262 -0.5525 -0.1167
 1037SOL    HW214745   1.585   1.482   1.809 -0.3764 -0.3132  0.4157
 1038SOL     OW14746   1.026   3.269  14.142 -0.1605 -0.5491  0.2425
 1038SOL    HW114747   0.968   3.210  14.095 -0.7121  0.9394 -0.9301
 1038SOL    HW214748   1.086   3.298  14.073 -0.2407  1.2267  0.9126
 1039SOL     OW14749   0.809   4.012   5.471  0.1790 -0.0764  0.3986
 1039SOL    HW114750   0.814   4.015   5.376  1.0423 -1.5332  0.4090
 1039SOL    HW214751   0.719   3.980   5.481  0.6456 -1.0729  1.3358
 1040SOL     OW14752   0.261   0.494   9.017  0.5313 -0.2063 -0.1371
 1040SOL    HW114753   0.350   0.478   8.984 -0.1908 -2.0360 -1.2674
 1040SOL    HW214754   0.219   0.535   8.941 -1.3126  0.0403  1.0253
 1041SOL     OW14755   1.516   2.895   4.335  0.2506  0.5216 -0.2319
 1041SOL    HW114756   1.599   2.935   4.310  0.8385  0.2320  1.2531
 1041SOL    HW214757   1.481   2.888   4.247 -3.0703  0.7109  1.0622
 1042SOL     OW14758   0.221   1.290   0.956  0.1848  0.7273 -0.1919
 1042SOL    HW114759   0.252   1.319   0.870 -1.6950  1.1984 -0.7096
 1042SOL    HW214760   0.258   1.202   0.962 -2.3076 -0.3321 -0.4297
 1043SOL     OW14761   4.496   0.176   4.899  0.1814  0.3972 -0.5426
 1043SOL    HW114762   4.571   0.226   4.931  1.9340 -1.0161 -2.4938
 1043SOL    HW214763   4.506   0.094   4.947  1.3785  0.5178 -0.5963
 1044SOL     OW14764   2.228   2.083  13.683  0.1959 -0.3782  0.2584
 1044SOL    HW114765   2.298   2.030  13.722  0.5197  0.6786  1.1381
 1044SOL    HW214766   2.248   2.169  13.722  0.9430 -0.8043  0.8144
 1045SOL     OW14767   4.340   2.631   6.052 -0.1172  1.0438  0.4719
 1045SOL    HW114768   4.300   2.684   6.122 -3.7435 -0.4646 -0.4593
 1045SOL    HW214769   4.409   2.584   6.098  2.5339  3.0034 -1.5365
 1046SOL     OW14770   3.706   3.526   8.164  0.3593  0.7431  0.0401
 1046SOL    HW114771   3.699   3.567   8.251  1.7472 -2.1932  1.5422
 1046SOL    HW214772   3.694   3.604   8.110 -1.7414 -0.9781 -1.9311
 1047SOL     OW14773   1.888   1.900   6.143  0.5512  0.1202  0.3303
 1047SOL    HW114774   1.943   1.976   6.129 -0.5611  0.3754 -2.7010
 1047SOL    HW214775   1.944   1.826   6.167 -0.4392 -0.5504  0.5996
 1048SOL     OW14776   4.057   0.873   5.354 -0.0159  0.6695  0.4706
 1048SOL    HW114777   4.027   0.948   5.302  0.2197 -0.0243 -0.6662
 1048SOL    HW214778   4.150   0.893   5.352  0.5133 -1.6690  1.8500
 1049SOL     OW14779   3.650   4.250  13.055 -0.4723 -0.2838 -0.0649
 1049SOL    HW114780   3.632   4.217  13.143  1.4062  1.0957  0.8372
 1049SOL    HW214781   3.597   4.330  13.052 -1.0147 -0.5937  1.2685
 1050SOL     OW14782   2.096   4.250   4.233 -0.0084 -0.5088  0.2397
 1050SOL    HW114783   2.096   4.331   4.284  1.5572 -0.4613  0.1570
 1050SOL    HW214784   2.189   4.231   4.218 -0.3324 -0.2119 -2.1684
 1051SOL     OW14785   3.510   0.616   7.984  0.1097 -0.1558  0.1362
 1051SOL    HW114786   3.522   0.574   7.898 -4.2678 -0.6818 -0.2102
 1051SOL    HW214787   3.568   0.691   7.978  0.8254 -0.6873  0.4758
 1052SOL     OW14788   0.382   0.008   9.983  0.3509  0.2670  0.3274
 1052SOL    HW114789   0.453   4.702   9.934 -0.9631 -0.3630 -1.0646
 1052SOL    HW214790   0.371   0.075   9.916 -2.8939 -0.4299  0.1515
 1053SOL     OW14791   1.458   2.715   8.625 -0.3335 -0.3449 -0.1741
 1053SOL    HW114792   1.450   2.781   8.695  3.3588  0.4218 -0.4874
 1053SOL    HW214793   1.455   2.639   8.683  0.4368 -0.8173 -0.7553
 1054SOL     OW14794   2.568   4.510   3.095 -0.0955  0.3486 -0.0359
 1054SOL    HW114795   2.567   4.603   3.113  0.5998  0.4422 -0.4503
 1054SOL    HW214796   2.509   4.492   3.021 -0.3089  1.9565 -0.2474
 1055SOL     OW14797   1.886   2.240   8.033  0.3436  0.3616 -0.9189
 1055SOL    HW114798   1.958   2.303   8.041  0.2495  0.3525 -0.0186
 1055SOL    HW214799   1.924   2.154   8.054 -1.4977 -0.7561 -2.1684
 1056SOL     OW14800   0.508   2.843   0.253  0.3359  0.1464 -1.1117
 1056SOL    HW114801   0.573   2.787   0.209 -1.0014 -0.1506 -2.7084
 1056SOL    HW214802   0.505   2.922   0.199  0.3488 -0.2262 -1.6629
 1057SOL     OW14803   3.735   2.595   8.197  0.2878  0.0513  0.1668
 1057SOL    HW114804   3.704   2.530   8.133  0.3613  0.2198 -0.0415
 1057SOL    HW214805   3.812   2.545   8.225  0.2575 -1.0565 -1.7098
 1058SOL     OW14806   1.319   4.214   8.597  0.0868 -0.1327  0.1242
 1058SOL    HW114807   1.342   4.298   8.557 -1.8405  0.2384 -0.1808
 1058SOL    HW214808   1.225   4.219   8.613 -0.0763 -2.5200 -0.1612
 1059SOL     OW14809   3.998   2.119   7.975 -0.2887  0.1200  0.0192
 1059SOL    HW114810   3.978   2.033   7.937 -1.2403 -0.0603  0.9575
 1059SOL    HW214811   3.986   2.105   8.069  1.6068 -1.6777  0.0044
 1060SOL     OW14812   0.903   1.304   7.488  0.2257 -0.2877 -0.3963
 1060SOL    HW114813   0.828   1.316   7.430  1.2899  0.2198 -1.6680
 1060SOL    HW214814   0.950   1.234   7.443 -1.4684  0.0644 -2.7113
 1061SOL     OW14815   1.070   2.211   2.007 -0.7107  0.4879 -0.5417
 1061SOL    HW114816   1.147   2.251   1.966  0.2357  0.3089  1.0479
 1061SOL    HW214817   1.066   2.253   2.093 -0.2346 -0.9673  0.1942
 1062SOL     OW14818   3.465   2.818  14.926  0.1825  0.2977  0.1795
 1062SOL    HW114819   3.542   2.876  14.926  2.5699 -2.8686  0.2915
 1062SOL    HW214820   3.516   2.737  14.931 -1.3418 -0.7766 -1.4726
 1063SOL     OW14821   4.562   2.518   1.727 -0.7110  0.1672 -0.6080
 1063SOL    HW114822   4.573   2.493   1.636  1.1184 -4.2420  0.8258
 1063SOL    HW214823   4.646   2.492   1.766 -1.3142 -0.8637 -0.0143
 1064SOL     OW14824   1.450   1.621  10.122 -0.4148 -0.4684  0.6726
 1064SOL    HW114825   1.448   1.564  10.199 -1.5735 -1.1950  0.1076
 1064SOL    HW214826   1.423   1.561  10.052  2.3741 -0.7115 -0.1634
 1065SOL     OW14827   0.197   3.891   9.295  0.5293 -0.2377  0.4724
 1065SOL    HW114828   0.103   3.910   9.290  1.4613  4.7196  1.2335
 1065SOL    HW214829   0.197   3.805   9.254  0.4303 -0.7698  1.5756
 1066SOL     OW14830   2.395   1.301   2.589  0.1539 -0.0102 -0.2006
 1066SOL    HW114831   2.419   1.382   2.635 -4.7513  2.7295 -2.4250
 1066SOL    HW214832   2.340   1.265   2.658  0.1867 -0.2923 -0.3221
 1067SOL     OW14833   0.423   0.514   8.464 -0.2196 -0.2121 -0.7527
 1067SOL    HW114834   0.387   0.535   8.550 -0.6782 -0.3188 -0.9184
 1067SOL    HW214835   0.506   0.468   8.474 -0.9333 -0.8017  2.3357
 1068SOL     OW14836   2.129   0.548   2.827 -0.0899 -0.2026 -0.9805
 1068SOL    HW114837   2.058   0.493   2.793 -1.1820 -0.1154  1.1365
 1068SOL    HW214838   2.166   0.592   2.750  1.0918  0.9047  0.2405
 1069SOL     OW14839   3.143   0.796   0.345  0.1816 -0.2698  0.1030
 1069SOL    HW114840   3.170   0.758   0.261  3.2593  3.0443 -0.3959
 1069SOL    HW214841   3.104   0.881   0.328 -0.0648 -0.5943 -0.9388
 1070SOL     OW14842   4.097   1.922  17.671  0.3131 -0.0916 -0.7128
 1070SOL    HW114843   4.075   1.924  17.578 -1.8623 -2.9617 -0.2679
 1070SOL    HW214844   4.054   1.840  17.695 -1.6836  2.2454  3.7492
 1071SOL     OW14845   1.751   0.208   6.707 -0.2253  0.2524  0.2496
 1071SOL    HW114846   1.758   0.138   6.641 -0.8420 -0.0033  0.4521
 1071SOL    HW214847   1.835   0.207   6.753 -1.0670 -3.4522  1.7052
 1072SOL     OW14848   3.696   4.023  10.942 -0.6793  0.1156  0.2942
 1072SOL    HW114849   3.744   4.092  10.987  1.4632  0.4927 -2.6042
 1072SOL    HW214850   3.607   4.057  10.927 -0.5104  1.0000  1.3375
 1073SOL     OW14851   1.189   4.071   9.289 -0.3074  0.2101  0.1969
 1073SOL    HW114852   1.211   4.016   9.214  0.2420  1.4752 -0.5553
 1073SOL    HW214853   1.203   4.159   9.256  0.5201 -0.1930 -0.5276
 1074SOL     OW14854   2.787   0.313   3.346  0.0394 -0.2039 -0.3425
 1074SOL    HW114855   2.744   0.228   3.357 -1.1240  0.6469  1.5760
 1074SOL    HW214856   2.770   0.345   3.434  2.3894  2.0064 -0.6792
 1075SOL     OW14857   1.375   1.732   8.050  0.8088  0.0358 -0.1245
 1075SOL    HW114858   1.401   1.777   7.969  1.4399  0.1928  0.1633
 1075SOL    HW214859   1.281   1.744   8.058  0.8124 -0.3021  0.4133
 1076SOL     OW14860   3.310   2.192  14.333  0.6730  0.1886  0.3720
 1076SOL    HW114861   3.353   2.273  14.308  1.8363 -0.4145  0.4165
 1076SOL    HW214862   3.354   2.163  14.413 -0.9177 -1.2182  0.7538
 1077SOL     OW14863   4.473   1.780  11.215 -0.3287  0.3676 -0.0758
 1077SOL    HW114864   4.503   1.855  11.165  0.0653  0.2909  0.0464
 1077SOL    HW214865   4.378   1.793  11.215 -0.4807 -0.6750  1.5362
 1078SOL     OW14866   0.207   2.512   4.377 -0.1098 -0.1589 -0.2886
 1078SOL    HW114867   0.258   2.554   4.445 -1.6704  2.0127 -0.4748
 1078SOL    HW214868   0.212   2.426   4.418  1.5079  0.5994  1.0962
 1079SOL     OW14869   4.396   3.712   8.377 -0.1425  0.2767 -0.5419
 1079SOL    HW114870   4.435   3.768   8.310 -1.4172  1.7622 -0.0508
 1079SOL    HW214871   4.466   3.691   8.438 -0.9601 -2.5320 -0.5527
 1080SOL     OW14872   2.361   2.671   4.707 -0.1661 -0.2455  0.6409
 1080SOL    HW114873   2.281   2.718   4.686  0.3695  1.0353  1.4346
 1080SOL    HW214874   2.372   2.701   4.798  2.3926  0.1538  0.2000
 1081SOL     OW14875   2.900   1.554  11.828  0.1154 -0.4789  0.0838
 1081SOL    HW114876   2.897   1.479  11.888 -2.1901 -1.2242 -0.9455
 1081SOL    HW214877   2.810   1.554  11.795  0.2890 -2.4406 -0.4189
 1082SOL     OW14878   4.468   3.513  13.786 -0.3486  0.1626 -0.1994
 1082SOL    HW114879   4.386   3.512  13.837  0.0987 -1.8052  0.4945
 1082SOL    HW214880   4.447   3.490  13.696  0.5233  0.7782 -0.5568
 1083SOL     OW14881   4.027   1.029   2.507  0.0013  0.5362 -0.3476
 1083SOL    HW114882   4.028   0.958   2.571 -2.2855 -0.4093 -1.3414
 1083SOL    HW214883   4.097   1.085   2.540  2.5858 -1.0141 -3.2618
 1084SOL     OW14884   4.660   0.539   5.716 -0.1415 -0.0523 -0.0928
 1084SOL    HW114885   4.680   0.618   5.666  1.4638  0.2461  1.0065
 1084SOL    HW214886   4.571   0.523   5.687 -0.5217  1.3369  0.3180
 1085SOL     OW14887   4.199   3.302   1.708  0.2265 -0.0648  0.1485
 1085SOL    HW114888   4.263   3.368   1.681 -1.9275  2.0273  0.1407
 1085SOL    HW214889   4.217   3.242   1.635 -1.8682 -0.5835  0.0570
 1086SOL     OW14890   4.634   0.911   7.855  0.2787 -0.2934  0.0932
 1086SOL    HW114891   4.585   0.928   7.774 -0.5916 -0.5171  0.5652
 1086SOL    HW214892   4.584   0.980   7.900  0.6549 -0.7033  1.1508
 1087SOL     OW14893   3.176   2.279  16.566  0.3185  0.0435 -0.4604
 1087SOL    HW114894   3.256   2.253  16.519  0.8381  1.7308 -0.5116
 1087SOL    HW214895   3.103   2.243  16.516 -1.9169  0.4211  2.5801
 1088SOL     OW14896   0.566   2.849  15.094  0.3149 -0.7647 -0.2845
 1088SOL    HW114897   0.653   2.820  15.068 -0.5282  0.7762 -4.8521
 1088SOL    HW214898   0.578   2.922  15.154 -0.3857 -1.3989  0.6353
 1089SOL     OW14899   2.307   0.199   9.238  0.1948 -0.2858 -0.3859
 1089SOL    HW114900   2.375   0.161   9.295 -2.1544 -1.4227  1.6829
 1089SOL    HW214901   2.332   0.287   9.211 -0.1846 -0.7346 -2.2258
 1090SOL     OW14902   0.224   2.360  11.270  0.3891  0.3327 -0.0901
 1090SOL    HW114903   0.258   2.448  11.282 -0.2849  0.8894 -2.3593
 1090SOL    HW214904   0.131   2.383  11.268  0.7289  1.7279  0.8674
 1091SOL     OW14905   3.267   2.164  16.256  0.1378  0.0720 -0.5712
 1091SOL    HW114906   3.271   2.068  16.251  1.1580 -0.0547  2.9772
 1091SOL    HW214907   3.177   2.176  16.286 -0.2530 -2.3088 -0.7981
 1092SOL     OW14908   1.531   3.999   3.073 -0.4333 -0.3120 -0.4064
 1092SOL    HW114909   1.547   4.024   2.982 -1.6451  0.6307 -0.3508
 1092SOL    HW214910   1.459   3.939   3.053  0.1760 -1.3750  0.5923
 1093SOL     OW14911   2.725   2.458   2.195 -0.4459 -0.0246  0.4892
 1093SOL    HW114912   2.779   2.475   2.118  1.2259 -0.8238  1.4851
 1093SOL    HW214913   2.659   2.526   2.184 -0.7488 -0.8486 -2.9602
 1094SOL     OW14914   4.477   2.256   3.262  0.2493 -0.2449  0.6423
 1094SOL    HW114915   4.425   2.176   3.264 -1.3997  0.8070  0.5436
 1094SOL    HW214916   4.486   2.269   3.357  1.0954 -2.1801  0.8232
 1095SOL     OW14917   0.766   1.301   6.092  0.3337 -0.0673  0.2123
 1095SOL    HW114918   0.760   1.206   6.082  1.5409 -0.1263  0.0428
 1095SOL    HW214919   0.840   1.320   6.034 -0.0053  1.2557  0.2040
 1096SOL     OW14920   4.518   1.304  17.556 -0.0992  0.2025 -0.3081
 1096SOL    HW114921   4.522   1.364  17.481 -0.5909  1.2060  0.4643
 1096SOL    HW214922   4.607   1.272  17.563 -0.8157 -2.0341 -1.3819
 1097SOL     OW14923   3.059   3.514  16.291 -0.4132  0.0933  0.3077
 1097SOL    HW114924   3.089   3.587  16.238  1.4835 -1.5943 -0.9430
 1097SOL    HW214925   3.125   3.450  16.264  0.6979  1.1381  0.5497
 1098SOL     OW14926   0.290   0.844  16.285 -0.2078  0.1354 -0.0639
 1098SOL    HW114927   0.209   0.819  16.330 -0.2476  1.2835  0.5154
 1098SOL    HW214928   0.345   0.870  16.359 -0.6274 -2.6906  1.2453
 1099SOL     OW14929   2.555   1.851   2.816  0.2799 -0.5022  0.5639
 1099SOL    HW114930   2.466   1.818   2.824  0.0033  0.1043 -0.0185
 1099SOL    HW214931   2.550   1.947   2.810  0.9039 -0.4648  0.6354
 1100SOL     OW14932   2.518   3.834  17.007 -0.1791  0.0034  0.0439
 1100SOL    HW114933   2.440   3.820  17.061 -0.1951  0.9321  0.2642
 1100SOL    HW214934   2.563   3.749  17.016  0.7793  0.5494  0.3902
 1101SOL     OW14935   3.498   3.071   5.688 -0.7650  0.0103 -0.0040
 1101SOL    HW114936   3.503   3.006   5.618 -0.0876 -0.3791  0.3955
 1101SOL    HW214937   3.421   3.040   5.735 -1.7996 -2.4067 -3.2904
 1102SOL     OW14938   3.765   2.474   7.155  0.2978  0.2223 -0.4640
 1102SOL    HW114939   3.855   2.492   7.182 -0.1007  0.4659  0.6843
 1102SOL    HW214940   3.753   2.539   7.085 -0.1657 -0.9049 -1.4340
 1103SOL     OW14941   3.393   2.566   4.906 -0.1343 -0.2488  0.3556
 1103SOL    HW114942   3.344   2.530   4.831  1.0085 -0.4534 -0.2824
 1103SOL    HW214943   3.459   2.496   4.910 -0.2581 -0.2547  2.3592
 1104SOL     OW14944   3.221   2.067   5.139  0.5629 -0.0971 -0.1219
 1104SOL    HW114945   3.238   2.022   5.222  0.4932 -0.9139 -0.5570
 1104SOL    HW214946   3.290   2.133   5.125  1.6584 -1.3454 -0.5920
 1105SOL     OW14947   1.885   0.218   8.864 -0.2483 -0.4000  0.2309
 1105SOL    HW114948   1.851   0.248   8.780  0.5074 -1.0970 -0.3241
 1105SOL    HW214949   1.827   0.144   8.880 -1.7297  0.2398 -2.2199
 1106SOL     OW14950   3.415   0.214   3.207  0.0204  0.1092 -0.3008
 1106SOL    HW114951   3.453   0.150   3.148  3.0088  0.5121  1.2213
 1106SOL    HW214952   3.387   0.148   3.271  2.3806 -1.4812 -0.9264
 1107SOL     OW14953   2.102   0.474   7.754  0.3382 -0.1108 -0.3205
 1107SOL    HW114954   2.085   0.390   7.712 -1.3157  0.3720 -0.6158
 1107SOL    HW214955   2.196   0.459   7.768  0.2181 -0.5384  0.0413
 1108SOL     OW14956   4.196   0.238   8.235 -0.3161  0.0047  0.5902
 1108SOL    HW114957   4.287   0.211   8.240  0.3139  2.1331  0.7502
 1108SOL    HW214958   4.198   0.294   8.313  1.9434 -0.5370  0.9141
 1109SOL     OW14959   3.394   1.957   2.692 -0.2674  0.2529  0.1932
 1109SOL    HW114960   3.418   1.904   2.616 -1.7009 -0.9786  0.6100
 1109SOL    HW214961   3.303   1.931   2.700 -0.4288  1.0063  0.7543
 1110SOL     OW14962   3.151   3.793  16.610 -0.5564 -0.5748 -0.4658
 1110SOL    HW114963   3.093   3.725  16.575 -1.2174 -1.4433  2.2470
 1110SOL    HW214964   3.233   3.744  16.605 -1.1214 -1.4574 -1.1212
 1111SOL     OW14965   2.117   4.494   3.155  0.4606 -0.3321  0.4988
 1111SOL    HW114966   2.037   4.442   3.150  0.0753  0.1895  1.4762
 1111SOL    HW214967   2.164   4.470   3.074 -3.4699  1.4950 -2.3362
 1112SOL     OW14968   1.765   1.105  10.591 -0.2436 -0.5840  0.6179
 1112SOL    HW114969   1.698   1.142  10.649  0.1438  1.3309 -0.1722
 1112SOL    HW214970   1.785   1.176  10.530  1.0316 -1.5090 -0.0446
 1113SOL     OW14971   0.148   2.694  12.170  0.3141 -0.3303 -0.3264
 1113SOL    HW114972   0.183   2.643  12.097 -2.6031 -0.3893 -1.7094
 1113SOL    HW214973   0.114   2.625  12.227 -3.7543  0.2427 -2.0614
 1114SOL     OW14974   4.240   0.565   4.701  0.3213  0.4439 -0.0801
 1114SOL    HW114975   4.278   0.614   4.773  0.9965  0.5467 -0.4994
 1114SOL    HW214976   4.308   0.497   4.690 -1.1756 -1.3522  1.8768
 1115SOL     OW14977   3.637   0.062   2.225  0.6856  0.3801  0.7520
 1115SOL    HW114978   3.635   0.009   2.304 -0.6569  1.5146  1.4821
 1115SOL    HW214979   3.702   0.018   2.170  0.2438  2.2534 -1.3062
 1116SOL     OW14980   3.082   3.581   0.357  0.1200 -0.3340 -0.5428
 1116SOL    HW114981   2.997   3.618   0.381  0.7468  0.9046 -0.1832
 1116SOL    HW214982   3.098   3.533   0.438 -0.7989 -0.7398 -0.6105
 1117SOL     OW14983   2.872   4.453   5.241  0.1745  0.7780 -0.4152
 1117SOL    HW114984   2.851   4.448   5.148  2.6255  1.3374 -1.0194
 1117SOL    HW214985   2.946   4.394   5.224  1.8579  3.6915 -3.3400
 1118SOL     OW14986   2.328   1.236   8.757 -0.3545 -0.2291 -0.0323
 1118SOL    HW114987   2.277   1.302   8.710  0.2694 -0.6121 -1.2389
 1118SOL    HW214988   2.261   1.210   8.819 -1.7928  2.2674 -0.5441
 1119SOL     OW14989   4.278   2.706   7.315 -0.7565 -0.2540 -0.0476
 1119SOL    HW114990   4.325   2.657   7.247  0.9544  0.0193  0.9283
 1119SOL    HW214991   4.271   2.796   7.282  3.4587  0.4431  0.9144
 1120SOL     OW14992   2.045   3.946  16.080 -0.0705  0.5245 -0.5586
 1120SOL    HW114993   2.109   3.970  16.147 -0.6461 -2.2640  0.9874
 1120SOL    HW214994   2.091   3.976  16.002  2.0443 -1.0208  0.0890
 1121SOL     OW14995   4.557   4.681   5.027 -0.1414 -0.1952 -0.0933
 1121SOL    HW114996   4.638   4.679   5.077 -0.7334 -0.2355  0.8741
 1121SOL    HW214997   4.570   4.628   4.948 -0.7122  1.1603 -1.0917
 1122SOL     OW14998   2.028   3.354   2.260 -0.0893  0.0880 -0.0627
 1122SOL    HW114999   1.974   3.333   2.337  1.4230  2.6718  1.6795
 1122SOL    HW215000   2.113   3.312   2.273 -0.3001 -0.7235 -1.3224
 1123SOL     OW15001   1.426   3.419   4.073  0.2575  0.3689  0.5934
 1123SOL    HW115002   1.457   3.468   4.150  0.4027 -0.2113  0.9116
 1123SOL    HW215003   1.339   3.459   4.071 -0.3922 -1.1709 -2.1888
 1124SOL     OW15004   4.250   0.867   7.365  0.0245 -0.4006 -0.4216
 1124SOL    HW115005   4.210   0.954   7.358 -0.8815 -0.8670 -1.0257
 1124SOL    HW215006   4.230   0.824   7.282 -1.2472  1.7934 -1.2386
 1125SOL     OW15007   3.668   1.066  17.711 -0.3523 -0.2055  0.6477
 1125SOL    HW115008   3.737   1.059   0.038 -0.0665 -1.8794  0.1877
 1125SOL    HW215009   3.722   1.093  17.637  0.3772 -0.0803  1.2264
 1126SOL     OW15010   3.291   0.264   0.580 -0.0965 -0.6719  0.3884
 1126SOL    HW115011   3.359   0.224   0.635 -0.2021 -1.6187 -0.1684
 1126SOL    HW215012   3.346   0.264   0.501 -3.4081  0.0258 -1.9109
 1127SOL     OW15013   1.076   3.600   9.824  0.4664  0.1400  0.1321
 1127SOL    HW115014   1.113   3.670   9.770 -1.2432  1.6202  0.8490
 1127SOL    HW215015   1.131   3.523   9.811 -0.6570 -0.3876 -1.3760
 1128SOL     OW15016   1.075   3.524  11.408  0.4976 -0.0887  0.5492
 1128SOL    HW115017   1.108   3.603  11.451 -1.1661  0.8111  0.1718
 1128SOL    HW215018   1.118   3.460  11.464  1.0657 -0.5261 -0.3813
 1129SOL     OW15019   3.325   0.287  16.980  0.4597  0.1379 -0.2800
 1129SOL    HW115020   3.307   0.285  17.074  0.6663 -0.0190 -0.2432
 1129SOL    HW215021   3.398   0.225  16.971  0.4078  0.0914 -0.3854
 1130SOL     OW15022   0.630   2.585  14.910 -0.1926  0.0632  0.4719
 1130SOL    HW115023   0.694   2.570  14.840 -1.1094  1.7672 -0.7434
 1130SOL    HW215024   0.676   2.640  14.973  0.0743 -2.0922  2.1108
 1131SOL     OW15025   2.331   3.001   3.513 -0.3720  0.6858 -0.0580
 1131SOL    HW115026   2.303   2.910   3.524  0.1836  0.5139 -0.0858
 1131SOL    HW215027   2.305   3.011   3.422  0.6682  1.6429 -0.2489
 1132SOL     OW15028   0.043   2.006  13.852 -0.3209 -0.4904  0.2924
 1132SOL    HW115029   0.090   1.924  13.835  1.0737  0.0084  1.7297
 1132SOL    HW215030   4.702   2.007  13.794  0.4744 -0.3737 -0.7556
 1133SOL     OW15031   3.360   2.598   5.410 -0.3782 -0.3220  0.0955
 1133SOL    HW115032   3.276   2.620   5.371  0.3637  3.4907  0.6706
 1133SOL    HW215033   3.336   2.540   5.482 -0.7978  1.5257  1.4336
 1134SOL     OW15034   2.582   0.917  12.198  0.2220 -0.0639 -0.3464
 1134SOL    HW115035   2.519   0.980  12.164  0.8339  0.5002 -0.4455
 1134SOL    HW215036   2.540   0.835  12.172  0.7027 -0.2613 -0.5096
 1135SOL     OW15037   2.318   1.713   8.380  0.6312 -0.2072 -0.3520
 1135SOL    HW115038   2.290   1.622   8.372  2.2648 -0.7341  0.0206
 1135SOL    HW215039   2.275   1.750   8.302 -1.2362 -0.6216  0.4707
 1136SOL     OW15040   4.154   4.655   9.791  0.2578 -0.2393 -0.7459
 1136SOL    HW115041   4.212   4.663   9.867 -0.0386  1.3342 -0.6878
 1136SOL    HW215042   4.216   4.643   9.719  3.1039  1.7975  1.3369
 1137SOL     OW15043   3.371   3.656  10.215  0.0705  0.8769  0.0435
 1137SOL    HW115044   3.436   3.696  10.157  2.0368 -2.9861 -0.4178
 1137SOL    HW215045   3.295   3.713  10.202 -0.2483  0.7834  1.5295
 1138SOL     OW15046   1.431   1.161  12.517 -0.3827 -0.0222  0.1909
 1138SOL    HW115047   1.488   1.211  12.459 -2.8772  2.0870 -0.4561
 1138SOL    HW215048   1.434   1.074  12.478 -0.4575  0.7431 -1.5021
 1139SOL     OW15049   3.316   0.459   3.413  0.1174 -0.3475  0.8849
 1139SOL    HW115050   3.308   0.420   3.326  0.9983  1.9849 -0.2230
 1139SOL    HW215051   3.239   0.425   3.458 -0.8803 -0.3308 -0.8142
 1140SOL     OW15052   2.436   2.128   1.860  0.0676 -0.1457 -0.0546
 1140SOL    HW115053   2.366   2.063   1.854  1.6116 -2.0435  2.8846
 1140SOL    HW215054   2.497   2.107   1.789 -0.5002 -1.1589 -0.2297
 1141SOL     OW15055   2.543   4.268   3.326  0.0680  0.0523  0.3826
 1141SOL    HW115056   2.602   4.343   3.329 -0.7470  0.6114  2.3364
 1141SOL    HW215057   2.463   4.310   3.357 -0.0609 -0.8169  1.2218
 1142SOL     OW15058   2.668   0.295   8.596  0.2519  0.2761 -0.4559
 1142SOL    HW115059   2.679   0.207   8.633 -0.9694 -0.1938 -1.1940
 1142SOL    HW215060   2.756   0.324   8.573 -0.1030  1.2977 -0.5392
 1143SOL     OW15061   2.087   4.651   5.275  0.0682  0.7134  0.3595
 1143SOL    HW115062   2.179   4.679   5.273  0.5110 -0.7411  0.2568
 1143SOL    HW215063   2.040   4.734   5.285 -0.6314  0.6682 -2.7127
 1144SOL     OW15064   3.330   2.242   8.409 -0.8650  0.0599 -0.3593
 1144SOL    HW115065   3.392   2.312   8.385 -0.7253  0.7304  1.9957
 1144SOL    HW215066   3.251   2.295   8.399 -1.6692 -1.2618 -0.8939
 1145SOL     OW15067   4.461   2.742  15.075  0.2172 -0.0361 -0.5121
 1145SOL    HW115068   4.455   2.771  15.166 -1.6852  0.7772 -0.8978
 1145SOL    HW215069   4.369   2.747  15.050  0.2046 -0.0130 -0.4620
 1146SOL     OW15070   3.188   2.814  14.906  0.1434 -0.2430  0.4627
 1146SOL    HW115071   3.284   2.821  14.907 -0.0654  2.2666  1.3282
 1146SOL    HW215072   3.173   2.801  14.812 -1.8923 -2.0379  1.0330
 1147SOL     OW15073   4.088   2.011   4.128  0.2070  0.0966  0.5230
 1147SOL    HW115074   4.057   2.087   4.079  0.7173 -0.3479 -0.4770
 1147SOL    HW215075   4.006   1.977   4.163  1.0597 -0.0249  2.4435
 1148SOL     OW15076   3.643   2.750   1.003  0.3445 -0.3918 -0.0228
 1148SOL    HW115077   3.694   2.830   0.991 -2.4452  1.5944  1.2431
 1148SOL    HW215078   3.599   2.771   1.086 -0.3842 -1.8055 -0.0477
 1149SOL     OW15079   1.067   0.257  11.144  0.0991  0.0417 -0.1919
 1149SOL    HW115080   1.039   0.318  11.212 -0.0403  0.1810 -0.3733
 1149SOL    HW215081   1.056   0.315  11.069 -2.9789 -0.5160 -0.1685
 1150SOL     OW15082   0.895   1.076   3.638 -0.1827 -0.2325 -0.2765
 1150SOL    HW115083   0.941   1.149   3.596  0.2285 -0.5060 -0.2930
 1150SOL    HW215084   0.817   1.062   3.585 -1.6541 -1.1040  2.0928
 1151SOL     OW15085   1.685   4.222   4.914 -0.0435  0.0696 -0.1434
 1151SOL    HW115086   1.662   4.261   4.830 -0.8955 -0.9975 -0.4004
 1151SOL    HW215087   1.764   4.172   4.892 -0.4966  0.0262 -1.6810
 1152SOL     OW15088   0.085   0.742  13.663 -0.0577 -0.0801 -0.0230
 1152SOL    HW115089   0.167   0.762  13.618  0.0753  2.3789  1.2632
 1152SOL    HW215090   0.021   0.742  13.592 -1.5695  2.2329  1.3214
 1153SOL     OW15091   0.840   3.331  11.514  0.3735 -0.5110  0.3043
 1153SOL    HW115092   0.904   3.392  11.479  0.8046 -0.5844  0.9827
 1153SOL    HW215093   0.849   3.324  11.609  0.7340 -0.8390  0.2442
 1154SOL     OW15094   0.849   1.290   4.559 -0.0622 -0.0015 -0.3271
 1154SOL    HW115095   0.757   1.299   4.533 -0.4323 -1.6447  0.3689
 1154SOL    HW215096   0.869   1.381   4.579  0.0793 -0.2431  0.6598
 1155SOL     OW15097   3.044   3.034   4.921  0.2120  0.5157  0.0771
 1155SOL    HW115098   3.081   3.071   4.841  0.4915  0.4196  0.1596
 1155SOL    HW215099   3.126   2.988   4.941 -1.5573 -1.6240  2.3818
 1156SOL     OW15100   1.297   0.056   4.558  0.3283 -0.5953 -0.3351
 1156SOL    HW115101   1.348   0.116   4.505  1.0845  0.0479  1.1171
 1156SOL    HW215102   1.274   0.104   4.638  2.8389  0.2640 -0.1114
 1157SOL     OW15103   1.745   3.230   1.985 -0.8231  0.3418  0.3351
 1157SOL    HW115104   1.840   3.237   1.972 -0.5528  2.2675  3.2689
 1157SOL    HW215105   1.737   3.158   1.922 -0.5902  1.3542 -0.8371
 1158SOL     OW15106   1.048   4.594   5.598  0.1282 -0.1758  0.7844
 1158SOL    HW115107   0.996   4.520   5.567 -0.0334  1.1428 -2.0394
 1158SOL    HW215108   1.133   4.563   5.568  0.6004  1.1672  0.7438
 1159SOL     OW15109   3.581   0.110   5.318 -0.1543 -0.1395  0.4365
 1159SOL    HW115110   3.549   0.145   5.234 -0.3043 -1.1638  0.0605
 1159SOL    HW215111   3.554   0.019   5.305  0.7164 -0.2139 -0.8021
 1160SOL     OW15112   0.484   0.160   3.784 -0.7610 -0.2259  0.3925
 1160SOL    HW115113   0.503   0.161   3.878 -0.2600  0.1433  0.2824
 1160SOL    HW215114   0.505   0.068   3.767  1.6534  0.4855 -0.4268
 1161SOL     OW15115   2.892   2.933  16.073 -0.1874 -0.3551 -0.0878
 1161SOL    HW115116   2.887   2.853  16.020  1.6075  0.3795 -1.3810
 1161SOL    HW215117   2.979   2.961  16.043 -0.6151  0.9855 -0.0771
 1162SOL     OW15118   3.002   0.216   8.353 -0.7803  0.0574 -0.4915
 1162SOL    HW115119   3.082   0.258   8.323  0.0840 -0.4128  1.1542
 1162SOL    HW215120   2.982   0.269   8.431  0.0203 -0.3375 -0.0237
 1163SOL     OW15121   0.836   0.912  15.518 -0.1525  0.2162  1.0371
 1163SOL    HW115122   0.914   0.923  15.465 -1.0013 -1.4522 -0.5668
 1163SOL    HW215123   0.876   0.887  15.601 -0.1164 -1.3931  0.5279
 1164SOL     OW15124   3.387   2.083  12.256 -0.2638  0.1236 -0.0337
 1164SOL    HW115125   3.391   2.006  12.313  1.6684  2.0033  2.3350
 1164SOL    HW215126   3.304   2.065  12.211  0.7148 -1.5932 -1.1799
 1165SOL     OW15127   4.289   1.554   9.940  0.3666  0.3155 -0.6646
 1165SOL    HW115128   4.348   1.517   9.874  0.6992 -1.7010  0.7470
 1165SOL    HW215129   4.257   1.635   9.901 -0.2530  0.1840 -0.4238
 1166SOL     OW15130   0.758   3.957  17.696  0.3867 -1.0864  0.3431
 1166SOL    HW115131   0.677   3.936   0.004 -0.4036 -1.4446 -1.2112
 1166SOL    HW215132   0.792   3.871  17.673 -0.7466 -0.6036 -3.0162
 1167SOL     OW15133   1.556   4.518   9.326 -0.2191  0.2011 -0.2545
 1167SOL    HW115134   1.467   4.504   9.295 -0.4228  2.5060 -0.7111
 1167SOL    HW215135   1.541   4.528   9.420  1.3308 -0.8607  0.1176
 1168SOL     OW15136   1.126   4.500   7.904  0.0198 -0.1956 -0.4668
 1168SOL    HW115137   1.080   4.584   7.893  0.1107 -0.1466 -0.4698
 1168SOL    HW215138   1.216   4.527   7.886 -1.0104  2.3641 -1.8180
 1169SOL     OW15139   0.271   2.001   2.771  0.3877 -0.4139  0.2139
 1169SOL    HW115140   0.325   2.034   2.843  0.9791  1.8907 -1.2831
 1169SOL    HW215141   0.186   1.999   2.815 -0.7213  1.3317 -1.8547
 1170SOL     OW15142   0.151   4.067  14.734 -0.1360  0.0109 -0.6187
 1170SOL    HW115143   0.180   4.154  14.762 -0.2993  0.2567 -1.2126
 1170SOL    HW215144   0.056   4.079  14.736 -0.1200  0.3673 -2.1408
 1171SOL     OW15145   2.419   0.072   9.723 -0.5159  0.3679  0.7045
 1171SOL    HW115146   2.449   0.161   9.705 -0.6853  0.1131 -0.8181
 1171SOL    HW215147   2.474   0.055   9.799  1.5657  2.2165 -0.3914
 1172SOL     OW15148   3.738   1.166   2.405 -0.4936  0.1234  0.0028
 1172SOL    HW115149   3.815   1.171   2.462 -0.4749 -2.9549  0.2748
 1172SOL    HW215150   3.725   1.257   2.378  0.2836 -0.9907 -4.2120
 1173SOL     OW15151   3.799   3.069   2.236 -0.2631  0.0945  0.2958
 1173SOL    HW115152   3.704   3.065   2.224 -0.0883 -1.2465 -0.6530
 1173SOL    HW215153   3.810   3.012   2.312 -0.1276  1.5463  1.3572
 1174SOL     OW15154   0.038   1.662   8.601 -0.9123 -0.0322  0.1777
 1174SOL    HW115155   4.700   1.607   8.630 -1.2545  0.4762  0.2769
 1174SOL    HW215156   0.028   1.657   8.506  0.4864 -0.3480  0.0529
 1175SOL     OW15157   4.220   0.627  12.704  0.4145 -0.3443 -0.5103
 1175SOL    HW115158   4.288   0.693  12.704  0.8117 -0.7551 -1.7333
 1175SOL    HW215159   4.278   0.552  12.717 -1.4554 -2.3516 -3.5470
 1176SOL     OW15160   3.271   3.849   6.175  0.4132  0.4869  0.3322
 1176SOL    HW115161   3.351   3.850   6.122  0.3497  0.3560  0.2323
 1176SOL    HW215162   3.223   3.926   6.144  0.9989  0.4195 -0.7403
 1177SOL     OW15163   4.093   2.532   5.437 -0.2033  0.9176 -0.2001
 1177SOL    HW115164   4.175   2.553   5.391  0.1298 -3.3292 -1.5442
 1177SOL    HW215165   4.047   2.506   5.357 -0.4158  0.0344  0.2182
 1178SOL     OW15166   2.610   3.828   4.855 -0.2169  0.2561  0.1898
 1178SOL    HW115167   2.623   3.803   4.946 -1.0305 -0.2764  0.1596
 1178SOL    HW215168   2.556   3.757   4.820 -0.6958 -0.1062  1.6564
 1179SOL     OW15169   3.850   3.771   2.824  0.3075 -0.4819  0.1978
 1179SOL    HW115170   3.862   3.695   2.768 -0.0335  0.2134 -0.8122
 1179SOL    HW215171   3.760   3.797   2.803  0.6159  1.1804  0.9145
 1180SOL     OW15172   4.008   3.241   4.128  0.4442  0.7838 -0.6597
 1180SOL    HW115173   3.914   3.240   4.149  0.7070 -1.9894  0.4089
 1180SOL    HW215174   4.008   3.172   4.061  0.2516 -0.6201  0.7664
 1181SOL     OW15175   3.433   2.900   7.825 -0.9577  0.4305 -0.3929
 1181SOL    HW115176   3.501   2.872   7.886 -1.5885  0.7811  0.4882
 1181SOL    HW215177   3.440   2.834   7.756 -2.2410 -3.9395  3.6477
 1182SOL     OW15178   2.911   2.683   6.337  0.5185 -0.3820 -0.1864
 1182SOL    HW115179   2.886   2.750   6.400  1.8350 -0.7792  0.7602
 1182SOL    HW215180   3.006   2.691   6.332  0.6027  0.4881  2.9996
 1183SOL     OW15181   3.825   4.460   3.374 -0.1384 -0.6128  0.1774
 1183SOL    HW115182   3.874   4.393   3.326 -1.8586 -2.0743  0.4800
 1183SOL    HW215183   3.844   4.446   3.467 -0.0313 -0.4533  0.1808
 1184SOL     OW15184   0.590   0.249   3.004  0.4974 -0.1729  0.1085
 1184SOL    HW115185   0.538   0.286   3.075 -1.0070 -0.8644 -0.6388
 1184SOL    HW215186   0.522   0.241   2.937  0.7420  1.2690 -0.3188
 1185SOL     OW15187   1.361   1.592   3.431  0.0955 -0.7254  0.0467
 1185SOL    HW115188   1.351   1.612   3.338 -0.9859  1.4116  0.6214
 1185SOL    HW215189   1.449   1.624   3.449 -0.8368  1.5840  0.5480
 1186SOL     OW15190   2.378   4.695  15.749 -0.3371 -0.8485 -0.4665
 1186SOL    HW115191   2.303   4.662  15.798  0.8118 -0.8095  1.3151
 1186SOL    HW215192   2.426   4.728  15.825 -1.5294 -0.3551  0.0889
 1187SOL     OW15193   2.494   2.850   0.831  0.2311  0.1856  0.4687
 1187SOL    HW115194   2.516   2.879   0.742 -2.0295  0.7635  0.1006
 1187SOL    HW215195   2.415   2.803   0.805  0.3693 -0.3860  1.1122
 1188SOL     OW15196   2.220   4.622  10.955  0.0282  0.0506 -0.0148
 1188SOL    HW115197   2.303   4.597  10.997  0.2917  2.3796  0.8419
 1188SOL    HW215198   2.224   4.717  10.952 -0.5433  0.0690 -0.1253
 1189SOL     OW15199   2.788   0.104  13.058  0.5215 -0.5567 -0.2202
 1189SOL    HW115200   2.872   0.066  13.032  0.3203 -0.2587 -1.3033
 1189SOL    HW215201   2.795   0.199  13.053  0.4239 -0.5927 -0.9678
 1190SOL     OW15202   1.468   0.284  15.077  0.2444 -0.2209 -0.1340
 1190SOL    HW115203   1.502   0.276  15.166 -0.7310  0.9484  0.3441
 1190SOL    HW215204   1.502   0.361  15.032  2.2191 -0.3483  1.1676
 1191SOL     OW15205   1.286   2.712  12.978  0.3084 -0.1687  0.4497
 1191SOL    HW115206   1.359   2.771  12.956  0.2985 -0.7286 -1.0172
 1191SOL    HW215207   1.286   2.664  12.896  1.4921 -2.3929  1.7476
 1192SOL     OW15208   0.617   0.839   1.181  0.2035  0.2185 -0.5074
 1192SOL    HW115209   0.586   0.750   1.199  0.3576  0.3005  0.1769
 1192SOL    HW215210   0.632   0.870   1.271  2.9525 -0.1695 -0.8158
 1193SOL     OW15211   2.495   2.971  10.378  0.3624  0.1492  0.1798
 1193SOL    HW115212   2.418   2.918  10.355 -1.3179  1.1085  3.6832
 1193SOL    HW215213   2.467   3.039  10.439  0.4503 -0.6945  1.1560
 1194SOL     OW15214   0.401   3.536   8.193  0.2334 -0.4260 -0.2243
 1194SOL    HW115215   0.354   3.484   8.129 -1.0170  0.1881  0.1857
 1194SOL    HW215216   0.484   3.490   8.197  0.3870 -0.2369 -1.4111
 1195SOL     OW15217   4.242   2.608   3.722  0.4147  0.0471  0.8046
 1195SOL    HW115218   4.295   2.688   3.717  0.6192  0.0124  2.6293
 1195SOL    HW215219   4.244   2.588   3.816  0.8633 -0.1268  0.7614
 1196SOL     OW15220   0.612   0.964   8.399 -0.5510 -0.6323  0.1350
 1196SOL    HW115221   0.701   0.979   8.431 -0.2259  0.6148 -1.3416
 1196SOL    HW215222   0.635   0.873   8.377 -1.6380 -0.3013 -2.3904
 1197SOL     OW15223   3.492   2.912   6.054 -0.3537 -0.0962 -0.3334
 1197SOL    HW115224   3.569   2.941   6.005 -0.7732  1.7711  0.0892
 1197SOL    HW215225   3.495   2.818   6.036 -0.0523 -0.1355 -0.0816
 1198SOL     OW15226   2.684   1.570   9.008 -0.3627 -0.2416  0.6313
 1198SOL    HW115227   2.637   1.510   9.065  0.4773 -1.9079 -0.4204
 1198SOL    HW215228   2.642   1.561   8.922  0.4451  0.0125  0.2006
 1199SOL     OW15229   2.571   2.023   7.625 -0.4551 -0.0486 -0.2102
 1199SOL    HW115230   2.495   2.082   7.620  1.2183  2.0929 -0.2619
 1199SOL    HW215231   2.635   2.060   7.686  0.8453 -3.5110  0.5381
 1200SOL     OW15232   3.242   1.295   4.969 -0.4964  0.0780 -0.1575
 1200SOL    HW115233   3.175   1.322   4.906 -0.5186 -1.7019 -0.8862
 1200SOL    HW215234   3.182   1.253   5.031 -0.6707  0.2451 -0.2143
 1201SOL     OW15235   1.811   0.717   4.681 -0.0523 -0.3251 -0.2332
 1201SOL    HW115236   1.806   0.782   4.611  0.6045 -1.1903 -1.0848
 1201SOL    HW215237   1.725   0.736   4.717  0.7193  1.8319  0.4826
 1202SOL     OW15238   2.718   0.247   5.616 -0.5590  0.0541  0.4897
 1202SOL    HW115239   2.724   0.241   5.712 -1.6817 -0.7472  0.5138
 1202SOL    HW215240   2.744   0.158   5.594 -1.0659  0.2881 -1.0590
 1203SOL     OW15241   4.381   3.736   8.938 -0.0942 -0.3843 -0.2824
 1203SOL    HW115242   4.464   3.775   8.964 -1.7330  0.8415  3.2480
 1203SOL    HW215243   4.420   3.654   8.910  1.9667  0.5346 -0.1243
 1204SOL     OW15244   1.836   2.140   5.226 -0.5463 -0.5878  0.2852
 1204SOL    HW115245   1.916   2.167   5.182  0.4542 -2.2417  1.0711
 1204SOL    HW215246   1.838   2.195   5.304 -0.6258  1.7144 -1.3477
 1205SOL     OW15247   1.095   0.311   3.329 -0.0967  0.2615 -0.4163
 1205SOL    HW115248   1.013   0.283   3.289 -0.4449  1.5019 -0.5710
 1205SOL    HW215249   1.129   0.235   3.377  1.6459  0.6163 -1.0641
 1206SOL     OW15250   3.942   2.228   6.276 -0.5223 -0.0022 -0.0938
 1206SOL    HW115251   3.864   2.179   6.253 -0.4772  0.5006 -1.2961
 1206SOL    HW215252   3.999   2.153   6.260 -0.3619  0.0840  0.0683
 1207SOL     OW15253   3.323   0.687   6.629  0.9717 -0.4399 -0.1722
 1207SOL    HW115254   3.320   0.706   6.722  1.8692  1.7018 -0.5942
 1207SOL    HW215255   3.365   0.767   6.599 -1.0946  0.2138 -1.3559
 1208SOL     OW15256   2.124   2.945   8.892  0.3158 -0.5951 -0.0420
 1208SOL    HW115257   2.075   2.984   8.964  1.3872  0.1386  0.2953
 1208SOL    HW215258   2.154   3.020   8.842 -0.4049  0.3087  0.8878
 1209SOL     OW15259   3.870   2.058   8.217  0.4440  0.2799 -0.0365
 1209SOL    HW115260   3.839   1.980   8.264 -1.3294  1.5046  0.8272
 1209SOL    HW215261   3.920   2.097   8.289  1.0716 -0.8982  0.1736
 1210SOL     OW15262   1.593   0.539  15.056 -0.2103  0.3049 -0.4161
 1210SOL    HW115263   1.572   0.621  15.012 -1.7623 -0.6718 -1.4830
 1210SOL    HW215264   1.687   0.541  15.039 -0.0149  1.2900  0.8448
 1211SOL     OW15265   3.300   3.857  17.209 -0.5477 -0.5655  0.4261
 1211SOL    HW115266   3.385   3.827  17.243 -0.1417 -1.0605 -1.0282
 1211SOL    HW215267   3.246   3.870  17.287 -1.1236 -0.5422  0.0258
 1212SOL     OW15268   1.202   0.098   7.709  0.2157 -0.4852  0.1622
 1212SOL    HW115269   1.190   0.091   7.804  0.6837  2.7508  0.4625
 1212SOL    HW215270   1.296   0.089   7.722  0.3401 -1.6258 -1.5106
 1213SOL     OW15271   4.038   0.412   4.838 -0.2880 -0.1052 -0.0570
 1213SOL    HW115272   4.108   0.470   4.808 -0.1860  0.5538  1.4231
 1213SOL    HW215273   4.077   0.326   4.821 -1.5102 -1.0868  2.0541
 1214SOL     OW15274   3.684   2.241  12.304 -0.5950 -0.4890 -0.0948
 1214SOL    HW115275   3.678   2.237  12.209 -1.4632  0.2320 -0.0687
 1214SOL    HW215276   3.652   2.329  12.320 -2.7264 -1.1311 -0.8173
 1215SOL     OW15277   3.720   0.656  12.259 -0.5933  0.4235  0.0869
 1215SOL    HW115278   3.676   0.721  12.315 -0.7908 -0.6927  1.2226
 1215SOL    HW215279   3.765   0.707  12.192  1.0831  1.5633  2.0593
 1216SOL     OW15280   4.006   3.755   5.097  0.2963  0.3859 -0.4679
 1216SOL    HW115281   4.023   3.706   5.177 -2.5649  1.0198  0.5308
 1216SOL    HW215282   4.028   3.845   5.121 -0.5899  0.3072  0.6288
 1217SOL     OW15283   4.540   2.097  13.750  0.4244 -1.6834 -0.2271
 1217SOL    HW115284   4.600   2.140  13.690 -0.7855 -3.3120 -2.6311
 1217SOL    HW215285   4.521   2.152  13.826  0.3159 -2.8997  0.6284
 1218SOL     OW15286   2.985   3.693   2.222  0.3004 -0.1603 -0.2813
 1218SOL    HW115287   3.074   3.704   2.189  0.8966 -1.1478  1.0128
 1218SOL    HW215288   2.976   3.598   2.214 -2.6136 -0.0818  2.0183
 1219SOL     OW15289   2.031   2.038   5.592 -0.2752 -0.4478  0.4959
 1219SOL    HW115290   2.110   2.044   5.539 -1.1840 -2.8840 -1.1122
 1219SOL    HW215291   2.075   2.047   5.676  0.2877 -1.3410  0.2943
 1220SOL     OW15292   1.931   1.875   7.198 -0.7524  0.6409 -0.3342
 1220SOL    HW115293   1.988   1.951   7.200  0.0450  0.0658 -1.6298
 1220SOL    HW215294   1.844   1.915   7.191 -0.7565  0.4917 -1.1722
 1221SOL     OW15295   2.859   1.268   2.461 -0.0386  0.5039 -0.8066
 1221SOL    HW115296   2.807   1.242   2.384  3.9062 -2.3267 -2.4887
 1221SOL    HW215297   2.950   1.267   2.431 -0.0432  0.2107 -0.8030
 1222SOL     OW15298   2.856   4.540   6.830 -0.3181  0.2241 -0.3147
 1222SOL    HW115299   2.779   4.556   6.884 -0.7247  1.2179 -1.1706
 1222SOL    HW215300   2.933   4.582   6.869 -0.5919 -0.5072  0.9937
 1223SOL     OW15301   2.022   0.568   4.836  0.2840 -0.0509  0.1483
 1223SOL    HW115302   2.025   0.537   4.746  2.1129 -0.5295  0.3678
 1223SOL    HW215303   1.942   0.621   4.840  0.1940 -0.2583  1.3106
 1224SOL     OW15304   2.874   1.798   6.241  0.2225  0.6508 -0.6091
 1224SOL    HW115305   2.875   1.742   6.318  0.7397 -0.1642 -1.2102
 1224SOL    HW215306   2.885   1.884   6.281  0.0000  0.2096  0.3855
 1225SOL     OW15307   1.322   2.756   5.050  0.0977  0.1544  0.4488
 1225SOL    HW115308   1.400   2.792   5.008 -0.4880  0.3956 -0.4228
 1225SOL    HW215309   1.353   2.666   5.063 -1.2678 -0.2767  0.6993
 1226SOL     OW15310   0.296   1.430  12.319 -0.4226  0.5393 -0.3807
 1226SOL    HW115311   0.202   1.435  12.302 -0.4411  0.9144 -0.1819
 1226SOL    HW215312   0.315   1.522  12.337  2.3970  0.0238 -0.6636
 1227SOL     OW15313   4.335   2.112   4.639  0.1312  0.6887  0.3316
 1227SOL    HW115314   4.295   2.191   4.677 -1.9162 -0.5444  0.6902
 1227SOL    HW215315   4.417   2.110   4.688 -1.8347  2.0779  3.6979
 1228SOL     OW15316   2.827   3.300  15.974  0.1097 -0.1082 -0.0423
 1228SOL    HW115317   2.735   3.278  15.957  0.4120 -1.0346 -0.4906
 1228SOL    HW215318   2.831   3.387  16.015 -0.0758  0.2025 -0.6837
 1229SOL     OW15319   1.992   3.102   4.578 -0.2121  0.2174  0.0593
 1229SOL    HW115320   1.903   3.117   4.607 -0.6809 -0.4628 -1.0118
 1229SOL    HW215321   2.030   3.185   4.607 -1.9013  1.1410 -0.4080
 1230SOL     OW15322   2.925   2.323  12.316 -0.2157  0.9257  0.0524
 1230SOL    HW115323   2.953   2.249  12.261 -4.2084 -1.4386  1.1738
 1230SOL    HW215324   2.957   2.401  12.271  2.5215 -0.5454 -0.5238
 1231SOL     OW15325   4.211   3.208   7.854 -0.1200  0.2780 -0.3182
 1231SOL    HW115326   4.152   3.147   7.810 -0.6843 -1.3793  2.7368
 1231SOL    HW215327   4.231   3.169   7.939 -1.5188  2.6789  1.1073
 1232SOL     OW15328   0.108   4.404   7.318 -0.6995 -0.5808 -0.5453
 1232SOL    HW115329   0.123   4.493   7.285  0.9035 -1.3218 -1.7904
 1232SOL    HW215330   0.195   4.368   7.301  0.5038  0.5881  3.1105
 1233SOL     OW15331   2.986   2.002   8.012 -0.0540 -0.0314  0.0480
 1233SOL    HW115332   2.983   2.087   8.056 -0.7901  0.9187 -1.8181
 1233SOL    HW215333   3.052   1.948   8.056 -0.3571  0.4847  1.1547
 1234SOL     OW15334   4.151   3.745   7.537 -0.2472  0.3411 -0.0840
 1234SOL    HW115335   4.058   3.755   7.557 -0.5415 -1.5064 -0.5357
 1234SOL    HW215336   4.185   3.766   7.624  0.9146  0.0844 -0.4728
 1235SOL     OW15337   1.986   4.661   1.313 -0.2266 -0.5166  0.0600
 1235SOL    HW115338   2.050   4.642   1.244 -1.5660  2.7488 -2.1063
 1235SOL    HW215339   1.945   4.578   1.336 -0.7035 -0.6069 -1.1335
 1236SOL     OW15340   4.072   4.043   4.466  0.2750  0.3428  0.1778
 1236SOL    HW115341   4.122   4.001   4.536 -0.5302 -0.2205  0.4180
 1236SOL    HW215342   4.088   3.974   4.401 -0.3693  1.2437 -0.9232
 1237SOL     OW15343   2.109   1.789  11.737 -0.1783  0.0091 -0.3001
 1237SOL    HW115344   2.194   1.744  11.739  0.3851  1.0844 -0.3844
 1237SOL    HW215345   2.050   1.722  11.701  0.7523 -0.9538 -0.0562
 1238SOL     OW15346   0.691   3.453   2.928  0.1179 -0.8978  0.5269
 1238SOL    HW115347   0.754   3.521   2.952 -3.0074  2.0135  0.5258
 1238SOL    HW215348   0.641   3.505   2.865  1.1846 -0.6886 -0.1517
 1239SOL     OW15349   2.971   2.296   0.181  0.1827  0.3017  0.1598
 1239SOL    HW115350   2.967   2.277   0.275  0.0944 -1.0691 -0.1309
 1239SOL    HW215351   2.921   2.378   0.183 -0.8698 -0.2893 -3.1305
 1240SOL     OW15352   3.331   1.129   4.719 -0.3007  0.2328 -0.8202
 1240SOL    HW115353   3.290   1.206   4.680 -2.1061  0.8090  2.2093
 1240SOL    HW215354   3.375   1.088   4.644 -0.0572  2.7594 -2.0381
 1241SOL     OW15355   3.004   1.838  11.928 -0.5711 -0.1782  0.3235
 1241SOL    HW115356   3.030   1.748  11.949  0.5320  0.3200  1.0799
 1241SOL    HW215357   2.912   1.831  11.953 -0.1365 -1.2840  1.6562
 1242SOL     OW15358   1.800   2.234   2.339 -0.9757  0.0679  0.5047
 1242SOL    HW115359   1.715   2.277   2.343 -0.7672  0.1544  4.1012
 1242SOL    HW215360   1.809   2.214   2.246 -1.1467 -0.2674  0.5624
 1243SOL     OW15361   0.724   0.367  13.362 -0.2803 -0.1945  0.6191
 1243SOL    HW115362   0.723   0.407  13.275  1.0833 -0.6921  0.3780
 1243SOL    HW215363   0.757   0.442  13.412  0.1532  1.0217 -1.5035
 1244SOL     OW15364   0.038   2.661   4.945  0.5574 -0.5166  0.2225
 1244SOL    HW115365   4.701   2.678   5.005 -0.9048 -1.9676 -1.1179
 1244SOL    HW215366   0.053   2.750   4.913  4.6621 -0.1950  3.1336
 1245SOL     OW15367   0.576   2.159   7.016  0.4631  0.2882  0.1253
 1245SOL    HW115368   0.530   2.158   7.100 -0.7068  0.6587 -0.5130
 1245SOL    HW215369   0.610   2.070   7.008  2.0250  1.0733 -1.7675
 1246SOL     OW15370   1.456   0.743  10.267 -0.7092  0.1689  0.8869
 1246SOL    HW115371   1.421   0.691  10.195  1.7482 -0.0888 -0.1269
 1246SOL    HW215372   1.540   0.701  10.286  1.5779  3.9824 -0.8818
 1247SOL     OW15373   1.346   4.330   7.628  0.1462  1.0190 -0.2159
 1247SOL    HW115374   1.344   4.385   7.707 -0.2799 -0.8756  1.0912
 1247SOL    HW215375   1.255   4.300   7.623 -0.0029  1.4172  0.1672
 1248SOL     OW15376   1.423   2.177   8.669 -0.0995  0.0019  0.0435
 1248SOL    HW115377   1.351   2.195   8.608  0.4773  0.3499 -0.5349
 1248SOL    HW215378   1.479   2.254   8.667  0.5007 -0.3566  2.6953
 1249SOL     OW15379   4.681   1.689   3.502  0.1703  0.0017 -0.5298
 1249SOL    HW115380   4.639   1.775   3.493 -1.7438 -1.0134 -1.3668
 1249SOL    HW215381   4.643   1.639   3.429  1.3711 -3.0926  0.9828
 1250SOL     OW15382   4.105   3.895   8.025 -0.4152  0.6066 -0.2455
 1250SOL    HW115383   4.031   3.904   7.965  1.0599  0.8830 -2.0031
 1250SOL    HW215384   4.109   3.986   8.055 -0.7813  0.3437  0.6057
 1251SOL     OW15385   1.060   3.655   2.115 -0.0788 -0.0725  0.1274
 1251SOL    HW115386   1.085   3.652   2.208 -1.0807  2.3606  0.4760
 1251SOL    HW215387   1.109   3.736   2.098  0.8916 -0.9679 -1.3203
 1252SOL     OW15388   3.888   3.997  16.654  0.0916 -0.1068 -0.5984
 1252SOL    HW115389   3.818   4.036  16.602  0.3191  0.2197 -0.6597
 1252SOL    HW215390   3.956   4.064  16.648  1.4110 -1.2026  2.1306
 1253SOL     OW15391   1.662   2.545   7.820  0.3882  0.0683  0.0236
 1253SOL    HW115392   1.570   2.567   7.830  0.3887  0.6944 -1.3944
 1253SOL    HW215393   1.690   2.542   7.912 -0.1458  1.7352  0.2337
 1254SOL     OW15394   2.892   2.699   0.278 -0.1235 -0.2674 -0.5828
 1254SOL    HW115395   2.963   2.668   0.334 -1.3170 -2.8166 -0.4840
 1254SOL    HW215396   2.950   2.706   0.202  0.6715  1.1566  0.1696
 1255SOL     OW15397   4.303   4.579  15.454  0.1762 -0.8388 -0.9337
 1255SOL    HW115398   4.325   4.672  15.455 -2.0627 -0.3230  2.0103
 1255SOL    HW215399   4.219   4.581  15.408  0.1485  0.0070 -0.8560
 1256SOL     OW15400   3.646   3.990   5.163  0.2139  0.3232  0.0089
 1256SOL    HW115401   3.632   3.945   5.079  0.5525  2.4852 -1.1928
 1256SOL    HW215402   3.709   3.927   5.198  0.6193  1.0663  0.6178
 1257SOL     OW15403   0.562   2.868   7.315  0.3234  0.1611  0.3760
 1257SOL    HW115404   0.559   2.826   7.229 -1.2267  0.6825  0.1783
 1257SOL    HW215405   0.484   2.828   7.354 -0.4491  1.2043 -0.0910
 1258SOL     OW15406   0.264   0.851   5.246  0.4476  0.6727  0.2523
 1258SOL    HW115407   0.192   0.889   5.196  0.9362  0.8331 -0.3360
 1258SOL    HW215408   0.309   0.801   5.178 -1.7808  0.0869 -0.7751
 1259SOL     OW15409   1.899   1.154   4.388 -0.1496  0.6388 -0.0877
 1259SOL    HW115410   1.843   1.198   4.450 -0.6047  0.0693 -0.0931
 1259SOL    HW215411   1.891   1.223   4.322  0.1032 -1.3076 -2.1553
 1260SOL     OW15412   1.997   3.997   5.767 -0.1922 -0.0885  0.3073
 1260SOL    HW115413   1.978   4.005   5.861 -0.1019 -2.5283  0.5167
 1260SOL    HW215414   2.027   3.906   5.765 -2.1194 -0.7172 -0.1593
 1261SOL     OW15415   0.908   0.212  14.316 -0.2063 -0.0630  0.3887
 1261SOL    HW115416   0.961   0.260  14.380  1.9584 -1.9348  0.0071
 1261SOL    HW215417   0.881   0.141  14.374 -2.7670 -0.8264 -1.7915
 1262SOL     OW15418   3.020   0.302   7.433  0.1079 -0.1466  0.4376
 1262SOL    HW115419   3.055   0.335   7.516 -1.1318 -0.8241  1.2335
 1262SOL    HW215420   3.077   0.354   7.377 -1.0754 -0.0208 -0.6731
 1263SOL     OW15421   2.535   4.147  11.665  0.1402 -0.0684 -0.0401
 1263SOL    HW115422   2.532   4.179  11.755  0.6101 -0.7674  0.2286
 1263SOL    HW215423   2.619   4.183  11.636 -0.4447  0.6260 -0.8697
 1264SOL     OW15424   0.045   0.096   6.593  0.0308  0.2369  0.2706
 1264SOL    HW115425   0.003   0.173   6.556 -0.2543 -0.1951 -0.3070
 1264SOL    HW215426   0.066   0.038   6.519 -2.4324 -0.0297 -0.2128
 1265SOL     OW15427   1.499   2.933   7.252  0.0672  0.2125  0.5090
 1265SOL    HW115428   1.491   2.841   7.227  1.3790  0.4337 -0.7383
 1265SOL    HW215429   1.484   2.977   7.168 -0.8696  0.5317  0.8435
 1266SOL     OW15430   0.918   0.611   9.099 -0.1644  0.2242  0.6167
 1266SOL    HW115431   0.970   0.537   9.066  0.7931  1.1075  0.1406
 1266SOL    HW215432   0.983   0.648   9.160  0.2815 -0.6834  0.6930
 1267SOL     OW15433   4.369   1.071   2.411 -0.4633 -0.3151  0.2081
 1267SOL    HW115434   4.329   1.045   2.494 -0.3730  0.1701  0.3996
 1267SOL    HW215435   4.318   1.018   2.348 -0.6553 -0.3476  0.3902
 1268SOL     OW15436   2.005   4.148   9.184 -0.0911  0.1741 -0.0379
 1268SOL    HW115437   2.063   4.197   9.126  1.0052 -1.0359  0.0124
 1268SOL    HW215438   2.065   4.074   9.195  1.0499  1.3888  1.9164
 1269SOL     OW15439   2.138   0.113   5.649  0.0437 -0.6055 -1.2174
 1269SOL    HW115440   2.218   0.071   5.618  1.2391  0.9079 -0.2036
 1269SOL    HW215441   2.151   0.096   5.742 -0.4179 -0.1636 -1.0697
 1270SOL     OW15442   3.659   2.219   7.078 -0.6769 -0.1337  0.5368
 1270SOL    HW115443   3.626   2.266   7.001 -1.1673 -0.1590  0.7313
 1270SOL    HW215444   3.709   2.286   7.124  1.5385  1.1311 -3.7372
 1271SOL     OW15445   0.164   3.366   0.778  0.3399  0.6689  0.3156
 1271SOL    HW115446   0.146   3.307   0.705  0.6477 -1.1548  1.6996
 1271SOL    HW215447   0.152   3.448   0.731 -1.3653  0.5984  0.6125
 1272SOL     OW15448   0.487   4.450   8.058  0.3793 -0.3678  0.3666
 1272SOL    HW115449   0.429   4.447   8.134 -1.0503  1.5163 -0.6497
 1272SOL    HW215450   0.535   4.368   8.065  0.7066 -0.2518 -0.5127
 1273SOL     OW15451   0.602   0.256   4.868 -0.2518  0.3093 -0.0144
 1273SOL    HW115452   0.639   0.343   4.851 -0.6642  0.6848  0.9890
 1273SOL    HW215453   0.577   0.235   4.778  0.6980 -1.7667  0.2021
 1274SOL     OW15454   4.284   4.362   5.742 -0.0125  0.2274  0.0976
 1274SOL    HW115455   4.378   4.370   5.756  0.3506 -2.2857 -1.0846
 1274SOL    HW215456   4.278   4.311   5.661  1.8644 -0.6937  0.5497
 1275SOL     OW15457   3.168   4.568   5.142 -0.1615 -0.1017  0.1396
 1275SOL    HW115458   3.165   4.472   5.144  1.7627 -0.1599  0.2163
 1275SOL    HW215459   3.187   4.597   5.053 -0.2447  1.2059  0.5461
 1276SOL     OW15460   2.913   1.681   8.181  0.5731 -0.1390 -0.5974
 1276SOL    HW115461   2.961   1.658   8.102  0.1069 -2.2706 -0.2662
 1276SOL    HW215462   2.968   1.756   8.206  0.3967 -0.2869  0.2552
 1277SOL     OW15463   0.322   3.132  13.376 -0.0393 -0.3605 -0.1596
 1277SOL    HW115464   0.287   3.188  13.307 -0.0897  1.5735  1.4267
 1277SOL    HW215465   0.290   3.045  13.352  0.0967  0.0574 -1.8693
 1278SOL     OW15466   0.797   1.287   3.132 -0.1112 -0.3612 -0.4303
 1278SOL    HW115467   0.832   1.223   3.070 -2.0328 -1.4971 -0.3367
 1278SOL    HW215468   0.709   1.250   3.143 -0.0554 -0.9624 -2.1516
 1279SOL     OW15469   2.092   2.085   6.994  0.0988  0.0854 -0.2667
 1279SOL    HW115470   2.101   2.164   7.047 -0.6768  1.7618 -2.6348
 1279SOL    HW215471   2.007   2.106   6.956  0.1305  0.0172 -0.3756
 1280SOL     OW15472   1.380   4.460   9.851  0.4924  0.3449 -0.1179
 1280SOL    HW115473   1.313   4.394   9.838  0.8038  0.0337 -0.1316
 1280SOL    HW215474   1.435   4.430   9.923  0.9149  0.1353 -0.5304
 1281SOL     OW15475   2.016   3.846   3.946  0.2084  0.8343 -0.0946
 1281SOL    HW115476   1.962   3.904   4.002  1.0268 -0.0236  1.5818
 1281SOL    HW215477   2.108   3.863   3.967 -0.3863  2.5167  1.1885
 1282SOL     OW15478   0.472   1.956   9.798  0.1642  0.0445 -0.0455
 1282SOL    HW115479   0.413   2.030   9.812  1.7932  1.2589  0.5646
 1282SOL    HW215480   0.529   1.975   9.723 -1.0121  3.9870  0.0635
 1283SOL     OW15481   1.369   0.632   2.833 -0.1444  0.3585  0.1801
 1283SOL    HW115482   1.315   0.675   2.767  2.0844  1.4098 -0.9596
 1283SOL    HW215483   1.412   0.711   2.865 -0.6919  1.2270 -1.2390
 1284SOL     OW15484   0.377   2.174  10.668 -0.0396  0.3826 -0.0543
 1284SOL    HW115485   0.409   2.196  10.755 -1.7429  1.0799  0.3928
 1284SOL    HW215486   0.337   2.088  10.678  1.1483 -0.0795  0.6611
 1285SOL     OW15487   0.531   4.089   6.070  0.4042  0.0141  0.0311
 1285SOL    HW115488   0.470   4.144   6.119 -1.1895 -1.0872 -0.7076
 1285SOL    HW215489   0.489   4.003   6.075 -0.3488  0.5137  2.2444
 1286SOL     OW15490   4.604   0.915   0.351  0.0284  0.6522  0.1979
 1286SOL    HW115491   4.602   1.010   0.366  1.2807  0.6777  0.2717
 1286SOL    HW215492   4.526   0.895   0.402 -1.0940  1.8083 -1.0798
 1287SOL     OW15493   2.144   4.131  13.977  0.1847  0.4701  0.4940
 1287SOL    HW115494   2.146   4.068  14.050 -2.4339  0.3648  0.4713
 1287SOL    HW215495   2.050   4.127  13.958 -0.1785 -0.7954  2.4299
 1288SOL     OW15496   3.927   2.149   6.836  0.4487 -0.0440  0.2230
 1288SOL    HW115497   3.841   2.145   6.878 -0.2499  1.6266 -1.0169
 1288SOL    HW215498   3.899   2.143   6.744 -1.2966  1.9280  0.6128
 1289SOL     OW15499   0.662   4.733   5.699  0.8492  1.1068 -0.5941
 1289SOL    HW115500   0.751   0.032   5.714  0.5570  1.5706  0.0430
 1289SOL    HW215501   0.670   4.639   5.713 -1.1866  1.3076  1.6939
 1290SOL     OW15502   1.518   4.466   6.531  0.3201 -0.3071  0.6043
 1290SOL    HW115503   1.447   4.402   6.534  0.6374 -0.7182 -0.8984
 1290SOL    HW215504   1.593   4.417   6.562 -1.0875 -2.4537  0.6141
 1291SOL     OW15505   2.213   3.815   3.697 -0.0531 -0.2430  0.0345
 1291SOL    HW115506   2.211   3.724   3.727  1.1123  0.4905  2.3037
 1291SOL    HW215507   2.300   3.821   3.657  1.2453  0.1659  2.9477
 1292SOL     OW15508   3.095   4.210   3.376  0.0772  0.0135  0.1243
 1292SOL    HW115509   3.056   4.170   3.298 -1.8667  1.2334  0.4732
 1292SOL    HW215510   3.174   4.157   3.387 -1.2695 -2.0631 -0.2041
 1293SOL     OW15511   4.311   1.631   2.631 -0.0738 -0.1158  0.2210
 1293SOL    HW115512   4.277   1.542   2.620  0.1026 -0.0502 -0.8481
 1293SOL    HW215513   4.255   1.672   2.565 -0.1360 -0.3894  0.1005
 1294SOL     OW15514   1.264   4.174   2.920 -0.5549  0.3924 -0.5641
 1294SOL    HW115515   1.355   4.166   2.891 -0.4097 -0.6290  0.1593
 1294SOL    HW215516   1.229   4.092   2.885 -1.0072  1.4239 -2.5555
 1295SOL     OW15517   1.896   2.316   5.435  0.4481 -0.5216  0.4627
 1295SOL    HW115518   1.972   2.261   5.452 -0.2266 -1.4823  0.3237
 1295SOL    HW215519   1.852   2.317   5.519  1.0495 -0.2634  0.7748
 1296SOL     OW15520   2.639   1.185   3.610 -0.2700  0.5572  0.1291
 1296SOL    HW115521   2.666   1.137   3.689  2.8668  2.2920  0.1201
 1296SOL    HW215522   2.565   1.230   3.651 -2.3207 -1.0969 -1.7464
 1297SOL     OW15523   4.071   2.036   7.647  0.5101  0.1412  0.0287
 1297SOL    HW115524   4.131   1.967   7.618  0.2340  0.2308 -0.7566
 1297SOL    HW215525   4.048   1.987   7.726  0.3972  1.7386  0.9699
 1298SOL     OW15526   4.592   3.808   7.412 -0.0508  0.3889  0.0519
 1298SOL    HW115527   4.519   3.817   7.350 -0.7199 -1.4082  0.5941
 1298SOL    HW215528   4.655   3.870   7.375  2.1098 -1.2836  0.9607
 1299SOL     OW15529   3.053   3.231   6.922 -0.1907  0.4481 -0.1822
 1299SOL    HW115530   3.125   3.265   6.869 -0.0042 -0.0670 -0.2545
 1299SOL    HW215531   3.043   3.152   6.869 -2.4603  2.0371 -2.1279
 1300SOL     OW15532   1.218   2.212   8.124 -0.6106  0.5853 -0.5651
 1300SOL    HW115533   1.132   2.247   8.147 -1.4342 -2.4201  0.9721
 1300SOL    HW215534   1.195   2.125   8.093 -3.6734  2.2796 -2.9953
 1301SOL     OW15535   4.711   0.159  14.853 -0.5192 -0.0922 -0.1703
 1301SOL    HW115536   4.701   0.069  14.886 -1.5828 -0.1570 -0.6406
 1301SOL    HW215537   4.720   0.136  14.760 -0.8628  0.8555 -0.4367
 1302SOL     OW15538   1.618   4.416   2.808  0.0558  0.1185  0.5013
 1302SOL    HW115539   1.666   4.497   2.827 -0.0589  0.1738  0.5579
 1302SOL    HW215540   1.568   4.407   2.890 -1.8319  3.0709 -0.3297
 1303SOL     OW15541   4.243   2.499   7.494 -0.0487 -0.1050 -0.4238
 1303SOL    HW115542   4.232   2.412   7.457 -0.8377  0.8104 -2.3336
 1303SOL    HW215543   4.274   2.552   7.420 -0.1193  1.4693  0.6735
 1304SOL     OW15544   2.696   2.349   0.502  0.1445  0.7084  0.4086
 1304SOL    HW115545   2.762   2.407   0.539 -0.5091  2.1905 -0.7226
 1304SOL    HW215546   2.752   2.282   0.463  0.1938  1.9102 -1.5789
 1305SOL     OW15547   1.569   3.611   6.607 -0.1545  0.5573 -0.3807
 1305SOL    HW115548   1.523   3.617   6.690  0.5175  0.2503  0.0065
 1305SOL    HW215549   1.572   3.517   6.589 -0.3830  1.0521 -3.0514
 1306SOL     OW15550   1.370   2.030   5.545  0.4503  0.3419 -0.6899
 1306SOL    HW115551   1.423   1.968   5.596 -0.0350  0.9087  0.5027
 1306SOL    HW215552   1.434   2.067   5.485  0.4368  0.8374 -0.3952
 1307SOL     OW15553   1.106   0.812   9.215 -0.1589 -0.0076  0.0325
 1307SOL    HW115554   1.126   0.837   9.305 -3.2322  1.5514  0.2559
 1307SOL    HW215555   1.176   0.867   9.179 -1.4358  1.7509  0.2899
 1308SOL     OW15556   3.842   1.558   1.654  0.6610 -0.0290 -0.2129
 1308SOL    HW115557   3.916   1.581   1.710  0.0419  0.3140  0.4489
 1308SOL    HW215558   3.875   1.471   1.630  0.2355 -0.7682  1.9354
 1309SOL     OW15559   1.548   3.055  12.343  0.4533  0.1930  0.8026
 1309SOL    HW115560   1.583   2.966  12.349 -0.4232 -0.0964  1.6140
 1309SOL    HW215561   1.606   3.104  12.401  1.6699  0.9646 -1.0773
 1310SOL     OW15562   1.581   2.970   0.473  0.2605  0.2568 -0.3046
 1310SOL    HW115563   1.555   2.902   0.411  0.7283 -0.3000  0.1128
 1310SOL    HW215564   1.646   2.930   0.530 -1.9496 -0.9466  1.3503
 1311SOL     OW15565   2.120   0.325   1.444  0.2625  0.1643  0.0749
 1311SOL    HW115566   2.137   0.415   1.473 -0.3949  0.6403 -1.0454
 1311SOL    HW215567   2.039   0.327   1.394 -0.5553  2.1519  1.4737
 1312SOL     OW15568   2.172   1.551  17.557  0.3446  0.0865  0.5325
 1312SOL    HW115569   2.263   1.525  17.539  0.7392  1.8165  0.0197
 1312SOL    HW215570   2.139   1.462  17.544 -0.1963  0.3847 -0.1706
 1313SOL     OW15571   3.791   3.804   3.271  0.0186  0.6017 -0.7546
 1313SOL    HW115572   3.812   3.734   3.209  0.8548  0.3115 -0.1449
 1313SOL    HW215573   3.876   3.823   3.310  0.0791 -0.9957 -0.0983
 1314SOL     OW15574   2.780   1.985   1.003 -0.2746 -0.2157  0.3509
 1314SOL    HW115575   2.801   2.039   0.927  1.2112 -1.3011 -0.0323
 1314SOL    HW215576   2.739   2.055   1.053 -0.7188 -1.5214  1.8154
 1315SOL     OW15577   3.042   1.342  11.185  0.1830  0.0048 -0.3521
 1315SOL    HW115578   2.958   1.305  11.156 -0.4191  0.9097  0.2353
 1315SOL    HW215579   3.032   1.424  11.137  1.0152  0.1190 -0.3319
 1316SOL     OW15580   0.769   0.567  10.933  0.0516 -0.1662 -0.7329
 1316SOL    HW115581   0.800   0.652  10.964  1.8931  0.2228 -3.5640
 1316SOL    HW215582   0.814   0.502  10.987  0.2730  1.4303  1.0193
 1317SOL     OW15583   2.222   2.923   1.526  1.0864 -0.4968 -0.2585
 1317SOL    HW115584   2.221   2.837   1.568 -0.5648 -0.0293  0.6598
 1317SOL    HW215585   2.288   2.975   1.571  0.2945 -1.9333  2.5489
 1318SOL     OW15586   2.162   2.140   3.105 -0.2739  0.5675 -0.2441
 1318SOL    HW115587   2.148   2.115   3.197  2.7032 -0.8447 -0.1606
 1318SOL    HW215588   2.157   2.235   3.113 -0.0121  0.6409 -1.0098
 1319SOL     OW15589   0.470   1.549   0.889 -0.1443 -0.3434  0.1701
 1319SOL    HW115590   0.386   1.588   0.863  1.4129 -0.1218 -4.5899
 1319SOL    HW215591   0.540   1.593   0.842 -0.3362 -1.1019 -0.8347
 1320SOL     OW15592   2.760   0.591   5.021 -0.3007  0.2615  0.0663
 1320SOL    HW115593   2.838   0.645   5.010  1.1341 -1.5136  1.4365
 1320SOL    HW215594   2.700   0.660   4.993  1.8296  2.3565  0.5733
 1321SOL     OW15595   0.246   3.886   6.271 -0.6024 -0.4079  0.3056
 1321SOL    HW115596   0.159   3.850   6.254 -0.1430  0.2431 -3.3730
 1321SOL    HW215597   0.301   3.819   6.231  1.2001  1.3857 -0.2204
 1322SOL     OW15598   3.422   0.957  12.973 -0.6860 -0.7490 -0.0036
 1322SOL    HW115599   3.450   0.981  13.061 -0.2980  0.6732 -0.5171
 1322SOL    HW215600   3.497   0.976  12.917  0.5605 -0.7767  1.6493
 1323SOL     OW15601   3.212   2.395  15.722  0.8071  0.3587  0.0062
 1323SOL    HW115602   3.298   2.436  15.717  0.8012  0.3825  0.0998
 1323SOL    HW215603   3.233   2.325  15.784 -1.6930 -0.2902  0.1200
 1324SOL     OW15604   1.387   2.500   8.450  0.2193 -0.2701  0.0922
 1324SOL    HW115605   1.421   2.590   8.447  2.7836 -1.2257  0.3762
 1324SOL    HW215606   1.457   2.455   8.498  2.1041 -0.4942 -2.8970
 1325SOL     OW15607   1.457   0.309   6.553 -0.1308  0.3871  0.3911
 1325SOL    HW115608   1.399   0.251   6.504 -0.8992  0.1750  1.5510
 1325SOL    HW215609   1.498   0.251   6.617 -0.0072 -1.0491 -1.0005
 1326SOL     OW15610   3.653   2.093  15.341 -0.0815  0.7680 -0.2027
 1326SOL    HW115611   3.717   2.093  15.412  0.6495  0.1411 -0.8589
 1326SOL    HW215612   3.697   2.150  15.277 -0.4845 -2.4522 -3.3296
 1327SOL     OW15613   3.941   4.632   8.466  0.5993  0.1103 -0.2683
 1327SOL    HW115614   3.859   4.584   8.453  1.4784 -1.3858 -0.2150
 1327SOL    HW215615   3.960   4.622   8.560  0.2063 -0.0331 -0.2041
 1328SOL     OW15616   2.287   0.715  14.329 -0.4145  0.4889  0.1719
 1328SOL    HW115617   2.324   0.800  14.355  0.2799 -0.3290  1.8534
 1328SOL    HW215618   2.199   0.713  14.367 -1.0843 -1.2982 -1.4989
 1329SOL     OW15619   2.685   1.199   2.271 -0.6627  0.0948 -0.0209
 1329SOL    HW115620   2.649   1.279   2.234 -1.5139 -0.2928 -0.0346
 1329SOL    HW215621   2.616   1.133   2.261  1.2493 -1.9478  0.4213
 1330SOL     OW15622   2.851   1.524  12.464  0.3155  0.3003  0.4634
 1330SOL    HW115623   2.944   1.525  12.489  0.6166  0.3082 -0.6648
 1330SOL    HW215624   2.859   1.609  12.421  1.4463  0.1627  0.3828
 1331SOL     OW15625   1.067   2.188   8.988  0.0342  0.1003 -0.0902
 1331SOL    HW115626   1.087   2.260   8.928  0.8206 -0.1661 -0.1514
 1331SOL    HW215627   1.013   2.242   9.045  0.8745  2.8445 -1.8646
 1332SOL     OW15628   0.000   1.776   6.374  0.0819  0.4033  0.4970
 1332SOL    HW115629   4.721   1.691   6.414  0.7018 -0.3768 -0.9294
 1332SOL    HW215630   0.006   1.829   6.453  1.9847 -2.0517  1.9720
 1333SOL     OW15631   1.568   2.922   2.435  0.4114 -0.1581  0.6399
 1333SOL    HW115632   1.563   2.934   2.340 -1.7248 -0.2173  0.7619
 1333SOL    HW215633   1.608   3.008   2.450  0.1167  0.3122 -1.2710
 1334SOL     OW15634   0.239   0.105   9.289 -0.8032 -0.3768 -0.4399
 1334SOL    HW115635   0.203   0.032   9.238 -1.8992  0.3570 -0.7239
 1334SOL    HW215636   0.201   0.176   9.237  0.1396 -0.3611 -1.1047
 1335SOL     OW15637   4.367   2.861   6.487 -0.8050  0.6281  0.1392
 1335SOL    HW115638   4.399   2.944   6.454  0.7747  0.7721  2.0665
 1335SOL    HW215639   4.423   2.844   6.562 -1.0971  2.6556  0.8056
 1336SOL     OW15640   4.421   1.786  15.749  0.6410 -0.4673  0.0754
 1336SOL    HW115641   4.373   1.799  15.668  3.1120 -1.0342 -1.4581
 1336SOL    HW215642   4.366   1.721  15.794  0.6272  0.4277  1.3821
 1337SOL     OW15643   1.753   2.870   4.733 -0.1922  0.0569  0.0506
 1337SOL    HW115644   1.837   2.911   4.753  0.4800 -1.6812  0.7939
 1337SOL    HW215645   1.703   2.940   4.689 -0.4018 -1.2134 -1.7168
 1338SOL     OW15646   2.905   1.348   9.465  0.4310 -0.0696  0.1051
 1338SOL    HW115647   2.926   1.324   9.374 -2.1661  3.1520 -1.3367
 1338SOL    HW215648   2.903   1.261   9.503 -1.0659 -0.5684 -1.1086
 1339SOL     OW15649   3.246   1.486   6.863  0.4196  0.0296  0.4124
 1339SOL    HW115650   3.268   1.460   6.953  1.0778  0.3626  0.3515
 1339SOL    HW215651   3.316   1.439   6.818 -1.4948 -1.3900 -1.0489
 1340SOL     OW15652   0.882   3.086   0.685  0.1375 -0.0964  0.3888
 1340SOL    HW115653   0.872   3.123   0.772 -3.4455  3.2982 -1.4652
 1340SOL    HW215654   0.925   3.002   0.703 -0.8967 -0.7354 -0.1511
 1341SOL     OW15655   0.030   0.141  15.153 -0.1553  0.8746  0.0331
 1341SOL    HW115656   0.062   0.179  15.235 -1.2626 -0.7785  1.2198
 1341SOL    HW215657   0.023   0.217  15.095 -0.6039 -1.1726 -2.5863
 1342SOL     OW15658   0.850   3.347   2.515 -0.6234  0.2738 -0.0161
 1342SOL    HW115659   0.804   3.264   2.502  1.6079 -0.6724 -1.7515
 1342SOL    HW215660   0.790   3.410   2.476 -0.5365  0.4827  0.1833
 1343SOL     OW15661   3.504   0.489   3.135 -0.3629 -0.3354 -0.3648
 1343SOL    HW115662   3.472   0.402   3.159 -1.1119  0.9032  3.0644
 1343SOL    HW215663   3.536   0.483   3.045  1.8308  0.9525  0.3382
 1344SOL     OW15664   4.078   4.075   3.188 -1.0246  0.3972  0.5940
 1344SOL    HW115665   4.088   3.982   3.170 -1.8924  0.3258  0.5135
 1344SOL    HW215666   4.168   4.095   3.213 -0.0437 -0.6052 -2.1249
 1345SOL     OW15667   2.213   0.453  14.467  0.7721  0.4730 -0.4822
 1345SOL    HW115668   2.174   0.531  14.427  0.5734 -0.3116 -1.8130
 1345SOL    HW215669   2.209   0.397  14.390 -1.5460  1.2422 -0.9143
 1346SOL     OW15670   0.310   1.269  16.260  0.1511  0.4024 -0.0797
 1346SOL    HW115671   0.377   1.338  16.255 -0.5193  1.1126  0.8301
 1346SOL    HW215672   0.271   1.295  16.343 -0.8476 -1.4282  0.0147
 1347SOL     OW15673   1.518   3.810  10.948  0.4350 -0.2998  0.2563
 1347SOL    HW115674   1.533   3.893  10.903  1.7878  0.0042  1.2949
 1347SOL    HW215675   1.591   3.803  11.010  0.7309 -1.4054 -0.2242
 1348SOL     OW15676   2.380   0.958   8.739 -0.1530 -0.3500  0.3560
 1348SOL    HW115677   2.289   0.929   8.730 -0.1153  0.0739 -1.3914
 1348SOL    HW215678   2.384   1.053   8.726  0.4779 -0.6316 -1.5856
 1349SOL     OW15679   1.719   1.008  16.982 -0.2671 -0.7317 -0.9500
 1349SOL    HW115680   1.783   0.975  16.919  2.3657  1.5103  0.5665
 1349SOL    HW215681   1.760   1.011  17.069  0.1149  3.3958 -1.3204
 1350SOL     OW15682   4.250   2.858   7.620  0.4637 -0.4460  0.1167
 1350SOL    HW115683   4.339   2.851   7.586  0.5813  2.0523 -0.0722
 1350SOL    HW215684   4.210   2.911   7.552 -1.3191 -0.5779  1.0734
 1351SOL     OW15685   4.267   0.690   5.658  0.1377 -0.3194 -0.1365
 1351SOL    HW115686   4.258   0.694   5.753 -2.2231 -0.9733 -0.3169
 1351SOL    HW215687   4.335   0.623   5.652 -3.0780 -3.6170  0.0936
 1352SOL     OW15688   3.898   4.179   6.248  0.7553 -0.6508 -0.2607
 1352SOL    HW115689   3.914   4.243   6.178 -0.6357 -0.6330 -0.5514
 1352SOL    HW215690   3.960   4.213   6.313  0.9994 -1.0909 -0.2616
 1353SOL     OW15691   0.049   1.734   8.291  0.1461  0.2137 -0.2919
 1353SOL    HW115692   4.712   1.763   8.348 -0.4590 -3.6318  0.8635
 1353SOL    HW215693   0.002   1.696   8.217 -0.9586  0.2572  0.3777
 1354SOL     OW15694   2.222   4.341   1.102 -0.6405  0.0457  0.7803
 1354SOL    HW115695   2.270   4.272   1.055 -1.3307  0.0266  0.1178
 1354SOL    HW215696   2.295   4.403   1.109  0.3359 -1.1000  0.7628
 1355SOL     OW15697   2.508   2.135  13.156 -0.2457 -0.0419  0.0743
 1355SOL    HW115698   2.479   2.081  13.230 -2.3948  0.5687 -0.3418
 1355SOL    HW215699   2.482   2.088  13.076  0.4798 -0.2500 -0.0437
 1356SOL     OW15700   3.240   2.805   2.756 -0.4060 -0.1182 -0.1618
 1356SOL    HW115701   3.192   2.804   2.673  1.9573 -2.1985 -1.5199
 1356SOL    HW215702   3.220   2.896   2.780 -0.5668 -0.4185  0.8362
 1357SOL     OW15703   3.093   0.547   1.742 -0.1507  0.2239  0.0730
 1357SOL    HW115704   3.064   0.617   1.800  1.8254  0.1711  1.1235
 1357SOL    HW215705   3.160   0.505   1.796  0.9799  2.7082  0.5947
 1358SOL     OW15706   2.568   3.466  16.132 -0.1507 -0.0027  0.0353
 1358SOL    HW115707   2.599   3.544  16.086 -1.9736  0.4285 -0.4475
 1358SOL    HW215708   2.647   3.445  16.183  1.4448 -0.5862 -2.6650
 1359SOL     OW15709   1.526   0.437   4.519 -0.0879 -0.1728 -0.5662
 1359SOL    HW115710   1.489   0.364   4.469  0.6035 -0.3058 -0.8813
 1359SOL    HW215711   1.609   0.446   4.474 -0.0540  1.3286 -0.2113
 1360SOL     OW15712   0.179   2.337   7.968 -0.0404 -0.1014  0.1398
 1360SOL    HW115713   0.171   2.385   8.051 -0.5655  2.1847 -1.2334
 1360SOL    HW215714   0.163   2.407   7.905 -0.2187 -1.1363 -0.9680
 1361SOL     OW15715   2.051   1.299   2.185 -0.4650 -0.0056  0.3033
 1361SOL    HW115716   2.101   1.242   2.127  0.8800  0.6266  0.8341
 1361SOL    HW215717   2.061   1.255   2.270 -3.0282 -1.7639 -0.2863
 1362SOL     OW15718   2.763   4.633   8.516  0.1507 -0.3067 -0.2590
 1362SOL    HW115719   2.767   4.544   8.480  1.2781 -0.0866 -0.6837
 1362SOL    HW215720   2.682   4.627   8.568 -0.1218 -1.3371 -0.8005
 1363SOL     OW15721   3.809   4.697   2.010 -0.8422 -0.2232 -0.2854
 1363SOL    HW115722   3.887   4.643   2.024 -1.4493 -0.9775  0.1730
 1363SOL    HW215723   3.838   4.734   1.927  2.5560  0.6697  1.2962
 1364SOL     OW15724   0.904   1.059  16.969 -0.4405 -0.7254 -0.2883
 1364SOL    HW115725   0.950   1.046  16.887 -2.1955 -2.0854 -1.0497
 1364SOL    HW215726   0.819   1.100  16.950 -0.9975 -1.9812 -0.5240
 1365SOL     OW15727   1.209   1.037   3.171 -0.1059 -0.2179  0.3609
 1365SOL    HW115728   1.143   1.077   3.228 -2.1784 -1.4793 -1.1696
 1365SOL    HW215729   1.156   0.971   3.125 -0.5626  0.7132 -0.4688
 1366SOL     OW15730   3.712   2.908   6.578  0.3800 -0.4925 -0.1423
 1366SOL    HW115731   3.778   2.972   6.605  1.2169 -1.2049 -0.4889
 1366SOL    HW215732   3.768   2.830   6.575 -0.0289 -0.7486 -0.9405
 1367SOL     OW15733   0.038   1.870   4.384 -0.2548  0.1765 -0.7699
 1367SOL    HW115734   0.040   1.791   4.438  3.3790 -0.0699 -1.2958
 1367SOL    HW215735   4.703   1.921   4.425  0.4379  0.3964  0.1555
 1368SOL     OW15736   2.168   1.592   4.950 -0.2587 -0.0468 -0.6711
 1368SOL    HW115737   2.112   1.591   5.027  1.2122  1.7181  0.4108
 1368SOL    HW215738   2.108   1.549   4.889 -0.0796  0.5999 -1.3110
 1369SOL     OW15739   4.693   2.785   8.426  0.0740 -0.6591  0.7372
 1369SOL    HW115740   4.598   2.796   8.429  0.2052  0.7145 -0.0349
 1369SOL    HW215741   4.720   2.877   8.428  0.9441 -0.8841 -0.7619
 1370SOL     OW15742   3.452   2.618   0.861 -0.0655  0.3009 -0.0713
 1370SOL    HW115743   3.444   2.531   0.901  2.4554  0.6294  1.1375
 1370SOL    HW215744   3.500   2.671   0.925 -1.2190  2.4036 -0.9542
 1371SOL     OW15745   3.679   3.183   7.367  0.4045 -0.0723 -0.0958
 1371SOL    HW115746   3.773   3.173   7.385  0.5296 -1.3354 -1.5502
 1371SOL    HW215747   3.676   3.190   7.272 -1.0957 -0.2549 -0.0675
 1372SOL     OW15748   4.109   2.316   1.954 -0.0708  0.5626 -0.0069
 1372SOL    HW115749   4.147   2.389   2.005 -2.0008  1.2886  0.3965
 1372SOL    HW215750   4.017   2.342   1.951  0.0123  0.5468 -2.8069
 1373SOL     OW15751   1.200   4.568   2.280  0.4315 -0.2050  0.1074
 1373SOL    HW115752   1.256   4.491   2.288  3.7590  2.3032  0.8454
 1373SOL    HW215753   1.117   4.536   2.316  0.0571 -1.1598 -1.5965
 1374SOL     OW15754   3.704   1.567   6.169 -0.2258  0.8642 -0.2354
 1374SOL    HW115755   3.671   1.506   6.235  0.9673 -1.7481 -2.0673
 1374SOL    HW215756   3.783   1.520   6.146 -0.4435  0.0037  0.7760
 1375SOL     OW15757   4.265   1.451   4.992  0.4917  0.2478  0.2062
 1375SOL    HW115758   4.216   1.398   4.929  0.6878 -0.4321  0.6316
 1375SOL    HW215759   4.323   1.490   4.927  2.5972  0.7579  2.3905
 1376SOL     OW15760   2.707   2.271   0.858  0.1458 -0.3196 -0.3596
 1376SOL    HW115761   2.681   2.196   0.805  0.7001 -0.3937 -0.5315
 1376SOL    HW215762   2.660   2.336   0.806 -1.2388 -0.3622  0.8376
 1377SOL     OW15763   1.338   1.632   3.150  0.0116  0.1368  0.0237
 1377SOL    HW115764   1.275   1.704   3.139  0.4013  0.2260 -1.6082
 1377SOL    HW215765   1.310   1.565   3.088  1.1565  0.1452 -0.4946
 1378SOL     OW15766   2.771   1.879   9.336 -0.5662 -0.2264  0.0872
 1378SOL    HW115767   2.789   1.941   9.407 -1.7304 -1.6424  1.6128
 1378SOL    HW215768   2.818   1.802   9.367  2.4606  1.5093 -0.1583
 1379SOL     OW15769   2.686   1.867   5.052  0.0101  0.6456 -0.4025
 1379SOL    HW115770   2.765   1.815   5.042 -1.6289 -1.8886 -0.3826
 1379SOL    HW215771   2.666   1.859   5.146 -2.1661 -1.7149 -1.0457
 1380SOL     OW15772   1.975   4.219   6.626 -0.3350  0.4251 -0.1950
 1380SOL    HW115773   2.016   4.213   6.539  1.4611  0.7345  0.6172
 1380SOL    HW215774   1.990   4.313   6.640 -0.5692  0.4818 -0.3237
 1381SOL     OW15775   2.863   0.415   5.887  0.2257 -0.1538 -0.4088
 1381SOL    HW115776   2.879   0.464   5.807 -2.0614  1.7190  0.2754
 1381SOL    HW215777   2.933   0.441   5.947 -0.1327  0.9418 -0.4647
 1382SOL     OW15778   1.138   1.088   9.311 -0.1746 -0.1744  0.5248
 1382SOL    HW115779   1.097   1.163   9.268 -0.1979  0.7613  2.1541
 1382SOL    HW215780   1.078   1.075   9.384 -0.7414  1.5893  0.3777
 1383SOL     OW15781   1.461   2.969   1.966 -0.3843 -0.4363  0.0314
 1383SOL    HW115782   1.521   2.993   2.036 -0.9148  0.1962  0.2692
 1383SOL    HW215783   1.433   2.887   2.006 -0.3517 -0.2862  0.3610
 1384SOL     OW15784   3.926   3.583   4.201  0.0665  0.0961 -0.2584
 1384SOL    HW115785   3.922   3.489   4.220  0.9970  0.2226  0.5710
 1384SOL    HW215786   4.014   3.594   4.164  0.0350  0.1627 -0.3130
 1385SOL     OW15787   3.683   4.305   4.865 -0.1557  0.5601  0.3179
 1385SOL    HW115788   3.656   4.351   4.945 -0.1199  0.9526  0.1030
 1385SOL    HW215789   3.607   4.328   4.812 -0.6597 -1.1620  0.2907
 1386SOL     OW15790   2.466   0.007  13.728 -0.2130 -0.5052  0.2557
 1386SOL    HW115791   2.375   0.023  13.702 -0.6735 -0.7937  1.7010
 1386SOL    HW215792   2.478   4.655  13.690  1.6785 -0.0963 -0.0329
 1387SOL     OW15793   2.529   2.851   7.124 -0.3747  0.0096  0.1556
 1387SOL    HW115794   2.452   2.887   7.078 -1.2770 -2.2313 -0.0550
 1387SOL    HW215795   2.501   2.842   7.215 -2.4764  0.9087 -0.3734
 1388SOL     OW15796   3.535   3.880  15.319  0.0769  0.2300  0.0543
 1388SOL    HW115797   3.601   3.949  15.320 -0.9938  1.2547 -1.2185
 1388SOL    HW215798   3.466   3.915  15.376 -0.6723  1.2702 -1.5152
 1389SOL     OW15799   0.708   2.319   9.376  0.0625 -0.1918 -1.6937
 1389SOL    HW115800   0.613   2.334   9.374  0.4781  2.5763 -1.5933
 1389SOL    HW215801   0.711   2.224   9.373  0.4054 -0.2145 -0.5610
 1390SOL     OW15802   1.495   1.777   7.580  0.6774  0.7599  0.3768
 1390SOL    HW115803   1.443   1.852   7.551 -2.2702 -0.5369  2.3904
 1390SOL    HW215804   1.568   1.792   7.519  0.7962 -1.2601  0.0071
 1391SOL     OW15805   0.144   3.417  10.179 -0.1572 -0.4178 -0.5339
 1391SOL    HW115806   0.122   3.508  10.161 -1.0742 -0.6986 -0.8202
 1391SOL    HW215807   0.236   3.426  10.154  0.0793  0.1378  0.5887
 1392SOL     OW15808   2.474   4.697  16.382 -0.1813 -0.1713  0.0811
 1392SOL    HW115809   2.392   0.005  16.357  0.5936  1.3162  0.0539
 1392SOL    HW215810   2.445   4.658  16.464  0.1435  1.2128  0.8551
 1393SOL     OW15811   4.182   3.236  13.943 -0.4793 -0.3305  0.1253
 1393SOL    HW115812   4.234   3.163  13.909  0.4179  0.4860 -0.2353
 1393SOL    HW215813   4.250   3.294  13.975 -0.1635  0.0251 -1.2037
 1394SOL     OW15814   4.096   0.081   0.786 -0.4103  0.0357 -0.2846
 1394SOL    HW115815   4.042   0.005   0.805  1.5553 -0.4276  3.2664
 1394SOL    HW215816   4.037   0.126   0.725  0.8407  0.3510 -1.2763
 1395SOL     OW15817   2.368   0.045   8.855  0.8278 -0.2073  0.2703
 1395SOL    HW115818   2.277   0.030   8.880 -0.2643  3.2815 -1.5286
 1395SOL    HW215819   2.384   0.135   8.884  0.4507  0.7075 -2.3574
 1396SOL     OW15820   1.932   0.019   9.445  0.4350  0.1026 -0.4119
 1396SOL    HW115821   1.935   4.665   9.479  0.6574 -0.2950 -1.4563
 1396SOL    HW215822   1.954   0.074   9.520 -1.3465  1.0542 -0.5799
 1397SOL     OW15823   1.663   3.622   6.964 -0.1870 -0.2712 -0.1822
 1397SOL    HW115824   1.594   3.651   6.905 -0.5063 -1.8345 -0.5900
 1397SOL    HW215825   1.734   3.682   6.944 -2.1303  1.5628 -1.5885
 1398SOL     OW15826   3.055   0.773   3.224 -0.1697 -0.0334  0.5894
 1398SOL    HW115827   3.100   0.758   3.307  1.2133  0.5394 -0.0702
 1398SOL    HW215828   3.023   0.683   3.214  1.6374 -0.5274 -0.7337
 1399SOL     OW15829   2.254   2.802   5.903  0.6074 -0.5091  0.5443
 1399SOL    HW115830   2.211   2.860   5.966 -2.6579 -1.0187 -1.2422
 1399SOL    HW215831   2.214   2.718   5.925 -0.6533  0.2172  1.0481
 1400SOL     OW15832   3.548   1.117   6.010  0.2802 -0.1037 -0.0776
 1400SOL    HW115833   3.484   1.047   6.023  0.4470  0.4024  3.5439
 1400SOL    HW215834   3.569   1.093   5.920  0.5946 -0.3028  0.0482
 1401SOL     OW15835   4.179   4.656   6.526 -0.5170  0.2146  0.1026
 1401SOL    HW115836   4.259   4.683   6.571 -0.2023 -0.0334 -0.3055
 1401SOL    HW215837   4.118   4.728   6.539 -0.9310 -0.2359  0.6225
 1402SOL     OW15838   1.624   1.757  17.399  0.1593  0.0281  0.4251
 1402SOL    HW115839   1.552   1.736  17.458 -0.6213  1.0886 -0.1694
 1402SOL    HW215840   1.623   1.685  17.336 -2.6698  0.9699 -0.5867
 1403SOL     OW15841   0.353   2.449   6.264  0.6037 -0.3236 -0.2982
 1403SOL    HW115842   0.447   2.466   6.267  0.2347  1.6577  0.6665
 1403SOL    HW215843   0.351   2.424   6.172 -1.4722  1.2668 -0.6943
 1404SOL     OW15844   3.042   1.714   3.310  0.2560  0.5924 -0.6439
 1404SOL    HW115845   3.099   1.677   3.243  0.9454  1.3474 -0.4643
 1404SOL    HW215846   2.953   1.698   3.277  0.8155  1.5149 -2.5909
 1405SOL     OW15847   2.356   2.211  15.117 -0.3600 -0.1188 -0.2233
 1405SOL    HW115848   2.358   2.149  15.044 -0.7946 -0.2088 -0.1568
 1405SOL    HW215849   2.450   2.217  15.134 -0.0094  1.4333 -2.7308
 1406SOL     OW15850   1.520   4.251  10.320  0.1024  0.0140 -0.4477
 1406SOL    HW115851   1.578   4.228  10.393 -0.0885  1.5743  0.1753
 1406SOL    HW215852   1.527   4.345  10.336 -0.4885 -0.2282  1.1985
 1407SOL     OW15853   3.792   3.943   9.597 -0.1022  0.2190  0.1168
 1407SOL    HW115854   3.864   4.003   9.577  0.4447  0.1221  1.7217
 1407SOL    HW215855   3.833   3.857   9.604  1.5194  0.9634  0.0178
 1408SOL     OW15856   3.696   2.870   2.678  0.4917  0.3419  0.0204
 1408SOL    HW115857   3.723   2.940   2.738 -0.9902  0.2473  0.7848
 1408SOL    HW215858   3.625   2.825   2.724  1.0972 -0.5826  0.0497
 1409SOL     OW15859   3.825   1.984  16.339  0.3965  0.6046 -0.5697
 1409SOL    HW115860   3.902   2.007  16.286 -1.2719 -0.2369 -3.3901
 1409SOL    HW215861   3.775   2.061  16.310 -2.3183 -0.7912  0.3709
 1410SOL     OW15862   1.675   1.284   8.394 -0.1479 -0.3396  0.2233
 1410SOL    HW115863   1.586   1.268   8.426 -0.9374  3.2642 -0.2025
 1410SOL    HW215864   1.681   1.206   8.338 -2.0199 -0.6478  0.4477
 1411SOL     OW15865   3.332   3.588  13.586  0.3598  0.2716  0.0684
 1411SOL    HW115866   3.336   3.495  13.564 -4.0792  0.0937  0.0433
 1411SOL    HW215867   3.364   3.634  13.509  1.2385  1.7121  1.2759
 1412SOL     OW15868   1.334   0.092  12.479 -0.0891 -0.1615 -0.3096
 1412SOL    HW115869   1.293   0.161  12.426  0.0461  0.1571  0.0026
 1412SOL    HW215870   1.263   0.072  12.540  0.3198  2.2241  0.9537
 1413SOL     OW15871   1.867   4.340   2.882  0.0121  0.2222  0.0439
 1413SOL    HW115872   1.921   4.419   2.874  0.4966  0.1968  2.9596
 1413SOL    HW215873   1.782   4.379   2.860 -0.5786 -1.1825 -0.1237
 1414SOL     OW15874   3.989   1.565   9.154 -0.0922  0.1279  0.0197
 1414SOL    HW115875   3.980   1.613   9.072  0.6337 -1.1248 -0.7965
 1414SOL    HW215876   4.076   1.526   9.148 -0.4605 -0.5963 -0.5333
 1415SOL     OW15877   4.369   1.316   3.818  0.0510 -0.0167  0.0867
 1415SOL    HW115878   4.400   1.367   3.744 -0.0677  0.9122  0.6855
 1415SOL    HW215879   4.342   1.235   3.775 -1.1640 -0.0610  0.9293
 1416SOL     OW15880   4.459   1.762   7.883  0.6217 -0.0423  0.0280
 1416SOL    HW115881   4.390   1.811   7.928  1.4072  0.3072  0.8456
 1416SOL    HW215882   4.496   1.722   7.962  0.3645  0.1423  0.2432
 1417SOL     OW15883   3.023   3.489   2.032  0.2283 -0.4560 -0.3518
 1417SOL    HW115884   3.030   3.572   1.986  1.0623  0.6990  1.8405
 1417SOL    HW215885   2.997   3.440   1.954 -0.2264  0.2561 -0.6493
 1418SOL     OW15886   2.823   3.085  16.969 -0.3650  0.0889  0.1091
 1418SOL    HW115887   2.846   2.993  16.957 -1.1821 -0.1575  0.4425
 1418SOL    HW215888   2.735   3.088  16.933 -0.2522 -3.2326 -0.4548
 1419SOL     OW15889   1.641   2.458  10.121  0.4001 -0.1063  0.0760
 1419SOL    HW115890   1.585   2.386  10.149  0.6265 -1.1316 -2.1190
 1419SOL    HW215891   1.671   2.482  10.208  0.3520 -1.9831  0.6156
 1420SOL     OW15892   3.863   0.085   7.941 -0.0650 -0.0768 -0.1706
 1420SOL    HW115893   3.843   0.178   7.930 -0.5273 -0.1809 -0.2401
 1420SOL    HW215894   3.841   0.048   7.855  0.1192 -1.4920  0.3936
 1421SOL     OW15895   3.604   3.824   2.757 -0.1966 -0.1075  0.2299
 1421SOL    HW115896   3.544   3.756   2.727 -0.6252 -0.4900  1.9515
 1421SOL    HW215897   3.597   3.889   2.687  0.5548 -0.9402 -0.6257
 1422SOL     OW15898   3.894   4.536   1.356  0.2589 -0.4510 -0.2365
 1422SOL    HW115899   3.907   4.622   1.397 -2.1418 -1.4336  2.6076
 1422SOL    HW215900   3.803   4.517   1.378  0.4086 -0.7847  0.0802
 1423SOL     OW15901   1.895   1.950   2.577 -0.3690 -0.2938  1.1806
 1423SOL    HW115902   1.811   1.995   2.569 -0.1250  0.0847  0.7447
 1423SOL    HW215903   1.872   1.870   2.625  2.0073 -0.7326  1.6174
 1424SOL     OW15904   2.103   1.967   7.510 -0.5904  0.0594  0.1785
 1424SOL    HW115905   2.050   1.890   7.527  1.3917 -1.5816 -1.0876
 1424SOL    HW215906   2.149   1.968   7.594  0.1013  1.6497 -0.2211
 1425SOL     OW15907   0.634   1.892   4.730  0.2571  0.4269  0.5377
 1425SOL    HW115908   0.539   1.881   4.724  0.3364 -0.3774  0.7361
 1425SOL    HW215909   0.653   1.844   4.811 -1.4396 -0.3741  0.4726
 1426SOL     OW15910   1.151   1.803  13.504 -0.7541  0.6743  0.0264
 1426SOL    HW115911   1.072   1.797  13.559  0.2547 -1.9044  1.2250
 1426SOL    HW215912   1.117   1.837  13.422 -0.1167 -1.5614 -1.1772
 1427SOL     OW15913   3.735   4.166  10.656 -0.3480 -0.0979 -0.1077
 1427SOL    HW115914   3.786   4.120  10.590 -1.6441  0.7315 -1.6803
 1427SOL    HW215915   3.651   4.122  10.644  0.4443 -1.4975 -0.4833
 1428SOL     OW15916   2.399   1.528  17.351 -0.0254 -0.0688 -0.0379
 1428SOL    HW115917   2.490   1.531  17.380 -0.8934  2.3407  2.4191
 1428SOL    HW215918   2.404   1.562  17.261 -0.0766  2.1632  0.8084
 1429SOL     OW15919   0.419   1.220   1.549  0.0402  0.1372  0.3010
 1429SOL    HW115920   0.437   1.235   1.456  0.5781 -1.0251  0.2281
 1429SOL    HW215921   0.499   1.259   1.584 -0.7683  0.2967  1.9704
 1430SOL     OW15922   1.201   0.643   5.556  0.4322  0.0292  0.4266
 1430SOL    HW115923   1.167   0.616   5.470 -0.2436 -1.1823  1.0721
 1430SOL    HW215924   1.277   0.690   5.523  1.1584 -2.5025 -1.4816
 1431SOL     OW15925   3.500   4.567   9.628 -0.4655  0.1328  0.2584
 1431SOL    HW115926   3.487   4.496   9.691  1.4855  0.0434  0.5425
 1431SOL    HW215927   3.496   4.643   9.686 -2.5041  2.8662 -3.4703
 1432SOL     OW15928   3.543   0.529  15.368 -0.2813 -0.2745 -0.5291
 1432SOL    HW115929   3.590   0.445  15.364  1.2283  0.6600 -2.2827
 1432SOL    HW215930   3.460   0.503  15.410 -1.2933  1.1507 -1.6665
 1433SOL     OW15931   0.722   1.003  13.254  0.1342  0.2238  0.3802
 1433SOL    HW115932   0.720   0.912  13.223  1.4617  0.9730 -1.8719
 1433SOL    HW215933   0.807   1.009  13.297 -0.1547 -1.7290  1.2248
 1434SOL     OW15934   1.972   1.198   9.382  0.9060 -0.2526  0.3748
 1434SOL    HW115935   1.958   1.116   9.336  1.2358 -0.6550  0.9909
 1434SOL    HW215936   1.882   1.230   9.396  0.7097  1.0131 -3.8549
 1435SOL     OW15937   4.380   3.363  14.039  0.0658 -0.2419  0.6926
 1435SOL    HW115938   4.402   3.322  14.123 -0.6781 -0.1015  0.9560
 1435SOL    HW215939   4.466   3.392  14.008  0.1378 -0.7963  0.3757
 1436SOL     OW15940   0.118   2.285   6.373 -0.6211  0.0050  0.5106
 1436SOL    HW115941   0.031   2.316   6.350 -1.4950 -3.3775 -0.7497
 1436SOL    HW215942   0.184   2.338   6.328 -1.1644  2.6414  2.8936
 1437SOL     OW15943   0.823   0.216   7.826  0.3493  0.0382 -0.5678
 1437SOL    HW115944   0.796   0.134   7.785 -0.0247 -0.5965  0.9292
 1437SOL    HW215945   0.893   0.236   7.764  3.0608 -1.9157  1.8839
 1438SOL     OW15946   0.582   3.199   6.107 -0.0974 -0.2531 -0.5826
 1438SOL    HW115947   0.576   3.288   6.143  2.0363  0.3174 -1.5945
 1438SOL    HW215948   0.672   3.183   6.133 -0.4596  0.8608  1.3181
 1439SOL     OW15949   1.904   0.585   6.635  0.2458  0.5758  0.4069
 1439SOL    HW115950   1.937   0.664   6.592 -3.5804  0.8428 -2.1354
 1439SOL    HW215951   1.970   0.516   6.623  1.4122  1.8433 -0.4882
 1440SOL     OW15952   4.477   3.438   9.470  0.3297 -0.6505 -0.3781
 1440SOL    HW115953   4.480   3.386   9.390  0.1672  1.8772 -2.0154
 1440SOL    HW215954   4.562   3.482   9.467  0.5865 -1.0016  1.6558
 1441SOL     OW15955   2.386   1.340   2.299 -0.0610 -0.3135 -0.6347
 1441SOL    HW115956   2.402   1.321   2.392  0.2732  0.4023 -0.5462
 1441SOL    HW215957   2.308   1.288   2.281 -0.0278  0.4510 -2.9288
 1442SOL     OW15958   3.418   1.137   1.347  0.5697 -0.2436 -0.3973
 1442SOL    HW115959   3.341   1.081   1.346  1.3017 -1.2322 -1.2265
 1442SOL    HW215960   3.489   1.075   1.360  3.1776  2.4705 -1.5555
 1443SOL     OW15961   0.002   3.696   8.046  0.3401 -0.3567 -0.1554
 1443SOL    HW115962   0.087   3.674   8.007 -0.2021  0.8939 -2.0178
 1443SOL    HW215963   0.021   3.710   8.139 -0.0999 -0.2485 -0.0833
 1444SOL     OW15964   2.722   1.929  11.699 -0.0937 -0.5404 -0.4386
 1444SOL    HW115965   2.757   1.991  11.763 -0.0078 -0.6343 -0.3931
 1444SOL    HW215966   2.787   1.923  11.629  0.5358 -0.7399  0.1567
 1445SOL     OW15967   3.314   1.171  13.274 -0.6415 -0.4390 -0.1194
 1445SOL    HW115968   3.224   1.162  13.306 -0.4448 -0.5705  0.3886
 1445SOL    HW215969   3.320   1.265  13.292 -1.8196 -0.6192  1.1953
 1446SOL     OW15970   3.183   3.231   1.444 -0.6213  0.1924  0.2404
 1446SOL    HW115971   3.105   3.180   1.422 -0.4294 -0.6722  1.6315
 1446SOL    HW215972   3.183   3.316   1.399  2.2489 -1.4321 -2.8821
 1447SOL     OW15973   4.038   0.838  11.830 -0.5077  0.3471 -0.4426
 1447SOL    HW115974   4.055   0.793  11.912  1.0516 -1.2815 -1.6530
 1447SOL    HW215975   4.101   0.796  11.772 -1.2679 -0.8505 -0.3976
 1448SOL     OW15976   2.947   2.261   0.457 -0.4491  0.0061  0.1394
 1448SOL    HW115977   2.976   2.171   0.472 -2.7900 -0.6551  0.6835
 1448SOL    HW215978   2.977   2.310   0.533 -0.1381 -0.9866  0.6642
 1449SOL     OW15979   2.840   3.528  14.202 -0.0016 -0.1906 -0.0949
 1449SOL    HW115980   2.841   3.518  14.298  0.4681 -0.6043 -0.1416
 1449SOL    HW215981   2.745   3.535  14.195  0.2058  0.7256 -1.7959
 1450SOL     OW15982   3.504   0.896   8.542  0.1696  0.3753  0.9361
 1450SOL    HW115983   3.471   0.885   8.632  0.4837  2.9889  1.3628
 1450SOL    HW215984   3.422   0.892   8.493  1.5435 -0.5339 -1.2839
 1451SOL     OW15985   4.260   0.162   3.325 -0.4915  0.0046 -0.0951
 1451SOL    HW115986   4.243   0.164   3.231 -2.1054  3.0346  0.2581
 1451SOL    HW215987   4.168   0.165   3.353  0.0513  1.9828  1.4633
 1452SOL     OW15988   0.469   1.087   8.592 -0.4001 -0.0271 -0.2691
 1452SOL    HW115989   0.419   1.137   8.527 -1.1689 -0.8678 -0.3207
 1452SOL    HW215990   0.504   1.024   8.529  0.1149 -0.5969  0.5881
 1453SOL     OW15991   1.396   0.943   0.953  0.3821  0.1342  0.2638
 1453SOL    HW115992   1.412   0.989   0.870  0.4453  0.0882  0.2508
 1453SOL    HW215993   1.420   0.854   0.927 -0.2613 -0.7121  2.5699
 1454SOL     OW15994   2.765   4.645   8.930 -0.4724 -0.0249 -0.0043
 1454SOL    HW115995   2.799   4.671   9.016  3.3832 -1.9479 -0.9562
 1454SOL    HW215996   2.739   4.557   8.958 -1.4869  0.0783 -0.6166
 1455SOL     OW15997   3.454   1.550  14.102  0.2917 -0.1575 -0.2799
 1455SOL    HW115998   3.413   1.634  14.080  0.9397  0.4748  0.8922
 1455SOL    HW215999   3.400   1.495  14.045 -0.9925  0.8433 -0.0322
 1456SOL     OW16000   0.793   0.156   6.654 -0.3138 -0.0882 -0.4029
 1456SOL    HW116001   0.766   0.071   6.621  0.5811 -0.9516  1.1047
 1456SOL    HW216002   0.813   0.138   6.745 -2.4054 -1.8189 -0.2867
 1457SOL     OW16003   2.828   0.718   1.897  0.3179 -0.2676  0.0970
 1457SOL    HW116004   2.846   0.743   1.806  2.4024  0.1934  0.6176
 1457SOL    HW216005   2.888   0.768   1.953  1.5493 -3.1872  1.3985
 1458SOL     OW16006   4.097   1.684   5.771  0.7148  0.0191 -0.7534
 1458SOL    HW116007   4.050   1.619   5.719  3.3111 -0.6776 -2.2173
 1458SOL    HW216008   4.139   1.622   5.831  0.9340 -1.2874 -2.2426
 1459SOL     OW16009   4.003   0.634  12.537 -0.0989  0.5706  1.0348
 1459SOL    HW116010   4.001   0.539  12.521  1.3055  0.8732 -0.9911
 1459SOL    HW216011   4.051   0.646  12.619  1.4504 -0.9401  0.3627
 1460SOL     OW16012   2.798   3.799  12.583 -0.2285 -0.2658  0.1355
 1460SOL    HW116013   2.788   3.723  12.526 -2.0896  0.5951 -0.6703
 1460SOL    HW216014   2.850   3.764  12.656 -0.0328 -1.3224 -0.5125
 1461SOL     OW16015   2.617   2.168   3.379 -0.0599 -0.4211  0.4430
 1461SOL    HW116016   2.688   2.180   3.443  1.9474  2.9357 -2.3430
 1461SOL    HW216017   2.557   2.111   3.426 -0.4351  0.5549  1.1357
 1462SOL     OW16018   2.784   4.487   6.178 -0.2895 -0.5689  0.8026
 1462SOL    HW116019   2.831   4.425   6.233  0.1732 -1.1027 -0.2048
 1462SOL    HW216020   2.828   4.561   6.219 -0.7574 -1.4591  2.9194
 1463SOL     OW16021   3.865   1.268   7.547  0.0625 -0.4575  0.3563
 1463SOL    HW116022   3.917   1.219   7.610  1.7630 -1.5051 -1.8791
 1463SOL    HW216023   3.790   1.209   7.549 -0.4470  0.1702 -0.1411
 1464SOL     OW16024   2.272   2.248   2.152 -0.5437  0.2423 -0.2189
 1464SOL    HW116025   2.199   2.230   2.093  1.8586 -0.8346 -2.8591
 1464SOL    HW216026   2.323   2.315   2.106  1.1789  0.4557  1.9927
 1465SOL     OW16027   2.246   3.976   4.013 -0.1550 -0.0051  0.1045
 1465SOL    HW116028   2.337   4.003   4.001  0.3862 -1.5401  0.6714
 1465SOL    HW216029   2.237   3.994   4.106 -1.7679 -0.4171  0.0189
 1466SOL     OW16030   2.716   2.603   3.255 -0.0741 -0.3748  0.4026
 1466SOL    HW116031   2.625   2.573   3.253 -0.0297 -0.4796 -0.1487
 1466SOL    HW216032   2.703   2.696   3.237  0.4000 -0.3810  0.0407
 1467SOL     OW16033   0.849   4.347   6.691  0.1875 -0.2497 -0.2378
 1467SOL    HW116034   0.758   4.317   6.685 -0.1443  0.3539  1.7003
 1467SOL    HW216035   0.866   4.383   6.604 -1.1623  0.8953 -0.0284
 1468SOL     OW16036   4.401   3.582   0.568 -0.4042 -0.2354  0.2888
 1468SOL    HW116037   4.351   3.629   0.634 -0.7887 -2.2215  1.4087
 1468SOL    HW216038   4.420   3.508   0.626  0.3935 -0.2069  0.0716
 1469SOL     OW16039   4.580   2.723   5.104 -0.0267 -0.4347 -0.2934
 1469SOL    HW116040   4.524   2.797   5.080  1.1952  1.4685  2.6125
 1469SOL    HW216041   4.586   2.737   5.198 -0.0874 -0.0096 -0.3527
 1470SOL     OW16042   0.551   2.448   7.342 -0.4508  0.3321 -0.4559
 1470SOL    HW116043   0.590   2.361   7.356  0.2357  0.7814  0.4354
 1470SOL    HW216044   0.628   2.492   7.306 -0.1449  1.2037  1.2810
 1471SOL     OW16045   3.285   2.144   4.717  0.3574  0.0547 -0.3375
 1471SOL    HW116046   3.289   2.065   4.771  0.1551  0.5387  0.3887
 1471SOL    HW216047   3.203   2.183   4.747  0.7367  1.2530 -0.8613
 1472SOL     OW16048   3.737   0.372  15.884 -0.2855  0.0891 -0.1105
 1472SOL    HW116049   3.774   0.358  15.797 -1.7062 -2.1303 -0.3729
 1472SOL    HW216050   3.654   0.414  15.860 -0.3688  0.9140  1.6004
 1473SOL     OW16051   1.334   3.893   9.124  0.0552  0.6392 -0.4019
 1473SOL    HW116052   1.310   3.840   9.049  0.4356 -2.0436  1.3665
 1473SOL    HW216053   1.430   3.894   9.117  0.0040 -0.3080 -1.1269
 1474SOL     OW16054   3.848   1.903   8.641 -0.7152  0.4500  0.2643
 1474SOL    HW116055   3.856   1.997   8.657 -0.4746  0.4545  0.1215
 1474SOL    HW216056   3.781   1.876   8.705 -1.9517 -1.4007 -1.8111
 1475SOL     OW16057   4.715   2.208  13.588  0.2013 -0.1676 -0.2921
 1475SOL    HW116058   4.687   2.298  13.574  0.9975  0.7585  4.0792
 1475SOL    HW216059   0.063   2.212  13.635  0.3372 -2.8391 -0.3195
 1476SOL     OW16060   0.459   2.204   6.375 -0.2699  0.1601 -0.1772
 1476SOL    HW116061   0.494   2.151   6.303  0.8635  0.5080  0.1207
 1476SOL    HW216062   0.369   2.230   6.353 -0.3570 -1.2501 -1.5167
 1477SOL     OW16063   0.364   1.445   3.814  0.2319  0.5353 -0.2231
 1477SOL    HW116064   0.333   1.492   3.892 -1.3293  0.9562 -1.0949
 1477SOL    HW216065   0.309   1.482   3.745 -1.4057  0.2138  0.9220
 1478SOL     OW16066   1.563   0.427   3.119  0.0705  0.0588  0.6064
 1478SOL    HW116067   1.522   0.502   3.161 -0.9483 -0.6837  0.9579
 1478SOL    HW216068   1.602   0.469   3.043  1.9995 -0.5423  1.2783
 1479SOL     OW16069   3.498   4.024  10.617  0.6635  0.0840  0.2580
 1479SOL    HW116070   3.450   4.016  10.699 -0.9535  0.5607 -0.6295
 1479SOL    HW216071   3.530   3.934  10.610  1.8747  0.6113 -1.0889
 1480SOL     OW16072   1.313   1.389   5.895 -0.8838  0.0443  0.4856
 1480SOL    HW116073   1.287   1.464   5.948  0.9888  0.3552  0.9734
 1480SOL    HW216074   1.303   1.433   5.811  0.8242 -0.9913 -0.2683
 1481SOL     OW16075   1.925   0.851  10.532 -0.0130 -0.1142 -1.1267
 1481SOL    HW116076   1.844   0.811  10.567  1.1045 -1.5896 -0.2047
 1481SOL    HW216077   1.911   0.941  10.562 -2.8185  0.0623 -2.9782
 1482SOL     OW16078   0.339   0.919   3.560 -0.0153 -0.6191 -0.0236
 1482SOL    HW116079   0.303   0.858   3.625  1.0465 -1.6011 -0.3376
 1482SOL    HW216080   0.263   0.937   3.505  0.2252  1.7100  0.4203
 1483SOL     OW16081   0.920   4.720  14.504  0.7566  0.3056 -0.2304
 1483SOL    HW116082   1.013   4.718  14.486  0.6376  0.3404 -0.8232
 1483SOL    HW216083   0.924   0.004  14.598 -0.6666  0.2906 -0.1562
 1484SOL     OW16084   1.094   2.034   7.636  0.6065 -0.0749 -0.4172
 1484SOL    HW116085   1.039   2.077   7.571 -0.8395 -1.0512  0.1538
 1484SOL    HW216086   1.056   1.947   7.627 -0.7365  0.5306 -0.5311
 1485SOL     OW16087   1.972   4.524  11.930 -0.2797  0.7501 -0.1332
 1485SOL    HW116088   1.987   4.576  12.008 -1.4756 -1.5292  1.6102
 1485SOL    HW216089   1.898   4.578  11.902 -1.6840 -1.9780 -1.8051
 1486SOL     OW16090   1.287   1.089  10.030 -0.0402 -0.1557  0.0508
 1486SOL    HW116091   1.363   1.115   9.979 -1.1041  0.3953 -1.2644
 1486SOL    HW216092   1.223   1.160  10.021 -0.8036 -0.8114  0.2999
 1487SOL     OW16093   4.581   1.339  13.248  0.2547 -0.1808  0.3547
 1487SOL    HW116094   4.671   1.365  13.229 -0.2965  1.0661 -0.5681
 1487SOL    HW216095   4.549   1.324  13.159 -0.5537  0.8466  0.4781
 1488SOL     OW16096   3.173   3.276  16.599  0.0968 -0.4239 -0.2875
 1488SOL    HW116097   3.222   3.290  16.680 -1.8955  0.6732  0.7513
 1488SOL    HW216098   3.086   3.259  16.637 -0.6820  1.9168 -1.0006
 1489SOL     OW16099   3.277   0.161   3.917 -0.1610  0.1310  0.1223
 1489SOL    HW116100   3.288   0.130   3.827  0.7282  4.3406 -1.2018
 1489SOL    HW216101   3.336   0.108   3.970  1.4068 -0.0201 -1.7502
 1490SOL     OW16102   3.811   4.696   1.655 -0.2400  0.1368 -0.3021
 1490SOL    HW116103   3.783   0.037   1.603  3.7775  1.0529 -1.0843
 1490SOL    HW216104   3.888   4.720   1.706 -0.4999  0.6021 -0.1244
 1491SOL     OW16105   1.672   3.027   9.166 -0.1607 -0.6167 -0.0693
 1491SOL    HW116106   1.756   3.023   9.213 -0.0244 -1.6731 -0.4026
 1491SOL    HW216107   1.672   2.947   9.114  2.4299 -0.3763 -0.4510
 1492SOL     OW16108   4.098   1.694  14.982 -0.5137 -0.2493 -0.0757
 1492SOL    HW116109   4.110   1.600  14.996 -1.0969 -0.2867  0.1788
 1492SOL    HW216110   4.004   1.704  14.970 -0.6723 -1.5344  0.1149
 1493SOL     OW16111   1.859   1.634  10.049  0.3947  0.0851 -0.5956
 1493SOL    HW116112   1.804   1.707  10.021  1.6024  0.7702 -1.1662
 1493SOL    HW216113   1.950   1.663  10.055  0.8500 -1.5554  0.3600
 1494SOL     OW16114   3.714   4.268  12.771 -0.4341 -0.5748  0.2858
 1494SOL    HW116115   3.704   4.284  12.864  0.1076  0.9664  0.0769
 1494SOL    HW216116   3.639   4.210  12.756 -1.2498  0.2705  1.0966
 1495SOL     OW16117   3.011   2.383   7.255  0.1001 -0.4988 -0.4043
 1495SOL    HW116118   3.049   2.470   7.251  2.5442 -1.6325 -1.8184
 1495SOL    HW216119   2.932   2.407   7.303 -0.2628 -0.0906 -1.1952
 1496SOL     OW16120   2.391   1.724   9.539 -0.5149  0.7407  0.2317
 1496SOL    HW116121   2.415   1.722   9.446  0.2320 -2.3841  0.4873
 1496SOL    HW216122   2.336   1.801   9.550 -0.0500  0.7821  2.2605
 1497SOL     OW16123   1.775   3.788   7.227 -0.7400  0.1584 -0.6080
 1497SOL    HW116124   1.851   3.732   7.239 -2.3442 -2.3271 -1.8927
 1497SOL    HW216125   1.777   3.816   7.135  1.6043  1.7997 -0.0356
 1498SOL     OW16126   1.116   3.763  17.619 -0.1863  0.5813  0.4725
 1498SOL    HW116127   1.133   3.852  17.651 -1.2258  2.3499 -3.7887
 1498SOL    HW216128   1.201   3.744  17.577 -0.9244  0.0299 -0.7866
 1499SOL     OW16129   3.663   2.310  14.873 -0.2497  0.3752  0.3038
 1499SOL    HW116130   3.619   2.395  14.886  0.6187  0.8281  0.2777
 1499SOL    HW216131   3.635   2.285  14.785  2.1813 -1.5766  0.1089
 1500SOL     OW16132   4.629   3.242   8.492 -0.6227 -0.6377  0.0238
 1500SOL    HW116133   4.595   3.318   8.539 -0.4607 -1.1223  0.9333
 1500SOL    HW216134   4.569   3.182   8.536 -4.0169  0.8504 -2.5547
 1501SOL     OW16135   3.074   2.620   9.306 -0.0275  0.1112 -0.6798
 1501SOL    HW116136   3.089   2.621   9.212 -0.9598  0.7914 -0.8251
 1501SOL    HW216137   3.157   2.587   9.341 -0.8921 -0.4946  0.8318
 1502SOL     OW16138   2.478   1.711   9.269  0.0637 -0.6114  0.3554
 1502SOL    HW116139   2.431   1.657   9.205 -1.2759  0.6880  0.2396
 1502SOL    HW216140   2.550   1.650   9.288  1.8289  1.0160 -1.1060
 1503SOL     OW16141   3.751   1.611   4.176  0.0698  0.2518 -0.7745
 1503SOL    HW116142   3.656   1.620   4.170  0.0341  0.4401 -0.0129
 1503SOL    HW216143   3.750   1.516   4.179 -3.1577  0.4253  4.2058
 1504SOL     OW16144   0.131   4.304   8.202 -0.7352 -0.4942 -0.1051
 1504SOL    HW116145   0.163   4.376   8.147 -1.1626 -0.3684 -0.1862
 1504SOL    HW216146   0.103   4.238   8.138 -0.5022  0.8266 -1.5637
 1505SOL     OW16147   0.179   1.974   7.125  0.0351 -0.8393  0.2833
 1505SOL    HW116148   0.190   2.066   7.099 -1.0110 -1.2964 -1.8228
 1505SOL    HW216149   0.218   1.928   7.051 -0.1373 -0.3787 -0.0947
 1506SOL     OW16150   3.805   4.406   5.527 -0.5565 -0.4516 -0.1994
 1506SOL    HW116151   3.749   4.484   5.525 -0.6365 -0.4454  2.0163
 1506SOL    HW216152   3.880   4.431   5.473 -1.2679  0.8166 -0.6198
 1507SOL     OW16153   4.113   0.529  15.420  0.0502  1.0768  0.0037
 1507SOL    HW116154   4.054   0.476  15.366 -0.4050  1.0535  0.5125
 1507SOL    HW216155   4.144   0.592  15.355  0.0362  0.6297 -0.4406
 1508SOL     OW16156   0.863   4.538   0.484 -0.1953  0.4980  0.0818
 1508SOL    HW116157   0.923   4.597   0.530  0.8094 -1.0389  0.7381
 1508SOL    HW216158   0.868   4.449   0.519 -1.8185  0.0012 -0.9396
 1509SOL     OW16159   0.193   2.274   4.515  0.3672 -0.1678 -0.2732
 1509SOL    HW116160   0.204   2.255   4.608  3.9665  0.9220 -0.4834
 1509SOL    HW216161   0.204   2.191   4.469  0.8976  0.9650 -2.2119
 1510SOL     OW16162   3.952   0.252   9.403  0.7200 -0.1953  0.4164
 1510SOL    HW116163   4.016   0.280   9.469  1.5940  1.6950 -1.2539
 1510SOL    HW216164   4.018   0.193   9.367 -0.3541 -1.4701  0.5257
 1511SOL     OW16165   2.131   1.441   3.220 -0.1787  0.6175 -0.4243
 1511SOL    HW116166   2.160   1.505   3.156 -0.5671  0.6107 -0.6067
 1511SOL    HW216167   2.149   1.484   3.304  1.1045  1.1974 -1.0061
 1512SOL     OW16168   1.831   3.837  16.235 -0.0612  0.0804 -0.2077
 1512SOL    HW116169   1.904   3.860  16.292  0.2311  0.4451 -0.7388
 1512SOL    HW216170   1.856   3.853  16.144  2.5144 -1.7633  0.1710
 1513SOL     OW16171   1.252   3.931  11.696 -0.3031  0.1334 -0.0073
 1513SOL    HW116172   1.166   3.943  11.656  0.0721  1.8204 -0.3380
 1513SOL    HW216173   1.285   3.853  11.650 -2.2629 -1.3440  1.1120
 1514SOL     OW16174   3.723   4.108  16.474  0.6889 -0.9416 -1.0799
 1514SOL    HW116175   3.637   4.152  16.475  1.6627  0.8716  3.2736
 1514SOL    HW216176   3.755   4.129  16.387  0.1622 -0.4449 -1.1539
 1515SOL     OW16177   3.227   3.826  12.152 -0.0558  0.0649  0.1329
 1515SOL    HW116178   3.301   3.804  12.209  0.5875 -0.1773 -0.8049
 1515SOL    HW216179   3.183   3.886  12.212  0.1799  0.4456 -0.0734
 1516SOL     OW16180   4.242   2.941   7.144 -0.9956 -0.0032 -0.3487
 1516SOL    HW116181   4.214   3.025   7.107 -2.0431 -0.3730 -0.4195
 1516SOL    HW216182   4.207   2.891   7.070  0.8118 -2.3747  0.3877
 1517SOL     OW16183   0.051   3.782  15.914  0.2633 -0.2620 -0.3487
 1517SOL    HW116184   0.071   3.752  15.826  2.5415  2.1294 -0.6432
 1517SOL    HW216185   0.040   3.872  15.884  1.0689  0.7781  2.3906
 1518SOL     OW16186   3.269   2.391  13.291 -0.3359 -0.0807 -0.5769
 1518SOL    HW116187   3.186   2.343  13.283 -1.4387  1.7527  0.0256
 1518SOL    HW216188   3.321   2.339  13.229  0.5270  0.3668 -0.2301
 1519SOL     OW16189   4.391   1.148   9.364 -0.9528  0.2037  0.2898
 1519SOL    HW116190   4.413   1.121   9.275 -1.6613  2.9249 -0.7091
 1519SOL    HW216191   4.383   1.061   9.403  0.2076 -0.5609 -1.1785
 1520SOL     OW16192   3.568   1.681   7.592  0.0657 -0.4783  0.3701
 1520SOL    HW116193   3.574   1.592   7.624 -0.7654 -0.9282 -0.7117
 1520SOL    HW216194   3.473   1.683   7.576  0.1636 -1.2949 -0.3107
 1521SOL     OW16195   0.215   0.154   8.709  0.2130  0.4354 -0.3781
 1521SOL    HW116196   0.147   0.150   8.777  0.2470 -1.4250 -0.4717
 1521SOL    HW216197   0.206   0.246   8.684 -0.8131  0.7784  1.2327
 1522SOL     OW16198   2.564   2.596   1.605 -0.6579  0.0469  0.4201
 1522SOL    HW116199   2.550   2.678   1.556  1.9898 -0.0667 -0.5753
 1522SOL    HW216200   2.636   2.621   1.663 -0.2433 -1.0635  0.3757
 1523SOL     OW16201   1.754   2.864  15.244  0.0001  1.0459  0.5809
 1523SOL    HW116202   1.728   2.938  15.190 -1.0664 -0.4194 -0.9299
 1523SOL    HW216203   1.846   2.849  15.225 -0.4426 -0.7982 -0.1710
 1524SOL     OW16204   3.934   2.442   8.263  0.2607  0.3882 -0.4431
 1524SOL    HW116205   3.951   2.374   8.198 -2.2245 -1.2882  0.6778
 1524SOL    HW216206   3.957   2.389   8.339  1.8795  2.4955  0.5352
 1525SOL     OW16207   1.278   3.073   5.786  0.1772  0.5581  0.4455
 1525SOL    HW116208   1.353   3.014   5.783 -1.4957 -1.4705 -0.7092
 1525SOL    HW216209   1.308   3.150   5.737  0.2765 -0.1871 -0.6484
 1526SOL     OW16210   2.670   1.843   6.051  0.1701  0.1740  0.1263
 1526SOL    HW116211   2.756   1.837   6.093 -0.0367 -1.9215  0.2530
 1526SOL    HW216212   2.608   1.862   6.121  0.5315  1.8626 -0.0252
 1527SOL     OW16213   3.927   3.186   8.217  0.9823  0.4060  0.4086
 1527SOL    HW116214   3.956   3.266   8.173  0.2510 -0.7894 -2.2587
 1527SOL    HW216215   3.845   3.168   8.171  0.6892  2.4171  0.1444
 1528SOL     OW16216   1.956   1.316   7.481 -0.5783  0.1253 -0.1658
 1528SOL    HW116217   1.946   1.328   7.576  1.6216  0.0348  0.0808
 1528SOL    HW216218   1.878   1.265   7.460 -0.3813 -0.0106 -0.5737
 1529SOL     OW16219   1.665   3.835   4.550  0.1549  0.4689  0.7004
 1529SOL    HW116220   1.645   3.926   4.528 -0.2871  0.6683  1.9365
 1529SOL    HW216221   1.661   3.841   4.646 -1.7546  0.8109  0.6004
 1530SOL     OW16222   0.647   1.811   3.407 -0.4590 -0.3506  0.1601
 1530SOL    HW116223   0.723   1.766   3.371 -0.1311  0.3681 -0.0458
 1530SOL    HW216224   0.666   1.903   3.389 -0.8572 -0.3895 -0.4768
 1531SOL     OW16225   0.949   2.161   7.458  0.4979 -0.1526 -0.3987
 1531SOL    HW116226   0.871   2.128   7.412  0.5639  0.4513 -0.9431
 1531SOL    HW216227   1.014   2.172   7.388  0.9927  0.6627  0.2022
 1532SOL     OW16228   3.459   3.519  17.287  0.2643 -0.0412 -0.3521
 1532SOL    HW116229   3.404   3.460  17.235 -0.8639  0.4050  0.3332
 1532SOL    HW216230   3.410   3.536  17.368 -1.9309 -1.7806 -1.2819
 1533SOL     OW16231   4.088   1.376   3.981 -0.2794 -0.2598 -0.5435
 1533SOL    HW116232   4.162   1.402   4.037 -1.0989  0.7300  0.0771
 1533SOL    HW216233   4.105   1.287   3.952 -0.0956 -1.0952  2.1647
 1534SOL     OW16234   3.795   1.684   4.459  0.5218  0.2034 -0.5177
 1534SOL    HW116235   3.746   1.686   4.377 -0.6854  2.7035  0.2496
 1534SOL    HW216236   3.722   1.699   4.519  1.0170  3.8436 -0.8259
 1535SOL     OW16237   0.165   2.630   9.420 -0.7653  0.2733  0.2909
 1535SOL    HW116238   0.257   2.655   9.427 -0.9101  1.0568 -0.6849
 1535SOL    HW216239   0.168   2.552   9.476  3.1752  0.8838  0.8778
 1536SOL     OW16240   3.914   3.459  17.584 -0.1126  0.1494  0.4527
 1536SOL    HW116241   3.939   3.380  17.537 -0.6208  0.2347  0.0434
 1536SOL    HW216242   3.920   3.420  17.671 -1.3223  0.2283  0.5704
 1537SOL     OW16243   2.997   1.490   9.884 -0.4214 -0.0964 -0.4235
 1537SOL    HW116244   2.955   1.423   9.830 -0.2906 -0.2723 -0.3082
 1537SOL    HW216245   2.960   1.457   9.966  0.5026  1.9023  0.7957
 1538SOL     OW16246   4.188   0.884  12.293  0.8196  0.7712 -0.3172
 1538SOL    HW116247   4.245   0.934  12.234  0.6717 -0.3229 -1.4026
 1538SOL    HW216248   4.104   0.928  12.281  0.0081 -1.0176 -1.1873
 1539SOL     OW16249   0.576   4.419   2.445  0.2646  0.5143 -0.2479
 1539SOL    HW116250   0.597   4.344   2.390  0.1973 -0.0785  0.5445
 1539SOL    HW216251   0.485   4.428   2.417  0.1051  0.6948  0.3386
 1540SOL     OW16252   2.580   3.593  14.234  0.1727 -0.1367  0.0361
 1540SOL    HW116253   2.506   3.553  14.280 -0.2782  1.7486  0.9378
 1540SOL    HW216254   2.553   3.684  14.225  1.4404  0.2213 -0.0380
 1541SOL     OW16255   0.784   0.674  17.108  0.3858  0.2291 -0.6918
 1541SOL    HW116256   0.717   0.630  17.056  1.2874  1.4655 -2.8850
 1541SOL    HW216257   0.740   0.690  17.191  0.0545  0.4813 -0.9199
 1542SOL     OW16258   1.901   1.881   3.772 -0.2521  0.1909 -0.0187
 1542SOL    HW116259   1.915   1.883   3.867  0.5755  2.8403 -0.2012
 1542SOL    HW216260   1.983   1.847   3.735  0.4213  1.5628  0.2318
 1543SOL     OW16261   4.483   0.616   2.274  0.5449  0.0167 -0.5334
 1543SOL    HW116262   4.527   0.693   2.238 -2.2551  2.3061  1.0036
 1543SOL    HW216263   4.466   0.650   2.362  1.3531  2.1837 -1.2164
 1544SOL     OW16264   4.464   0.168   8.240 -0.3098 -0.1407  0.0334
 1544SOL    HW116265   4.534   0.221   8.202  0.1055 -0.3016  0.5717
 1544SOL    HW216266   4.499   0.142   8.326 -1.5155  1.0286  0.8760
 1545SOL     OW16267   1.278   4.112   3.239 -0.2287 -0.1444  0.4204
 1545SOL    HW116268   1.362   4.065   3.246 -0.1481  0.4244  3.1374
 1545SOL    HW216269   1.266   4.121   3.144 -0.2218 -0.8399  0.3528
 1546SOL     OW16270   1.350   4.616  16.064 -0.2408 -0.0686 -0.4650
 1546SOL    HW116271   1.281   4.675  16.093  1.3092  1.6969 -0.3638
 1546SOL    HW216272   1.362   4.644  15.973  0.2980  0.0825 -0.3441
 1547SOL     OW16273   2.212   3.913  14.164 -0.1075 -0.5572 -0.1616
 1547SOL    HW116274   2.211   3.844  14.098  3.1424 -1.0758  0.3622
 1547SOL    HW216275   2.130   3.888  14.207  0.8113 -1.4254  1.0880
 1548SOL     OW16276   1.695   1.323  10.411 -0.5787 -0.0662  0.1476
 1548SOL    HW116277   1.701   1.317  10.316 -0.3378 -0.0725  0.1633
 1548SOL    HW216278   1.643   1.403  10.417 -0.2645  0.2701 -1.5890
 1549SOL     OW16279   2.360   1.902   0.429  0.2255 -0.3848  0.5165
 1549SOL    HW116280   2.435   1.960   0.443 -0.3010  0.2275  0.7845
 1549SOL    HW216281   2.356   1.905   0.333 -0.7581  2.8606  0.6470
 1550SOL     OW16282   2.469   3.334   9.120  0.1242  0.4387  0.2014
 1550SOL    HW116283   2.511   3.258   9.160 -0.0779  0.0554 -0.3283
 1550SOL    HW216284   2.457   3.388   9.198  0.8924  1.0537 -0.0979
 1551SOL     OW16285   4.547   2.814   7.651 -0.1493 -0.1658 -0.3310
 1551SOL    HW116286   4.524   2.727   7.618  3.3014 -2.1712  2.4943
 1551SOL    HW216287   4.642   2.808   7.655  0.0814  3.2944 -0.9101
 1552SOL     OW16288   1.373   3.194  12.723 -0.5472 -0.5209 -0.2281
 1552SOL    HW116289   1.426   3.229  12.651 -1.1195 -1.6858 -1.2022
 1552SOL    HW216290   1.333   3.120  12.678  0.0366 -1.5479  0.9186
 1553SOL     OW16291   3.506   0.765   3.953 -0.0215  0.3904 -0.4253
 1553SOL    HW116292   3.578   0.740   4.011 -0.2294 -0.1121 -0.3799
 1553SOL    HW216293   3.550   0.756   3.869 -1.2333 -1.6579 -0.8470
 1554SOL     OW16294   2.148   4.371  16.913  0.6637 -0.3118 -0.2719
 1554SOL    HW116295   2.071   4.412  16.951  0.1213 -1.9440  0.3804
 1554SOL    HW216296   2.205   4.445  16.892 -0.4985  0.0504 -2.2255
 1555SOL     OW16297   4.229   1.460   9.267  0.0443 -0.0146  0.1981
 1555SOL    HW116298   4.252   1.530   9.328 -0.7720 -0.5609  1.1479
 1555SOL    HW216299   4.304   1.464   9.209 -1.1376  0.6632 -1.2593
 1556SOL     OW16300   2.652   4.238   7.615 -0.3357  0.7473 -0.9072
 1556SOL    HW116301   2.582   4.182   7.581  0.7248 -0.3362 -1.2939
 1556SOL    HW216302   2.605   4.313   7.653  1.8046  1.4363  0.3690
 1557SOL     OW16303   0.161   3.576   8.504 -0.1862  0.2129 -0.1236
 1557SOL    HW116304   0.211   3.645   8.460  1.4304 -0.8669  0.0615
 1557SOL    HW216305   0.076   3.577   8.459 -0.0207  1.2362 -0.4139
 1558SOL     OW16306   1.519   2.066   7.954 -0.4590 -0.4363 -0.5051
 1558SOL    HW116307   1.483   2.032   8.035  0.5122  1.0819  0.5657
 1558SOL    HW216308   1.477   2.003   7.896  1.1208 -2.3780  0.4641
 1559SOL     OW16309   0.022   1.700   4.647  0.3813  0.2840 -0.2145
 1559SOL    HW116310   0.066   1.638   4.706  0.4719 -2.1893 -2.8771
 1559SOL    HW216311   4.702   1.740   4.715  0.8653  0.5043  0.0421
 1560SOL     OW16312   3.800   0.471   5.112  0.6922 -0.5325 -0.2422
 1560SOL    HW116313   3.804   0.393   5.168 -0.5928 -2.0294 -2.2490
 1560SOL    HW216314   3.853   0.530   5.165  1.0633 -0.0521 -1.1573
 1561SOL     OW16315   3.606   1.697   4.679 -0.0738  0.1318 -0.0956
 1561SOL    HW116316   3.521   1.656   4.698  0.8010 -1.5478  0.1872
 1561SOL    HW216317   3.592   1.781   4.723 -1.8311  0.6588 -1.6524
 1562SOL     OW16318   4.326   3.334   6.227 -0.4146  0.1495  0.5715
 1562SOL    HW116319   4.258   3.308   6.165  1.1997 -1.3527 -0.5358
 1562SOL    HW216320   4.279   3.324   6.311 -1.5551  2.3673  0.1957
 1563SOL     OW16321   0.814   0.495  13.126  0.0058  0.0154  0.0067
 1563SOL    HW116322   0.865   0.417  13.149 -0.3223 -0.0014  0.6474
 1563SOL    HW216323   0.824   0.485  13.031  1.7594  1.6811  0.0085
 1564SOL     OW16324   2.253   3.465   1.922  0.4607  0.1113  0.3869
 1564SOL    HW116325   2.255   3.410   1.843 -0.9989 -2.4231  2.1486
 1564SOL    HW216326   2.164   3.446   1.949  0.6958 -0.7909  0.5238
 1565SOL     OW16327   1.850   0.609  15.009 -0.3801  0.0588  0.0319
 1565SOL    HW116328   1.858   0.646  14.921  1.5980  0.2352  0.2821
 1565SOL    HW216329   1.926   0.551  15.018  0.8038  1.5357 -0.3747
 1566SOL     OW16330   2.915   4.703   5.381  0.0640 -0.4186 -0.2300
 1566SOL    HW116331   2.853   4.718   5.453  0.4089 -0.9923  0.1864
 1566SOL    HW216332   2.902   4.611   5.360  2.9359 -0.5614 -1.4396
 1567SOL     OW16333   0.967   1.531  17.252 -0.2679  0.2807  0.2723
 1567SOL    HW116334   0.966   1.608  17.195 -0.3647  0.2224  0.1956
 1567SOL    HW216335   1.033   1.480  17.204 -1.1540 -1.6382  1.0874
 1568SOL     OW16336   1.515   0.742   9.551  0.3489  0.0227 -0.0734
 1568SOL    HW116337   1.552   0.734   9.639 -2.0595  2.4216  1.1639
 1568SOL    HW216338   1.491   0.652   9.529 -0.6908  0.2430  0.1472
 1569SOL     OW16339   1.558   0.481   2.648 -0.3540 -0.4401 -0.1468
 1569SOL    HW116340   1.488   0.427   2.613 -3.1489  1.2409  2.8598
 1569SOL    HW216341   1.508   0.535   2.710  1.0951  0.2622  0.4125
 1570SOL     OW16342   2.396   0.757   5.198 -0.3066 -0.0993  0.0215
 1570SOL    HW116343   2.329   0.825   5.212 -0.5790 -0.1096 -1.2454
 1570SOL    HW216344   2.352   0.699   5.136 -1.9274  0.0749  0.9947
 1571SOL     OW16345   2.270   2.177  10.296  0.3722  0.1808 -0.0750
 1571SOL    HW116346   2.233   2.249  10.347  0.4060  0.0667  0.1073
 1571SOL    HW216347   2.273   2.100  10.353 -2.8355  0.3855  0.4051
 1572SOL     OW16348   0.978   3.351  11.217 -0.0358  0.2814 -0.0680
 1572SOL    HW116349   1.017   3.430  11.255 -1.7299  1.2195 -0.2847
 1572SOL    HW216350   0.888   3.379  11.231 -0.8917 -1.5531 -2.0425
 1573SOL     OW16351   1.058   0.666   3.479 -0.0300 -0.1519 -0.5431
 1573SOL    HW116352   0.981   0.691   3.429 -0.7436  0.5414  0.8849
 1573SOL    HW216353   1.035   0.719   3.556 -1.3937 -0.3638 -0.8003
 1574SOL     OW16354   0.229   0.702   4.305 -0.6276  0.0195  0.3848
 1574SOL    HW116355   0.222   0.734   4.215 -0.8072  2.4546  1.2932
 1574SOL    HW216356   0.324   0.710   4.316 -0.5821  1.5323 -1.2076
 1575SOL     OW16357   1.328   2.672   6.350  0.5426  0.1390  0.1142
 1575SOL    HW116358   1.270   2.743   6.325 -0.3016 -0.0561  1.5501
 1575SOL    HW216359   1.329   2.680   6.446  0.6453 -1.1985  0.2287
 1576SOL     OW16360   3.107   2.207  15.452 -0.1171  0.8113  0.0824
 1576SOL    HW116361   3.193   2.188  15.415  0.7186 -0.9026  2.9228
 1576SOL    HW216362   3.118   2.271  15.521  1.6265 -0.8299  1.3143
 1577SOL     OW16363   0.788   3.167  16.391 -0.3599 -0.0499 -0.1517
 1577SOL    HW116364   0.715   3.130  16.442  0.3276 -1.3690 -0.1280
 1577SOL    HW216365   0.844   3.198  16.461 -1.1027 -0.9635  0.8507
 1578SOL     OW16366   4.202   2.763  13.975  0.2198 -0.6972  0.0269
 1578SOL    HW116367   4.114   2.737  14.001  0.4789 -1.3149  0.3067
 1578SOL    HW216368   4.233   2.673  13.964  1.6193 -0.0963 -0.9252
 1579SOL     OW16369   3.090   2.355   9.811  0.0436  0.5121  0.3852
 1579SOL    HW116370   3.079   2.445   9.782  3.5121  0.6512 -0.4532
 1579SOL    HW216371   3.002   2.340   9.847  0.5664 -0.2790  1.3472
 1580SOL     OW16372   0.030   2.811   7.380 -0.0202 -0.4060  0.1917
 1580SOL    HW116373   4.724   2.738   7.333 -1.3888  0.6534 -0.2811
 1580SOL    HW216374   4.702   2.883   7.370  1.5111  0.9236  0.1563
 1581SOL     OW16375   1.451   1.056  16.870  0.3886  0.1534  0.1890
 1581SOL    HW116376   1.515   1.085  16.935  1.0691 -1.2049  0.1177
 1581SOL    HW216377   1.505   1.051  16.791 -2.0438  1.9543 -1.5886
 1582SOL     OW16378   1.257   1.083   3.682  0.1408  0.4445  0.2197
 1582SOL    HW116379   1.213   1.057   3.601 -2.4743 -2.8987  2.6978
 1582SOL    HW216380   1.345   1.108   3.655  0.3600 -1.4724 -0.8000
 1583SOL     OW16381   2.788   1.674   5.537  0.1239  0.1477 -0.1178
 1583SOL    HW116382   2.757   1.585   5.525  0.2657  0.5313 -3.2300
 1583SOL    HW216383   2.719   1.708   5.595 -2.0046 -3.4049 -0.5981
 1584SOL     OW16384   4.316   4.571   7.172  0.3378  0.3081 -0.0964
 1584SOL    HW116385   4.264   4.532   7.101 -0.3953  0.1654  0.5170
 1584SOL    HW216386   4.339   4.502   7.234 -0.1728 -0.1853 -0.4583
 1585SOL     OW16387   1.572   1.875   2.406 -0.5524 -0.0252  0.0226
 1585SOL    HW116388   1.492   1.879   2.458 -0.6855 -1.5873 -0.0706
 1585SOL    HW216389   1.619   1.950   2.442  1.1469 -1.1086  0.0838
 1586SOL     OW16390   1.402   0.234   4.374  0.0639 -0.2888  0.5108
 1586SOL    HW116391   1.315   0.261   4.346  0.0016 -1.2633 -0.2571
 1586SOL    HW216392   1.419   0.170   4.305 -0.0791  0.8866 -0.6096
 1587SOL     OW16393   1.738   1.286   9.775 -0.0979 -0.2770  0.2174
 1587SOL    HW116394   1.764   1.198   9.748  0.2437 -0.8281  2.3085
 1587SOL    HW216395   1.807   1.313   9.835  1.5005 -1.9799 -0.8820
 1588SOL     OW16396   3.606   1.384   6.423  0.1922 -0.1217  0.7706
 1588SOL    HW116397   3.674   1.323   6.449  1.2019  0.4270 -0.5507
 1588SOL    HW216398   3.524   1.335   6.427  0.3563 -0.6054 -1.8205
 1589SOL     OW16399   1.220   0.248  12.850  0.5864 -0.6432 -0.0654
 1589SOL    HW116400   1.265   0.332  12.835 -2.0643  0.4745 -1.7519
 1589SOL    HW216401   1.279   0.213  12.917  1.3814 -2.0969 -1.5044
 1590SOL     OW16402   3.889   0.203   0.587  0.7242  0.3558 -0.4168
 1590SOL    HW116403   3.808   0.155   0.604  1.0775  0.7317  2.2894
 1590SOL    HW216404   3.862   0.258   0.513 -0.1443 -1.3837 -1.3907
 1591SOL     OW16405   0.225   1.314   5.926 -0.3454 -1.0978  0.2798
 1591SOL    HW116406   0.315   1.281   5.925  0.6041  1.6113 -2.6677
 1591SOL    HW216407   0.206   1.281   6.014 -1.8799 -0.9814 -0.0162
 1592SOL     OW16408   0.110   1.421   5.460  0.2392  0.2831 -0.3297
 1592SOL    HW116409   0.120   1.511   5.429 -0.2142 -0.4853 -2.7245
 1592SOL    HW216410   0.177   1.419   5.528 -0.3441 -1.1883  0.2046
 1593SOL     OW16411   3.931   4.204  12.620  0.6276 -0.2304 -0.4931
 1593SOL    HW116412   3.924   4.110  12.603 -2.1281 -0.0337 -0.3909
 1593SOL    HW216413   3.873   4.229  12.691  1.0862  1.8882 -0.8537
 1594SOL     OW16414   0.716   0.741  12.102 -0.2985  0.0391  0.1663
 1594SOL    HW116415   0.679   0.774  12.020 -1.0511 -0.9275  0.1188
 1594SOL    HW216416   0.684   0.651  12.103  0.7670 -0.3601 -3.5713
 1595SOL     OW16417   0.700   0.695   2.187 -0.0091  0.0296 -0.3686
 1595SOL    HW116418   0.780   0.741   2.159 -0.0096 -0.3353 -0.9726
 1595SOL    HW216419   0.695   0.712   2.281 -1.5307  0.1608 -0.4760
 1596SOL     OW16420   3.659   1.012   3.528 -0.6190 -0.7890  0.3250
 1596SOL    HW116421   3.635   0.924   3.501  2.2957 -1.1816 -1.0071
 1596SOL    HW216422   3.582   1.053   3.567  1.0111  1.3117  1.3831
 1597SOL     OW16423   3.660   4.293  14.215 -0.0211  0.1748  0.1351
 1597SOL    HW116424   3.639   4.267  14.125  1.5450  2.0664 -0.7786
 1597SOL    HW216425   3.716   4.219  14.242  0.1252  0.0835 -0.4000
 1598SOL     OW16426   2.468   0.901   3.721  0.7174 -0.3476  0.2958
 1598SOL    HW116427   2.497   0.889   3.631 -1.1413 -1.6098 -0.1305
 1598SOL    HW216428   2.499   0.827   3.774 -0.9628 -0.9648  0.3956
 1599SOL     OW16429   3.244   1.630  16.953  0.3482 -0.1543 -0.3544
 1599SOL    HW116430   3.307   1.559  16.964 -0.8448 -1.4241 -1.8502
 1599SOL    HW216431   3.306   1.699  16.928  1.1553 -0.7174  0.1038
 1600SOL     OW16432   4.088   2.883  15.962  0.2241  0.8154  0.5533
 1600SOL    HW116433   3.999   2.910  15.985 -0.7387 -1.2501 -0.7810
 1600SOL    HW216434   4.139   2.958  15.993  0.8339  0.5267  0.2686
 1601SOL     OW16435   3.443   1.808   9.217  0.3367  0.4382 -0.0790
 1601SOL    HW116436   3.447   1.714   9.198 -1.1670  0.2767  0.4336
 1601SOL    HW216437   3.362   1.828   9.264  0.1759 -1.5024  0.4859
 1602SOL     OW16438   2.628   0.215  13.668 -0.6864  0.2383 -0.7374
 1602SOL    HW116439   2.618   0.198  13.575 -0.9438 -1.0685 -0.4720
 1602SOL    HW216440   2.572   0.146  13.703 -1.1845  1.0225  0.0016
 1603SOL     OW16441   1.088   2.686   5.994  0.2736  0.1260  0.5629
 1603SOL    HW116442   1.181   2.703   6.004  0.1344  1.3540 -0.2104
 1603SOL    HW216443   1.097   2.592   5.979  1.5774  0.1683  1.0998
 1604SOL     OW16444   4.315   1.951   5.038  0.2573 -0.4694  0.7425
 1604SOL    HW116445   4.334   1.866   5.078 -4.7377 -0.9954  2.0686
 1604SOL    HW216446   4.264   1.999   5.103  1.1178  0.9525  0.3786
 1605SOL     OW16447   0.738   2.620   5.674  0.1470  0.4702 -0.4498
 1605SOL    HW116448   0.720   2.606   5.581 -0.1103 -0.1523 -0.3036
 1605SOL    HW216449   0.829   2.650   5.677  0.1333  0.2766  1.5577
 1606SOL     OW16450   1.147   4.281   2.633 -0.5274  0.3873 -0.3323
 1606SOL    HW116451   1.216   4.347   2.622 -0.0029  0.2524  2.2271
 1606SOL    HW216452   1.100   4.318   2.708 -0.9413  0.8976 -0.8413
 1607SOL     OW16453   3.591   1.900  16.166  0.2304  0.3572 -0.7744
 1607SOL    HW116454   3.650   1.948  16.224 -0.4183  0.4467 -0.1922
 1607SOL    HW216455   3.620   1.947  16.088  0.8818  0.5318 -0.4332
 1608SOL     OW16456   4.667   3.631   4.951  0.0877 -0.3109 -0.5526
 1608SOL    HW116457   4.680   3.542   4.985  0.2815  0.1436  0.5908
 1608SOL    HW216458   4.589   3.616   4.897 -1.4019 -0.2253  1.5496
 1609SOL     OW16459   2.191   2.708   7.221  0.1826  0.0110  0.4996
 1609SOL    HW116460   2.160   2.786   7.176  0.9326 -0.4197 -0.7834
 1609SOL    HW216461   2.151   2.720   7.307  1.7719 -0.2434  1.2847
 1610SOL     OW16462   0.744   2.554   8.990  0.5054  0.1620 -0.1807
 1610SOL    HW116463   0.730   2.629   9.048 -1.6939 -0.7207  0.4433
 1610SOL    HW216464   0.781   2.494   9.054  2.0729  0.2837 -0.9784
 1611SOL     OW16465   0.503   1.857  15.446  0.7573 -0.3949  0.1659
 1611SOL    HW116466   0.433   1.826  15.503  2.9362 -3.4271  1.1980
 1611SOL    HW216467   0.503   1.799  15.370  0.2746 -2.9821  2.1303
 1612SOL     OW16468   2.737   1.252   4.436 -0.2469 -0.2798  0.5005
 1612SOL    HW116469   2.727   1.181   4.374 -2.9232 -0.2281  0.8624
 1612SOL    HW216470   2.648   1.288   4.437  0.0570  0.4653  1.4632
 1613SOL     OW16471   1.143   3.707   1.118 -0.1796  0.0164 -0.0645
 1613SOL    HW116472   1.125   3.790   1.160 -1.9848  0.6006 -1.9370
 1613SOL    HW216473   1.107   3.644   1.180 -2.2327 -0.1436 -1.4071
 1614SOL     OW16474   2.463   3.205   7.828  0.5003  0.1854  0.4286
 1614SOL    HW116475   2.386   3.261   7.835  0.1253 -0.0658 -1.6007
 1614SOL    HW216476   2.517   3.237   7.900 -2.2289  0.2354  2.4235
 1615SOL     OW16477   0.383   1.216   2.515 -0.6540 -0.2931 -0.3565
 1615SOL    HW116478   0.407   1.204   2.607  1.5808 -1.0403 -1.0445
 1615SOL    HW216479   0.326   1.293   2.516  2.9303  2.3795  2.6016
 1616SOL     OW16480   2.626   3.155   6.493 -0.4640 -0.1776  0.1037
 1616SOL    HW116481   2.690   3.137   6.562 -0.2404  0.5221  0.0778
 1616SOL    HW216482   2.554   3.098   6.521  0.0049 -0.2356  1.1807
 1617SOL     OW16483   0.871   0.271  17.500  0.3273 -0.4269 -0.0592
 1617SOL    HW116484   0.800   0.319  17.458  0.0700  1.0407  2.0473
 1617SOL    HW216485   0.874   0.330  17.575 -0.6244 -0.0335 -0.3176
 1618SOL     OW16486   4.457   3.478   3.111 -0.3407 -0.2025  0.3740
 1618SOL    HW116487   4.499   3.433   3.037  1.3857  2.8305 -0.4975
 1618SOL    HW216488   4.430   3.558   3.065  1.6223  0.3450  0.1903
 1619SOL     OW16489   2.353   2.979   2.299 -0.1393 -0.1562  0.1733
 1619SOL    HW116490   2.375   3.049   2.239 -0.9574  0.5465  0.6964
 1619SOL    HW216491   2.434   2.930   2.312 -0.0995 -0.3892 -0.9930
 1620SOL     OW16492   4.534   4.449   9.653  0.0269  0.1172 -0.3138
 1620SOL    HW116493   4.466   4.457   9.720  0.9345 -0.1492  0.6589
 1620SOL    HW216494   4.480   4.409   9.585 -2.8945 -0.0979  2.1499
 1621SOL     OW16495   2.671   0.111   3.029 -0.1159  0.2368  0.3475
 1621SOL    HW116496   2.735   0.040   3.039  0.5659  0.8595  0.4129
 1621SOL    HW216497   2.613   0.080   2.959  0.8080 -0.4585 -0.1201
 1622SOL     OW16498   3.223   3.710   6.903  0.3071  0.4063  0.5907
 1622SOL    HW116499   3.313   3.740   6.911  0.1825  2.0873 -4.5595
 1622SOL    HW216500   3.213   3.647   6.974  2.5217 -0.4295  0.1568
 1623SOL     OW16501   4.005   2.119  13.983  0.5563 -0.6073  0.4074
 1623SOL    HW116502   3.997   2.031  14.022  0.2737  0.1668  2.0874
 1623SOL    HW216503   3.922   2.132  13.936  1.3863  0.3643 -0.7741
 1624SOL     OW16504   0.261   2.662   3.484  0.0090 -0.5248 -0.4940
 1624SOL    HW116505   0.184   2.697   3.529  0.3523  0.8307 -0.9624
 1624SOL    HW216506   0.331   2.667   3.549 -0.0969 -1.3064 -0.3177
 1625SOL     OW16507   4.286   3.699   9.407  0.3712 -0.2411  0.4675
 1625SOL    HW116508   4.326   3.624   9.451  3.2511  1.4827  0.8158
 1625SOL    HW216509   4.360   3.700   9.346 -0.8701 -0.4095 -1.0465
 1626SOL     OW16510   2.840   3.555  16.091  0.2853  0.1415 -0.2744
 1626SOL    HW116511   2.915   3.595  16.136  0.1431 -0.7063  0.6988
 1626SOL    HW216512   2.804   3.635  16.051 -1.3594 -0.6946 -0.4332
 1627SOL     OW16513   3.598   2.550   7.752  0.3153  0.9352  0.1414
 1627SOL    HW116514   3.637   2.509   7.674  2.4403  0.3744  1.4862
 1627SOL    HW216515   3.509   2.573   7.725 -1.0814 -4.3123  0.1981
 1628SOL     OW16516   3.005   0.830   2.116  0.1226 -0.1499  0.1539
 1628SOL    HW116517   2.989   0.922   2.139  1.2730 -0.0550  0.5483
 1628SOL    HW216518   2.964   0.791   2.193  1.5630  1.0323  1.5277
 1629SOL     OW16519   0.292   2.631   6.483 -0.2501 -0.3134 -0.2508
 1629SOL    HW116520   0.353   2.583   6.539 -1.4024 -0.5989  0.7677
 1629SOL    HW216521   0.299   2.569   6.410 -1.2669  0.6476 -1.1629
 1630SOL     OW16522   4.038   2.945   8.533  0.2543  0.0430  0.0658
 1630SOL    HW116523   3.997   2.889   8.599  1.9084  0.7215  1.6761
 1630SOL    HW216524   3.974   3.013   8.513 -1.0003 -1.9377 -2.6306
 1631SOL     OW16525   1.402   3.618   2.462 -0.1065  0.1810 -0.0139
 1631SOL    HW116526   1.405   3.586   2.553 -3.0791 -0.8133 -0.2885
 1631SOL    HW216527   1.313   3.639   2.436 -1.2810 -0.4830  3.4032
 1632SOL     OW16528   1.162   2.363   7.867 -0.5138 -0.1626  0.4468
 1632SOL    HW116529   1.253   2.350   7.892  0.0487  1.5452 -0.7662
 1632SOL    HW216530   1.131   2.432   7.926  0.2016  0.0299  0.5890
 1633SOL     OW16531   1.111   0.565   8.824 -0.2106 -0.1784 -0.0393
 1633SOL    HW116532   1.144   0.502   8.888 -3.1340  0.7650  2.4462
 1633SOL    HW216533   1.180   0.579   8.760 -1.7692 -2.3606 -2.1920
 1634SOL     OW16534   0.879   4.128   9.791  0.2436  0.0410  0.1284
 1634SOL    HW116535   0.955   4.103   9.842  0.4444  2.6236  1.0956
 1634SOL    HW216536   0.864   4.051   9.737  0.5856 -0.2894  0.5108
 1635SOL     OW16537   0.492   3.400  14.471  0.1743 -0.2514 -0.1716
 1635SOL    HW116538   0.463   3.326  14.417  0.5033  0.4076 -1.2599
 1635SOL    HW216539   0.457   3.468  14.413 -1.3250  0.1928  1.2594
 1636SOL     OW16540   3.124   1.614   5.541 -0.5350 -0.3954 -0.1815
 1636SOL    HW116541   3.088   1.654   5.462  1.3671 -3.2781 -2.4918
 1636SOL    HW216542   3.216   1.602   5.520 -0.4556 -0.2123  0.0607
 1637SOL     OW16543   1.290   0.565   9.407  0.1685 -0.1611 -0.4650
 1637SOL    HW116544   1.340   0.582   9.328  0.2580  0.5737 -0.2517
 1637SOL    HW216545   1.198   0.580   9.386 -1.0287 -1.0139  3.9672
 1638SOL     OW16546   4.512   1.307   2.609 -0.2225 -0.3060 -0.8459
 1638SOL    HW116547   4.572   1.234   2.629  0.0196  0.2131  0.2950
 1638SOL    HW216548   4.514   1.317   2.514 -0.1505  1.8712 -0.6117
 1639SOL     OW16549   1.779   0.731   7.111 -0.2685  0.3216 -0.4016
 1639SOL    HW116550   1.839   0.784   7.058 -0.7691  1.9363  0.6699
 1639SOL    HW216551   1.696   0.762   7.074 -0.2389  0.4097 -0.3933
 1640SOL     OW16552   4.634   1.345   7.846  0.1667 -0.5500  0.1663
 1640SOL    HW116553   4.689   1.274   7.814 -0.5998 -0.8540 -0.4941
 1640SOL    HW216554   4.629   1.410   7.776 -2.4627 -0.4483  0.4464
 1641SOL     OW16555   2.881   4.730   6.286  0.1385 -0.1070  0.1087
 1641SOL    HW116556   2.862   4.726   6.379 -0.5843  0.8259  0.0069
 1641SOL    HW216557   2.830   0.073   6.265  1.9529  0.9884 -0.2807
 1642SOL     OW16558   3.507   3.391   2.989  0.4693 -0.2400  0.5072
 1642SOL    HW116559   3.561   3.353   2.920 -0.6190 -0.5446 -0.1934
 1642SOL    HW216560   3.433   3.414   2.932 -0.4026  0.2041  1.8183
 1643SOL     OW16561   4.440   1.241   4.138 -0.0813 -0.4365  0.3177
 1643SOL    HW116562   4.433   1.284   4.053  1.4187  0.9587  0.8993
 1643SOL    HW216563   4.364   1.183   4.133 -0.0920 -0.0338 -3.9281
 1644SOL     OW16564   1.035   4.120   4.580  0.0072 -0.3659  0.0706
 1644SOL    HW116565   1.077   4.042   4.543 -0.3613  0.3733 -1.9562
 1644SOL    HW216566   0.956   4.087   4.623 -0.5298 -0.7916 -1.2411
 1645SOL     OW16567   3.486   0.195   1.825  0.1348  0.2239  0.2882
 1645SOL    HW116568   3.395   0.217   1.846  0.4257  1.1158  0.6399
 1645SOL    HW216569   3.494   0.261   1.756  0.7681  0.3955  0.5292
 1646SOL     OW16570   2.290   2.137   7.364  0.6448 -0.2891 -0.0191
 1646SOL    HW116571   2.318   2.100   7.280  0.0196 -0.0748 -0.3163
 1646SOL    HW216572   2.235   2.064   7.393 -1.0893  1.0237 -0.0591
 1647SOL     OW16573   3.244   1.533   0.876 -0.6066 -0.0684  0.2718
 1647SOL    HW116574   3.167   1.479   0.855  0.1007  0.4123 -3.6028
 1647SOL    HW216575   3.283   1.535   0.789  0.2148 -0.3485  0.6301
 1648SOL     OW16576   1.196   1.350   4.578  0.6334 -0.0705  0.9327
 1648SOL    HW116577   1.180   1.283   4.644 -1.8119 -0.9787 -0.5786
 1648SOL    HW216578   1.113   1.397   4.574  0.2376 -0.9600 -1.1632
 1649SOL     OW16579   0.888   0.909  11.901 -0.0518  0.2930 -1.0656
 1649SOL    HW116580   0.941   0.855  11.959 -0.1768 -0.3453 -1.5413
 1649SOL    HW216581   0.946   0.921  11.826 -1.6831  0.8697 -2.2470
 1650SOL     OW16582   2.030   1.906   4.037  0.7540  0.2625 -0.1946
 1650SOL    HW116583   2.016   1.986   4.087  0.3760  0.9216 -1.3414
 1650SOL    HW216584   2.117   1.915   3.998  0.9149 -0.1906  0.0580
 1651SOL     OW16585   0.925   1.074   4.725  0.0626 -0.0624  0.5777
 1651SOL    HW116586   0.910   1.165   4.703  0.4187 -0.1959 -0.2170
 1651SOL    HW216587   0.871   1.033   4.657 -1.1889  0.0367  1.5205
 1652SOL     OW16588   2.739   1.347   2.001 -0.5445  0.6419 -0.1524
 1652SOL    HW116589   2.650   1.383   1.994 -1.2895 -1.4066 -1.2170
 1652SOL    HW216590   2.743   1.276   1.937  0.2589 -1.6145  2.3703
 1653SOL     OW16591   3.144   2.973  11.681 -0.4099  0.7707 -0.0178
 1653SOL    HW116592   3.189   3.012  11.606  0.3433  2.5679  1.3667
 1653SOL    HW216593   3.121   2.885  11.651 -0.6317  0.0527  2.2467
 1654SOL     OW16594   3.874   4.136   9.101 -0.1993 -0.4435 -0.4937
 1654SOL    HW116595   3.933   4.194   9.148 -0.3715  1.3517 -2.4716
 1654SOL    HW216596   3.894   4.050   9.138 -1.4607 -0.8901 -0.8548
 1655SOL     OW16597   4.425   0.421  15.255  0.6033 -0.4346  0.2239
 1655SOL    HW116598   4.487   0.444  15.185  1.0294 -1.6370  0.2105
 1655SOL    HW216599   4.360   0.374  15.202  0.5105 -0.1054  0.0447
 1656SOL     OW16600   4.648   1.573   6.192  0.2182  0.3436 -0.1145
 1656SOL    HW116601   4.657   1.651   6.246  2.8733 -0.2853  0.3295
 1656SOL    HW216602   4.696   1.591   6.112 -1.3205 -0.7404 -1.2924
 1657SOL     OW16603   4.167   1.976   8.663 -0.1666 -0.0302 -0.6753
 1657SOL    HW116604   4.129   2.037   8.726  2.1380  0.3744  0.3286
 1657SOL    HW216605   4.192   2.039   8.595 -1.4895  1.9961  0.7072
 1658SOL     OW16606   4.098   3.713   6.023  0.4613  0.2842 -0.2006
 1658SOL    HW116607   4.111   3.772   5.949  4.1114 -0.3254 -0.0556
 1658SOL    HW216608   4.077   3.773   6.095 -1.7935  0.2189 -0.8091
 1659SOL     OW16609   1.103   0.731   4.822  0.0815  0.0756 -0.0948
 1659SOL    HW116610   1.144   0.648   4.845  0.1878  0.4127  0.9446
 1659SOL    HW216611   1.111   0.777   4.905  2.4950  0.6446 -0.6362
 1660SOL     OW16612   2.210   2.779   1.785  0.1604 -0.1984 -0.0050
 1660SOL    HW116613   2.116   2.791   1.772  0.3019 -0.2834 -1.1033
 1660SOL    HW216614   2.213   2.685   1.766 -1.2279  0.2369 -2.3526
 1661SOL     OW16615   1.402   3.836   3.400 -0.6996  0.1818  0.1018
 1661SOL    HW116616   1.332   3.774   3.420 -0.3164  0.0061  0.8939
 1661SOL    HW216617   1.402   3.893   3.476 -0.2401 -2.2393  1.9032
 1662SOL     OW16618   0.829   3.172   6.243  0.4406  0.7312 -0.1559
 1662SOL    HW116619   0.811   3.101   6.305 -0.6651  0.0123 -1.3007
 1662SOL    HW216620   0.923   3.178   6.225  0.4662 -1.3897 -0.8003
 1663SOL     OW16621   2.196   2.316  11.426  0.1115 -0.3013  0.2645
 1663SOL    HW116622   2.230   2.230  11.451  0.2736 -0.1142  0.7003
 1663SOL    HW216623   2.149   2.333  11.508 -1.7628  3.7640 -1.6522
 1664SOL     OW16624   4.187   0.226   5.029 -0.3220 -0.0453  0.3784
 1664SOL    HW116625   4.217   0.316   5.043 -1.6009  0.1295  1.9295
 1664SOL    HW216626   4.238   0.183   5.097  0.8521 -2.6175 -2.1267
 1665SOL     OW16627   2.021   0.348   7.512  0.0231  0.0003  0.4326
 1665SOL    HW116628   1.979   0.265   7.493 -1.6727  1.4974 -2.2727
 1665SOL    HW216629   2.024   0.390   7.426 -0.7544 -0.1578  0.3334
 1666SOL     OW16630   3.358   3.240   8.064 -0.0924  0.0636  0.3780
 1666SOL    HW116631   3.309   3.285   8.133  0.0187 -1.3956  1.4016
 1666SOL    HW216632   3.398   3.312   8.015  0.7185  0.5814  1.7769
 1667SOL     OW16633   0.615   3.454   5.293  0.1040  0.2243 -0.0360
 1667SOL    HW116634   0.561   3.378   5.268 -1.1430  0.7979  0.9035
 1667SOL    HW216635   0.560   3.529   5.271 -0.1173 -0.2256 -1.0333
 1668SOL     OW16636   0.705   2.521  17.608  0.0641 -0.6376 -0.1961
 1668SOL    HW116637   0.721   2.597  17.552 -0.8933 -1.0063 -0.9663
 1668SOL    HW216638   0.615   2.497  17.588 -0.0757 -2.6655  2.7852
 1669SOL     OW16639   4.655   4.528  12.317 -0.1545  0.0013  0.1761
 1669SOL    HW116640   4.667   4.463  12.386  0.6025  1.7604  1.6905
 1669SOL    HW216641   0.009   4.561  12.325 -0.2421  0.0808  0.8000
 1670SOL     OW16642   4.621   2.840   5.879  0.6597 -0.3258 -0.5333
 1670SOL    HW116643   4.553   2.907   5.870  0.0896 -1.1304 -2.1756
 1670SOL    HW216644   4.671   2.875   5.952  0.3082  1.4028 -1.1232
 1671SOL     OW16645   0.254   1.799  15.202  0.0921 -0.4813  0.3631
 1671SOL    HW116646   0.246   1.711  15.238 -1.1266 -0.9752 -1.1336
 1671SOL    HW216647   0.338   1.796  15.156 -1.2581 -3.3652 -1.8429
 1672SOL     OW16648   3.494   0.595  12.102  0.4948 -0.7261 -0.6568
 1672SOL    HW116649   3.429   0.638  12.158  2.7033 -0.8770  2.0088
 1672SOL    HW216650   3.572   0.635  12.141 -2.1085  1.1385  2.6074
 1673SOL     OW16651   3.128   1.249   4.328  0.1993 -0.6116  0.5732
 1673SOL    HW116652   3.115   1.339   4.300 -2.3934 -0.5907  1.8600
 1673SOL    HW216653   3.069   1.200   4.269  1.4567 -0.5106 -0.7539
 1674SOL     OW16654   1.786   2.153   7.560 -0.3131  0.0271  0.4089
 1674SOL    HW116655   1.753   2.241   7.579 -1.4980 -0.0813 -1.1121
 1674SOL    HW216656   1.780   2.111   7.645 -1.2014 -1.4303 -0.3601
 1675SOL     OW16657   1.739   3.948  10.804 -0.4469  0.3095  0.1631
 1675SOL    HW116658   1.724   3.974  10.895 -1.1492 -0.0071  0.1326
 1675SOL    HW216659   1.828   3.982  10.791  0.3880 -1.9363  0.0419
 1676SOL     OW16660   3.679   2.061   4.291  0.6816 -0.4055  0.4348
 1676SOL    HW116661   3.624   2.056   4.369  0.5356 -0.9459  0.3044
 1676SOL    HW216662   3.720   1.975   4.281  0.9754 -0.2968  0.7101
 1677SOL     OW16663   2.262   2.989  12.757  0.0118 -0.0162 -0.7662
 1677SOL    HW116664   2.346   2.950  12.782 -0.6704 -0.5337  0.7604
 1677SOL    HW216665   2.229   2.942  12.681 -0.1718  0.2361 -0.8445
 1678SOL     OW16666   0.975   1.479   8.663 -0.0048  0.4873 -0.3964
 1678SOL    HW116667   1.030   1.469   8.585  0.9780 -0.2766  0.3902
 1678SOL    HW216668   0.969   1.386   8.682 -0.2899  0.3366 -1.2087
 1679SOL     OW16669   3.472   2.791   0.518 -0.4768 -0.6017 -0.2214
 1679SOL    HW116670   3.565   2.786   0.540 -1.1751 -1.2777  2.5802
 1679SOL    HW216671   3.441   2.734   0.587 -0.1127 -0.4934  0.0319
 1680SOL     OW16672   4.311   1.564   2.049 -0.6679  0.2813  0.7025
 1680SOL    HW116673   4.266   1.642   2.082 -0.6354 -0.0193  1.4623
 1680SOL    HW216674   4.392   1.569   2.100 -0.8144 -1.9891  1.1166
 1681SOL     OW16675   0.848   0.384  16.325 -0.1052  0.1472 -0.5017
 1681SOL    HW116676   0.893   0.359  16.244 -0.4649 -0.8469 -0.3867
 1681SOL    HW216677   0.769   0.333  16.310  0.2039 -1.5017  3.4468
 1682SOL     OW16678   2.708   1.403   5.701 -0.0757  0.1495  0.3361
 1682SOL    HW116679   2.800   1.381   5.711 -0.2660 -1.4693 -1.4625
 1682SOL    HW216680   2.699   1.465   5.774 -1.9390  0.4223 -0.1171
 1683SOL     OW16681   1.112   2.569   8.045  0.5444 -0.8201  0.1369
 1683SOL    HW116682   1.192   2.621   8.051  0.9606 -1.1222 -3.1187
 1683SOL    HW216683   1.089   2.575   8.138  0.3728 -1.0248  0.1092
 1684SOL     OW16684   1.055   0.008   5.325  0.1181 -0.4024  1.1836
 1684SOL    HW116685   0.960   0.017   5.319  0.3072  0.7262 -0.0425
 1684SOL    HW216686   1.057   4.648   5.315  1.0243 -0.3536  0.8567
 1685SOL     OW16687   3.903   0.759   0.422  0.1877 -0.1896  0.6906
 1685SOL    HW116688   3.989   0.777   0.385  0.2364  1.9377  1.8373
 1685SOL    HW216689   3.890   0.672   0.383 -0.6608  0.8947 -1.4557
 1686SOL     OW16690   4.587   1.733  13.080  0.0977  0.2715  0.1195
 1686SOL    HW116691   4.555   1.815  13.041  0.4526  1.2520  1.8632
 1686SOL    HW216692   4.586   1.664  13.014  1.3687 -0.2315  0.6289
 1687SOL     OW16693   0.053   1.457   2.775  0.0356 -0.5556  0.2851
 1687SOL    HW116694   0.053   1.532   2.834  0.0163 -0.6285  0.3796
 1687SOL    HW216695   4.695   1.447   2.755 -0.3515  0.0762  1.7305
 1688SOL     OW16696   0.775   0.883  12.511 -0.0239 -0.3719  0.2138
 1688SOL    HW116697   0.686   0.901  12.542  0.4284 -0.9725  1.8915
 1688SOL    HW216698   0.803   0.832  12.587  1.5860 -1.3892 -1.0481
 1689SOL     OW16699   4.369   3.892   6.370  0.2468 -0.3221  0.2650
 1689SOL    HW116700   4.274   3.903   6.370  0.5873  2.6808  2.3348
 1689SOL    HW216701   4.364   3.801   6.342  0.2491 -0.0668 -0.5408
 1690SOL     OW16702   3.110   0.426  15.940  0.2694 -0.2954  0.0937
 1690SOL    HW116703   3.073   0.362  16.001 -0.4011  0.6281  0.6592
 1690SOL    HW216704   3.169   0.478  15.995  0.5105 -2.0133  1.4599
 1691SOL     OW16705   0.930   1.022   4.134  0.1525  0.0650  0.1350
 1691SOL    HW116706   0.910   0.940   4.090  2.3659  0.2895 -1.2993
 1691SOL    HW216707   0.923   1.079   4.058 -0.8281 -0.6304 -0.3061
 1692SOL     OW16708   0.755   2.937   4.306 -0.2172 -0.3045  0.1557
 1692SOL    HW116709   0.755   2.991   4.227  1.0222 -1.9892 -1.0064
 1692SOL    HW216710   0.766   2.848   4.271  1.2017  0.3276 -1.0066
 1693SOL     OW16711   3.036   3.126   3.813  0.3560 -0.5744  0.2980
 1693SOL    HW116712   2.960   3.075   3.840 -0.1773  0.9251  1.6208
 1693SOL    HW216713   3.046   3.109   3.719  1.0724  0.3218  0.2159
 1694SOL     OW16714   4.591   2.151  12.028 -0.2504  0.0143 -0.3153
 1694SOL    HW116715   4.503   2.132  12.058 -1.3202  3.6417 -1.2017
 1694SOL    HW216716   4.577   2.115  11.940 -1.6045  1.4957 -0.6934
 1695SOL     OW16717   1.040   4.689   2.938 -0.3190  0.4552  0.2617
 1695SOL    HW116718   0.951   4.724   2.949 -1.5591 -2.3971 -0.4977
 1695SOL    HW216719   1.083   0.039   2.935  0.8371 -0.0672  2.1100
 1696SOL     OW16720   1.678   3.239   5.381 -0.2951  0.1903 -0.4072
 1696SOL    HW116721   1.687   3.331   5.357  0.7102  0.3077  0.4283
 1696SOL    HW216722   1.763   3.197   5.369  0.1254  0.4788  1.6510
 1697SOL     OW16723   4.208   2.532   2.093 -0.0331 -0.1400 -0.1726
 1697SOL    HW116724   4.173   2.573   2.172  0.3762 -0.5880  0.2451
 1697SOL    HW216725   4.294   2.504   2.125  0.0480  0.6625  0.3085
 1698SOL     OW16726   2.508   1.793   1.278  0.3779 -0.6870  0.4553
 1698SOL    HW116727   2.448   1.732   1.236  0.9273 -1.4854  0.8248
 1698SOL    HW216728   2.575   1.797   1.210  0.5065  0.4144  0.6477
 1699SOL     OW16729   4.010   0.800   5.615 -0.3342 -0.9120  0.4577
 1699SOL    HW116730   4.040   0.836   5.532 -0.8695  2.8110  1.8907
 1699SOL    HW216731   4.086   0.748   5.643 -0.2831 -0.9033  0.3370
 1700SOL     OW16732   2.748   2.979   6.192 -0.0410 -0.3365  0.2391
 1700SOL    HW116733   2.736   3.019   6.106  2.1331 -2.0736 -0.8574
 1700SOL    HW216734   2.736   3.060   6.242  2.0623 -0.9575  1.7686
 1701SOL     OW16735   2.083   2.763   2.693  0.0390 -0.4117 -0.1804
 1701SOL    HW116736   2.073   2.811   2.610  1.6647 -1.1523 -0.8041
 1701SOL    HW216737   2.168   2.720   2.685  0.0388 -0.7076  1.3998
 1702SOL     OW16738   1.537   3.679   3.229 -0.1642 -0.0722 -0.0421
 1702SOL    HW116739   1.629   3.661   3.250  0.0137  1.9219  0.8300
 1702SOL    HW216740   1.527   3.765   3.268  1.1092  1.5446 -3.3382
 1703SOL     OW16741   3.700   1.108   0.905 -0.3263 -0.1901 -0.1432
 1703SOL    HW116742   3.721   1.031   0.852  1.2566  0.1523 -0.0334
 1703SOL    HW216743   3.626   1.065   0.948 -0.7371 -0.9511 -1.5865
 1704SOL     OW16744   1.887   1.751   2.318 -0.4143  0.0712 -0.1236
 1704SOL    HW116745   1.877   1.791   2.404 -1.6112 -2.3618  0.8665
 1704SOL    HW216746   1.971   1.709   2.335  0.3539  3.1913  3.7387
 1705SOL     OW16747   0.439   2.081   5.471 -0.4901  0.5038  0.1760
 1705SOL    HW116748   0.532   2.078   5.492 -0.6224  2.3444  1.0323
 1705SOL    HW216749   0.396   2.103   5.554 -4.0015 -0.0894 -1.4566
 1706SOL     OW16750   3.107   1.779  16.392 -0.2318 -0.3003  0.2554
 1706SOL    HW116751   3.177   1.816  16.338  0.1384 -0.6376  0.5106
 1706SOL    HW216752   3.123   1.800  16.483  0.7125  1.0822 -0.2265
 1707SOL     OW16753   0.852   3.565   8.083  0.0401 -0.1900 -0.0542
 1707SOL    HW116754   0.784   3.500   8.102  1.0441 -1.4181 -0.7076
 1707SOL    HW216755   0.795   3.634   8.049 -1.8496  0.2618  4.0292
 1708SOL     OW16756   3.607   1.924   5.141  0.1364 -0.3522 -0.6764
 1708SOL    HW116757   3.693   1.956   5.116  0.3135 -0.5747 -0.3425
 1708SOL    HW216758   3.631   1.898   5.230  0.4598  0.2183 -0.5949
 1709SOL     OW16759   3.625   1.487   3.845  0.1231  0.3333 -0.2378
 1709SOL    HW116760   3.611   1.523   3.757 -1.3358 -0.1322 -0.2089
 1709SOL    HW216761   3.643   1.395   3.828  0.3355  0.0500  1.5382
 1710SOL     OW16762   4.261   1.644  14.645 -0.3294  0.5395 -0.3947
 1710SOL    HW116763   4.246   1.668  14.554 -1.3034  0.6352 -0.2115
 1710SOL    HW216764   4.169   1.648  14.672 -0.7049 -0.6812 -1.5053
 1711SOL     OW16765   0.144   1.795   0.930  0.2299  0.3087 -0.4024
 1711SOL    HW116766   0.097   1.836   0.857  0.6428 -0.7152 -1.2533
 1711SOL    HW216767   0.166   1.717   0.879 -0.0548 -0.5513  0.7935
 1712SOL     OW16768   0.458   1.146   5.228  0.2001 -0.2328  0.0819
 1712SOL    HW116769   0.418   1.158   5.142 -0.3749 -1.3512  0.1906
 1712SOL    HW216770   0.397   1.201   5.276  0.1640  0.4047 -0.6974
 1713SOL     OW16771   2.603   2.096   4.303  0.7333 -0.3663 -0.2411
 1713SOL    HW116772   2.576   2.183   4.334  1.5716  0.5464 -2.1052
 1713SOL    HW216773   2.594   2.050   4.387  0.6326  1.9187  1.0178
 1714SOL     OW16774   0.938   1.669  16.315 -0.3459  0.0196 -0.3921
 1714SOL    HW116775   0.948   1.601  16.248  0.5849  0.5359 -0.7776
 1714SOL    HW216776   0.875   1.633  16.378 -1.2608  0.6039 -0.9829
 1715SOL     OW16777   1.106   2.518   0.022  0.1499  0.7107 -0.2698
 1715SOL    HW116778   1.151   2.508  17.677  2.0649  1.8410  0.6184
 1715SOL    HW216779   1.129   2.435   0.064  1.6585  1.0174 -0.5041
 1716SOL     OW16780   0.127   1.642  11.454  0.2992 -0.4795  0.5322
 1716SOL    HW116781   0.202   1.699  11.474 -1.6873  2.2051  0.2434
 1716SOL    HW216782   0.147   1.561  11.502 -2.3607 -0.5997  1.4456
 1717SOL     OW16783   2.275   3.279   2.298 -0.1176 -0.5853 -0.0397
 1717SOL    HW116784   2.266   3.228   2.379  0.5010 -2.1743 -0.9752
 1717SOL    HW216785   2.368   3.264   2.282  0.2128  3.1593 -1.8268
 1718SOL     OW16786   2.853   1.849   5.354 -0.1049  0.1253  0.3501
 1718SOL    HW116787   2.764   1.872   5.327  0.7925  1.2871 -1.5975
 1718SOL    HW216788   2.837   1.788   5.427 -0.1425 -0.3210 -0.0309
 1719SOL     OW16789   0.032   4.567   7.609  0.1037  0.2590 -0.0942
 1719SOL    HW116790   0.093   4.496   7.629 -0.6505  0.0897  1.5800
 1719SOL    HW216791   4.728   4.539   7.526  0.8831 -2.6809  0.5272
 1720SOL     OW16792   1.713   3.957  15.972  0.6984  0.2012  0.1513
 1720SOL    HW116793   1.780   3.969  15.905 -2.2779  1.9786 -2.4576
 1720SOL    HW216794   1.658   3.889  15.933 -2.4349  2.2715  0.9923
 1721SOL     OW16795   1.349   3.172  13.034 -0.9383 -0.2952  0.3760
 1721SOL    HW116796   1.261   3.135  13.046 -1.0216 -0.2884 -0.1955
 1721SOL    HW216797   1.347   3.206  12.945  2.2179 -0.2304  0.3217
 1722SOL     OW16798   4.481   3.947   7.594  0.2867  0.4946  0.0287
 1722SOL    HW116799   4.398   3.908   7.621  0.1686 -0.0276 -1.1148
 1722SOL    HW216800   4.500   3.904   7.511  1.1799 -0.4319  0.7044
 1723SOL     OW16801   2.196   2.609   8.427 -0.6478  0.5241 -0.0360
 1723SOL    HW116802   2.158   2.696   8.444  2.9313  1.9335  0.8816
 1723SOL    HW216803   2.258   2.653   8.368  0.5007 -1.4305 -0.2722
 1724SOL     OW16804   0.328   1.808   7.877 -0.1298 -0.3037 -0.3507
 1724SOL    HW116805   0.338   1.903   7.873 -0.8663 -0.1764  0.9095
 1724SOL    HW216806   0.295   1.804   7.966  0.6510 -1.9284 -0.1217
 1725SOL     OW16807   3.713   4.301   8.532  0.0066 -0.0453  0.2557
 1725SOL    HW116808   3.717   4.394   8.513 -0.4442  0.2202  1.4548
 1725SOL    HW216809   3.621   4.293   8.558  0.2126  0.0820  1.0279
 1726SOL     OW16810   4.646   0.717  16.633  0.2974 -0.1854 -0.0815
 1726SOL    HW116811   0.005   0.702  16.626  0.8768  2.5582  1.7732
 1726SOL    HW216812   4.644   0.721  16.729 -1.7396  2.9078 -0.2665
 1727SOL     OW16813   2.484   1.090   3.185  0.3895  0.1537  0.0053
 1727SOL    HW116814   2.412   1.142   3.147 -0.2385 -1.2334 -0.6863
 1727SOL    HW216815   2.478   1.104   3.279  0.2521 -0.2058  0.0483
 1728SOL     OW16816   3.478   0.303   2.087  0.0257  0.6169 -0.1892
 1728SOL    HW116817   3.501   0.263   2.003  1.7893  2.6229 -0.6416
 1728SOL    HW216818   3.521   0.243   2.148 -1.3432 -1.6210 -1.4058
 1729SOL     OW16819   4.448   0.784  12.632  0.2433 -0.5030  0.0264
 1729SOL    HW116820   4.416   0.872  12.613  1.0619 -0.2775 -0.3116
 1729SOL    HW216821   4.470   0.798  12.724  0.4977 -0.4027 -0.0512
 1730SOL     OW16822   1.576   1.159  10.774 -0.0165  0.3691 -0.1741
 1730SOL    HW116823   1.592   1.209  10.854  1.8043  2.5853 -1.9293
 1730SOL    HW216824   1.481   1.152  10.771  0.0404  1.6147 -3.9844
 1731SOL     OW16825   3.376   1.544   5.338  0.2319  0.0817  0.2851
 1731SOL    HW116826   3.316   1.593   5.281  1.8442 -0.9768 -2.3525
 1731SOL    HW216827   3.326   1.465   5.360  2.1408 -0.4931  2.4996
 1732SOL     OW16828   1.567   0.657   6.380 -0.1121  0.2320 -0.1365
 1732SOL    HW116829   1.519   0.616   6.308 -1.9859  1.5991  0.3443
 1732SOL    HW216830   1.499   0.652   6.447 -0.6800  0.8188 -0.6775
 1733SOL     OW16831   1.805   3.612   9.280  0.7244 -0.1256  0.1309
 1733SOL    HW116832   1.773   3.539   9.333 -1.4695 -0.1191 -1.1888
 1733SOL    HW216833   1.726   3.666   9.286  1.6927  1.0275  2.3536
 1734SOL     OW16834   2.641   0.090   8.767  0.2036 -0.5896 -0.2734
 1734SOL    HW116835   2.552   0.083   8.803 -0.8939 -0.8010 -3.0355
 1734SOL    HW216836   2.680   0.029   8.829 -0.9665 -1.8362 -0.7503
 1735SOL     OW16837   0.768   1.189  17.180  0.3592 -0.1998 -0.1979
 1735SOL    HW116838   0.826   1.166  17.253  0.4240  1.5069  0.3000
 1735SOL    HW216839   0.759   1.107  17.132  0.2359 -0.2066 -0.1623
 1736SOL     OW16840   3.113   3.157   5.817  0.2346 -0.1458  0.3421
 1736SOL    HW116841   3.170   3.091   5.778  0.3629 -0.2470  0.7011
 1736SOL    HW216842   3.178   3.213   5.859  0.2277  0.2444 -0.1727
 1737SOL     OW16843   1.745   0.825   3.572  0.2233  0.1121 -0.1652
 1737SOL    HW116844   1.824   0.824   3.626  1.3046  0.8801 -1.7093
 1737SOL    HW216845   1.781   0.869   3.495 -3.5181  3.1820 -0.1225
 1738SOL     OW16846   1.528   3.734  17.242 -0.2081  0.2577  0.5009
 1738SOL    HW116847   1.451   3.694  17.203  0.7436  0.8185 -1.9213
 1738SOL    HW216848   1.519   3.808  17.182  0.6297  0.2374  0.3468
 1739SOL     OW16849   4.560   2.097  12.775 -0.1218  0.9513 -0.2877
 1739SOL    HW116850   4.591   2.082  12.686  0.3140 -2.7380  0.4953
 1739SOL    HW216851   4.642   2.133  12.808  0.0833  1.2195 -1.0841
 1740SOL     OW16852   3.174   0.141  14.133 -0.0367 -0.2414  0.3715
 1740SOL    HW116853   3.115   0.217  14.132  1.5066  0.9413 -1.6853
 1740SOL    HW216854   3.220   0.169  14.212  2.0487 -0.7747 -0.6749
 1741SOL     OW16855   0.447   4.369  14.757  0.4195 -0.2096 -0.0407
 1741SOL    HW116856   0.436   4.294  14.816 -0.5822 -0.4005 -0.4796
 1741SOL    HW216857   0.441   4.439  14.822  2.2429 -0.0518 -0.0379
 1742SOL     OW16858   4.471   2.789   9.407  0.0741 -0.5533  0.0175
 1742SOL    HW116859   4.552   2.789   9.459 -0.4630  0.2644  0.8480
 1742SOL    HW216860   4.444   2.880   9.417 -0.4141 -0.8071  1.0089
 1743SOL     OW16861   4.280   2.342   6.140 -0.5812 -0.2270 -0.4985
 1743SOL    HW116862   4.216   2.380   6.080 -2.4041 -1.0640  0.9376
 1743SOL    HW216863   4.354   2.323   6.082 -0.1117 -0.7426  0.2697
 1744SOL     OW16864   4.124   2.356  12.949 -0.4327 -1.0038 -0.6934
 1744SOL    HW116865   4.210   2.384  12.918 -0.5039  0.7663  0.6926
 1744SOL    HW216866   4.137   2.264  12.970  1.3620 -0.4974  0.5033
 1745SOL     OW16867   2.333   3.643   7.440 -0.1047 -0.0126 -0.2624
 1745SOL    HW116868   2.311   3.568   7.495 -0.6155  0.5379  0.2860
 1745SOL    HW216869   2.323   3.604   7.353  2.2323 -0.8115 -0.1830
 1746SOL     OW16870   3.089   2.825  10.776 -0.3142  0.0245 -0.0322
 1746SOL    HW116871   3.027   2.763  10.813  0.5494 -1.3670 -0.9419
 1746SOL    HW216872   3.146   2.771  10.721  0.7233  2.4039 -1.3044
 1747SOL     OW16873   1.668   3.873   8.531  0.0422 -0.2228  0.7501
 1747SOL    HW116874   1.718   3.936   8.583  2.7773 -0.6699 -1.3544
 1747SOL    HW216875   1.631   3.932   8.465  1.0851  1.1235  1.3637
 1748SOL     OW16876   1.311   4.198   4.286  0.3487 -0.3461  0.3538
 1748SOL    HW116877   1.272   4.149   4.213 -0.3676  0.6675  0.0571
 1748SOL    HW216878   1.404   4.179   4.273  0.5087  0.4120  0.4198
 1749SOL     OW16879   2.032   4.425  16.448 -0.2026 -0.0796  0.5320
 1749SOL    HW116880   2.029   4.502  16.505  1.7296 -0.1495  0.7097
 1749SOL    HW216881   2.024   4.360  16.518 -0.3882  0.2456  0.8156
 1750SOL     OW16882   1.279   1.733   9.580  0.0286 -0.3294 -0.3058
 1750SOL    HW116883   1.365   1.692   9.579 -0.9906 -2.5056  2.1734
 1750SOL    HW216884   1.232   1.689   9.651  0.3567  1.1581  0.8182
 1751SOL     OW16885   1.181   4.150   5.200 -0.5183  0.0062 -0.2300
 1751SOL    HW116886   1.117   4.185   5.138 -1.3761 -1.9047 -0.4432
 1751SOL    HW216887   1.260   4.186   5.161 -0.4155  0.3449  0.2878
 1752SOL     OW16888   0.383   1.617  14.994  0.3179 -0.8516 -0.1835
 1752SOL    HW116889   0.353   1.669  14.919  0.9300 -1.1088 -0.6111
 1752SOL    HW216890   0.302   1.569  15.011  0.2602 -0.1589  1.4052
 1753SOL     OW16891   3.228   1.710  17.598 -0.5744  0.4394 -0.2333
 1753SOL    HW116892   3.215   1.731  17.505 -2.4149  1.4746  0.2512
 1753SOL    HW216893   3.140   1.677  17.617  0.2934 -1.4120  0.6031
 1754SOL     OW16894   3.517   2.176  12.518 -0.1125  0.6722  0.5193
 1754SOL    HW116895   3.562   2.158  12.436  0.7798  0.4541  1.0591
 1754SOL    HW216896   3.583   2.154  12.584 -0.1333 -2.7869 -0.6502
 1755SOL     OW16897   2.075   0.524   1.806 -0.0477  0.4354 -0.3513
 1755SOL    HW116898   2.121   0.446   1.838 -0.6669 -0.1203 -0.8155
 1755SOL    HW216899   1.994   0.524   1.857 -0.2862  0.2787 -0.7311
 1756SOL     OW16900   3.165   2.413   2.004  0.0527  0.1377  0.2388
 1756SOL    HW116901   3.216   2.363   1.940 -1.3618  1.5407 -1.9874
 1756SOL    HW216902   3.221   2.489   2.022  0.2591 -0.3298  1.5309
 1757SOL     OW16903   0.662   3.473  14.039  0.3280 -1.1566  0.5657
 1757SOL    HW116904   0.571   3.500  14.021  1.6049  2.4955 -0.5339
 1757SOL    HW216905   0.649   3.392  14.088 -0.2249 -0.3958  1.6773
 1758SOL     OW16906   0.670   2.153   5.977 -0.0137 -0.5463  0.1526
 1758SOL    HW116907   0.727   2.088   5.936  0.7358 -0.2029  0.6450
 1758SOL    HW216908   0.693   2.235   5.933  1.5940 -0.4730  1.0937
 1759SOL     OW16909   1.632   2.400   5.201 -0.1771 -0.0861 -0.2046
 1759SOL    HW116910   1.659   2.337   5.135 -0.6001 -2.1128  1.5337
 1759SOL    HW216911   1.710   2.455   5.193 -0.5949  0.4636 -0.4281
 1760SOL     OW16912   0.087   4.498   4.456 -0.3991  0.0397  0.0367
 1760SOL    HW116913   0.102   4.473   4.365  0.2145  0.2233  0.0876
 1760SOL    HW216914   0.046   4.583   4.442 -1.3420 -0.4933 -0.4430
 1761SOL     OW16915   3.174   4.624   6.134  0.3572 -0.2916 -0.4284
 1761SOL    HW116916   3.141   4.595   6.049  0.2605 -0.4082 -0.3506
 1761SOL    HW216917   3.182   4.718   6.119 -1.0742 -0.1454 -0.2313
 1762SOL     OW16918   1.670   2.815  12.412  0.1734  0.2517 -0.0181
 1762SOL    HW116919   1.748   2.799  12.359 -0.6850  0.6402 -1.3867
 1762SOL    HW216920   1.713   2.852  12.489  1.1975 -1.0600  0.0467
 1763SOL     OW16921   4.353   3.319   4.806 -0.2473 -0.2046  0.2984
 1763SOL    HW116922   4.261   3.340   4.823 -0.1071 -0.1363  0.9604
 1763SOL    HW216923   4.346   3.224   4.812 -0.9519 -0.1437  0.4098
 1764SOL     OW16924   1.356   2.660   6.055 -0.1467  0.4012 -0.1350
 1764SOL    HW116925   1.447   2.690   6.054  1.2249 -3.7528  1.8156
 1764SOL    HW216926   1.334   2.635   6.145 -1.3292  0.2393 -0.4693
 1765SOL     OW16927   3.913   2.961   1.454  0.7225  0.4393  0.2656
 1765SOL    HW116928   3.874   3.038   1.414  0.4795  0.5321  0.6782
 1765SOL    HW216929   3.834   2.908   1.464  1.7562 -1.1329  0.1785
 1766SOL     OW16930   2.963   0.444  14.427  0.2157 -0.3479 -0.0719
 1766SOL    HW116931   2.934   0.397  14.349  1.2274 -0.7490 -0.2038
 1766SOL    HW216932   2.884   0.430  14.479  0.2895 -1.2719 -0.2157
 1767SOL     OW16933   0.134   2.804   6.191  0.3792 -0.3900  0.1275
 1767SOL    HW116934   0.087   2.872   6.144 -0.7247 -3.2031 -2.8280
 1767SOL    HW216935   0.204   2.773   6.133  1.5336  0.2346  1.1835
 1768SOL     OW16936   3.991   4.655   3.460 -0.0219 -0.4458  0.2322
 1768SOL    HW116937   3.963   0.001   3.418 -1.2624 -1.2380 -0.4689
 1768SOL    HW216938   3.958   4.592   3.395 -0.0410 -0.7269  0.5115
 1769SOL     OW16939   0.949   2.928   8.853 -0.2645 -0.2629  0.4282
 1769SOL    HW116940   0.943   3.017   8.888  1.7072 -0.1118  0.3422
 1769SOL    HW216941   0.978   2.941   8.763 -1.3614  2.3222  0.4417
 1770SOL     OW16942   0.544   2.465   7.004  0.0480 -0.2538 -0.0425
 1770SOL    HW116943   0.454   2.443   6.980  0.3201 -1.4826  0.0272
 1770SOL    HW216944   0.569   2.373   7.011  0.6149 -0.0893  0.0405
 1771SOL     OW16945   0.213   3.800   2.403 -0.0884  0.0086  0.9955
 1771SOL    HW116946   0.211   3.706   2.385  0.5180 -0.2872  2.4480
 1771SOL    HW216947   0.296   3.813   2.357 -0.8294  2.4768  0.3403
 1772SOL     OW16948   2.309   2.395   5.282 -0.3644 -0.0534  0.3049
 1772SOL    HW116949   2.242   2.436   5.336 -1.8371 -0.3098 -1.3191
 1772SOL    HW216950   2.391   2.436   5.310  0.2324 -1.8299  1.0944
 1773SOL     OW16951   0.596   1.931   4.395  0.5128  0.0737 -0.4363
 1773SOL    HW116952   0.525   1.909   4.334  0.2246  0.2063 -0.1458
 1773SOL    HW216953   0.610   1.851   4.446  0.3216 -0.3734 -1.0709
 1774SOL     OW16954   0.823   3.421   4.012  0.2549  0.2872  0.4792
 1774SOL    HW116955   0.906   3.439   3.967  0.5411 -0.5262  0.6874
 1774SOL    HW216956   0.809   3.508   4.051 -1.4443  0.0782  0.3285
 1775SOL     OW16957   0.934   1.241   6.488 -0.0306 -0.2625 -0.4462
 1775SOL    HW116958   1.012   1.214   6.440 -0.0509 -0.7615 -0.1999
 1775SOL    HW216959   0.969   1.220   6.575 -1.8541  1.6869  0.7431
 1776SOL     OW16960   1.649   1.528   6.182  0.2445  0.2920  0.1389
 1776SOL    HW116961   1.719   1.495   6.126  1.4970  1.9385  0.7219
 1776SOL    HW216962   1.604   1.446   6.203  2.9408 -0.6814  2.0460
 1777SOL     OW16963   2.926   3.200  17.671  0.3065  0.0969 -0.3339
 1777SOL    HW116964   2.887   3.240  17.593  0.4577 -3.0278 -1.9905
 1777SOL    HW216965   3.014   3.238  17.666  0.0404  0.7169 -0.3089
 1778SOL     OW16966   2.866   4.699   6.554  0.2178 -0.3940  0.2112
 1778SOL    HW116967   2.786   4.649   6.571 -1.0527  1.6929  0.2566
 1778SOL    HW216968   2.883   0.016   6.632  1.0156 -0.8455  0.3455
 1779SOL     OW16969   0.824   0.173   3.256  0.6107 -0.0420  0.3270
 1779SOL    HW116970   0.833   0.135   3.169  0.2944 -0.0075  0.2783
 1779SOL    HW216971   0.867   0.102   3.303 -1.0224 -0.8036  0.6925
 1780SOL     OW16972   0.928   0.260   9.686  0.2958  0.2185 -0.1141
 1780SOL    HW116973   0.874   0.277   9.609  2.7343  0.9040 -1.6450
 1780SOL    HW216974   0.862   0.260   9.756  0.0063 -0.5828 -0.3834
 1781SOL     OW16975   3.443   4.442   6.699  0.1605  0.7219  0.2373
 1781SOL    HW116976   3.402   4.418   6.782  0.4482 -0.9291 -0.1003
 1781SOL    HW216977   3.534   4.446   6.727  0.2497  0.0652  0.0335
 1782SOL     OW16978   0.589   3.675   2.771 -0.0700  0.2255  0.2655
 1782SOL    HW116979   0.504   3.641   2.743 -0.7976 -0.8601  3.7962
 1782SOL    HW216980   0.614   3.732   2.698 -2.1684  1.0072  0.1666
 1783SOL     OW16981   3.949   1.878   3.392 -0.2684  0.0635 -0.1960
 1783SOL    HW116982   3.862   1.850   3.365 -0.6527  1.0230  0.0268
 1783SOL    HW216983   3.999   1.810   3.348 -0.2797 -0.8947  1.2753
 1784SOL     OW16984   2.332   2.428   1.130  0.3385  0.3501  0.2494
 1784SOL    HW116985   2.320   2.380   1.048 -1.2595 -0.0641  0.7314
 1784SOL    HW216986   2.253   2.482   1.131  1.3520  1.8405  1.3347
 1785SOL     OW16987   0.446   1.993   2.580 -0.0967 -0.6287 -0.1495
 1785SOL    HW116988   0.373   2.008   2.641  1.7279  1.3407  1.5111
 1785SOL    HW216989   0.393   1.960   2.508 -1.9081  2.7741 -0.3552
 1786SOL     OW16990   2.902   2.481  11.697  0.5568 -0.4630  0.2789
 1786SOL    HW116991   2.820   2.431  11.692  0.8921 -1.0894  1.1387
 1786SOL    HW216992   2.957   2.423  11.644  1.7924  1.9387 -1.0529
 1787SOL     OW16993   1.857   0.064  10.028  0.1545 -0.6340 -0.3454
 1787SOL    HW116994   1.891   0.016  10.103 -0.0221 -0.8015 -0.3718
 1787SOL    HW216995   1.820   0.140  10.074  1.9690  1.0088 -1.6178
 1788SOL     OW16996   1.524   3.342   6.536  0.0357 -0.1676 -0.5425
 1788SOL    HW116997   1.555   3.299   6.615 -1.1069  0.1622  0.0988
 1788SOL    HW216998   1.435   3.363   6.566  0.0712 -1.1287  0.2261
 1789SOL     OW16999   0.430   2.016  15.809  0.0126  0.1091 -0.5786
 1789SOL    HW117000   0.354   2.019  15.752 -0.7209 -3.5309  0.1979
 1789SOL    HW217001   0.474   2.091  15.769  1.6850 -1.4163 -1.6424
 1790SOL     OW17002   2.731   1.230   5.340  0.0537  0.0985 -0.1171
 1790SOL    HW117003   2.698   1.154   5.388  1.2216  0.4564  1.2611
 1790SOL    HW217004   2.798   1.263   5.400  0.1410  0.2962 -0.3239
 1791SOL     OW17005   4.397   2.318   8.286 -0.2369 -0.1798  0.2235
 1791SOL    HW117006   4.414   2.281   8.199 -0.7758  0.4123 -0.1370
 1791SOL    HW217007   4.415   2.409   8.260 -1.3324  0.3650  1.3985
 1792SOL     OW17008   4.543   3.244   7.061  0.2096  0.0176 -0.2218
 1792SOL    HW117009   4.539   3.237   6.966  1.9685 -1.6653 -0.1760
 1792SOL    HW217010   4.609   3.312   7.069  0.3920 -0.2358  0.4664
 1793SOL     OW17011   0.713   2.545  17.100 -0.3206 -0.0467  0.4474
 1793SOL    HW117012   0.679   2.591  17.176  2.6824  1.5747  0.8422
 1793SOL    HW217013   0.640   2.489  17.076  1.7978 -2.6610  0.0730
 1794SOL     OW17014   1.566   4.221   7.529 -0.0760 -0.2167 -0.3330
 1794SOL    HW117015   1.620   4.226   7.608  1.1259 -0.0151 -1.1670
 1794SOL    HW217016   1.485   4.269   7.547 -0.9628 -1.8018 -0.0628
 1795SOL     OW17017   0.476   1.501  14.329  0.1611  0.4294  0.0054
 1795SOL    HW117018   0.544   1.455  14.378  1.1108  2.5714  0.7450
 1795SOL    HW217019   0.494   1.463  14.243 -0.5888  0.2540 -0.0713
 1796SOL     OW17020   3.557   3.365  17.006  0.0654  0.2548 -0.1789
 1796SOL    HW117021   3.544   3.337  16.916  1.9526  3.1836 -1.3536
 1796SOL    HW217022   3.467   3.364  17.040 -0.7494 -1.1625 -2.4290
 1797SOL     OW17023   0.953   2.036   4.395  0.2646 -0.0967 -0.1311
 1797SOL    HW117024   1.032   2.018   4.447  1.1748 -1.7430 -2.0917
 1797SOL    HW217025   0.988   2.007   4.311 -1.8695  1.6878 -1.6338
 1798SOL     OW17026   2.030   2.537  14.618 -0.4562 -0.4490  0.0676
 1798SOL    HW117027   2.080   2.456  14.608  2.7086  1.5727 -0.5229
 1798SOL    HW217028   2.084   2.573  14.688 -0.5103 -2.0669  0.9588
 1799SOL     OW17029   1.125   0.996   8.610 -0.1433 -0.5243  0.6689
 1799SOL    HW117030   1.164   0.986   8.696  0.1969  0.5086  0.6256
 1799SOL    HW217031   1.194   0.959   8.555  0.9768  1.9246  0.4329
 1800SOL     OW17032   0.787   1.044   4.977 -0.2977  0.0938  0.1993
 1800SOL    HW117033   0.839   0.994   4.915  1.5032  1.2254  0.7875
 1800SOL    HW217034   0.848   1.063   5.049 -0.7835 -1.3910  0.9929
 1801SOL     OW17035   3.473   4.592  14.866  0.1152  0.2045 -0.8546
 1801SOL    HW117036   3.517   4.668  14.905  0.9922 -0.8639  0.2492
 1801SOL    HW217037   3.518   4.600  14.782 -2.9447  1.1955 -2.4251
 1802SOL     OW17038   4.448   0.320  15.956  0.0534  0.1784  0.3617
 1802SOL    HW117039   4.430   0.290  15.867  1.9086  2.2713 -0.7244
 1802SOL    HW217040   4.379   0.385  15.970 -1.2779 -0.6782 -2.2111
 1803SOL     OW17041   3.274   2.109   0.528  0.0525  0.3689 -0.1546
 1803SOL    HW117042   3.357   2.063   0.543 -0.1331 -0.2519 -1.0301
 1803SOL    HW217043   3.301   2.198   0.504  1.8834 -0.3471 -0.7961
 1804SOL     OW17044   0.472   3.762  14.533  0.0852  0.1012  0.4678
 1804SOL    HW117045   0.478   3.832  14.598 -0.9404 -1.2655  2.0583
 1804SOL    HW217046   0.411   3.807  14.474 -1.9757  1.2608  3.4648
 1805SOL     OW17047   2.301   4.356   6.210 -0.2144  0.0062 -0.0255
 1805SOL    HW117048   2.270   4.285   6.153  2.0247 -1.3296  0.4596
 1805SOL    HW217049   2.387   4.375   6.172  0.3967 -3.4745 -0.4128
 1806SOL     OW17050   0.978   2.972   7.754  0.5027  0.0054  0.1574
 1806SOL    HW117051   0.938   2.910   7.815 -1.2496  0.9396 -0.0335
 1806SOL    HW217052   0.957   2.934   7.669 -0.9345  1.0562  0.0311
 1807SOL     OW17053   3.491   0.125   9.961  0.4208 -0.4582 -0.3902
 1807SOL    HW117054   3.481   0.030   9.964  1.1505 -0.4764  1.3260
 1807SOL    HW217055   3.585   0.137   9.945  0.9762 -0.7393  2.7822
 1808SOL     OW17056   1.158   1.319   0.820  0.0982 -0.3454 -0.1509
 1808SOL    HW117057   1.220   1.389   0.800  0.0258 -0.2665 -0.0982
 1808SOL    HW217058   1.218   1.246   0.834  1.5608  0.9882  0.4342
 1809SOL     OW17059   0.560   3.581  14.740 -0.2678 -0.0882  0.6904
 1809SOL    HW117060   0.493   3.522  14.774 -2.5732  0.8599 -2.1230
 1809SOL    HW217061   0.516   3.613  14.660  1.0869 -0.1308 -0.0627
 1810SOL     OW17062   4.696   3.316   4.492 -0.3400  0.1140  0.4588
 1810SOL    HW117063   4.632   3.385   4.510 -2.5203 -1.7797 -0.0319
 1810SOL    HW217064   0.008   3.374   4.433  0.3363 -0.8133  0.0860
 1811SOL     OW17065   2.191   3.891   2.580  0.2093  0.1617 -0.1220
 1811SOL    HW117066   2.129   3.901   2.653 -1.1746  0.4049 -1.3301
 1811SOL    HW217067   2.235   3.807   2.590 -1.3731 -0.5179  1.1260
 1812SOL     OW17068   0.935   4.524  11.776  0.2759 -0.5016 -0.5240
 1812SOL    HW117069   0.847   4.488  11.787 -0.8873  2.9357  1.3524
 1812SOL    HW217070   0.991   4.448  11.791  0.9004 -0.0821 -0.7382
 1813SOL     OW17071   1.402   1.407   2.174  0.4995  0.3160 -0.0651
 1813SOL    HW117072   1.330   1.469   2.164  0.0470 -0.5913 -2.3594
 1813SOL    HW217073   1.470   1.461   2.135  0.6345  0.6004  0.5510
 1814SOL     OW17074   1.174   4.361   7.047 -0.3378  0.3353  0.0124
 1814SOL    HW117075   1.199   4.316   6.966 -0.8076 -0.3375  0.2393
 1814SOL    HW217076   1.093   4.401   7.015 -0.5944 -1.0948 -1.1111
 1815SOL     OW17077   1.763   4.101   3.189 -0.3150  0.0428  0.0270
 1815SOL    HW117078   1.680   4.057   3.171 -0.9958 -0.3985  4.1865
 1815SOL    HW217079   1.788   4.053   3.268  2.0213  0.3892 -0.5139
 1816SOL     OW17080   3.498   1.594   4.088  0.3526 -0.2598 -0.0228
 1816SOL    HW117081   3.545   1.569   4.008  2.5777 -0.3240  1.3136
 1816SOL    HW217082   3.422   1.622   4.037 -1.0732 -1.6206  1.3426
 1817SOL     OW17083   0.237   3.985   8.741  0.4553 -0.2183  0.2185
 1817SOL    HW117084   0.271   3.986   8.651  1.3649 -0.6348  0.5662
 1817SOL    HW217085   0.314   4.029   8.776  0.3521  0.6127 -0.5865
 1818SOL     OW17086   2.483   2.576   4.167  0.0386  0.2151 -0.4514
 1818SOL    HW117087   2.394   2.547   4.183 -0.3358 -0.1015 -3.0525
 1818SOL    HW217088   2.496   2.546   4.077  1.5477  0.4974 -0.3403
 1819SOL     OW17089   0.040   0.228  10.171 -0.3566  0.3650 -0.9879
 1819SOL    HW117090   0.065   0.236  10.264  1.1833  1.5371 -1.5006
 1819SOL    HW217091   4.711   0.158  10.177  3.3650 -2.9986 -0.9612
 1820SOL     OW17092   1.392   2.619   7.795 -0.2271  0.2563  0.7309
 1820SOL    HW117093   1.310   2.630   7.748  0.0085 -0.2077  0.2093
 1820SOL    HW217094   1.373   2.525   7.806 -1.3879  0.6560  2.1371
 1821SOL     OW17095   3.436   1.406   3.256  0.0427  0.2996 -1.0324
 1821SOL    HW117096   3.358   1.449   3.221 -0.6441  0.1985  0.3673
 1821SOL    HW217097   3.482   1.380   3.177  2.0670  1.0251 -0.0937
 1822SOL     OW17098   3.745   3.067   3.552  0.0490  0.1032 -0.7602
 1822SOL    HW117099   3.810   3.116   3.502  0.6871  1.0101  0.9632
 1822SOL    HW217100   3.775   2.976   3.549  1.8028  0.6474  0.5884
 1823SOL     OW17101   0.461   1.096  13.138  0.1855 -0.0012  0.3115
 1823SOL    HW117102   0.544   1.076  13.181  0.4891  2.4950  0.9076
 1823SOL    HW217103   0.476   1.190  13.123  0.3646 -0.0937 -0.0947
 1824SOL     OW17104   0.003   1.043   6.040 -0.1805 -0.4240  0.1174
 1824SOL    HW117105   0.067   1.068   6.107  0.0047 -0.0402 -0.2015
 1824SOL    HW217106   0.021   0.951   6.026  0.4990 -0.1239 -0.9169
 1825SOL     OW17107   1.706   2.198   3.453 -0.6455  0.2738  0.1368
 1825SOL    HW117108   1.711   2.131   3.521 -3.1562 -0.6682 -0.5787
 1825SOL    HW217109   1.630   2.252   3.474 -0.8119  0.9722 -2.2838
 1826SOL     OW17110   4.141   0.199   3.688 -0.2158 -0.3020 -0.4471
 1826SOL    HW117111   4.075   0.131   3.675 -1.6823  0.5963  2.2567
 1826SOL    HW217112   4.141   0.197   3.784 -1.3433 -1.2358 -0.4729
 1827SOL     OW17113   2.970   3.240  16.190 -0.6218  0.1577  0.1555
 1827SOL    HW117114   2.947   3.327  16.222  1.0905 -0.0808  2.0752
 1827SOL    HW217115   2.938   3.251  16.101  1.1922  1.7270 -0.3108
 1828SOL     OW17116   0.521   2.974   3.403 -0.2667 -0.1181  0.4839
 1828SOL    HW117117   0.445   2.965   3.345  1.4648 -0.9379 -1.6700
 1828SOL    HW217118   0.539   3.067   3.390  1.0548 -0.5045 -0.5073
 1829SOL     OW17119   0.852   2.894   1.522  0.1708 -0.7081 -0.0347
 1829SOL    HW117120   0.917   2.898   1.592  1.3488 -1.1845 -1.0756
 1829SOL    HW217121   0.891   2.948   1.453 -0.2021  1.4888  1.4832
 1830SOL     OW17122   0.940   1.645   8.992  0.3117 -0.4189 -0.0239
 1830SOL    HW117123   0.951   1.735   9.024 -1.1185 -1.2329  2.7533
 1830SOL    HW217124   0.880   1.610   9.057 -0.8005  0.5281 -0.5484
 1831SOL     OW17125   4.327   1.564  10.867 -0.2144  0.4444  0.0683
 1831SOL    HW117126   4.314   1.560  10.772 -4.0065 -0.9430  0.6724
 1831SOL    HW217127   4.239   1.587  10.894  0.4516  1.1827  1.6145
 1832SOL     OW17128   1.300   4.633   6.491  0.9794 -0.2419  0.4567
 1832SOL    HW117129   1.384   4.591   6.509  0.1121 -0.9659  2.7717
 1832SOL    HW217130   1.291   4.606   6.400 -1.4585 -0.5628  0.7885
 1833SOL     OW17131   3.532   1.830   6.900 -0.8101  0.9166  0.1927
 1833SOL    HW117132   3.526   1.739   6.869  0.4517  0.8565  0.0946
 1833SOL    HW217133   3.513   1.883   6.823 -2.6327 -0.1207 -0.0623
 1834SOL     OW17134   2.387   1.795   4.973  0.0190 -0.2741  0.2283
 1834SOL    HW117135   2.473   1.754   4.970  0.5741  0.7116  2.4297
 1834SOL    HW217136   2.336   1.715   4.983 -0.2160 -0.4519 -2.3890
 1835SOL     OW17137   0.527   1.649   2.322  0.0313 -0.6072 -0.0757
 1835SOL    HW117138   0.572   1.627   2.404 -0.5462  0.5372  0.5453
 1835SOL    HW217139   0.570   1.732   2.300 -3.1292  0.8410 -0.7407
 1836SOL     OW17140   3.529   0.308   3.770  0.9008 -0.1123  0.7645
 1836SOL    HW117141   3.537   0.218   3.741  0.3326  0.1147 -0.0835
 1836SOL    HW217142   3.599   0.326   3.833 -0.1554 -1.6536  2.3879
 1837SOL     OW17143   3.822   4.189   3.575 -0.0562  0.2575 -0.0727
 1837SOL    HW117144   3.805   4.112   3.521  0.4886  1.6120 -2.1634
 1837SOL    HW217145   3.902   4.167   3.621  0.0089 -0.0014 -0.3139
 1838SOL     OW17146   1.932   4.086   2.966  0.2140 -0.6719  0.4516
 1838SOL    HW117147   1.867   4.086   3.037 -0.6312 -0.7091 -0.3127
 1838SOL    HW217148   1.919   4.176   2.938  2.0164 -0.1968  1.1647
 1839SOL     OW17149   3.805   2.919  10.629 -0.4869  0.2207 -0.1042
 1839SOL    HW117150   3.782   3.002  10.587  0.9916  0.8390  0.2939
 1839SOL    HW217151   3.871   2.953  10.690  2.7004 -3.1928 -1.6827
 1840SOL     OW17152   2.816   4.120   7.207 -0.0259  0.2057  0.4672
 1840SOL    HW117153   2.807   4.070   7.126  2.9291  0.5805 -0.1156
 1840SOL    HW217154   2.772   4.067   7.273 -2.3199  0.1192 -1.1378
 1841SOL     OW17155   3.474   1.775   2.208 -0.1513 -0.1142  0.2661
 1841SOL    HW117156   3.472   1.717   2.133 -0.3055 -0.2930  0.4097
 1841SOL    HW217157   3.470   1.860   2.163  0.2839  0.8884  2.0963
 1842SOL     OW17158   0.307   4.376   2.399 -0.1507  0.2489 -0.2417
 1842SOL    HW117159   0.219   4.400   2.427 -0.1712 -0.4213  0.2635
 1842SOL    HW217160   0.328   4.298   2.450 -0.1374  1.3190  1.4030
 1843SOL     OW17161   3.193   0.374   4.428  0.0762  0.3190 -0.0856
 1843SOL    HW117162   3.258   0.393   4.495 -1.4777  2.9718  0.7078
 1843SOL    HW217163   3.175   0.460   4.389  1.8881  0.7956  0.1704
 1844SOL     OW17164   3.516   1.993   2.042  0.6113 -0.3885  0.5986
 1844SOL    HW117165   3.607   2.007   2.066  1.0136 -0.3889 -0.9218
 1844SOL    HW217166   3.500   2.086   2.026  3.8423  0.3613  1.8201
 1845SOL     OW17167   3.978   0.348  15.300  0.2085 -0.2370 -0.3584
 1845SOL    HW117168   3.896   0.351  15.250  0.3760  1.2978 -0.5418
 1845SOL    HW217169   3.984   0.261  15.338 -2.0697 -0.4929 -0.6238
 1846SOL     OW17170   1.076   1.819   0.273  0.0901  0.2970 -0.4941
 1846SOL    HW117171   1.025   1.738   0.263  0.4980  0.1676 -1.5508
 1846SOL    HW217172   1.076   1.827   0.368  0.1125 -0.4209 -0.4329
 1847SOL     OW17173   4.392   0.304  17.161  0.0181  0.1090  0.0008
 1847SOL    HW117174   4.425   0.214  17.159 -0.1314  0.0808 -1.5374
 1847SOL    HW217175   4.300   0.285  17.145 -0.0242 -0.1114  0.5312
 1848SOL     OW17176   3.674   1.224  14.632  0.2205  0.0668 -0.1951
 1848SOL    HW117177   3.588   1.200  14.597 -0.6865 -1.5080  3.0723
 1848SOL    HW217178   3.655   1.304  14.680 -0.0916 -1.1528  1.7026
 1849SOL     OW17179   4.576   2.572   4.343 -0.2336  0.0200 -0.2217
 1849SOL    HW117180   4.483   2.583   4.358 -0.2980 -0.6083 -0.1715
 1849SOL    HW217181   4.593   2.521   4.422 -1.7008  0.4819  0.3887
 1850SOL     OW17182   0.640   0.922   6.254  0.3245 -0.2913 -0.1188
 1850SOL    HW117183   0.649   1.005   6.301 -0.8933  1.1601 -2.4704
 1850SOL    HW217184   0.702   0.933   6.182  0.2756 -0.4397 -0.1831
 1851SOL     OW17185   4.518   4.641   8.758 -0.3775  0.0451 -0.4803
 1851SOL    HW117186   4.516   4.699   8.835  0.7463  1.9645 -1.9039
 1851SOL    HW217187   4.606   4.606   8.753 -0.4033  0.2082 -1.9003
 1852SOL     OW17188   4.731   4.729   8.318  0.1153 -0.1481 -0.4801
 1852SOL    HW117189   0.028   0.047   8.245 -0.6915  2.0854  0.7976
 1852SOL    HW217190   4.672   4.668   8.274  0.2330  0.2317 -1.1673
 1853SOL     OW17191   3.346   4.646   9.003 -0.2377  0.0004  0.2829
 1853SOL    HW117192   3.275   4.708   8.984  0.4996  0.2048 -1.8204
 1853SOL    HW217193   3.310   4.598   9.077 -0.5081  0.6724  0.5791
 1854SOL     OW17194   1.161   0.695   3.912  0.0783  0.2388 -0.1293
 1854SOL    HW117195   1.108   0.671   3.836 -0.6201  1.2702  0.0459
 1854SOL    HW217196   1.171   0.790   3.907 -0.9505  0.3249 -0.4102
 1855SOL     OW17197   3.757   3.271  17.281 -0.1662  0.3911  0.0993
 1855SOL    HW117198   3.826   3.291  17.218  0.7104 -1.5305  0.4536
 1855SOL    HW217199   3.703   3.350  17.282 -0.7057  0.0111  1.1036
 1856SOL     OW17200   0.055   0.598   2.400  0.2686  0.1487 -0.1544
 1856SOL    HW117201   0.095   0.576   2.316 -0.7390  2.3847 -1.2151
 1856SOL    HW217202   0.076   0.690   2.414 -0.9496  0.2595  0.9947
 1857SOL     OW17203   1.235   4.169   1.841  0.1176 -0.2573 -0.0071
 1857SOL    HW117204   1.140   4.168   1.836  0.0655  2.1662  0.0398
 1857SOL    HW217205   1.251   4.256   1.804  0.6733 -0.2853  0.1657
 1858SOL     OW17206   2.468   3.798   3.592 -0.5589 -0.0892  0.5257
 1858SOL    HW117207   2.532   3.845   3.538 -2.4221  0.7168 -0.9655
 1858SOL    HW217208   2.464   3.714   3.546  0.5241 -0.3228  0.8518
 1859SOL     OW17209   0.636   0.520   4.786 -0.1064  0.2186  0.1941
 1859SOL    HW117210   0.677   0.606   4.792  1.4141 -0.4178 -0.9905
 1859SOL    HW217211   0.546   0.542   4.810  0.5669  3.7371 -0.5433
 1860SOL     OW17212   1.206   2.885  15.749  0.3070  0.2152 -0.1513
 1860SOL    HW117213   1.282   2.896  15.693 -0.3243  4.6086 -0.1102
 1860SOL    HW217214   1.157   2.964  15.724 -0.7813 -0.3130  0.2922
 1861SOL     OW17215   0.388   0.295   2.804 -0.4345  0.7087  0.0043
 1861SOL    HW117216   0.297   0.309   2.777 -0.5577  1.4088  0.7860
 1861SOL    HW217217   0.401   0.219   2.747 -0.9195 -1.2132  2.4691
 1862SOL     OW17218   3.273   0.914   1.383  0.0960 -0.3064 -0.0703
 1862SOL    HW117219   3.242   0.830   1.415 -0.8884 -0.1911 -0.7263
 1862SOL    HW217220   3.279   0.902   1.288 -0.1210  0.7313 -0.2135
 1863SOL     OW17221   2.353   2.745  10.171  0.6848 -0.9716 -0.0642
 1863SOL    HW117222   2.294   2.719  10.100  1.2062  2.4580 -1.7340
 1863SOL    HW217223   2.297   2.804  10.221 -1.8172 -1.7436 -1.9832
 1864SOL     OW17224   2.576   0.405   8.958  0.2859  0.1641 -0.2286
 1864SOL    HW117225   2.556   0.348   8.884  1.5685  0.1185 -0.5348
 1864SOL    HW217226   2.492   0.394   9.004 -0.4048  3.6993 -0.6754
 1865SOL     OW17227   2.583   2.202   5.113  0.6505 -0.3151 -0.8099
 1865SOL    HW117228   2.504   2.148   5.117  0.1052  0.5796  0.6104
 1865SOL    HW217229   2.632   2.157   5.181 -1.6919 -0.3964  0.8309
 1866SOL     OW17230   0.406   0.821   2.298  0.7375  0.0138 -0.0588
 1866SOL    HW117231   0.481   0.841   2.354  1.7217  0.6256 -1.6063
 1866SOL    HW217232   0.433   0.757   2.233 -2.5151  1.3846 -2.7393
 1867SOL     OW17233   4.370   2.710  12.498 -0.1669  0.8288  0.2016
 1867SOL    HW117234   4.354   2.721  12.404 -2.9391  1.9365  0.8138
 1867SOL    HW217235   4.281   2.701  12.531  0.5567 -1.9769  1.4062
 1868SOL     OW17236   3.069   0.445   6.377 -0.6229  0.5031  0.6142
 1868SOL    HW117237   3.114   0.415   6.298  2.1723  1.4126  1.8775
 1868SOL    HW217238   3.127   0.409   6.444  0.5313  0.2161 -0.5547
 1869SOL     OW17239   2.483   2.210   9.189 -0.1769 -1.1260 -0.0459
 1869SOL    HW117240   2.480   2.169   9.103  0.0793 -2.3635  0.5387
 1869SOL    HW217241   2.493   2.138   9.251  1.8624 -0.5744  0.2821
 1870SOL     OW17242   0.646   1.598   7.092  0.7700 -0.5734  0.1654
 1870SOL    HW117243   0.586   1.541   7.140 -0.8304 -0.7423 -2.0576
 1870SOL    HW217244   0.730   1.552   7.095  1.6992  1.0772 -0.9150
 1871SOL     OW17245   3.300   2.855   8.570  0.0300 -0.2093 -0.4957
 1871SOL    HW117246   3.234   2.819   8.510 -0.2742 -0.5335  0.0300
 1871SOL    HW217247   3.362   2.896   8.510 -2.2497 -0.2250 -2.8751
 1872SOL     OW17248   0.470   2.216  11.327  0.0950 -0.4234  0.4108
 1872SOL    HW117249   0.452   2.183  11.239  0.0041 -1.5307  0.8417
 1872SOL    HW217250   0.413   2.293  11.333 -1.3890 -1.6881  2.7273
 1873SOL     OW17251   0.642   0.837   3.485  0.1757 -0.0290  0.0589
 1873SOL    HW117252   0.734   0.833   3.457 -0.4053  0.8066 -1.9846
 1873SOL    HW217253   0.626   0.927   3.455  1.3755  0.5294  1.0971
 1874SOL     OW17254   0.649   1.328  10.280  0.1909  0.0355 -0.1968
 1874SOL    HW117255   0.622   1.417  10.256  1.6688  0.2335 -1.1314
 1874SOL    HW217256   0.598   1.276  10.218 -0.1424 -2.1034  1.8862
 1875SOL     OW17257   4.691   0.241   9.593 -0.0487  0.1620 -0.0750
 1875SOL    HW117258   4.670   0.167   9.650  0.7588 -0.0056 -0.0054
 1875SOL    HW217259   4.703   0.308   9.660 -1.4534 -1.0478  1.4002
 1876SOL     OW17260   3.347   2.267   3.695 -0.3830  0.2550 -0.6547
 1876SOL    HW117261   3.382   2.299   3.612 -1.9233  1.1864 -0.9646
 1876SOL    HW217262   3.274   2.213   3.665 -1.6523  0.9976  1.0646
 1877SOL     OW17263   0.463   2.531   3.896  0.1708 -0.0353  0.8926
 1877SOL    HW117264   0.429   2.476   3.966  2.1507 -0.9105  1.1512
 1877SOL    HW217265   0.537   2.568   3.944 -0.3007  1.3102  0.6035
 1878SOL     OW17266   2.928   1.671   9.129 -0.5290 -0.2177  0.2192
 1878SOL    HW117267   2.848   1.635   9.091 -1.0969 -0.3045  1.4957
 1878SOL    HW217268   2.937   1.739   9.062 -1.5376 -0.0733  0.2366
 1879SOL     OW17269   2.461   3.108   9.335  0.1357  0.0240  0.4938
 1879SOL    HW117270   2.465   3.048   9.410  1.3525  0.0942  0.4761
 1879SOL    HW217271   2.552   3.136   9.338  0.4596 -1.0866  0.8930
 1880SOL     OW17272   1.626   2.100   2.152  0.2916  0.1723  0.6502
 1880SOL    HW117273   1.601   2.072   2.240 -0.0298  1.5441  0.9857
 1880SOL    HW217274   1.539   2.108   2.114  0.2897 -1.3256  0.3279
 1881SOL     OW17275   1.074   2.835  12.350  0.2298 -0.6333  0.1858
 1881SOL    HW117276   0.990   2.874  12.324  0.1513 -0.4467  0.7204
 1881SOL    HW217277   1.126   2.915  12.348  0.0607 -0.4513  2.5807
 1882SOL     OW17278   2.862   3.078   7.855 -0.3427 -0.4403  0.0115
 1882SOL    HW117279   2.837   3.022   7.929 -0.6629 -0.9865 -0.5103
 1882SOL    HW217280   2.790   3.061   7.794 -1.7053  1.4902  1.0435
 1883SOL     OW17281   0.721   1.436   8.853  0.4477  0.4142 -0.0831
 1883SOL    HW117282   0.723   1.350   8.811 -1.3118 -0.0494  0.7917
 1883SOL    HW217283   0.716   1.417   8.947  1.7925  2.3943  0.3812
 1884SOL     OW17284   0.252   1.250   1.795 -0.4809  0.4617  0.2479
 1884SOL    HW117285   0.307   1.322   1.825 -0.1066  0.7896 -1.2092
 1884SOL    HW217286   0.205   1.221   1.873 -0.4710  2.9348  1.1954
 1885SOL     OW17287   2.689   0.117   0.252 -0.0629 -0.0902  0.0135
 1885SOL    HW117288   2.690   0.094   0.345 -0.9154 -0.4790 -0.0753
 1885SOL    HW217289   2.601   0.096   0.222  0.1480  2.0777 -2.2063
 1886SOL     OW17290   1.185   2.620   7.636  0.2915  0.4080 -0.1822
 1886SOL    HW117291   1.097   2.582   7.635  0.0080  1.0225  1.8702
 1886SOL    HW217292   1.173   2.667   7.554  0.2996  1.6454  0.5366
 1887SOL     OW17293   1.707   1.867   6.908 -0.4381 -0.3464  0.1336
 1887SOL    HW117294   1.705   1.929   6.981 -1.4643 -1.3907  0.9845
 1887SOL    HW217295   1.710   1.785   6.956  4.1456 -0.6784 -0.7279
 1888SOL     OW17296   3.045   4.249   9.190 -0.0111 -0.9942  0.4582
 1888SOL    HW117297   3.009   4.207   9.112 -1.2133 -0.0569  0.5007
 1888SOL    HW217298   2.974   4.233   9.252 -1.6221 -1.7549 -1.5752
 1889SOL     OW17299   3.031   0.423  12.770 -0.6219  0.4990 -0.6882
 1889SOL    HW117300   3.036   0.517  12.756  0.2048  0.6093  0.3191
 1889SOL    HW217301   3.098   0.405  12.836  1.2020  3.5120 -1.7477
 1890SOL     OW17302   0.415   2.183   0.822 -1.1853 -0.9865 -0.9909
 1890SOL    HW117303   0.369   2.263   0.848  0.2914 -1.3695  2.7645
 1890SOL    HW217304   0.382   2.117   0.883 -0.8951 -0.8807 -0.7201
 1891SOL     OW17305   1.715   0.111   9.328  0.0045 -0.2196  0.0235
 1891SOL    HW117306   1.723   0.035   9.270  1.6596  0.6855 -0.9287
 1891SOL    HW217307   1.793   0.107   9.384  0.1177  0.4097 -0.0872
 1892SOL     OW17308   2.715   3.504   1.826  0.0190  0.1339  0.0258
 1892SOL    HW117309   2.647   3.557   1.785 -0.2065 -0.3233 -0.1912
 1892SOL    HW217310   2.668   3.470   1.902 -0.0688  0.2642  0.0299
 1893SOL     OW17311   1.597   4.410  12.528  0.2101  0.1650 -0.0113
 1893SOL    HW117312   1.664   4.372  12.471 -0.1171  0.2446 -0.4435
 1893SOL    HW217313   1.549   4.452  12.456 -0.8945  2.8481  2.2793
 1894SOL     OW17314   0.271   0.778   0.068 -0.0032 -0.2138 -0.3914
 1894SOL    HW117315   0.276   0.683   0.073  1.0774 -0.2571 -2.1635
 1894SOL    HW217316   0.199   0.793   0.006 -0.3593 -2.0195 -0.4194
 1895SOL     OW17317   0.079   4.695   5.668 -0.4880  0.0368  0.5697
 1895SOL    HW117318   0.151   4.648   5.626  0.4918  1.4703  0.6429
 1895SOL    HW217319   0.124   0.008   5.737 -0.4599  0.7837  0.0364
 1896SOL     OW17320   1.873   4.660   3.997 -0.0170  0.4156  0.0104
 1896SOL    HW117321   1.882   4.573   3.958  1.2138  1.3564 -1.8101
 1896SOL    HW217322   1.822   4.696   3.924 -1.2117 -0.5761  0.3540
 1897SOL     OW17323   0.385   1.670   4.501 -0.1039  0.0930  0.5566
 1897SOL    HW117324   0.481   1.671   4.504 -0.1035  1.2964  0.0244
 1897SOL    HW217325   0.376   1.615   4.423  0.1406  1.7940 -0.6745
 1898SOL     OW17326   4.305   3.088   4.270 -0.9137 -0.5102 -0.1352
 1898SOL    HW117327   4.334   3.142   4.196 -1.1275  0.0272  0.1740
 1898SOL    HW217328   4.353   3.007   4.260  1.3665  0.6093  1.8305
 1899SOL     OW17329   2.566   0.139   5.175 -0.2614 -0.0835  0.3915
 1899SOL    HW117330   2.537   0.230   5.181 -1.6925 -0.6813  2.5079
 1899SOL    HW217331   2.659   0.154   5.194  0.1746 -1.9557 -0.3147
 1900SOL     OW17332   1.264   0.233   7.368  0.0189  1.0844  0.0387
 1900SOL    HW117333   1.172   0.209   7.357 -0.0327  0.0003  2.8403
 1900SOL    HW217334   1.303   0.150   7.396  1.2730  2.0359  1.0762
 1901SOL     OW17335   2.587   0.934   2.263 -0.2311  0.2390 -0.4270
 1901SOL    HW117336   2.594   0.966   2.353 -2.0125  1.5090 -0.7582
 1901SOL    HW217337   2.568   0.841   2.278 -0.9428  0.0665 -2.4753
 1902SOL     OW17338   1.119   2.194  10.503  0.1235 -0.8528  0.7249
 1902SOL    HW117339   1.113   2.115  10.450 -0.6963 -1.5035  1.7854
 1902SOL    HW217340   1.031   2.215  10.533  0.8670 -0.5818  2.6948
 1903SOL     OW17341   0.613   2.706   7.105 -0.4437  0.1093  0.0947
 1903SOL    HW117342   0.580   2.755   7.029 -0.4047  0.4334  0.2848
 1903SOL    HW217343   0.596   2.618   7.072 -0.2282  0.1853 -0.2227
 1904SOL     OW17344   4.577   2.725   0.581  0.1343  0.6093  0.3726
 1904SOL    HW117345   4.609   2.808   0.545  1.3116  0.4920  1.1409
 1904SOL    HW217346   4.498   2.751   0.630 -2.7104  0.3509 -4.0963
 1905SOL     OW17347   3.219   0.573  11.331 -0.2287 -0.3868 -0.3080
 1905SOL    HW117348   3.243   0.487  11.298 -0.6606 -0.3908 -0.6155
 1905SOL    HW217349   3.202   0.615  11.247  1.2762 -0.0555 -0.4471
 1906SOL     OW17350   3.677   4.693  15.183 -0.6300  0.0996  0.0325
 1906SOL    HW117351   3.630   0.040  15.167 -1.7537 -1.0808 -2.8110
 1906SOL    HW217352   3.686   4.659  15.094 -0.6021  0.2690 -0.0296
 1907SOL     OW17353   0.160   2.532   2.742  0.5098 -0.0400  0.2092
 1907SOL    HW117354   0.251   2.559   2.735  0.5878 -1.0245 -2.5668
 1907SOL    HW217355   0.158   2.469   2.815  2.8076  0.2186  0.5020
 1908SOL     OW17356   0.490   4.146  14.918 -0.6081  0.0349  0.3992
 1908SOL    HW117357   0.575   4.116  14.887  0.2546  0.6980  2.1198
 1908SOL    HW217358   0.488   4.115  15.009 -2.9250  0.2064  0.4003
 1909SOL     OW17359   2.452   3.672   4.183  0.2703 -0.0801  0.6874
 1909SOL    HW117360   2.499   3.705   4.260  1.8615 -0.0106 -0.3240
 1909SOL    HW217361   2.527   3.662   4.125 -0.6446 -0.3938 -0.4251
 1910SOL     OW17362   1.031   2.344   8.335 -0.0384 -0.1473  1.1244
 1910SOL    HW117363   0.966   2.276   8.356  1.4995 -1.6289  1.0673
 1910SOL    HW217364   0.972   2.415   8.308  0.4307  0.4928  1.8002
 1911SOL     OW17365   4.505   4.731  13.413  0.2647 -0.2007 -0.3398
 1911SOL    HW117366   4.497   0.009  13.507  1.1975 -1.6533 -0.0638
 1911SOL    HW217367   4.429   0.039  13.375 -0.2611 -0.2190  0.6938
 1912SOL     OW17368   4.681   4.433  11.457 -0.5933  0.3004 -0.2413
 1912SOL    HW117369   0.021   4.449  11.401  2.0838 -1.9996  2.6796
 1912SOL    HW217370   4.604   4.422  11.401  1.0773  0.7372 -2.5857
 1913SOL     OW17371   1.781   3.949   3.425 -0.1692  0.1866 -0.1731
 1913SOL    HW117372   1.707   3.924   3.482  0.2045  1.6674  0.9723
 1913SOL    HW217373   1.854   3.894   3.454 -1.1811 -1.5700 -0.9721
 1914SOL     OW17374   0.544   4.365   3.212  0.3584 -0.3849 -0.1991
 1914SOL    HW117375   0.584   4.451   3.224  0.6134 -0.5639  0.2592
 1914SOL    HW217376   0.559   4.363   3.118 -0.2611  0.9529 -0.3243
 1915SOL     OW17377   1.784   2.897  10.176 -0.3519 -0.2820 -0.1418
 1915SOL    HW117378   1.831   2.859  10.102  1.5548  1.5001  0.1505
 1915SOL    HW217379   1.815   2.846  10.251  0.3498 -1.5553 -1.3212
 1916SOL     OW17380   4.214   2.176  17.402  0.6510  0.8241 -0.5562
 1916SOL    HW117381   4.164   2.180  17.321 -0.3950  0.5567  0.0807
 1916SOL    HW217382   4.273   2.108  17.370  0.1492  0.6530 -1.1118
 1917SOL     OW17383   1.098   0.355   4.969 -0.0249 -0.5522  0.1388
 1917SOL    HW117384   1.016   0.403   4.958  0.4951  1.0134  3.1384
 1917SOL    HW217385   1.065   0.281   5.019  0.9919 -1.2263 -0.1988
 1918SOL     OW17386   3.865   1.538   7.509 -0.0632  0.0794 -0.6614
 1918SOL    HW117387   3.958   1.537   7.489  0.1769  2.3210  0.3302
 1918SOL    HW217388   3.854   1.453   7.550 -0.8595  0.5769  0.1643
 1919SOL     OW17389   2.703   0.224   5.965 -0.1964  0.0085  0.3573
 1919SOL    HW117390   2.758   0.298   5.938  0.6517 -0.9117 -0.4497
 1919SOL    HW217391   2.769   0.158   5.983 -0.2141  1.2646  4.9732
 1920SOL     OW17392   0.884   1.209  14.330  1.2709 -0.0168 -0.0050
 1920SOL    HW117393   0.939   1.130  14.332  0.0890 -0.8712 -1.2833
 1920SOL    HW217394   0.885   1.214  14.234 -0.6017 -1.6648 -0.1051
 1921SOL     OW17395   0.364   2.364  16.535  0.0356 -0.2603 -0.0848
 1921SOL    HW117396   0.284   2.312  16.543 -1.9631  2.8643  0.4435
 1921SOL    HW217397   0.410   2.339  16.615  0.2282 -1.2385 -0.5056
 1922SOL     OW17398   3.662   2.113   4.020  0.0140 -0.0287 -0.3208
 1922SOL    HW117399   3.587   2.171   4.007 -1.1982 -1.5477 -0.1030
 1922SOL    HW217400   3.650   2.090   4.113  0.9032  0.9820  0.0381
 1923SOL     OW17401   0.687   0.168  16.286 -0.1547 -0.2649  0.0885
 1923SOL    HW117402   0.695   0.088  16.234  0.0576 -0.9423  1.1603
 1923SOL    HW217403   0.596   0.188  16.264 -0.8064 -2.7014  0.5251
 1924SOL     OW17404   2.884   2.036  10.360 -0.1821  0.4569 -0.2026
 1924SOL    HW117405   2.914   2.026  10.451 -2.9665 -1.7818  0.4743
 1924SOL    HW217406   2.943   1.970  10.323 -0.1702 -1.5846  3.4529
 1925SOL     OW17407   4.168   4.531   6.844 -0.0637  0.0289  0.5634
 1925SOL    HW117408   4.189   4.593   6.774 -0.0577  1.0426  1.4671
 1925SOL    HW217409   4.216   4.456   6.809 -1.1482 -0.0305 -0.8060
 1926SOL     OW17410   3.642   4.216   6.035 -0.0999 -0.3044  0.1365
 1926SOL    HW117411   3.661   4.306   6.008  0.8188 -0.7387 -0.6875
 1926SOL    HW217412   3.701   4.197   6.108  0.4072 -0.6480 -0.3637
 1927SOL     OW17413   2.215   0.502  10.768  0.2743  0.2113  0.3087
 1927SOL    HW117414   2.166   0.529  10.690  0.6015  1.0021  0.3794
 1927SOL    HW217415   2.274   0.440  10.726  1.4227  0.8735  0.9526
 1928SOL     OW17416   4.491   1.015  13.125 -0.3576  0.5862 -0.1811
 1928SOL    HW117417   4.530   1.092  13.082 -2.7508  1.4605 -0.8341
 1928SOL    HW217418   4.424   1.055  13.181 -0.9855  0.1899 -0.6430
 1929SOL     OW17419   3.781   2.488   1.380  0.6053 -0.3365  0.0673
 1929SOL    HW117420   3.808   2.510   1.469 -0.9595 -1.6578  0.8645
 1929SOL    HW217421   3.695   2.451   1.397  0.1592  0.2789 -0.8471
 1930SOL     OW17422   2.112   4.648   4.872  0.0294  0.4832 -0.0378
 1930SOL    HW117423   2.200   4.650   4.909  0.9173  0.9286 -2.1809
 1930SOL    HW217424   2.071   4.731   4.894 -0.0913  0.3312  0.3205
 1931SOL     OW17425   4.043   0.779   8.692  0.1925  0.5414 -0.3847
 1931SOL    HW117426   4.056   0.865   8.652 -0.1711  0.2190 -1.1826
 1931SOL    HW217427   3.948   0.785   8.702  0.0575 -0.5553 -1.1114
 1932SOL     OW17428   1.985   2.859  15.898 -0.5869 -0.2495 -0.2144
 1932SOL    HW117429   1.938   2.834  15.818 -0.6578  1.8583 -0.8124
 1932SOL    HW217430   2.071   2.824  15.872  0.0966  0.7042  0.7907
 1933SOL     OW17431   1.156   3.910   5.305 -0.3490 -0.4760 -0.4906
 1933SOL    HW117432   1.147   3.872   5.217 -3.5996  0.0496 -0.4005
 1933SOL    HW217433   1.160   4.002   5.278  1.9231 -0.5794 -0.5434
 1934SOL     OW17434   0.934   4.547   8.869  0.1954 -0.1580 -0.2314
 1934SOL    HW117435   0.891   4.613   8.815  0.3706 -0.9284 -1.3138
 1934SOL    HW217436   0.860   4.519   8.924 -1.2353 -0.0415 -2.0961
 1935SOL     OW17437   2.109   3.715   9.108 -0.0537 -0.1353 -0.3883
 1935SOL    HW117438   2.187   3.748   9.064 -0.7395  0.2674 -1.3032
 1935SOL    HW217439   2.109   3.630   9.065  4.0702 -1.7132  2.7587
 1936SOL     OW17440   2.344   1.225   9.131 -0.2172  0.2823 -0.4857
 1936SOL    HW117441   2.259   1.242   9.090 -0.6645 -0.5873  0.0839
 1936SOL    HW217442   2.362   1.145   9.082  0.1784 -0.1323  0.3468
 1937SOL     OW17443   2.460   4.499   0.096  0.7529 -0.2187 -0.0689
 1937SOL    HW117444   2.469   4.435   0.026 -0.0843  0.4855 -0.8088
 1937SOL    HW217445   2.520   4.463   0.162  0.7276  1.6517  0.9692
 1938SOL     OW17446   2.480   2.159  17.721  0.3038  0.0456  0.3400
 1938SOL    HW117447   2.442   2.104   0.050  0.8812 -0.5906  0.1414
 1938SOL    HW217448   2.490   2.244   0.026 -1.6628  0.0223  0.8366
 1939SOL     OW17449   1.369   1.879   2.575  0.3974 -0.5308 -1.1022
 1939SOL    HW117450   1.367   1.838   2.662  1.7649  1.2731 -0.2105
 1939SOL    HW217451   1.309   1.951   2.595  0.5516 -0.2436 -1.6666
 1940SOL     OW17452   2.221   2.621  12.575  0.0178  0.4233 -0.3652
 1940SOL    HW117453   2.171   2.648  12.652  0.3063  0.3315 -0.1462
 1940SOL    HW217454   2.233   2.526  12.586 -1.4584  0.2036 -0.5342
 1941SOL     OW17455   3.087   2.720   5.700  0.0817 -0.7888  0.2864
 1941SOL    HW117456   3.070   2.783   5.629 -1.0003 -0.4040  0.8760
 1941SOL    HW217457   3.007   2.720   5.753 -1.8120 -0.2102 -2.5481
 1942SOL     OW17458   3.714   3.320   3.248  0.2094 -0.8292  0.6198
 1942SOL    HW117459   3.786   3.298   3.307  1.6474 -1.1316 -1.2234
 1942SOL    HW217460   3.738   3.291   3.159 -2.0861  1.3270 -0.6723
 1943SOL     OW17461   1.037   4.705  11.966 -0.4059 -0.1340  0.6214
 1943SOL    HW117462   1.026   4.651  12.044 -3.4149 -1.0904 -0.4739
 1943SOL    HW217463   1.004   4.634  11.911  0.4672  0.2170 -0.3613
 1944SOL     OW17464   2.695   3.265   6.244 -0.0353 -0.9400  0.0932
 1944SOL    HW117465   2.746   3.339   6.277 -1.2255 -0.6369  1.2927
 1944SOL    HW217466   2.682   3.226   6.331  2.7019  0.3147  1.0649
 1945SOL     OW17467   2.837   2.894   0.718  0.1747  0.5098 -0.0171
 1945SOL    HW117468   2.926   2.864   0.701  0.0864  0.7390 -0.8838
 1945SOL    HW217469   2.822   2.917   0.626  1.6012 -0.2693 -0.4328
 1946SOL     OW17470   0.437   0.873   5.002 -0.5197 -0.0834  1.1263
 1946SOL    HW117471   0.445   0.930   5.079 -1.1195  0.9269  0.4414
 1946SOL    HW217472   0.476   0.926   4.933  3.1689 -1.4743  2.1227
 1947SOL     OW17473   2.080   3.876  12.195 -0.0806  0.4441  0.0457
 1947SOL    HW117474   1.994   3.862  12.233  0.7857 -1.9692  1.1289
 1947SOL    HW217475   2.132   3.818  12.252  0.7318  0.0605 -1.0827
 1948SOL     OW17476   3.944   2.798  12.501  0.6980 -0.4081  0.2843
 1948SOL    HW117477   3.858   2.777  12.537 -0.0905  0.8103 -0.8719
 1948SOL    HW217478   3.911   2.809  12.411  1.1350  0.7417  0.2665
 1949SOL     OW17479   1.695   4.168   6.433  0.2470  0.1005  0.4169
 1949SOL    HW117480   1.712   4.075   6.418 -0.2445  0.4666 -2.3182
 1949SOL    HW217481   1.619   4.148   6.488  0.4694  1.7340  1.2992
 1950SOL     OW17482   0.631   3.234  14.165 -0.1409 -0.3167 -0.3905
 1950SOL    HW117483   0.538   3.215  14.175 -0.3499  1.4465  0.9580
 1950SOL    HW217484   0.652   3.234  14.259  0.2704 -0.9775 -0.4782
 1951SOL     OW17485   2.961   2.042   2.950 -0.0809  0.0883 -0.4197
 1951SOL    HW117486   2.888   1.980   2.952 -1.5776  1.8252 -1.1327
 1951SOL    HW217487   3.035   1.989   2.979 -1.7082 -1.4878  0.8540
 1952SOL     OW17488   2.095   2.666   4.971 -0.6931  0.3749 -0.0538
 1952SOL    HW117489   2.076   2.737   4.910  0.9439 -1.0284 -2.1794
 1952SOL    HW217490   2.171   2.690   5.024 -1.8484  0.5171  1.5242
 1953SOL     OW17491   3.740   2.908   1.979  0.2169  0.0040 -0.3480
 1953SOL    HW117492   3.785   2.951   2.052 -0.9415 -1.4867  1.2416
 1953SOL    HW217493   3.650   2.923   2.008  0.7331 -1.9134  2.2690
 1954SOL     OW17494   2.488   2.957   8.041 -0.3372 -0.1973 -0.1712
 1954SOL    HW117495   2.463   3.040   7.999  1.2416  0.6009  0.4596
 1954SOL    HW217496   2.415   2.923   8.092 -1.5001 -0.3504 -1.9277
 1955SOL     OW17497   1.658   1.847   4.730 -0.2842 -0.0934 -0.3526
 1955SOL    HW117498   1.641   1.905   4.656  1.3640 -0.0913 -0.7448
 1955SOL    HW217499   1.587   1.783   4.727  0.8093 -1.2787 -1.5036
 1956SOL     OW17500   1.371   4.711  15.785 -0.2513 -0.1853  0.1985
 1956SOL    HW117501   1.463   4.695  15.766  0.3695  1.3583  1.8702
 1956SOL    HW217502   1.341   0.030  15.712  3.2025 -0.3324 -1.3226
 1957SOL     OW17503   1.793   4.221  11.747 -0.2093  0.3733  0.1567
 1957SOL    HW117504   1.725   4.154  11.760  0.3899  0.1603  2.2314
 1957SOL    HW217505   1.859   4.186  11.807 -0.6890  1.0556  1.0743
 1958SOL     OW17506   0.541   2.719   2.703  0.1424  0.1570  0.0051
 1958SOL    HW117507   0.597   2.785   2.743  0.6071 -0.3210  0.1355
 1958SOL    HW217508   0.451   2.746   2.724  0.8311  3.5661 -1.4880
 1959SOL     OW17509   2.555   1.914   4.110  0.1551 -0.5528 -0.1999
 1959SOL    HW117510   2.574   1.964   4.189 -0.2377  0.0650 -0.4953
 1959SOL    HW217511   2.557   1.825   4.145  1.6761 -0.8637 -1.1015
 1960SOL     OW17512   4.124   0.598   8.512 -0.5852 -0.1425 -0.4593
 1960SOL    HW117513   4.041   0.593   8.463 -0.3782 -1.0797 -0.7191
 1960SOL    HW217514   4.101   0.644   8.592  1.2858 -0.5846  0.3207
 1961SOL     OW17515   0.429   1.711   2.861 -0.3089 -0.0057  0.2766
 1961SOL    HW117516   0.463   1.767   2.931 -0.5669  0.3579  0.1123
 1961SOL    HW217517   0.437   1.759   2.779  1.3695 -1.1760 -0.2386
 1962SOL     OW17518   2.532   3.517   6.178 -0.0783 -0.0332  0.0746
 1962SOL    HW117519   2.597   3.565   6.126 -0.0215 -1.7967 -1.5016
 1962SOL    HW217520   2.590   3.465   6.233  0.3767  0.3806 -0.0121
 1963SOL     OW17521   0.711   1.172   6.346 -0.0225 -0.0169 -0.2053
 1963SOL    HW117522   0.713   1.232   6.272  0.5625 -1.9760 -1.7740
 1963SOL    HW217523   0.789   1.198   6.394 -0.6185  0.9191  0.2515
 1964SOL     OW17524   3.152   0.096   8.639 -0.9028  0.0967 -0.0316
 1964SOL    HW117525   3.141   0.034   8.567  1.4562 -0.4214  0.0610
 1964SOL    HW217526   3.118   0.040   8.708  1.0764  1.6284  2.2000
 1965SOL     OW17527   1.618   4.252   6.186 -0.4340 -0.0315 -0.2504
 1965SOL    HW117528   1.703   4.286   6.158  1.3323 -2.5704  2.0236
 1965SOL    HW217529   1.637   4.196   6.261 -1.4844  0.9330  0.7355
 1966SOL     OW17530   4.019   2.173   8.902 -0.2361  0.0223  0.0280
 1966SOL    HW117531   4.009   2.194   8.995 -0.4700  1.2589 -0.2666
 1966SOL    HW217532   4.005   2.261   8.865  1.5004 -1.0369 -3.1272
 1967SOL     OW17533   0.766   4.133   3.956 -0.1559 -0.2833 -0.4151
 1967SOL    HW117534   0.705   4.092   4.016 -1.6872  1.4324 -0.8290
 1967SOL    HW217535   0.852   4.114   3.994 -0.8533 -0.1377  1.1855
 1968SOL     OW17536   2.202   2.408   3.090  0.2152  0.5263 -0.6939
 1968SOL    HW117537   2.267   2.379   3.025 -0.0745  1.5028 -1.4184
 1968SOL    HW217538   2.156   2.463   3.026  0.1853  0.4983 -0.6965
 1969SOL     OW17539   1.241   1.671   1.543 -0.4138  0.4633  0.5069
 1969SOL    HW117540   1.298   1.680   1.467  0.8266  0.2099  1.4141
 1969SOL    HW217541   1.309   1.685   1.609  1.5142 -2.4773 -0.8905
 1970SOL     OW17542   1.607   0.897   5.354 -0.0547  0.1434  0.3948
 1970SOL    HW117543   1.642   0.821   5.307  0.9601  1.0939 -0.3868
 1970SOL    HW217544   1.661   0.968   5.318 -1.4641  0.6425 -0.7586
 1971SOL     OW17545   4.411   0.093  16.233  0.3126 -0.5202 -0.2527
 1971SOL    HW117546   4.469   0.141  16.292 -0.4911  0.2036 -0.0438
 1971SOL    HW217547   4.475   0.073  16.165 -1.4854 -1.4855 -1.6444
 1972SOL     OW17548   2.090   2.272  17.705 -0.0227 -0.3169 -0.3514
 1972SOL    HW117549   2.090   2.195   0.022  0.2086 -0.0281  0.0405
 1972SOL    HW217550   2.047   2.237  17.627  2.7251 -1.5914 -1.2881
 1973SOL     OW17551   1.792   0.854   7.809  0.2178 -0.1208 -0.2912
 1973SOL    HW117552   1.749   0.769   7.796 -0.3791  0.1686 -0.2048
 1973SOL    HW217553   1.752   0.878   7.893  2.9184  0.9350  0.6986
 1974SOL     OW17554   2.683   1.034   5.989 -0.0660 -0.3975  0.0482
 1974SOL    HW117555   2.593   1.046   6.019  0.6457  1.1693  1.5789
 1974SOL    HW217556   2.702   0.942   5.970 -0.8400 -0.8238  1.3400
 1975SOL     OW17557   4.717   1.707   4.925 -0.6202  0.1062 -0.1689
 1975SOL    HW117558   4.714   1.615   4.900  1.8202 -0.0171  0.0302
 1975SOL    HW217559   4.664   1.700   5.004  0.0436  1.5732  0.4204
 1976SOL     OW17560   3.811   1.371   8.352 -0.0114  0.5361  0.6391
 1976SOL    HW117561   3.854   1.285   8.344 -0.8353  0.2676 -0.8879
 1976SOL    HW217562   3.724   1.336   8.372 -1.3351  4.1082  0.9494
 1977SOL     OW17563   2.266   2.409   4.235 -0.1729  0.3106  0.3314
 1977SOL    HW117564   2.179   2.445   4.253  0.7935  1.5048  2.4378
 1977SOL    HW217565   2.266   2.338   4.299 -0.7829  0.3353  0.3593
 1978SOL     OW17566   1.321   4.695   2.734 -0.0808 -0.2141  0.1618
 1978SOL    HW117567   1.275   4.656   2.809  1.4713 -1.4804  0.4505
 1978SOL    HW217568   1.341   4.613   2.689  1.6306  1.4877 -2.1657
 1979SOL     OW17569   3.208   0.485   0.677 -0.4633 -0.5395 -0.4036
 1979SOL    HW117570   3.247   0.410   0.631  1.7153 -0.9020  2.0166
 1979SOL    HW217571   3.113   0.485   0.674 -0.4293  2.3775 -1.1321
 1980SOL     OW17572   1.879   4.634   3.461  0.2011 -0.0054  0.0108
 1980SOL    HW117573   1.947   4.666   3.400  1.6824 -1.9762  0.6103
 1980SOL    HW217574   1.828   4.715   3.462  0.3022  0.1258 -2.9620
 1981SOL     OW17575   3.840   1.436   7.043  0.3790 -0.5452  0.1296
 1981SOL    HW117576   3.774   1.404   6.981 -1.0493 -0.1722  1.4719
 1981SOL    HW217577   3.838   1.360   7.101 -0.0813  0.0048  0.8262
 1982SOL     OW17578   1.960   0.983  13.704 -0.2696 -0.7933 -0.1266
 1982SOL    HW117579   2.031   0.967  13.642  0.7253 -1.2203  1.1165
 1982SOL    HW217580   1.924   0.895  13.707 -0.9105 -0.5590 -0.8181
 1983SOL     OW17581   3.304   1.935   4.323 -0.2210 -0.1393  0.4447
 1983SOL    HW117582   3.232   1.910   4.266 -0.3341 -3.4048  2.0325
 1983SOL    HW217583   3.275   1.895   4.404  0.0127 -0.7547  0.2208
 1984SOL     OW17584   4.463   1.900  13.970 -0.5232  0.0411 -0.3809
 1984SOL    HW117585   4.512   1.912  13.888 -0.4716 -0.9333 -0.4957
 1984SOL    HW217586   4.528   1.851  14.021 -2.0989 -0.9796  0.6391
 1985SOL     OW17587   0.562   0.535   9.689  0.3455 -0.0588  0.6704
 1985SOL    HW117588   0.554   0.554   9.782  0.9251 -1.3535  0.9749
 1985SOL    HW217589   0.655   0.531   9.669  0.6360  2.2221  1.5453
 1986SOL     OW17590   3.694   3.971   2.496  0.3453 -0.0179 -0.1433
 1986SOL    HW117591   3.785   3.985   2.523  0.1862 -0.0443  0.4027
 1986SOL    HW217592   3.703   3.992   2.403 -0.2822 -2.1200 -0.6807
 1987SOL     OW17593   2.292   3.934   5.563 -0.8350 -0.2377 -0.1925
 1987SOL    HW117594   2.223   3.891   5.613 -1.4464  1.2378  0.2212
 1987SOL    HW217595   2.236   3.992   5.511  0.7476  0.5531 -1.0218
 1988SOL     OW17596   3.241   1.569   3.664 -0.3032  0.2694  0.4371
 1988SOL    HW117597   3.334   1.568   3.687  0.1079 -2.0084 -1.2585
 1988SOL    HW217598   3.233   1.478   3.633 -3.7196  0.1570  1.5933
 1989SOL     OW17599   1.718   1.407   6.911 -0.2383 -0.5299 -0.2018
 1989SOL    HW117600   1.669   1.381   6.834  0.7466  0.2708 -1.0994
 1989SOL    HW217601   1.801   1.421   6.865 -0.0243  0.4474  0.4688
 1990SOL     OW17602   2.702   3.266   4.732  0.8346  0.7432  0.0468
 1990SOL    HW117603   2.713   3.181   4.690  0.7801  0.6183  0.2903
 1990SOL    HW217604   2.751   3.257   4.814 -0.2717  0.9128  0.7147
 1991SOL     OW17605   1.890   1.035   2.310 -0.0017 -0.3329 -0.0159
 1991SOL    HW117606   1.867   0.981   2.385 -1.1858  0.5819  0.2877
 1991SOL    HW217607   1.905   1.118   2.355  1.5860 -1.1967  1.0254
 1992SOL     OW17608   0.467   3.243   1.721 -0.2068  0.9512  0.0596
 1992SOL    HW117609   0.495   3.222   1.811 -5.1295  0.9778  1.5804
 1992SOL    HW217610   0.529   3.191   1.670  1.7870  1.9326  1.4516
 1993SOL     OW17611   2.618   2.902   0.305  0.0618 -0.2449  0.8997
 1993SOL    HW117612   2.697   2.922   0.256 -1.6375 -0.4668 -1.9088
 1993SOL    HW217613   2.573   2.987   0.298  2.3774  0.9415  0.3872
 1994SOL     OW17614   0.164   2.412   9.061 -0.1654  0.5232  0.0282
 1994SOL    HW117615   0.170   2.427   8.967 -1.1074 -0.5610 -0.2134
 1994SOL    HW217616   0.251   2.395   9.097 -0.1335  0.5435 -0.0398
 1995SOL     OW17617   4.713   4.112   6.455 -0.0126  1.1080  0.0281
 1995SOL    HW117618   4.690   4.191   6.407  2.2070  0.8552 -1.4450
 1995SOL    HW217619   0.073   4.118   6.448  0.1530 -1.8010 -0.4946
 1996SOL     OW17620   2.983   3.135   0.586  0.0917 -0.1527  0.2940
 1996SOL    HW117621   2.935   3.076   0.527  0.8462  0.0516 -0.5237
 1996SOL    HW217622   3.032   3.067   0.631 -1.6352 -1.6889 -0.1504
 1997SOL     OW17623   0.907   3.342   6.936  0.4263  0.5363  0.5488
 1997SOL    HW117624   0.905   3.291   6.855 -1.0768 -2.0590  2.1872
 1997SOL    HW217625   0.932   3.281   7.005  0.5970 -0.4744 -0.3950
 1998SOL     OW17626   1.844   2.720   6.905  0.3278 -0.2156 -0.2583
 1998SOL    HW117627   1.922   2.666   6.896  0.8548  0.4044  0.5898
 1998SOL    HW217628   1.817   2.713   6.996 -1.2037  0.5056 -0.6564
 1999SOL     OW17629   3.113   2.997   2.499 -0.0378  0.0892 -0.6201
 1999SOL    HW117630   3.113   3.068   2.562 -1.5541 -0.8587  0.4539
 1999SOL    HW217631   3.022   2.967   2.499 -0.2882  0.8954  0.8615
 2000SOL     OW17632   0.097   4.674   7.266 -0.3366 -0.1846  0.1351
 2000SOL    HW117633   0.181   4.690   7.309  0.1518  1.0646 -1.2759
 2000SOL    HW217634   0.050   0.019   7.293 -0.1534 -0.1389  0.3123
 2001SOL     OW17635   2.178   4.408  12.814  0.2945 -0.1540  0.0831
 2001SOL    HW117636   2.159   4.394  12.906  0.6329 -0.5040  0.1027
 2001SOL    HW217637   2.118   4.478  12.789 -0.1250 -0.5461 -0.0052
 2002SOL     OW17638   1.244   0.183   8.809  0.2421  0.4422  0.0360
 2002SOL    HW117639   1.259   0.218   8.721  0.4384 -0.9642 -0.5020
 2002SOL    HW217640   1.246   0.091   8.779  0.9928  0.6034 -0.4314
 2003SOL     OW17641   3.030   1.192  13.357  0.3588  0.4633 -0.3287
 2003SOL    HW117642   2.979   1.143  13.421 -0.3746  0.3875 -0.9674
 2003SOL    HW217643   2.985   1.275  13.374 -1.3199 -0.3968 -0.5807
 2004SOL     OW17644   1.618   4.575   4.952 -0.1406 -0.2583  0.6449
 2004SOL    HW117645   1.648   4.513   5.018 -3.4073 -1.3512  1.1034
 2004SOL    HW217646   1.645   4.658   4.991 -3.6683  1.0289  0.3431
 2005SOL     OW17647   0.979   3.777   4.344 -0.0841 -0.0319  0.6475
 2005SOL    HW117648   1.021   3.824   4.417 -0.6585 -0.8755  1.5274
 2005SOL    HW217649   0.918   3.845   4.315  0.3531 -0.4721 -1.2661
 2006SOL     OW17650   4.677   3.051   9.563  0.0188  0.5975  0.2710
 2006SOL    HW117651   4.717   3.023   9.481  2.0803  0.1687  1.4374
 2006SOL    HW217652   4.586   3.025   9.547 -0.4389  0.2117  3.5752
 2007SOL     OW17653   1.140   0.333   4.325 -0.6659 -0.1467  0.0398
 2007SOL    HW117654   1.151   0.396   4.255 -1.0207 -0.9449 -0.7317
 2007SOL    HW217655   1.126   0.400   4.393 -0.0824  0.3548 -0.3400
 2008SOL     OW17656   4.604   0.453  17.062 -0.3815  0.8485  0.1913
 2008SOL    HW117657   4.528   0.400  17.085 -0.4207 -0.0843 -2.1046
 2008SOL    HW217658   4.679   0.400  17.091 -0.2291  1.5139  1.0337
 2009SOL     OW17659   0.136   3.936   8.175  0.1129 -0.0872 -0.3571
 2009SOL    HW117660   0.110   3.997   8.105 -0.6495 -1.7997 -1.5826
 2009SOL    HW217661   0.058   3.946   8.228  1.1398  0.7514  0.9857
 2010SOL     OW17662   0.949   3.645   7.053  0.2124  0.4031 -0.3753
 2010SOL    HW117663   0.965   3.734   7.084  2.0822 -0.4884  1.1736
 2010SOL    HW217664   0.962   3.593   7.132 -0.3862 -0.5455 -0.8928
 2011SOL     OW17665   2.338   3.806   8.991  0.0782  0.2170  0.2637
 2011SOL    HW117666   2.394   3.730   8.977  0.7072  1.2031 -2.5524
 2011SOL    HW217667   2.333   3.848   8.905 -1.3254  0.9897  0.7351
 2012SOL     OW17668   1.069   4.054   2.500  0.4288 -0.2419 -0.1320
 2012SOL    HW117669   1.061   4.123   2.566  1.1666 -0.5374  0.2738
 2012SOL    HW217670   1.006   4.079   2.432 -0.8032  0.7720  1.3862
 2013SOL     OW17671   3.812   3.496  16.766 -0.7794 -0.3391 -0.2346
 2013SOL    HW117672   3.905   3.477  16.779 -0.7128  0.4763  0.4903
 2013SOL    HW217673   3.808   3.591  16.765  0.0703 -0.3056  0.1069
 2014SOL     OW17674   0.648   0.506  12.762 -0.4835  0.0167 -0.2279
 2014SOL    HW117675   0.619   0.477  12.675 -2.0895  1.9701 -0.3574
 2014SOL    HW217676   0.568   0.524  12.811 -0.5771  0.7204 -0.6471
 2015SOL     OW17677   3.101   3.031   6.711 -0.0219 -0.8740  0.4531
 2015SOL    HW117678   3.124   3.074   6.629 -0.9990 -0.3549  0.4522
 2015SOL    HW217679   3.183   2.984   6.721  0.8134  0.6281  0.7630
 2016SOL     OW17680   2.080   0.727   4.251 -0.1392  0.4113  0.0279
 2016SOL    HW117681   2.161   0.710   4.202  1.0409 -0.5028  2.2898
 2016SOL    HW217682   2.027   0.784   4.197  1.4407  2.5102  0.7040
 2017SOL     OW17683   3.528   3.764  17.371 -0.3841  0.0671  0.0559
 2017SOL    HW117684   3.542   3.757  17.465  2.3601  1.0855 -0.2731
 2017SOL    HW217685   3.520   3.673  17.342 -2.2991  0.3464 -0.3256
 2018SOL     OW17686   0.773   1.032  16.544  0.2182  0.0488 -0.2253
 2018SOL    HW117687   0.746   0.946  16.577 -1.8750  0.2722 -1.3456
 2018SOL    HW217688   0.846   1.032  16.605 -1.6686 -1.9568  2.0598
 2019SOL     OW17689   1.872   2.351   3.035 -0.1990  0.3519 -0.1898
 2019SOL    HW117690   1.841   2.441   3.022 -1.1766 -0.1110 -1.0744
 2019SOL    HW217691   1.894   2.357   3.128 -0.4072 -1.2211 -0.0346
 2020SOL     OW17692   3.542   4.566  15.390  0.3419 -0.0338  0.1701
 2020SOL    HW117693   3.479   4.512  15.342 -0.3291  0.9246 -0.0268
 2020SOL    HW217694   3.597   4.605  15.323 -0.9936  1.0192 -0.3201
 2021SOL     OW17695   2.371   0.388   3.761 -0.2506  0.1930  0.4453
 2021SOL    HW117696   2.383   0.433   3.677  1.9750 -0.7346  0.2590
 2021SOL    HW217697   2.316   0.454   3.802  1.8972  2.3372 -0.0914
 2022SOL     OW17698   4.728   4.024   7.629  0.4680  0.0880 -0.1603
 2022SOL    HW117699   4.635   4.033   7.609  0.3154 -1.1182  0.0109
 2022SOL    HW217700   4.731   3.929   7.640  1.5729  0.2508  0.9377
 2023SOL     OW17701   2.699   3.058   1.256  0.8625  0.0670 -0.2893
 2023SOL    HW117702   2.695   3.030   1.348  0.5886  0.6551 -0.1256
 2023SOL    HW217703   2.650   2.994   1.205 -0.2272  1.3695 -0.8730
 2024SOL     OW17704   4.405   0.789  13.903 -0.1436 -0.4086 -0.7258
 2024SOL    HW117705   4.387   0.813  13.812  1.3607  2.1146 -0.3617
 2024SOL    HW217706   4.465   0.717  13.883 -0.7820 -1.1319 -0.0467
 2025SOL     OW17707   3.781   0.940  15.138  0.1572  0.0856 -0.0543
 2025SOL    HW117708   3.764   0.859  15.185  0.9803  0.1007  0.2811
 2025SOL    HW217709   3.726   1.006  15.181 -0.6651  1.3651 -3.1011
 2026SOL     OW17710   2.413   1.424   8.422  0.5589  0.1756 -0.4575
 2026SOL    HW117711   2.363   1.455   8.497 -1.1801  0.4583 -1.7521
 2026SOL    HW217712   2.499   1.421   8.464  0.0018  3.6625  0.9242
 2027SOL     OW17713   0.031   1.991   7.986 -0.1197  0.1367 -0.4033
 2027SOL    HW117714   0.113   2.040   7.994  1.0473 -1.1457 -4.2089
 2027SOL    HW217715   0.042   1.929   8.058 -1.3584  0.0129 -0.3250
 2028SOL     OW17716   0.912   2.439   3.432 -0.2221 -0.0725 -0.8010
 2028SOL    HW117717   1.000   2.444   3.394  1.7427  2.2122  4.1485
 2028SOL    HW217718   0.919   2.351   3.470 -0.1665  0.8652  1.3353
 2029SOL     OW17719   0.341   3.436  14.852  0.1853  0.0752 -0.0953
 2029SOL    HW117720   0.369   3.356  14.809 -1.6832 -0.9944  0.6853
 2029SOL    HW217721   0.255   3.407  14.883  0.4584 -0.6667 -0.0383
 2030SOL     OW17722   0.666   3.234   4.587  0.2732  0.3508 -0.1282
 2030SOL    HW117723   0.717   3.170   4.637  1.4197  1.0926 -0.3544
 2030SOL    HW217724   0.583   3.189   4.571  0.6988 -0.2716 -0.6184
 2031SOL     OW17725   1.635   1.597   4.525 -1.0527  0.0695  0.5670
 2031SOL    HW117726   1.651   1.515   4.479  0.9062  0.1799  1.0433
 2031SOL    HW217727   1.543   1.583   4.546 -1.5031 -1.1576 -2.2683
 2032SOL     OW17728   2.307   0.923   1.307 -0.4585  0.0731 -0.4899
 2032SOL    HW117729   2.315   0.938   1.401  2.3371  1.0202 -0.8725
 2032SOL    HW217730   2.271   0.835   1.294 -1.8951  0.3655  1.5550
 2033SOL     OW17731   2.628   0.153   4.299  0.0879 -0.0117  0.3580
 2033SOL    HW117732   2.673   0.081   4.343 -1.7685 -2.0895 -1.1126
 2033SOL    HW217733   2.548   0.107   4.273  1.0083 -1.1275 -0.5222
 2034SOL     OW17734   4.498   4.435  13.369 -0.6605 -0.2354  0.3103
 2034SOL    HW117735   4.485   4.527  13.348  1.2730 -0.1000 -0.2055
 2034SOL    HW217736   4.568   4.448  13.433  2.8429 -2.3905 -3.0959
 2035SOL     OW17737   0.371   1.338  13.297 -0.1378 -0.4278 -0.3525
 2035SOL    HW117738   0.408   1.268  13.352  1.5585  0.0848 -0.8608
 2035SOL    HW217739   0.456   1.379  13.280 -0.2182  0.2059  0.7782
 2036SOL     OW17740   3.452   2.833   6.453 -0.2940  0.6983 -0.1350
 2036SOL    HW117741   3.433   2.748   6.491 -1.9772  0.7496 -0.8767
 2036SOL    HW217742   3.540   2.862   6.480 -0.2666  1.4413 -0.9937
 2037SOL     OW17743   2.262   3.942   7.912  0.2748 -0.1737 -0.0124
 2037SOL    HW117744   2.269   3.933   7.817 -1.4887 -0.9489 -0.0854
 2037SOL    HW217745   2.354   3.934   7.937  0.0861 -0.4234  0.5887
 2038SOL     OW17746   1.303   0.856   9.885  0.4408 -0.1052  0.0068
 2038SOL    HW117747   1.284   0.922   9.818 -0.4413 -0.4425 -0.0678
 2038SOL    HW217748   1.296   0.915   9.960 -0.2081 -1.9983  1.4094
 2039SOL     OW17749   2.347   3.377   6.034 -0.1814 -0.4762  0.6536
 2039SOL    HW117750   2.404   3.440   6.078  1.3509 -1.5816  0.2485
 2039SOL    HW217751   2.266   3.428   6.036  0.6191  0.8721 -1.0568
 2040SOL     OW17752   2.983   4.280   4.042  0.7900  0.5655 -0.0296
 2040SOL    HW117753   3.015   4.216   4.106 -0.4448  0.3573  0.3753
 2040SOL    HW217754   2.975   4.359   4.096  0.5007 -0.3797  1.3044
 2041SOL     OW17755   2.745   3.659  15.196 -0.0459  0.0949 -0.3355
 2041SOL    HW117756   2.828   3.660  15.244 -0.6819  0.6976  0.7450
 2041SOL    HW217757   2.774   3.676  15.106  2.7080 -1.7680  0.2199
 2042SOL     OW17758   1.646   0.643   7.788 -0.1587 -0.3933 -0.3171
 2042SOL    HW117759   1.645   0.550   7.813 -0.3072 -0.2230  0.3107
 2042SOL    HW217760   1.621   0.640   7.696 -0.8026  0.9787 -0.1818
 2043SOL     OW17761   0.747   1.108   5.295  0.2838 -0.6018 -0.0168
 2043SOL    HW117762   0.725   1.186   5.346  0.5442 -1.4738  1.4451
 2043SOL    HW217763   0.657   1.086   5.271 -0.7729  3.0065  0.7037
 2044SOL     OW17764   1.164   4.585   9.027  0.9414  0.1187  0.1019
 2044SOL    HW117765   1.126   4.515   9.079  2.0082 -0.8971 -0.4987
 2044SOL    HW217766   1.092   4.596   8.964  0.4032 -1.2411  0.4823
 2045SOL     OW17767   0.421   4.008   1.610 -0.3611 -0.6530 -0.2615
 2045SOL    HW117768   0.421   3.916   1.636  1.8445 -0.1584  1.4561
 2045SOL    HW217769   0.403   4.041   1.698  2.8228 -2.6647  1.1525
 2046SOL     OW17770   0.778   2.337   3.162  0.7568 -0.7190  0.3091
 2046SOL    HW117771   0.840   2.402   3.129  2.0823 -1.1227  1.9861
 2046SOL    HW217772   0.791   2.340   3.257 -0.9157  4.4961  0.3812
 2047SOL     OW17773   4.702   0.274  16.052  0.0452  0.6798  0.6688
 2047SOL    HW117774   4.637   0.312  15.994 -0.6410 -1.5723 -0.0347
 2047SOL    HW217775   4.654   0.195  16.075  1.7153  0.5734  3.9437
 2048SOL     OW17776   2.212   2.962   2.997 -0.6025  0.0862  0.4535
 2048SOL    HW117777   2.245   2.879   2.962 -0.7283  0.0913  0.3211
 2048SOL    HW217778   2.188   3.011   2.918 -0.3409  0.3113  0.5130
 2049SOL     OW17779   2.851   4.103  16.758  0.4128  0.0893  0.1575
 2049SOL    HW117780   2.934   4.079  16.800 -0.5127 -3.0623  0.1389
 2049SOL    HW217781   2.809   4.017  16.755  1.0748 -0.2291 -0.1782
 2050SOL     OW17782   1.613   2.437   6.154 -0.1968 -0.0378 -0.3753
 2050SOL    HW117783   1.547   2.437   6.224  0.2484  3.4303  0.0308
 2050SOL    HW217784   1.655   2.351   6.155  0.8851  0.5051  1.3573
 2051SOL     OW17785   2.875   2.800   4.919 -0.3334 -0.3543  0.0586
 2051SOL    HW117786   2.912   2.763   4.999  0.1754  0.6410  0.2758
 2051SOL    HW217787   2.937   2.863   4.882  0.7736 -1.1247  0.5885
 2052SOL     OW17788   3.506   2.140   4.523 -0.0165 -0.1807 -0.3575
 2052SOL    HW117789   3.431   2.140   4.582  0.8743 -0.8593  0.7994
 2052SOL    HW217790   3.576   2.103   4.578 -0.6328 -1.1343 -0.2052
 2053SOL     OW17791   4.257   1.098   6.171 -0.1607 -0.1086  0.2088
 2053SOL    HW117792   4.266   1.160   6.243  0.0668  0.1408 -0.0315
 2053SOL    HW217793   4.338   1.124   6.127 -0.6619 -2.4734 -2.0992
 2054SOL     OW17794   3.649   0.222  17.620  0.0086  0.3140 -0.2098
 2054SOL    HW117795   3.599   0.195  17.543 -1.6223  0.0851  0.9366
 2054SOL    HW217796   3.733   0.186  17.592 -0.0568 -1.3995  1.7837
 2055SOL     OW17797   0.461   4.074   1.878 -0.2787  0.1539 -0.0721
 2055SOL    HW117798   0.462   4.155   1.930 -0.8699 -1.1709  2.0017
 2055SOL    HW217799   0.493   4.015   1.946 -2.2634  1.0358  1.6152
 2056SOL     OW17800   3.169   4.722   5.701  0.1870  0.0899  0.1753
 2056SOL    HW117801   3.125   0.070   5.722  0.7599  0.4074  0.1273
 2056SOL    HW217802   3.130   4.669   5.771 -0.3902  0.1427 -0.1050
 2057SOL     OW17803   1.302   0.707   7.258 -0.1422  0.7345  0.0727
 2057SOL    HW117804   1.323   0.617   7.233  0.2053  0.8175  0.0650
 2057SOL    HW217805   1.214   0.718   7.223 -1.2031 -0.9207  2.2196
 2058SOL     OW17806   3.896   3.903   3.706  0.9036  0.2184 -0.1299
 2058SOL    HW117807   3.969   3.964   3.706 -1.1890  2.7309 -1.0421
 2058SOL    HW217808   3.828   3.945   3.759  1.4021 -2.6418  2.8250
 2059SOL     OW17809   0.256   2.631   6.789  0.0133  0.2373  0.5152
 2059SOL    HW117810   0.220   2.657   6.704 -3.4513 -0.3210  1.8071
 2059SOL    HW217811   0.263   2.720   6.823  0.5324  0.6158 -0.5587
 2060SOL     OW17812   0.564   4.333   2.935 -0.1804 -0.4520 -0.3547
 2060SOL    HW117813   0.651   4.310   2.903 -0.5975 -3.0422  0.3926
 2060SOL    HW217814   0.538   4.416   2.894 -1.3425 -1.4326 -1.6133
 2061SOL     OW17815   0.539   3.601   3.199 -0.4673  0.2325  0.2746
 2061SOL    HW117816   0.500   3.660   3.265 -1.7175 -0.1273 -0.1475
 2061SOL    HW217817   0.610   3.663   3.184 -0.0168 -0.3675 -0.0283
 2062SOL     OW17818   0.982   2.398   5.375 -0.2180  0.4123 -0.1515
 2062SOL    HW117819   0.953   2.414   5.465  0.9192 -0.3440  0.3463
 2062SOL    HW217820   1.057   2.457   5.367  0.8767 -1.0755 -0.8476
 2063SOL     OW17821   0.760   0.682   4.363  0.6379  0.2247  0.1443
 2063SOL    HW117822   0.799   0.642   4.285  0.6760 -0.5886  0.5822
 2063SOL    HW217823   0.746   0.598   4.406  1.9043 -0.3680 -0.6020
 2064SOL     OW17824   2.334   0.150   2.694  0.1922 -0.2399  0.6132
 2064SOL    HW117825   2.296   0.212   2.632  0.3345 -0.4536  0.3146
 2064SOL    HW217826   2.276   0.074   2.699  1.4693 -1.2650  0.0430
 2065SOL     OW17827   3.430   3.229   4.614 -0.1419  0.3104  0.2194
 2065SOL    HW117828   3.351   3.266   4.653 -0.7329 -0.4744 -0.2242
 2065SOL    HW217829   3.440   3.143   4.656  2.8254  0.7204  0.3444
 2066SOL     OW17830   4.705   1.159   9.476 -0.4143  0.6604 -0.2353
 2066SOL    HW117831   4.669   1.078   9.438  0.9421 -0.8648  1.7114
 2066SOL    HW217832   4.664   1.162   9.563  2.0603  0.8021  0.9379
 2067SOL     OW17833   2.751   2.024  17.732 -0.0874  0.5351 -0.3254
 2067SOL    HW117834   2.713   1.977   0.067 -2.2825  0.5127 -1.4533
 2067SOL    HW217835   2.669   2.043  17.685 -0.3559 -1.3601 -0.6654
 2068SOL     OW17836   3.283   2.243   3.335  0.1857  0.0414  0.0322
 2068SOL    HW117837   3.375   2.219   3.343 -0.0499  0.1761  3.3126
 2068SOL    HW217838   3.238   2.163   3.308  0.8126 -0.4038  0.3303
 2069SOL     OW17839   3.474   2.292   2.039 -0.3453 -0.0582  0.1706
 2069SOL    HW117840   3.456   2.247   1.957 -1.4115  0.0624  0.3333
 2069SOL    HW217841   3.475   2.383   2.011 -1.2507  0.1707  0.8876
 2070SOL     OW17842   3.071   0.240   3.061 -0.0487 -0.5811  0.1285
 2070SOL    HW117843   3.091   0.155   3.102  0.9175 -0.2830  0.2694
 2070SOL    HW217844   3.144   0.260   3.003 -0.3384 -0.0328 -0.0362
 2071SOL     OW17845   4.659   0.396  10.378  0.0920 -0.1612  0.1021
 2071SOL    HW117846   4.633   0.449  10.453 -0.8063 -0.9047  0.3268
 2071SOL    HW217847   4.619   0.312  10.402  0.7368 -0.3498  0.5029
 2072SOL     OW17848   4.103   1.611   3.288  0.4264  0.2815 -0.1923
 2072SOL    HW117849   4.053   1.550   3.234 -0.0538  1.5827 -1.2011
 2072SOL    HW217850   4.083   1.557   3.364 -1.4497 -0.2342 -1.0583
 2073SOL     OW17851   3.198   3.205   1.986  0.9695 -0.2613 -0.2094
 2073SOL    HW117852   3.192   3.122   1.938  1.8159 -0.2286 -0.3808
 2073SOL    HW217853   3.118   3.245   1.953  0.2099 -1.9770 -0.4888
 2074SOL     OW17854   0.904   2.935   4.981 -0.7324  0.1609  0.4685
 2074SOL    HW117855   0.899   2.871   5.052  0.5221 -1.2307 -0.7009
 2074SOL    HW217856   0.998   2.931   4.968 -0.9687 -0.4826 -1.0124
 2075SOL     OW17857   0.138   4.438   7.933  0.0791 -0.1621 -0.3433
 2075SOL    HW117858   0.129   4.375   7.861 -0.5636 -0.9144  0.3825
 2075SOL    HW217859   0.205   4.495   7.895 -0.8094  2.1939  1.6265
 2076SOL     OW17860   4.660   2.837   3.828  0.1452  0.7296  0.3578
 2076SOL    HW117861   0.017   2.827   3.806 -0.2204 -0.5354 -0.6127
 2076SOL    HW217862   4.645   2.747   3.858  1.6664  1.2068  2.5327
 2077SOL     OW17863   1.290   0.368   5.346  0.4436  0.8555 -0.6037
 2077SOL    HW117864   1.207   0.376   5.393  0.6583 -1.0698  0.0976
 2077SOL    HW217865   1.357   0.347   5.411 -0.1824  0.0927 -0.1974
 2078SOL     OW17866   3.340   4.407  15.030  0.1134 -0.2781 -0.4140
 2078SOL    HW117867   3.312   4.367  14.948 -1.8693 -1.2628  0.7588
 2078SOL    HW217868   3.388   4.481  14.992 -0.4789  0.7726  0.8482
 2079SOL     OW17869   2.118   0.315  16.974 -0.2178  0.4044  0.5831
 2079SOL    HW117870   2.137   0.268  16.893  0.7837  0.1180  0.9770
 2079SOL    HW217871   2.077   0.393  16.938 -0.6266  0.6551  1.5860
 2080SOL     OW17872   0.079   1.177   3.666  0.0410  0.1143  0.2688
 2080SOL    HW117873   0.162   1.181   3.618 -0.7013 -1.4432 -1.1521
 2080SOL    HW217874   0.015   1.187   3.595  2.9437  0.4984 -2.2710
 2081SOL     OW17875   3.585   2.205   8.166 -0.0143  0.4529 -0.7381
 2081SOL    HW117876   3.635   2.218   8.247 -0.0167  1.0635 -0.8386
 2081SOL    HW217877   3.637   2.257   8.104  0.9391  0.6255  0.2083
 2082SOL     OW17878   3.474   1.285   7.255  0.3664 -0.7375 -0.4111
 2082SOL    HW117879   3.420   1.316   7.327  0.2663  1.5730 -1.4856
 2082SOL    HW217880   3.533   1.360   7.260 -0.3074 -0.3071  0.8284
 2083SOL     OW17881   1.756   3.470  10.505  0.2357 -0.2083  0.1439
 2083SOL    HW117882   1.672   3.516  10.508  0.6291  0.4414  1.7130
 2083SOL    HW217883   1.790   3.517  10.429 -0.1527 -0.2088 -0.0298
 2084SOL     OW17884   1.386   0.089   5.201 -0.2012  0.4207 -0.6405
 2084SOL    HW117885   1.339   0.155   5.253 -0.9942  1.1145 -2.2618
 2084SOL    HW217886   1.340   0.009   5.225  1.8757 -0.1408  1.5296
 2085SOL     OW17887   0.190   2.186   1.789 -0.0537 -0.2680 -0.0012
 2085SOL    HW117888   0.228   2.273   1.776 -0.6685 -0.2573 -1.6897
 2085SOL    HW217889   0.182   2.145   1.703  0.0417  1.9185 -1.0603
 2086SOL     OW17890   0.104   0.839  15.053  0.0972 -0.1928  0.0450
 2086SOL    HW117891   0.196   0.865  15.060 -0.1262  0.9655 -1.3796
 2086SOL    HW217892   0.105   0.763  14.996  1.0459 -0.6945  0.7289
 2087SOL     OW17893   3.910   4.539   9.776  0.1140 -0.0748 -0.1145
 2087SOL    HW117894   3.895   4.473   9.844  0.3084  1.7826  1.7454
 2087SOL    HW217895   3.997   4.576   9.788  0.8449 -1.5070 -1.1012
 2088SOL     OW17896   0.186   4.384   3.930 -0.5258  0.4877 -0.2807
 2088SOL    HW117897   0.195   4.428   3.846 -0.1830 -2.0135 -1.5503
 2088SOL    HW217898   0.162   4.295   3.905  0.7037 -0.3228  1.3790
 2089SOL     OW17899   1.083   4.118   3.806 -0.5924  0.6086  0.4043
 2089SOL    HW117900   1.025   4.095   3.878 -1.9448  1.3586 -0.4461
 2089SOL    HW217901   1.156   4.157   3.855  1.3425  0.2218 -2.1782
 2090SOL     OW17902   4.107   2.340   3.259 -0.1080 -0.3686  0.2684
 2090SOL    HW117903   4.116   2.341   3.355 -0.9064  1.2942  0.3111
 2090SOL    HW217904   4.033   2.282   3.242  1.0457 -1.7678 -0.0839
 2091SOL     OW17905   4.211   3.939   4.831  0.6453 -0.1980  0.4992
 2091SOL    HW117906   4.134   3.890   4.859 -0.7526  1.6573 -0.1344
 2091SOL    HW217907   4.202   3.924   4.737 -2.4611 -1.4070  0.9846
 2092SOL     OW17908   1.448   0.227   2.770  0.1108 -0.0166 -0.5660
 2092SOL    HW117909   1.369   0.277   2.748  0.7878  1.6150  0.6651
 2092SOL    HW217910   1.422   0.135   2.766  2.2712 -0.6132 -0.8913
 2093SOL     OW17911   0.612   1.256   0.332 -0.5962 -0.3350 -0.9533
 2093SOL    HW117912   0.532   1.222   0.372 -0.1449 -0.7606 -0.4211
 2093SOL    HW217913   0.665   1.176   0.331  0.8877  0.6118  2.2257
 2094SOL     OW17914   2.039   0.201   2.944 -0.1272  0.2312  0.0864
 2094SOL    HW117915   2.074   0.205   3.033 -0.9985 -0.9873  0.4864
 2094SOL    HW217916   2.116   0.204   2.887 -1.5298 -3.2585 -1.9675
 2095SOL     OW17917   1.609   3.936   9.179  0.0276  0.0892  0.0088
 2095SOL    HW117918   1.697   3.913   9.148 -1.0711 -4.2697  0.1159
 2095SOL    HW217919   1.625   4.020   9.222 -0.3280  0.0691  0.1770
 2096SOL     OW17920   1.429   0.197  13.031 -0.2674 -0.0357  0.0996
 2096SOL    HW117921   1.510   0.245  13.045 -2.0258  2.1068  2.7980
 2096SOL    HW217922   1.398   0.177  13.119 -0.4157  1.4257  0.3753
 2097SOL     OW17923   3.146   0.080  10.356 -0.3300 -0.1857  0.4988
 2097SOL    HW117924   3.218   0.085  10.293 -0.1371 -0.6711  0.6804
 2097SOL    HW217925   3.174   0.145  10.420  1.8273  0.6193 -1.2498
 2098SOL     OW17926   0.743   0.471   4.174 -0.2593 -0.2126  0.2843
 2098SOL    HW117927   0.792   0.454   4.094 -0.8388  0.6862 -0.2472
 2098SOL    HW217928   0.686   0.394   4.177  1.5666 -1.5974 -0.5287
 2099SOL     OW17929   3.012   3.017   8.174 -0.2695 -0.2379 -0.5637
 2099SOL    HW117930   2.942   2.963   8.140 -0.2229  0.9143 -2.4922
 2099SOL    HW217931   3.034   3.075   8.100 -0.6095 -1.4816 -1.6321
 2100SOL     OW17932   3.487   2.857   5.491  0.2096  0.2619 -0.3345
 2100SOL    HW117933   3.428   2.790   5.459 -0.3812  0.8854 -0.5485
 2100SOL    HW217934   3.558   2.797   5.515  0.1976 -0.4451 -2.0531
 2101SOL     OW17935   3.028   0.636   6.873 -0.3173 -0.4762  0.1427
 2101SOL    HW117936   3.046   0.727   6.896 -1.7160 -0.7634  2.4094
 2101SOL    HW217937   2.942   0.642   6.832 -0.1188 -0.9663 -0.3483
 2102SOL     OW17938   4.602   3.876  17.445  0.4538 -0.0814  0.0920
 2102SOL    HW117939   4.592   3.781  17.459 -0.8050  0.4728  3.0662
 2102SOL    HW217940   4.644   3.904  17.526  0.6766  0.6200 -0.2694
 2103SOL     OW17941   3.865   0.999   5.760  0.1357  0.7135 -0.0686
 2103SOL    HW117942   3.887   0.909   5.735  0.0680  0.2637  1.4847
 2103SOL    HW217943   3.769   0.995   5.765  0.3264 -0.2345  2.9585
 2104SOL     OW17944   1.519   2.230  15.243  0.3108  0.5035  0.0916
 2104SOL    HW117945   1.509   2.287  15.167 -0.5658  2.3352  1.5885
 2104SOL    HW217946   1.552   2.152  15.199 -0.0836 -0.0068  0.6954
 2105SOL     OW17947   3.172   0.910   7.978  0.3795 -0.1116 -0.2062
 2105SOL    HW117948   3.089   0.953   8.002  0.7521  0.5609 -0.1219
 2105SOL    HW217949   3.138   0.848   7.915 -3.0434  0.6924  0.8131
 2106SOL     OW17950   4.686   0.231   5.194  0.0034 -0.0531 -0.2563
 2106SOL    HW117951   4.725   0.250   5.109  1.2779 -0.1821  0.3035
 2106SOL    HW217952   4.714   0.145   5.225  1.4243  0.5658  0.1516
 2107SOL     OW17953   0.381   4.512  11.365  0.8385 -0.3459 -0.0719
 2107SOL    HW117954   0.416   4.499  11.277 -0.3212 -2.5319 -0.2139
 2107SOL    HW217955   0.457   4.489  11.417  0.1951 -0.8013  0.6680
 2108SOL     OW17956   0.417   1.665   7.646 -0.8556 -0.3170 -0.2210
 2108SOL    HW117957   0.411   1.708   7.732  2.3524  1.4583 -0.9173
 2108SOL    HW217958   0.436   1.740   7.590 -3.7091  1.1059  0.7112
 2109SOL     OW17959   1.454   0.404   4.779 -0.6437 -0.9501  0.3596
 2109SOL    HW117960   1.463   0.411   4.684 -2.0026 -1.7137  0.1736
 2109SOL    HW217961   1.364   0.374   4.784 -0.6779 -1.1902 -1.6869
 2110SOL     OW17962   3.628   0.044  12.014  0.6450  0.0552 -0.6995
 2110SOL    HW117963   3.696   0.112  12.017 -1.5631  2.2382  0.7308
 2110SOL    HW217964   3.574   0.064  12.090  1.9222  1.1565 -0.0837
 2111SOL     OW17965   1.666   2.464  14.789 -0.2578 -0.6578  0.1697
 2111SOL    HW117966   1.721   2.523  14.841 -3.6432  2.2744  0.4193
 2111SOL    HW217967   1.632   2.404  14.855  0.2348 -1.6581 -0.4824
 2112SOL     OW17968   3.307   4.431   3.198 -0.1995 -0.1188 -0.2092
 2112SOL    HW117969   3.262   4.356   3.159 -1.1428 -0.2803  1.2061
 2112SOL    HW217970   3.290   4.421   3.292 -2.3469 -1.0763 -0.6810
 2113SOL     OW17971   0.322   2.199   8.452  0.1753  0.4888 -0.3813
 2113SOL    HW117972   0.311   2.111   8.415 -0.9234  1.1140 -1.5500
 2113SOL    HW217973   0.228   2.215   8.462 -0.1086 -1.4186  0.0031
 2114SOL     OW17974   4.343   1.690   7.639  0.1445 -0.2571  0.7183
 2114SOL    HW117975   4.377   1.736   7.716  0.9971 -2.9081  1.9414
 2114SOL    HW217976   4.305   1.759   7.585  0.5296 -1.2112 -0.7743
 2115SOL     OW17977   2.280   0.449   6.243  0.6364 -0.3189 -0.0066
 2115SOL    HW117978   2.238   0.513   6.185  1.6998  0.7952  0.4484
 2115SOL    HW217979   2.360   0.495   6.268  0.8016 -0.9636  0.6388
 2116SOL     OW17980   2.825   3.916   8.254 -0.2152 -0.1388  0.0869
 2116SOL    HW117981   2.866   3.934   8.339  2.2181  0.0703 -1.1470
 2116SOL    HW217982   2.770   3.994   8.265  1.7206  1.0563  1.3738
 2117SOL     OW17983   1.470   0.588   5.689  0.6467 -0.3970  0.5096
 2117SOL    HW117984   1.451   0.643   5.613  2.8278  1.0488  1.0370
 2117SOL    HW217985   1.490   0.508   5.641  1.2553  0.1693 -0.1676
 2118SOL     OW17986   0.881   0.182   6.067  0.4447  0.7018  0.7830
 2118SOL    HW117987   0.939   0.129   6.012  0.1003  1.7753 -0.6187
 2118SOL    HW217988   0.939   0.224   6.131  0.9883  0.5511  0.3946
 2119SOL     OW17989   2.887   1.665   7.239 -0.2734 -0.0315 -0.1313
 2119SOL    HW117990   2.869   1.727   7.168  1.7440  0.4103 -0.2668
 2119SOL    HW217991   2.874   1.727   7.311 -2.4200 -0.8536  0.1941
 2120SOL     OW17992   2.020   1.652   4.161 -0.7746  0.3212 -0.3982
 2120SOL    HW117993   1.966   1.619   4.089  1.7300 -0.4441 -1.9185
 2120SOL    HW217994   2.025   1.746   4.147  2.0039  0.2112 -0.0558
 2121SOL     OW17995   1.319   1.800   4.413 -0.0814 -0.2675  0.2639
 2121SOL    HW117996   1.261   1.838   4.347 -0.8186  0.1840  1.1812
 2121SOL    HW217997   1.388   1.867   4.419  0.4968 -1.0645  2.4121
 2122SOL     OW17998   3.177   2.195   6.180  0.1402  0.3843 -0.2937
 2122SOL    HW117999   3.234   2.248   6.125 -2.0808 -0.3680 -3.3331
 2122SOL    HW218000   3.241   2.161   6.243  0.5790  3.2091  0.7866
 2123SOL     OW18001   3.058   3.646   3.809 -0.0898 -0.5820 -0.3156
 2123SOL    HW118002   2.981   3.697   3.835  0.6949 -0.9550  2.7651
 2123SOL    HW218003   3.010   3.582   3.757 -2.2980  0.8686 -0.0581
 2124SOL     OW18004   0.893   2.672  11.224 -0.2401 -0.4735 -0.6999
 2124SOL    HW118005   0.946   2.745  11.194 -1.1771  0.7774  0.6701
 2124SOL    HW218006   0.964   2.612  11.248  0.3122  0.6050  0.3436
 2125SOL     OW18007   1.671   1.708   5.903  0.1790  0.8286 -0.2125
 2125SOL    HW118008   1.659   1.665   5.988  2.1923 -1.3577 -1.0192
 2125SOL    HW218009   1.759   1.743   5.915  0.1192  0.5459  1.0726
 2126SOL     OW18010   0.540   0.109   6.798  0.3336 -0.0444  0.0466
 2126SOL    HW118011   0.493   0.149   6.725  0.5338 -0.3351 -0.2420
 2126SOL    HW218012   0.542   0.191   6.847  1.7450  0.7505 -1.3522
 2127SOL     OW18013   3.446   0.726   5.607 -0.2425  0.1370  0.2212
 2127SOL    HW118014   3.423   0.678   5.528 -0.0800 -1.1714  0.9582
 2127SOL    HW218015   3.425   0.815   5.581  0.9675 -0.6379 -3.3720
 2128SOL     OW18016   3.581   4.249  17.196 -0.4418 -0.4899  0.0991
 2128SOL    HW118017   3.596   4.155  17.201 -0.0713 -0.3429  1.8332
 2128SOL    HW218018   3.564   4.256  17.102  0.6301  1.1508  0.0180
 2129SOL     OW18019   2.987   2.462  11.246  0.0198 -0.2745 -0.2935
 2129SOL    HW118020   3.029   2.480  11.162 -1.2927 -2.5939 -1.4400
 2129SOL    HW218021   3.048   2.509  11.304 -2.0456  0.3890  1.3578
 2130SOL     OW18022   3.056   2.277   7.856 -0.0265 -0.0404 -0.1921
 2130SOL    HW118023   3.058   2.186   7.824 -0.7759  0.0292 -0.4443
 2130SOL    HW218024   3.144   2.276   7.894 -1.4639  1.3092  3.1190
 2131SOL     OW18025   3.834   3.855   6.540  0.6829  0.4416 -0.3225
 2131SOL    HW118026   3.768   3.923   6.525  0.3528  0.4743  1.2692
 2131SOL    HW218027   3.888   3.890   6.610 -0.2371 -1.8391  1.5419
 2132SOL     OW18028   2.927   3.193   3.207  0.7351  0.6752 -0.5943
 2132SOL    HW118029   3.021   3.178   3.220  0.3930 -1.1331 -0.3058
 2132SOL    HW218030   2.894   3.218   3.294 -0.3933  0.2252 -0.9008
 2133SOL     OW18031   0.004   2.908  16.588 -0.2735  0.2276 -0.0470
 2133SOL    HW118032   4.691   2.974  16.538  0.2085  1.1077  0.6564
 2133SOL    HW218033   0.091   2.893  16.551 -0.1402 -0.2511  0.4624
 2134SOL     OW18034   3.638   3.607   6.650  0.1505  0.1273  0.2191
 2134SOL    HW118035   3.730   3.630   6.663 -0.3955  3.0196 -0.9623
 2134SOL    HW218036   3.642   3.546   6.577 -2.0403 -0.5852  0.6984
 2135SOL     OW18037   1.655   4.480   8.788 -0.2790  0.0419  0.6675
 2135SOL    HW118038   1.631   4.529   8.867 -0.0725  1.3687 -0.0983
 2135SOL    HW218039   1.581   4.504   8.732  0.6503 -0.3894 -0.7532
 2136SOL     OW18040   4.054   3.337  13.718 -0.3923 -0.2185  0.0016
 2136SOL    HW118041   4.110   3.304  13.788  0.2480 -0.8595 -0.8027
 2136SOL    HW218042   4.034   3.255  13.674  1.2904  1.0580 -3.1745
 2137SOL     OW18043   0.700   0.356   5.993  0.5677  0.1903 -0.0219
 2137SOL    HW118044   0.756   0.289   6.032  0.2262 -0.4661 -0.6390
 2137SOL    HW218045   0.740   0.364   5.906  0.9818  1.6344  0.3112
 2138SOL     OW18046   1.197   2.169   7.285  0.2562  0.7553 -0.1236
 2138SOL    HW118047   1.206   2.074   7.285 -2.0474  0.5273 -1.7821
 2138SOL    HW218048   1.176   2.183   7.192 -0.2975 -2.2506 -0.4487
 2139SOL     OW18049   0.941   2.317  17.589  0.1285  0.6485 -0.2488
 2139SOL    HW118050   0.872   2.376  17.618 -0.0259  0.1311  0.4235
 2139SOL    HW218051   0.993   2.374  17.531  1.0891 -0.4022 -0.4288
 2140SOL     OW18052   2.000   3.567   3.661  0.6547 -0.3363 -0.1481
 2140SOL    HW118053   1.977   3.619   3.584  0.3801 -0.1562  0.0532
 2140SOL    HW218054   1.929   3.503   3.660 -1.1386  1.6528 -2.8423
 2141SOL     OW18055   1.724   4.254   5.391  0.0807  0.7022  0.0385
 2141SOL    HW118056   1.734   4.300   5.307 -0.8977 -1.5114 -1.3132
 2141SOL    HW218057   1.777   4.321   5.434  0.7344  1.0139 -1.2308
 2142SOL     OW18058   2.876   1.901   7.456 -0.4853 -0.3130  0.2800
 2142SOL    HW118059   2.918   1.981   7.426 -0.0710 -0.6589 -0.0472
 2142SOL    HW218060   2.787   1.912   7.423 -0.7624 -0.2335  1.0428
 2143SOL     OW18061   1.708   1.903   8.234 -0.5897  0.2608 -0.2201
 2143SOL    HW118062   1.682   1.816   8.264 -1.9613  0.0995 -1.8604
 2143SOL    HW218063   1.624   1.931   8.196 -0.5641 -0.3682 -0.7321
 2144SOL     OW18064   0.624   2.630   4.998  0.5603 -0.3111 -0.3773
 2144SOL    HW118065   0.614   2.724   5.011  0.0380 -0.5748  1.1589
 2144SOL    HW218066   0.701   2.617   4.943  1.3168 -2.1137  1.1199
 2145SOL     OW18067   2.667   2.445   4.986 -0.1603  0.2554  1.0460
 2145SOL    HW118068   2.634   2.360   5.013  1.3971 -1.6592 -3.0744
 2145SOL    HW218069   2.759   2.421   5.000 -0.7503 -2.1983  0.6186
 2146SOL     OW18070   3.875   0.703  13.886  0.0254 -0.4169 -0.2094
 2146SOL    HW118071   3.916   0.707  13.800  1.9305  0.3388  0.7457
 2146SOL    HW218072   3.948   0.656  13.926  1.3439  0.9593 -1.0087
 2147SOL     OW18073   4.371   0.031   9.631 -0.5493 -0.7181 -0.0518
 2147SOL    HW118074   4.463   0.033   9.658 -0.2175  2.2493 -1.4019
 2147SOL    HW218075   4.326   0.108   9.666  1.1594  0.2588 -0.0041
 2148SOL     OW18076   1.876   1.275   8.572  0.1531  0.0727  0.2212
 2148SOL    HW118077   1.817   1.303   8.503  0.8208 -1.0024 -0.7841
 2148SOL    HW218078   1.957   1.297   8.526 -0.0925 -2.0745 -1.2045
 2149SOL     OW18079   4.557   4.725   7.680 -0.3972 -0.1496 -0.4893
 2149SOL    HW118080   4.580   0.008   7.771 -1.1135 -1.9088  0.0370
 2149SOL    HW218081   4.623   4.660   7.653 -1.3130 -2.0854  1.9379
 2150SOL     OW18082   2.885   3.116   8.982  0.6269 -0.3340 -0.4684
 2150SOL    HW118083   2.942   3.127   8.906  3.9404 -1.7816  1.8280
 2150SOL    HW218084   2.813   3.067   8.941 -0.0177 -0.1220  0.3954
 2151SOL     OW18085   1.029   4.522   6.495  0.1413 -0.5750 -0.2814
 2151SOL    HW118086   1.021   4.442   6.443  0.1843 -1.2714  0.8018
 2151SOL    HW218087   1.122   4.543   6.482  0.3207  0.1930  2.2270
 2152SOL     OW18088   1.875   1.892  17.716 -0.7087 -0.2060 -0.0573
 2152SOL    HW118089   1.830   1.835   0.039  0.7833 -1.9564 -0.5762
 2152SOL    HW218090   1.889   1.831  17.644 -0.2644 -0.2787  0.0906
 2153SOL     OW18091   0.905   2.969   9.458  0.1599 -0.9638 -0.5604
 2153SOL    HW118092   0.949   2.959   9.543  0.3860  1.5135 -0.3748
 2153SOL    HW218093   0.848   3.044   9.471 -1.2197 -2.1823  0.3462
 2154SOL     OW18094   1.673   3.080  15.095  0.5884  0.3808  0.0598
 2154SOL    HW118095   1.723   3.133  15.034 -0.1757  1.1027  0.0620
 2154SOL    HW218096   1.615   3.036  15.032  0.7681 -2.4777  1.8682
 2155SOL     OW18097   3.396   1.904   1.371  0.0138 -0.2922 -0.1244
 2155SOL    HW118098   3.409   1.813   1.345  3.9686 -0.1541  1.4104
 2155SOL    HW218099   3.482   1.936   1.345  0.1544  1.2833  2.2826
 2156SOL     OW18100   3.314   4.163   4.261  0.5296 -0.3716  1.0536
 2156SOL    HW118101   3.357   4.105   4.198 -0.7482  0.3108 -0.4298
 2156SOL    HW218102   3.226   4.127   4.253  0.2665  0.2350  1.2042
 2157SOL     OW18103   4.499   0.523   3.824 -0.5225  0.3705  0.0865
 2157SOL    HW118104   4.458   0.445   3.785 -0.1416 -0.0801  0.5819
 2157SOL    HW218105   4.548   0.560   3.750 -1.8894 -0.4757 -1.2413
 2158SOL     OW18106   4.637   0.243  13.724  0.6386  0.5987 -0.1351
 2158SOL    HW118107   4.560   0.188  13.709  0.1256  1.1437  0.4749
 2158SOL    HW218108   4.611   0.298  13.798 -1.0660  0.2817 -0.5022
 2159SOL     OW18109   2.945   3.811   4.964 -0.2892 -0.1720 -0.2151
 2159SOL    HW118110   2.853   3.830   4.980 -0.1118 -1.7205  2.6898
 2159SOL    HW218111   2.998   3.843   5.037 -0.5822 -0.5725  0.1754
 2160SOL     OW18112   0.476   4.543   5.355 -0.0658 -0.1101 -0.4318
 2160SOL    HW118113   0.463   4.467   5.298 -1.9811  1.0288 -1.5175
 2160SOL    HW218114   0.473   4.606   5.283 -0.6185  0.0966 -0.2253
 2161SOL     OW18115   0.584   0.901   1.459  0.3114  0.4966 -0.1442
 2161SOL    HW118116   0.542   0.858   1.533 -0.1793 -0.2493 -0.8544
 2161SOL    HW218117   0.608   0.981   1.505 -0.2047  0.8197 -0.4396
 2162SOL     OW18118   1.282   2.182  11.363 -0.0341  0.0635 -0.4808
 2162SOL    HW118119   1.196   2.205  11.399 -0.5099  1.1973 -2.3615
 2162SOL    HW218120   1.283   2.227  11.279  1.4578  3.8067  1.5519
 2163SOL     OW18121   2.373   4.195  14.395  0.1693  0.2580 -0.7722
 2163SOL    HW118122   2.457   4.223  14.361  0.7673 -0.9559 -0.2799
 2163SOL    HW218123   2.377   4.102  14.371 -0.2158 -0.0304  0.2874
 2164SOL     OW18124   1.016   2.670   7.122 -0.1262  0.0432 -0.0563
 2164SOL    HW118125   1.096   2.720   7.106  0.3061 -0.3131  0.9733
 2164SOL    HW218126   0.973   2.669   7.037  0.3781 -1.1454 -0.3035
 2165SOL     OW18127   3.963   3.299  11.187  0.1103 -0.3348 -0.0049
 2165SOL    HW118128   3.961   3.236  11.115 -2.1109  1.1752 -1.2800
 2165SOL    HW218129   4.057   3.316  11.194  0.3373 -0.3528 -2.7980
 2166SOL     OW18130   3.311   2.783   0.278 -0.0860 -0.2323 -0.1112
 2166SOL    HW118131   3.368   2.808   0.205  0.0941 -0.9144 -0.2067
 2166SOL    HW218132   3.373   2.792   0.351  1.9669  1.9468 -2.1062
 2167SOL     OW18133   3.088   1.390   8.272 -0.1285 -0.3545 -0.5671
 2167SOL    HW118134   3.077   1.327   8.200 -2.2301 -0.0785 -0.4908
 2167SOL    HW218135   3.103   1.338   8.351 -1.6443  2.0866  1.3233
 2168SOL     OW18136   1.204   3.314   4.870  0.4105  0.0010 -0.2344
 2168SOL    HW118137   1.229   3.249   4.936 -0.2962 -0.6508 -0.6028
 2168SOL    HW218138   1.136   3.363   4.916  1.0649  1.1816 -0.5413
 2169SOL     OW18139   0.608   3.054   1.902 -0.0014  0.3548 -0.2047
 2169SOL    HW118140   0.630   3.010   1.985  1.2713 -0.6021 -1.0496
 2169SOL    HW218141   0.695   3.072   1.867  0.0037  0.5856 -0.0759
 2170SOL     OW18142   4.508   1.919   3.477  0.2041 -0.2962  0.1686
 2170SOL    HW118143   4.446   1.945   3.409  3.5313 -0.2305 -2.8160
 2170SOL    HW218144   4.464   1.963   3.550 -0.5861  0.4562 -0.7715
 2171SOL     OW18145   3.551   4.089   7.230  0.5729 -0.3690  0.4274
 2171SOL    HW118146   3.493   4.068   7.303  0.2837 -0.7479  0.0929
 2171SOL    HW218147   3.477   4.074   7.170  1.4203 -0.5210 -0.5719
 2172SOL     OW18148   3.805   1.520   2.598 -0.0251  0.4473  0.2632
 2172SOL    HW118149   3.739   1.506   2.530 -0.2135  1.5664  0.2160
 2172SOL    HW218150   3.758   1.584   2.652  0.5174  1.0600  0.0023
 2173SOL     OW18151   3.981   2.180   0.416 -0.2384 -0.1341  0.4200
 2173SOL    HW118152   4.025   2.198   0.499 -1.6475  0.7946  0.9589
 2173SOL    HW218153   3.992   2.085   0.404 -0.7424 -0.2805  1.1013
 2174SOL     OW18154   1.733   3.575   8.187  0.4236  0.1893  0.3400
 2174SOL    HW118155   1.732   3.489   8.229 -1.3141 -0.3856 -0.8876
 2174SOL    HW218156   1.741   3.646   8.251  0.3179 -0.3878  0.9960
 2175SOL     OW18157   0.168   2.633   3.782 -0.0771 -0.2220  0.1875
 2175SOL    HW118158   0.192   2.690   3.856 -1.2339 -0.8086  1.0046
 2175SOL    HW218159   0.251   2.587   3.770 -0.2642 -1.1061  2.2405
 2176SOL     OW18160   3.845   3.593   7.378 -0.1717 -0.4262 -0.4929
 2176SOL    HW118161   3.902   3.526   7.416 -0.4494 -1.1427 -1.3181
 2176SOL    HW218162   3.897   3.669   7.403 -1.2570 -0.1286  0.8328
 2177SOL     OW18163   4.557   0.617   3.161  0.3134 -0.4567  0.0162
 2177SOL    HW118164   4.521   0.675   3.094 -0.0797 -0.3930  0.2856
 2177SOL    HW218165   4.476   0.591   3.205  0.1286  0.7134  0.3809
 2178SOL     OW18166   3.683   1.460   6.677 -0.0021 -0.5015 -0.0707
 2178SOL    HW118167   3.766   1.473   6.630  0.7549 -1.3596  1.0194
 2178SOL    HW218168   3.635   1.435   6.599  2.5557  2.3848 -2.5896
 2179SOL     OW18169   0.629   2.172   6.754  0.2487 -0.0065 -0.0824
 2179SOL    HW118170   0.633   2.196   6.846  0.0300 -1.7602  0.3846
 2179SOL    HW218171   0.721   2.182   6.728 -0.3100 -0.0250 -2.0709
 2180SOL     OW18172   0.220   2.548  11.949  0.2064 -0.7185  0.5086
 2180SOL    HW118173   0.297   2.603  11.965 -0.9925  0.5864  1.7557
 2180SOL    HW218174   0.263   2.476  11.904 -0.5285 -1.4274  0.9417
 2181SOL     OW18175   0.553   2.870   6.912 -0.2756 -0.0260  0.0944
 2181SOL    HW118176   0.508   2.880   6.828  1.8754  1.9372 -0.8049
 2181SOL    HW218177   0.641   2.891   6.882 -0.1787 -0.5188  0.0280
 2182SOL     OW18178   0.032   4.699   1.474 -0.5059  0.3175 -0.1640
 2182SOL    HW118179   0.012   0.001   1.560  2.3408 -3.2001  1.9985
 2182SOL    HW218180   0.125   4.721   1.473 -0.6205  0.7479 -0.8845
 2183SOL     OW18181   3.570   2.341   1.462 -0.3046 -0.1499 -0.4268
 2183SOL    HW118182   3.500   2.306   1.408 -0.8185  1.1271 -0.5932
 2183SOL    HW218183   3.554   2.284   1.536  0.4445  0.3518  0.1203
 2184SOL     OW18184   0.543   2.895   5.043 -1.0380  0.3125 -0.2997
 2184SOL    HW118185   0.583   2.976   5.074  0.7495 -0.9873  0.7820
 2184SOL    HW218186   0.460   2.906   5.089 -1.2518  1.3967 -0.9385
 2185SOL     OW18187   3.582   3.979  13.029 -0.5937  0.7867  0.0222
 2185SOL    HW118188   3.633   3.917  12.977  0.1560  0.0297  1.6609
 2185SOL    HW218189   3.647   4.036  13.068  1.4797 -1.9531  0.5709
 2186SOL     OW18190   2.041   0.733   5.291 -0.6709  0.3163  0.0184
 2186SOL    HW118191   2.078   0.693   5.370 -2.6060 -0.8007  0.3630
 2186SOL    HW218192   2.073   0.823   5.289  0.4082 -0.0760 -0.2343
 2187SOL     OW18193   3.274   0.133   5.482  0.1423  0.3093 -0.5860
 2187SOL    HW118194   3.248   0.058   5.535 -2.2729 -0.4449 -2.8379
 2187SOL    HW218195   3.231   0.116   5.398  0.3659  2.7904 -1.2069
 2188SOL     OW18196   2.749   1.641  11.287  0.2953  0.2378  0.1587
 2188SOL    HW118197   2.837   1.675  11.277  0.2732  0.1610 -0.2709
 2188SOL    HW218198   2.745   1.608  11.377 -1.5992 -1.3191 -0.5012
 2189SOL     OW18199   0.498   0.813   2.979  0.1293  0.1975 -0.8464
 2189SOL    HW118200   0.485   0.732   2.929 -1.2883  1.8681 -3.1480
 2189SOL    HW218201   0.531   0.778   3.062 -0.0695 -0.1357 -0.9046
 2190SOL     OW18202   2.790   1.484   7.019  0.1961 -0.4149  0.1998
 2190SOL    HW118203   2.847   1.511   7.091  0.9930  1.6807 -1.1916
 2190SOL    HW218204   2.826   1.544   6.953  0.0884 -0.0954  0.4316
 2191SOL     OW18205   2.199   0.066  17.104 -0.1988 -0.2703  0.1168
 2191SOL    HW118206   2.142   0.133  17.064  0.8348  0.8631  0.5427
 2191SOL    HW218207   2.155   0.051  17.188  0.9125  0.2521  0.7951
 2192SOL     OW18208   1.897   4.492   5.480  0.4784 -0.1448 -0.1378
 2192SOL    HW118209   1.974   4.457   5.523 -0.6175 -0.6348  1.4510
 2192SOL    HW218210   1.924   4.584   5.488 -0.0786  0.1044 -1.0911
 2193SOL     OW18211   3.675   2.823  12.699 -0.0236 -0.1776  0.0505
 2193SOL    HW118212   3.728   2.899  12.722  0.9763 -0.9208  0.1621
 2193SOL    HW218213   3.596   2.836  12.752 -0.3709  1.0931 -0.7656
 2194SOL     OW18214   1.844   1.832  17.282  0.3042  0.4009  0.1680
 2194SOL    HW118215   1.765   1.839  17.336 -0.2765  1.7050 -0.8311
 2194SOL    HW218216   1.918   1.838  17.342 -0.2717  0.6472  0.8613
 2195SOL     OW18217   4.356   3.345   6.802 -0.3494 -0.0883  0.3440
 2195SOL    HW118218   4.419   3.276   6.782  0.8319  1.0332  0.1916
 2195SOL    HW218219   4.342   3.389   6.718  2.7987  0.5700  0.1602
 2196SOL     OW18220   3.642   1.875   3.415 -0.3171  0.3707  0.3747
 2196SOL    HW118221   3.557   1.831   3.419 -0.9194  1.4941 -0.0618
 2196SOL    HW218222   3.685   1.792   3.395 -1.4379 -0.7463  2.7088
 2197SOL     OW18223   0.403   3.974  14.700 -0.1157  0.0305  0.1181
 2197SOL    HW118224   0.433   4.028  14.774 -0.6036  0.2537  0.1533
 2197SOL    HW218225   0.311   4.000  14.691 -0.3509 -1.1952 -0.9658
 2198SOL     OW18226   1.211   4.529  12.184 -0.0714  0.5916 -0.0211
 2198SOL    HW118227   1.249   4.461  12.128  0.7696  1.6038 -0.6992
 2198SOL    HW218228   1.120   4.502  12.190 -0.1113  0.0526 -2.7513
 2199SOL     OW18229   0.039   0.721   7.496 -0.0656  0.3243  0.1329
 2199SOL    HW118230   0.010   0.686   7.580  2.7184  3.5765  2.4247
 2199SOL    HW218231   4.692   0.709   7.448  0.2878 -0.5813 -0.2420
 2200SOL     OW18232   4.524   1.417   9.844 -0.0024  0.1251  0.1551
 2200SOL    HW118233   4.577   1.431   9.922 -0.5663  0.0168  0.5582
 2200SOL    HW218234   4.563   1.495   9.806  0.3684 -0.5868 -0.9242
 2201SOL     OW18235   4.073   0.536   9.664 -0.1577 -0.3521 -0.1513
 2201SOL    HW118236   3.996   0.487   9.692 -1.3041  0.5728 -1.6948
 2201SOL    HW218237   4.033   0.613   9.623 -0.8135 -0.2423  0.7046
 2202SOL     OW18238   2.843   1.709   4.233 -0.3416  0.6396  0.3619
 2202SOL    HW118239   2.749   1.697   4.248 -0.5469 -0.1725 -1.5797
 2202SOL    HW218240   2.852   1.701   4.138  1.8936  0.9669  0.5361
 2203SOL     OW18241   1.231   2.314   9.788  0.3575  0.2569 -0.2744
 2203SOL    HW118242   1.267   2.308   9.700  0.2715 -1.2257 -0.1999
 2203SOL    HW218243   1.224   2.409   9.793  0.9532  0.1713  2.5046
 2204SOL     OW18244   2.967   1.062   8.959 -0.0044 -0.3479 -0.3998
 2204SOL    HW118245   2.933   1.045   8.871 -2.1757 -2.1951  0.7998
 2204SOL    HW218246   2.901   1.023   9.016 -2.0558  1.4047 -1.6102
 2205SOL     OW18247   0.077   3.700  10.119  0.3829 -0.8631 -0.0059
 2205SOL    HW118248   0.140   3.768  10.095 -1.0092  0.4049 -0.0818
 2205SOL    HW218249   0.041   3.676  10.034 -1.0654 -3.7119  1.3981
 2206SOL     OW18250   3.812   2.294  13.733 -0.3779 -0.3688  0.1885
 2206SOL    HW118251   3.748   2.320  13.800  1.8027 -0.3924  2.2832
 2206SOL    HW218252   3.884   2.341  13.775 -1.7032  0.7196  1.2612
 2207SOL     OW18253   2.303   1.955   2.136 -0.1783  0.6544 -0.3785
 2207SOL    HW118254   2.238   1.935   2.204 -0.2815 -0.4057 -0.7893
 2207SOL    HW218255   2.300   2.050   2.147  0.1868  0.4896  1.1421
 2208SOL     OW18256   2.438   0.999  14.335 -0.6935  0.1740  0.4650
 2208SOL    HW118257   2.521   0.971  14.375 -0.9905 -0.3247  0.7403
 2208SOL    HW218258   2.464   1.005  14.243  1.1686  3.9461  1.2649
 2209SOL     OW18259   0.177   2.912   4.240 -0.8461  0.4934  0.2753
 2209SOL    HW118260   0.090   2.873   4.241 -1.2734  1.4370 -0.2255
 2209SOL    HW218261   0.163   2.985   4.301  0.7048  2.0196 -1.1979
 2210SOL     OW18262   0.482   1.058  16.034 -0.1028 -0.1438 -0.3458
 2210SOL    HW118263   0.445   1.144  16.013  0.4247 -0.4099 -2.4081
 2210SOL    HW218264   0.400   1.010  16.028  0.2282 -0.5669 -1.5543
 2211SOL     OW18265   3.639   4.282   8.066 -0.0553 -0.3124  0.2111
 2211SOL    HW118266   3.560   4.260   8.115  0.8982 -0.5318  1.6786
 2211SOL    HW218267   3.621   4.265   7.974  1.2863 -1.9617  0.2374
 2212SOL     OW18268   1.249   1.017   8.857 -0.0524 -0.5576 -0.6488
 2212SOL    HW118269   1.288   1.104   8.845  0.6752 -0.8790 -0.6158
 2212SOL    HW218270   1.257   1.021   8.953  0.1784 -0.5385 -0.6689
 2213SOL     OW18271   0.584   4.624  14.850  0.2571  0.1867 -0.3022
 2213SOL    HW118272   0.660   4.587  14.896  0.6398  0.8434 -0.4131
 2213SOL    HW218273   0.617   4.624  14.761  1.3064  2.1927  0.0826
 2214SOL     OW18274   3.757   0.139   3.608  0.5460  0.7015  0.0354
 2214SOL    HW118275   3.704   0.086   3.548  0.7668  0.0420  0.4199
 2214SOL    HW218276   3.816   0.177   3.543 -0.2468  0.5834 -0.7481
 2215SOL     OW18277   0.998   0.890   8.908 -0.1489 -0.3957 -0.1445
 2215SOL    HW118278   1.083   0.908   8.869  0.9780 -3.7716  0.7564
 2215SOL    HW218279   1.011   0.839   8.988  1.3410 -1.9587 -1.3723
 2216SOL     OW18280   2.406   3.313   3.524 -0.6587  0.1755 -0.0863
 2216SOL    HW118281   2.412   3.408   3.515  0.9373  0.1801  1.0507
 2216SOL    HW218282   2.408   3.289   3.616 -2.2702  0.4179  0.0097
 2217SOL     OW18283   0.583   2.726   2.025 -0.0482 -0.3109  0.2375
 2217SOL    HW118284   0.557   2.744   1.935  0.0831 -1.4958 -0.0388
 2217SOL    HW218285   0.667   2.685   2.005  0.4834  0.6828  0.4241
 2218SOL     OW18286   2.318   0.920   8.396 -0.7162 -0.0684 -0.1483
 2218SOL    HW118287   2.342   0.848   8.455  0.2305 -0.5743 -1.1442
 2218SOL    HW218288   2.227   0.921   8.426 -0.5539  1.5725  0.3080
 2219SOL     OW18289   0.907   1.471   1.972  0.5066 -0.1147 -0.0928
 2219SOL    HW118290   0.839   1.499   2.033 -0.1598 -0.6920 -0.5600
 2219SOL    HW218291   0.851   1.411   1.921  0.5033 -0.6741  0.5661
 2220SOL     OW18292   1.603   0.547   7.546  0.4204  0.7800 -0.1291
 2220SOL    HW118293   1.523   0.515   7.503  0.8129  0.4108 -0.5838
 2220SOL    HW218294   1.672   0.487   7.517  1.5041  1.3083  1.3559
 2221SOL     OW18295   4.236   0.697   2.601 -0.8311  0.0304  0.8415
 2221SOL    HW118296   4.158   0.743   2.572 -1.4422 -1.6815 -0.2200
 2221SOL    HW218297   4.304   0.758   2.573  2.9950 -4.1498  0.9590
 2222SOL     OW18298   4.221   1.831   6.773 -0.1483 -0.8130  0.1148
 2222SOL    HW118299   4.170   1.838   6.854 -0.5005 -2.0097 -0.0114
 2222SOL    HW218300   4.190   1.905   6.721  0.3861 -0.0868  0.8232
 2223SOL     OW18301   2.380   4.219   4.161  0.5393  0.6692  0.6415
 2223SOL    HW118302   2.446   4.183   4.102  0.9682 -0.3103  1.7120
 2223SOL    HW218303   2.405   4.172   4.241  0.0520 -0.2005  0.2845
 2224SOL     OW18304   2.667   3.204   5.683 -0.6649  0.1750  0.3186
 2224SOL    HW118305   2.713   3.285   5.705 -1.7869  0.8131  0.3437
 2224SOL    HW218306   2.673   3.163   5.769  2.3484 -1.7226 -0.7980
 2225SOL     OW18307   3.165   1.480   5.912 -0.3256 -0.7210 -0.4959
 2225SOL    HW118308   3.166   1.394   5.954 -0.4318 -1.3660 -1.8295
 2225SOL    HW218309   3.135   1.533   5.986 -1.8892 -0.4044 -1.3760
 2226SOL     OW18310   0.231   1.306   9.409 -0.3684  0.7123 -0.0827
 2226SOL    HW118311   0.143   1.271   9.416 -0.1010  0.7003  3.0360
 2226SOL    HW218312   0.247   1.319   9.315  2.0361 -0.6641  0.1214
 2227SOL     OW18313   0.648   3.769   9.145 -0.0291 -0.0683  0.6661
 2227SOL    HW118314   0.728   3.822   9.139 -0.3163  0.0363 -2.3863
 2227SOL    HW218315   0.676   3.715   9.219 -1.5212 -0.4761  0.9203
 2228SOL     OW18316   0.068   1.200   4.951 -0.1346  0.4634  0.0279
 2228SOL    HW118317   0.026   1.167   4.872 -0.2891 -1.5446  0.9683
 2228SOL    HW218318   4.728   1.230   5.001  0.5973  0.7374  0.9704
 2229SOL     OW18319   0.529   2.979  11.442 -0.4396 -0.3581 -0.3494
 2229SOL    HW118320   0.443   2.941  11.427 -1.2902  1.0940  0.8042
 2229SOL    HW218321   0.582   2.930  11.379 -0.8821  0.6839 -1.5503
 2230SOL     OW18322   1.023   3.595   4.639 -0.4612 -0.1295 -0.6529
 2230SOL    HW118323   0.995   3.527   4.699  0.4518 -0.3880 -0.5183
 2230SOL    HW218324   0.958   3.661   4.663 -0.1581 -0.3178  0.6878
 2231SOL     OW18325   1.551   3.085   5.169  0.3004  1.4298 -0.6818
 2231SOL    HW118326   1.557   2.989   5.178 -1.2135  1.4996  1.0755
 2231SOL    HW218327   1.587   3.101   5.256 -1.0859  1.7912 -0.1864
 2232SOL     OW18328   0.025   0.187   7.338  0.2842  0.3366 -0.2876
 2232SOL    HW118329   0.001   0.194   7.245 -1.5595  1.8351  0.2855
 2232SOL    HW218330   0.074   0.268   7.353 -2.4958  2.1314 -0.7567
 2233SOL     OW18331   2.253   2.062   6.605  0.4814  0.2523  0.9454
 2233SOL    HW118332   2.300   2.113   6.671  0.5684 -0.0400  1.1108
 2233SOL    HW218333   2.228   1.985   6.657  0.0042  0.1989  0.6325
 2234SOL     OW18334   3.083   3.303   5.267  0.3338 -0.1849 -0.4032
 2234SOL    HW118335   3.087   3.379   5.209 -1.9356  0.1155 -0.1659
 2234SOL    HW218336   3.147   3.243   5.228  2.1431  1.0975  0.6166
 2235SOL     OW18337   0.078   1.140   7.813 -0.0825 -0.2143 -0.7819
 2235SOL    HW118338   0.108   1.119   7.901  0.1682  0.6191 -0.6743
 2235SOL    HW218339   0.030   1.060   7.791 -0.6028 -0.0413 -0.2678
 2236SOL     OW18340   4.665   0.974  12.586 -0.2215 -0.6471  0.6643
 2236SOL    HW118341   4.670   0.983  12.681 -3.0419 -1.7616  0.9054
 2236SOL    HW218342   4.697   1.060  12.558  0.1677 -0.6114  1.2110
 2237SOL     OW18343   2.475   3.004   8.981 -0.4562 -0.4747  0.4314
 2237SOL    HW118344   2.416   2.951   9.034 -0.6218 -0.2383  0.4834
 2237SOL    HW218345   2.410   3.069   8.955 -1.6311 -1.4572  0.9053
 2238SOL     OW18346   0.294   1.807   3.963 -0.6154 -1.1591 -0.1559
 2238SOL    HW118347   0.216   1.846   4.001  1.4471  1.9647  0.8483
 2238SOL    HW218348   0.263   1.716   3.968 -2.0624 -0.7654 -1.9299
 2239SOL     OW18349   3.417   3.297  16.772 -0.2921 -0.4312 -0.2666
 2239SOL    HW118350   3.375   3.382  16.772  2.1630  0.7855  0.2806
 2239SOL    HW218351   3.469   3.305  16.692 -2.7170  1.1280 -1.6621
 2240SOL     OW18352   3.051   2.020   8.541 -0.3099 -0.3923  0.0360
 2240SOL    HW118353   3.109   1.970   8.599  0.4898  1.9916  1.3103
 2240SOL    HW218354   3.022   2.092   8.596 -1.4907  0.6281 -1.9274
 2241SOL     OW18355   3.351   3.294   6.403 -0.9705 -0.3346 -0.2160
 2241SOL    HW118356   3.407   3.233   6.355  1.9960  1.4739  0.9288
 2241SOL    HW218357   3.286   3.233   6.439 -0.0981 -1.6304 -0.8055
 2242SOL     OW18358   0.778   1.254   2.184  0.3045  0.1653  0.1855
 2242SOL    HW118359   0.872   1.254   2.165  0.6948 -0.6557  2.0860
 2242SOL    HW218360   0.734   1.271   2.101  0.4955 -0.9646 -0.1436
 2243SOL     OW18361   1.649   2.596   1.339  0.1101  0.0271  0.7740
 2243SOL    HW118362   1.596   2.570   1.264  1.1345  1.8914 -0.6041
 2243SOL    HW218363   1.652   2.691   1.339 -1.6760  0.0796 -0.3632
 2244SOL     OW18364   1.264   3.974   6.690  0.1594 -0.6066 -0.8388
 2244SOL    HW118365   1.250   3.880   6.683 -1.0743 -0.4136 -1.0730
 2244SOL    HW218366   1.326   3.979   6.617 -0.7348 -1.8515 -1.6990
 2245SOL     OW18367   3.916   0.919   3.442 -0.4282 -0.2221  0.1858
 2245SOL    HW118368   3.826   0.932   3.471 -0.0754  1.7231  0.4166
 2245SOL    HW218369   3.959   0.893   3.523 -0.7066  0.3863  0.5327
 2246SOL     OW18370   2.739   2.896   3.262  0.5236 -0.3153 -0.3109
 2246SOL    HW118371   2.828   2.864   3.276 -0.3061 -1.6330  2.0320
 2246SOL    HW218372   2.759   2.989   3.265 -0.9317 -0.0470  1.4281
 2247SOL     OW18373   3.333   1.300  13.977  0.2598 -0.1039 -0.5016
 2247SOL    HW118374   3.328   1.346  13.893  1.6232 -1.5218 -1.3485
 2247SOL    HW218375   3.390   1.229  13.949 -0.7985 -1.0549 -0.2627
 2248SOL     OW18376   0.940   1.956   4.063  0.2436  1.1059  0.8427
 2248SOL    HW118377   0.940   2.049   4.043 -0.3218  1.1998  1.2969
 2248SOL    HW218378   0.866   1.956   4.123 -1.3099 -0.5053 -1.0620
 2249SOL     OW18379   0.506   2.052   6.159 -0.3804 -0.3071 -0.4082
 2249SOL    HW118380   0.561   2.094   6.093 -0.4061 -1.5218 -1.2244
 2249SOL    HW218381   0.432   2.028   6.103 -0.1223 -1.3494 -0.3162
 2250SOL     OW18382   2.859   4.669   3.044 -0.5349 -0.0157  0.1394
 2250SOL    HW118383   2.929   4.656   3.108 -1.6604  1.5573  1.6983
 2250SOL    HW218384   2.900   4.673   2.958 -2.2500  1.8819 -0.5883
 2251SOL     OW18385   1.058   0.754  12.059  0.1266  0.2096 -0.0094
 2251SOL    HW118386   0.987   0.713  12.109 -0.2291 -0.5778 -1.1469
 2251SOL    HW218387   1.062   0.702  11.979 -1.1437 -0.0053  0.0643
 2252SOL     OW18388   0.219   2.752  16.405 -0.0145  0.1040  0.1445
 2252SOL    HW118389   0.279   2.826  16.394  0.1466 -0.1276 -0.5992
 2252SOL    HW218390   0.277   2.680  16.379 -0.6836  0.0855 -1.3241
 2253SOL     OW18391   1.334   4.423  17.508 -0.1277 -0.1762 -0.3185
 2253SOL    HW118392   1.408   4.459  17.556 -0.0903  0.2242 -0.6782
 2253SOL    HW218393   1.262   4.473  17.546  0.7326 -0.0479  1.1032
 2254SOL     OW18394   3.921   0.545  11.933 -0.1894  0.2444  0.2199
 2254SOL    HW118395   3.981   0.475  11.907 -2.6544 -2.5898  2.1636
 2254SOL    HW218396   3.952   0.567  12.021 -0.7860  2.1363 -0.0417
 2255SOL     OW18397   3.439   2.453   8.238 -0.2592 -0.5861 -0.2662
 2255SOL    HW118398   3.508   2.388   8.227 -0.1518 -0.7313  1.3426
 2255SOL    HW218399   3.477   2.508   8.307 -0.7127  0.3890 -0.8007
 2256SOL     OW18400   2.657   2.427   2.502  0.0623  0.6326  0.1155
 2256SOL    HW118401   2.694   2.412   2.415  2.1785 -2.1110  1.5047
 2256SOL    HW218402   2.682   2.518   2.517 -2.5710  1.1946  1.0785
 2257SOL     OW18403   1.745   1.742   5.331  0.1904 -0.1148 -0.2296
 2257SOL    HW118404   1.835   1.742   5.365  0.1940  0.2038 -0.2351
 2257SOL    HW218405   1.753   1.779   5.243 -0.0841 -2.1842 -1.1286
 2258SOL     OW18406   1.650   4.336   4.666 -0.6928  0.5062 -0.7016
 2258SOL    HW118407   1.569   4.366   4.624  0.0525  3.5943  0.0486
 2258SOL    HW218408   1.701   4.417   4.659 -0.1712  0.2381  0.0400
 2259SOL     OW18409   3.087   0.127  11.058 -0.3732 -0.0779 -0.0508
 2259SOL    HW118410   3.030   0.056  11.088  2.2300 -2.3130 -0.4415
 2259SOL    HW218411   3.086   0.189  11.131  3.3043  0.4976 -0.4892
 2260SOL     OW18412   2.328   2.770   2.868 -0.1389 -0.0867  0.1457
 2260SOL    HW118413   2.311   2.708   2.797  1.3353 -0.8132  0.4316
 2260SOL    HW218414   2.407   2.726   2.900  0.2237 -0.4801 -1.2836
 2261SOL     OW18415   2.875   3.456   7.199 -0.3744 -0.0674 -0.1826
 2261SOL    HW118416   2.906   3.384   7.144 -0.2228  1.1195 -1.6691
 2261SOL    HW218417   2.815   3.506   7.143  0.3974  0.0866 -0.8742
 2262SOL     OW18418   1.790   2.596  16.021  0.3300  0.4727  0.2373
 2262SOL    HW118419   1.788   2.666  15.956 -2.0430 -0.8355 -1.1041
 2262SOL    HW218420   1.698   2.574  16.035 -0.0393  1.1002 -1.2368
 2263SOL     OW18421   0.951   3.213   4.334  0.0596  0.7214 -0.4786
 2263SOL    HW118422   1.044   3.236   4.337 -0.2876  2.0014  0.2916
 2263SOL    HW218423   0.955   3.126   4.373 -0.9842  1.6576  1.6976
 2264SOL     OW18424   1.111   2.852   8.277  0.4454  0.2966  0.3655
 2264SOL    HW118425   1.128   2.919   8.211 -0.6765  1.3470  1.1488
 2264SOL    HW218426   1.017   2.833   8.270  0.4316 -0.2642  2.0202
 2265SOL     OW18427   3.479   0.677  13.198 -0.0331  0.2177  0.3222
 2265SOL    HW118428   3.389   0.658  13.225  0.3769 -0.1871  1.3838
 2265SOL    HW218429   3.486   0.772  13.206 -1.5840  0.2538  1.1245
 2266SOL     OW18430   0.651   4.209   2.627 -0.0493  0.0133 -0.0215
 2266SOL    HW118431   0.634   4.297   2.594  1.2962  0.0587 -0.6366
 2266SOL    HW218432   0.718   4.234   2.690 -1.1320  3.4254 -0.2467
 2267SOL     OW18433   0.887   2.743   7.933 -0.4281  0.8873 -0.2804
 2267SOL    HW118434   0.858   2.668   7.882 -0.0851  1.2759 -1.0507
 2267SOL    HW218435   0.956   2.705   7.987  0.5345  1.3320 -1.1909
 2268SOL     OW18436   4.583   2.204   6.162 -0.0806 -0.2528 -0.0041
 2268SOL    HW118437   4.527   2.220   6.086 -1.6613 -1.1699  0.9504
 2268SOL    HW218438   4.525   2.171   6.231  0.5503  0.0073  0.6439
 2269SOL     OW18439   4.543   0.962   7.602 -0.3516 -0.2596  0.7345
 2269SOL    HW118440   4.454   0.961   7.567  0.2838  0.2124 -0.8686
 2269SOL    HW218441   4.575   1.047   7.573  1.2109 -1.0837  0.0102
 2270SOL     OW18442   2.959   1.852   8.872 -0.3347  0.2245  0.2072
 2270SOL    HW118443   2.906   1.828   8.796 -1.6806 -0.0012  1.2221
 2270SOL    HW218444   2.890   1.883   8.930  0.5558  1.7135  0.4671
 2271SOL     OW18445   0.139   3.742   5.367 -0.2347 -0.4574 -0.5870
 2271SOL    HW118446   0.093   3.663   5.396  0.3480 -1.6362 -2.9049
 2271SOL    HW218447   0.063   3.780   5.323 -1.7984 -0.3495  2.1697
 2272SOL     OW18448   1.018   1.802   7.577  0.5238  0.2032  0.2888
 2272SOL    HW118449   0.925   1.809   7.554  0.7061 -0.2971 -0.6053
 2272SOL    HW218450   1.038   1.718   7.536 -0.8580 -0.2439  0.5000
 2273SOL     OW18451   4.121   0.039   7.987 -0.0311 -0.1651 -0.2047
 2273SOL    HW118452   4.137   0.018   7.895 -1.2750 -0.5173 -0.3364
 2273SOL    HW218453   4.028   0.057   7.995  0.3212  0.9022  1.5664
 2274SOL     OW18454   2.120   1.255   8.946  0.4341 -0.2551 -0.5884
 2274SOL    HW118455   2.049   1.191   8.942  0.4505 -0.2568 -0.8072
 2274SOL    HW218456   2.066   1.330   8.972 -0.3706 -0.0716 -2.7936
 2275SOL     OW18457   2.724   0.163  16.056  0.3162 -0.4294  0.1020
 2275SOL    HW118458   2.725   0.129  15.967 -1.4338 -0.9304  0.2796
 2275SOL    HW218459   2.728   0.259  16.053  2.6493 -0.5073  0.3397
 2276SOL     OW18460   3.515   0.667  10.234  0.4141 -0.7173 -0.1424
 2276SOL    HW118461   3.504   0.591  10.290 -1.5658 -1.1598 -1.1354
 2276SOL    HW218462   3.461   0.629  10.165 -1.2272  0.2002  0.6135
 2277SOL     OW18463   0.025   1.684   5.943  0.6342  0.1330 -0.1728
 2277SOL    HW118464   0.025   1.779   5.940  1.2175  0.2057  2.0079
 2277SOL    HW218465   0.013   1.660   5.851 -2.2346  0.2970  0.1829
 2278SOL     OW18466   2.948   1.280   5.467 -0.0441 -0.0832  0.2736
 2278SOL    HW118467   2.957   1.338   5.542 -0.1565  0.3121 -0.0205
 2278SOL    HW218468   2.996   1.329   5.401 -1.2806 -1.5487 -1.7052
 2279SOL     OW18469   4.550   2.543   2.420  0.0155 -0.1775  0.6272
 2279SOL    HW118470   4.638   2.505   2.416  0.4235  0.9951 -1.5206
 2279SOL    HW218471   4.521   2.522   2.331 -0.2867  2.4165  0.1172
 2280SOL     OW18472   0.073   0.048   4.088 -0.3325 -0.1516 -0.3698
 2280SOL    HW118473   4.716   0.066   4.066 -0.0540  2.9517  1.1204
 2280SOL    HW218474   0.120   0.068   4.007  0.6884 -1.4145 -0.0893
 2281SOL     OW18475   0.932   0.840   5.661 -0.5153  0.1698 -0.0670
 2281SOL    HW118476   0.935   0.795   5.576  0.6800  1.4064 -0.6765
 2281SOL    HW218477   0.863   0.792   5.708 -2.1655  1.3049 -1.3225
 2282SOL     OW18478   2.157   2.563   6.018  0.5410  0.4774 -0.3665
 2282SOL    HW118479   2.196   2.575   6.104 -2.1599 -0.1684  0.9592
 2282SOL    HW218480   2.230   2.510   5.986  0.2193 -0.1933  0.0092
 2283SOL     OW18481   0.680   3.130   2.526  0.4949 -0.2121 -0.5592
 2283SOL    HW118482   0.680   3.114   2.620 -2.6354 -1.0274 -0.6678
 2283SOL    HW218483   0.691   3.041   2.494 -0.3952 -1.4121  2.4739
 2284SOL     OW18484   2.494   3.935  16.733  0.5428  0.0045 -0.5146
 2284SOL    HW118485   2.476   3.925  16.826  0.7702  0.8798 -0.3792
 2284SOL    HW218486   2.433   4.008  16.721 -0.3494 -0.9305 -1.8397
 2285SOL     OW18487   4.502   3.373   5.682  0.3418 -0.2806 -0.0734
 2285SOL    HW118488   4.509   3.384   5.777  0.3939  1.4943 -0.2843
 2285SOL    HW218489   4.496   3.465   5.655 -0.6286 -0.7508 -1.4205
 2286SOL     OW18490   2.039   2.748  17.319 -0.1050  0.1856 -0.1609
 2286SOL    HW118491   2.077   2.685  17.380 -2.5053 -0.7194  0.4174
 2286SOL    HW218492   1.961   2.767  17.370 -0.3627  0.3064 -0.5951
 2287SOL     OW18493   0.745   1.260   9.650  0.5455 -0.2984  0.3604
 2287SOL    HW118494   0.682   1.188   9.657  0.6929 -0.6568 -1.9124
 2287SOL    HW218495   0.683   1.319   9.693  1.0225  0.6014 -0.1708
 2288SOL     OW18496   2.847   1.610   9.450  0.4161  0.8074  0.5566
 2288SOL    HW118497   2.782   1.571   9.391  1.0402 -1.6528  1.4985
 2288SOL    HW218498   2.916   1.543   9.449 -1.1262 -0.7969  2.2087
 2289SOL     OW18499   2.712   2.622   3.891 -0.0159 -0.3659  0.3508
 2289SOL    HW118500   2.741   2.538   3.855 -1.8000 -0.3556 -1.0374
 2289SOL    HW218501   2.618   2.606   3.884  0.1587 -0.9755 -0.5111
 2290SOL     OW18502   0.853   3.130   1.725 -0.2244  0.2395 -0.7525
 2290SOL    HW118503   0.929   3.080   1.694  1.0947  1.0166  1.1656
 2290SOL    HW218504   0.833   3.185   1.650 -1.1753 -0.1188 -0.7616
 2291SOL     OW18505   1.343   1.333   8.201  0.8145  0.8074 -0.5385
 2291SOL    HW118506   1.362   1.296   8.115 -1.0989 -2.0381  0.2347
 2291SOL    HW218507   1.275   1.398   8.183 -0.5026 -0.5455 -0.5603
 2292SOL     OW18508   4.117   4.152   8.106 -0.0210 -0.0185  0.1686
 2292SOL    HW118509   4.180   4.223   8.111 -0.1118 -0.1963  3.9763
 2292SOL    HW218510   4.035   4.198   8.122 -0.3532  0.2024 -2.1466
 2293SOL     OW18511   3.041   4.546   9.326 -0.0871  0.4819  0.3051
 2293SOL    HW118512   3.049   4.472   9.267 -0.0600 -0.2895  1.2724
 2293SOL    HW218513   3.121   4.542   9.379 -1.9603  1.9065  3.2732
 2294SOL     OW18514   4.235   1.110   3.649 -0.2755  0.0625  0.2955
 2294SOL    HW118515   4.276   1.037   3.602  0.9055  0.2863  0.9679
 2294SOL    HW218516   4.235   1.176   3.579  1.6338  1.0814  1.2675
 2295SOL     OW18517   2.574   3.129   3.401 -0.5264 -0.4909  0.3164
 2295SOL    HW118518   2.636   3.115   3.472  0.0530  0.7692  0.0573
 2295SOL    HW218519   2.510   3.188   3.442 -0.7064 -0.5424  0.1135
 2296SOL     OW18520   3.475   2.847   1.704 -0.3405 -0.5458 -0.0524
 2296SOL    HW118521   3.450   2.843   1.796  1.1068  2.8409  0.4844
 2296SOL    HW218522   3.419   2.917   1.669 -0.3144 -0.8200 -0.6336
 2297SOL     OW18523   3.404   0.355   8.094 -0.5486 -0.0010 -0.3920
 2297SOL    HW118524   3.408   0.441   8.052  0.1527  0.9100  1.5527
 2297SOL    HW218525   3.498   0.337   8.098 -0.6544 -0.3028  0.5962
 2298SOL     OW18526   1.803   3.147  15.327 -0.3314 -0.7700  0.3276
 2298SOL    HW118527   1.745   3.112  15.259  1.3034 -1.0789 -0.9212
 2298SOL    HW218528   1.879   3.130  15.272 -1.3413 -0.0908 -1.2759
 2299SOL     OW18529   1.186   0.694   2.653  0.6939 -0.3790 -0.5014
 2299SOL    HW118530   1.092   0.709   2.662  1.0300  0.9989  0.7933
 2299SOL    HW218531   1.206   0.753   2.580 -1.1397  0.5936 -0.2075
 2300SOL     OW18532   1.463   2.810  11.244 -0.9356  0.1692 -0.7757
 2300SOL    HW118533   1.555   2.806  11.221 -1.4354  0.5416 -2.8802
 2300SOL    HW218534   1.419   2.758  11.176 -0.4641  0.4896 -1.3213
 2301SOL     OW18535   1.879   2.544   5.148 -0.0681  0.5388 -0.1982
 2301SOL    HW118536   1.955   2.602   5.148 -1.1565  1.9925 -0.0424
 2301SOL    HW218537   1.834   2.567   5.066 -0.6506 -1.7803 -0.5231
 2302SOL     OW18538   2.938   2.220   1.872 -0.5145  0.2639  1.1669
 2302SOL    HW118539   2.937   2.192   1.781  0.6444 -3.0369  2.1980
 2302SOL    HW218540   3.015   2.275   1.884 -0.3127  0.2653 -0.1350
 2303SOL     OW18541   4.092   4.543   6.294 -0.5571 -0.4501 -0.5087
 2303SOL    HW118542   4.096   4.628   6.250  1.9061 -0.3176 -0.0604
 2303SOL    HW218543   4.125   4.576   6.377  2.1895 -0.1612 -1.7041
 2304SOL     OW18544   1.999   1.562   7.730 -0.4149  0.2874 -0.0762
 2304SOL    HW118545   2.088   1.526   7.739 -0.4040  0.1926 -0.5855
 2304SOL    HW218546   1.954   1.525   7.806  0.1129 -3.3566 -1.5197
 2305SOL     OW18547   2.451   3.246  17.370 -0.1867  0.3709 -0.0003
 2305SOL    HW118548   2.361   3.230  17.339 -0.4490  2.7003 -0.4207
 2305SOL    HW218549   2.501   3.233  17.289 -0.4232  0.5866 -0.1858
 2306SOL     OW18550   4.092   4.361   1.237  0.1864  0.2333 -0.2192
 2306SOL    HW118551   4.162   4.425   1.230 -0.6663  1.0680 -1.0815
 2306SOL    HW218552   4.024   4.414   1.279  0.1858 -0.7586  1.0334
 2307SOL     OW18553   1.920   4.502   6.672  0.1569  0.3017 -0.0739
 2307SOL    HW118554   1.841   4.448   6.677  1.1801 -1.3176 -1.5250
 2307SOL    HW218555   1.930   4.535   6.762  0.7313  1.8465 -0.7038
 2308SOL     OW18556   3.887   0.618   3.710 -0.0997 -0.6570 -0.3018
 2308SOL    HW118557   3.966   0.577   3.744 -1.2858 -1.7966  1.0088
 2308SOL    HW218558   3.819   0.575   3.761  0.8553 -0.9862  0.6876
 2309SOL     OW18559   1.986   0.083   7.579 -0.1313 -0.9716  0.1541
 2309SOL    HW118560   2.061   0.134   7.609  0.4222 -0.8494 -1.4328
 2309SOL    HW218561   2.026   4.733   7.559  3.1781  1.0622 -1.9092
 2310SOL     OW18562   4.534   0.394   8.503  0.4519  0.2158 -0.0029
 2310SOL    HW118563   4.542   0.299   8.496  0.5499  0.3149 -1.2099
 2310SOL    HW218564   4.625   0.420   8.517  0.1895  1.4042 -0.5786
 2311SOL     OW18565   4.208   0.303  12.930 -0.0252 -0.1033  0.6697
 2311SOL    HW118566   4.275   0.331  12.992  2.5579 -0.8795 -1.7444
 2311SOL    HW218567   4.262   0.252  12.869  0.6925 -1.0846  2.1283
 2312SOL     OW18568   3.443   1.435  17.273  0.0081 -0.3872 -0.3994
 2312SOL    HW118569   3.527   1.396  17.293 -0.1873 -0.2779  0.6382
 2312SOL    HW218570   3.458   1.461  17.182  0.4988 -0.1884 -0.2557
 2313SOL     OW18571   1.565   4.122   3.782  0.1836  0.0050  0.2880
 2313SOL    HW118572   1.657   4.144   3.789  0.1010  0.1258  0.9663
 2313SOL    HW218573   1.556   4.067   3.860  1.3979 -0.3114  0.2017
 2314SOL     OW18574   3.418   4.554   4.439 -0.5300 -0.2460 -0.3568
 2314SOL    HW118575   3.471   4.541   4.361 -1.0014  0.5215 -0.8165
 2314SOL    HW218576   3.447   4.481   4.493  3.2932  0.7634 -1.0733
 2315SOL     OW18577   4.557   3.189   6.741  0.5626 -0.3521  0.1340
 2315SOL    HW118578   4.599   3.113   6.782 -0.7278  0.7287  3.4733
 2315SOL    HW218579   4.590   3.190   6.651  0.0980  0.7889 -0.0196
 2316SOL     OW18580   1.450   0.216   9.381 -0.4467 -0.1774  0.3174
 2316SOL    HW118581   1.457   0.309   9.361  0.8314 -0.5992 -1.2368
 2316SOL    HW218582   1.543   0.196   9.380 -0.6386 -1.0602  0.3082
 2317SOL     OW18583   2.888   4.297  14.397 -0.0944 -0.2876  0.5000
 2317SOL    HW118584   2.956   4.337  14.343 -0.7155  0.6906  0.4453
 2317SOL    HW218585   2.924   4.337  14.477  2.0457 -4.6190  1.6944
 2318SOL     OW18586   0.194   3.963   5.534  0.3768 -0.4486 -0.1455
 2318SOL    HW118587   0.231   4.043   5.496 -2.7346  0.2914 -1.6505
 2318SOL    HW218588   0.179   3.901   5.462  1.4387 -1.7132  0.7394
 2319SOL     OW18589   3.094   3.193  14.013  0.4859  0.0160  0.4076
 2319SOL    HW118590   3.187   3.185  14.033  0.2484 -1.0157  1.1180
 2319SOL    HW218591   3.084   3.111  13.963 -1.4165 -0.0913  0.9551
 2320SOL     OW18592   4.436   3.689   5.722 -0.3101  0.6447  0.1441
 2320SOL    HW118593   4.530   3.686   5.740 -0.4514  1.1504  0.9886
 2320SOL    HW218594   4.434   3.642   5.639  0.8173  0.2598  0.3313
 2321SOL     OW18595   4.382   3.998   4.472  0.1134  0.1020  0.4824
 2321SOL    HW118596   4.316   4.031   4.410  1.8769  2.3858 -0.1671
 2321SOL    HW218597   4.460   4.045   4.443 -0.9642  3.3546  2.9233
 2322SOL     OW18598   3.812   1.033   8.574 -0.0614 -0.8701  1.0134
 2322SOL    HW118599   3.748   1.061   8.639 -0.5450  0.7153 -0.1485
 2322SOL    HW218600   3.856   1.118   8.564 -0.0802 -0.9331  0.4057
 2323SOL     OW18601   2.837   4.404   5.919  0.2469 -0.0562  0.7496
 2323SOL    HW118602   2.778   4.447   5.982  0.8297 -0.0760  1.3001
 2323SOL    HW218603   2.823   4.311   5.933 -2.7543  0.8103  3.3748
 2324SOL     OW18604   1.113   1.740   8.350  0.2396  0.0822 -0.1489
 2324SOL    HW118605   1.161   1.819   8.375 -1.2705  1.1778 -0.6824
 2324SOL    HW218606   1.119   1.751   8.255 -0.5349 -2.9846 -0.5686
 2325SOL     OW18607   0.529   1.435   6.854 -0.0988 -0.2394 -0.0646
 2325SOL    HW118608   0.516   1.428   6.949 -0.0306  2.7231  0.1355
 2325SOL    HW218609   0.484   1.356   6.823  2.1017 -1.4674 -0.1757
 2326SOL     OW18610   3.006   0.589   5.724  0.6798 -0.3464  0.0404
 2326SOL    HW118611   2.991   0.672   5.769  0.3868 -0.1262 -0.4557
 2326SOL    HW218612   2.932   0.608   5.665  0.6295  0.8023  0.4692
 2327SOL     OW18613   4.370   0.945  16.908  0.3566 -0.5590  0.1510
 2327SOL    HW118614   4.450   0.977  16.951  0.2037 -0.5846  0.4551
 2327SOL    HW218615   4.409   0.927  16.823  0.5318 -1.5746  0.4442
 2328SOL     OW18616   2.306   2.936   5.355 -0.5221  0.6424  0.1450
 2328SOL    HW118617   2.321   3.020   5.398  1.2925  0.6781 -0.5352
 2328SOL    HW218618   2.381   2.883   5.383 -2.1139 -0.8340  1.6091
 2329SOL     OW18619   2.889   3.981  17.077 -0.1130 -0.6108  0.2138
 2329SOL    HW118620   2.894   3.934  16.994 -1.1588 -0.6523  0.1740
 2329SOL    HW218621   2.909   3.913  17.141  0.9004  0.5761  1.1695
 2330SOL     OW18622   2.352   0.825  12.452  0.0668  0.0291  0.0747
 2330SOL    HW118623   2.439   0.824  12.493 -1.1035 -1.9846  2.5626
 2330SOL    HW218624   2.348   0.736  12.417  1.6617  0.4303 -1.1580
 2331SOL     OW18625   0.665   4.735  12.690  0.1666  0.5943  0.6682
 2331SOL    HW118626   0.670   0.082  12.738 -1.1266  0.4673  1.0451
 2331SOL    HW218627   0.738   4.684  12.724  1.4457  1.2039 -1.1938
 2332SOL     OW18628   2.747   2.132   2.679 -0.0640 -0.3323 -0.6127
 2332SOL    HW118629   2.771   2.156   2.590 -1.6911 -0.5715 -1.1206
 2332SOL    HW218630   2.673   2.075   2.656 -0.7004  0.3955 -0.3819
 2333SOL     OW18631   3.908   3.102   6.554  0.3183  0.3256 -0.3743
 2333SOL    HW118632   3.890   3.174   6.614  0.7930 -0.8775  1.2241
 2333SOL    HW218633   3.886   3.126   6.464 -0.7136  2.4207  0.4604
 2334SOL     OW18634   1.801   0.612   2.600  0.6860  0.3046 -0.4091
 2334SOL    HW118635   1.836   0.541   2.654  0.4474  1.2045  0.9355
 2334SOL    HW218636   1.709   0.589   2.614  0.9693 -2.4709 -3.0340
 2335SOL     OW18637   3.075   2.651   0.489  0.1025  0.5126  0.4768
 2335SOL    HW118638   3.151   2.621   0.538  0.4552 -0.1294 -0.4646
 2335SOL    HW218639   3.055   2.738   0.526  0.4095  1.9249 -2.7026
 2336SOL     OW18640   3.389   4.360   3.757  0.4447 -0.0332 -0.3340
 2336SOL    HW118641   3.303   4.325   3.735  0.0113  0.4409  0.5947
 2336SOL    HW218642   3.438   4.356   3.675  0.1988 -1.4555 -0.4173
 2337SOL     OW18643   2.183   2.151  15.335  0.6955 -0.7543 -0.4866
 2337SOL    HW118644   2.158   2.089  15.404  0.4096  2.0032  1.8987
 2337SOL    HW218645   2.262   2.119  15.290  1.0715  0.8661 -0.9742
 2338SOL     OW18646   0.033   2.154   8.502 -0.1362 -0.4879  0.1198
 2338SOL    HW118647   0.058   2.062   8.513  1.1598 -0.0642  0.7613
 2338SOL    HW218648   4.720   2.179   8.580  0.2758 -0.5778  0.4045
 2339SOL     OW18649   2.222   4.084   3.416  0.3094  0.4866  0.3094
 2339SOL    HW118650   2.309   4.045   3.416  0.6551  1.2478 -0.4480
 2339SOL    HW218651   2.180   4.059   3.334  3.3575  1.2255 -1.4694
 2340SOL     OW18652   0.868   1.000   8.474  0.3226 -0.6191  0.4768
 2340SOL    HW118653   0.948   0.978   8.522 -1.4978  2.4785  4.9587
 2340SOL    HW218654   0.896   0.995   8.383 -3.4470 -2.5973 -0.5896
 2341SOL     OW18655   3.309   2.259  13.532 -0.0185 -0.3455 -0.0596
 2341SOL    HW118656   3.350   2.183  13.491  2.1847  0.6971  0.2394
 2341SOL    HW218657   3.309   2.321  13.459 -1.3255 -1.2486 -0.8288
 2342SOL     OW18658   1.848   2.878  12.603  0.0442  0.6624  0.1817
 2342SOL    HW118659   1.912   2.817  12.640  0.7080  0.6443 -0.9838
 2342SOL    HW218660   1.895   2.959  12.624  1.5876  0.4477 -2.3991
 2343SOL     OW18661   4.052   3.004   1.696 -0.2000 -0.3369 -0.0539
 2343SOL    HW118662   3.991   2.982   1.625  1.8079  0.9017 -2.1891
 2343SOL    HW218663   3.989   3.055   1.746  0.5232  0.5831 -0.0839
 2344SOL     OW18664   1.475   0.850   1.997 -0.0207  0.0139  0.2573
 2344SOL    HW118665   1.430   0.930   2.024 -1.7042 -0.0949 -2.1766
 2344SOL    HW218666   1.563   0.879   2.018 -0.3108  1.5036 -0.5689
 2345SOL     OW18667   1.965   2.582   1.922  0.6607  0.6983  0.2082
 2345SOL    HW118668   2.047   2.559   1.879  0.9383  1.8304  0.1144
 2345SOL    HW218669   1.984   2.563   2.014  0.0916 -0.3133  0.1162
 2346SOL     OW18670   0.419   2.330   4.137  0.2130  0.5419 -0.1395
 2346SOL    HW118671   0.471   2.322   4.216 -1.0489 -0.5888  0.5717
 2346SOL    HW218672   0.462   2.267   4.079 -2.6909 -0.7639 -0.8600
 2347SOL     OW18673   0.176   3.050   4.480 -0.5403 -0.7693 -0.2860
 2347SOL    HW118674   0.152   3.093   4.562  0.0425  1.4562 -1.2776
 2347SOL    HW218675   0.244   2.989   4.509  0.5626  0.7488  0.3385
 2348SOL     OW18676   1.795   4.254   9.042 -0.0848  0.0417 -0.2273
 2348SOL    HW118677   1.844   4.329   9.074 -0.5446 -0.6328  2.0755
 2348SOL    HW218678   1.846   4.184   9.084 -1.9746  0.0092  2.0208
 2349SOL     OW18679   0.501   2.957   7.956 -0.1847  0.2999  0.0142
 2349SOL    HW118680   0.414   2.950   7.916 -0.8660  0.2176  1.5046
 2349SOL    HW218681   0.521   2.866   7.977  0.6869  0.9424  2.0161
 2350SOL     OW18682   2.140   4.722   3.859 -0.2344  0.0185  0.0052
 2350SOL    HW118683   2.065   0.006   3.915  0.2200  0.3189  0.5196
 2350SOL    HW218684   2.107   4.640   3.824 -0.6134 -0.0087  0.4183
 2351SOL     OW18685   1.594   4.000  11.843  0.4264  0.1832 -0.1113
 2351SOL    HW118686   1.513   4.039  11.811  0.1633  0.3341  0.7237
 2351SOL    HW218687   1.562   3.968  11.928  0.7918 -2.2318 -0.8832
 2352SOL     OW18688   4.295   2.303   6.431  0.3789  0.0900 -0.7858
 2352SOL    HW118689   4.283   2.337   6.343 -1.4296  1.1353 -0.1256
 2352SOL    HW218690   4.352   2.226   6.424 -1.7072 -1.5217 -0.1253
 2353SOL     OW18691   1.326   2.268  13.159 -0.1809  0.2425  0.1032
 2353SOL    HW118692   1.366   2.182  13.175 -1.6287 -0.4451 -0.0336
 2353SOL    HW218693   1.380   2.293  13.084  0.2434  0.3469  0.4407
 2354SOL     OW18694   1.957   0.408   7.999  0.5213  0.6321 -0.3078
 2354SOL    HW118695   1.991   0.456   7.924  0.7527 -0.8180 -1.1262
 2354SOL    HW218696   1.984   0.317   7.994 -0.9829  0.1816 -0.3080
 2355SOL     OW18697   1.415   2.240   2.801 -0.2211  0.4959 -0.6885
 2355SOL    HW118698   1.496   2.270   2.761  1.9471 -1.7192  1.9592
 2355SOL    HW218699   1.356   2.314   2.788  0.4170  1.2946  0.9938
 2356SOL     OW18700   1.688   2.047   0.460  0.6726 -0.6273 -0.8069
 2356SOL    HW118701   1.600   2.083   0.448  1.0283  0.5477  0.0466
 2356SOL    HW218702   1.741   2.123   0.488 -0.1034 -1.0546  1.8511
 2357SOL     OW18703   3.033   0.611  10.149  0.0900  0.0429 -0.3717
 2357SOL    HW118704   2.959   0.551  10.161  2.1772 -2.5469 -0.5832
 2357SOL    HW218705   3.063   0.599  10.239 -1.8458  3.0196  0.7023
 2358SOL     OW18706   3.420   1.808  16.902  0.9336 -0.0064 -0.3830
 2358SOL    HW118707   3.429   1.892  16.858 -1.0772 -0.5303 -1.8414
 2358SOL    HW218708   3.491   1.773  16.848  2.1815  0.8556  0.7206
 2359SOL     OW18709   1.789   3.936   5.013 -0.1439  1.0616  0.4141
 2359SOL    HW118710   1.769   3.964   5.103  1.0288  0.8809  0.7331
 2359SOL    HW218711   1.837   4.017   4.994 -0.2004  0.6149 -1.5766
 2360SOL     OW18712   3.872   0.757  15.651  0.1363 -0.6991 -0.3176
 2360SOL    HW118713   3.782   0.760  15.685 -0.6295 -0.9550 -2.3131
 2360SOL    HW218714   3.867   0.695  15.578  0.2742  1.3231 -2.0330
 2361SOL     OW18715   0.243   1.237  15.985  0.3299 -0.1348  0.5841
 2361SOL    HW118716   0.244   1.210  16.077 -1.1521  0.5779  0.8176
 2361SOL    HW218717   0.156   1.202  15.968  0.3279  0.8140 -1.3226
 2362SOL     OW18718   4.323   2.314  13.603  0.0704  0.3022  0.6288
 2362SOL    HW118719   4.418   2.325  13.605  0.3711 -1.6734 -2.8097
 2362SOL    HW218720   4.307   2.221  13.587  2.8090 -0.1457  0.3865
 2363SOL     OW18721   2.162   3.189   7.336  0.1651  0.2936  0.0353
 2363SOL    HW118722   2.228   3.228   7.394  0.6641 -1.6774  0.7855
 2363SOL    HW218723   2.087   3.247   7.347  0.8089  1.3007 -0.8141
 2364SOL     OW18724   2.489   3.116  16.312 -0.1777  0.7345  0.3017
 2364SOL    HW118725   2.423   3.122  16.244  1.0426 -1.1156 -1.0491
 2364SOL    HW218726   2.566   3.152  16.267 -0.3910 -0.3656 -0.9123
 2365SOL     OW18727   4.700   2.353   3.742 -0.5259 -0.3757  0.2740
 2365SOL    HW118728   4.730   2.434   3.783 -2.7924 -0.1253  1.4205
 2365SOL    HW218729   4.728   2.283   3.801 -0.8482 -0.4753  0.3063
 2366SOL     OW18730   1.759   1.023   5.653 -0.2870 -0.2343 -0.5453
 2366SOL    HW118731   1.730   0.958   5.718 -2.4705  0.9906 -0.3119
 2366SOL    HW218732   1.676   1.054   5.617  2.2958  3.1855 -3.5520
 2367SOL     OW18733   4.627   3.958   2.991 -0.0448 -0.1141 -0.2435
 2367SOL    HW118734   4.631   4.034   2.933  1.8390  0.6918  0.9325
 2367SOL    HW218735   4.719   3.931   2.991  0.0349  0.1625 -0.8988
 2368SOL     OW18736   3.154   3.482   5.466  0.0487  0.0802  0.2059
 2368SOL    HW118737   3.248   3.484   5.448  0.0661 -1.0460  0.1203
 2368SOL    HW218738   3.124   3.414   5.406 -3.1458 -0.9533  2.9682
 2369SOL     OW18739   2.031   4.475  17.567  0.1104  0.2149  0.2565
 2369SOL    HW118740   2.077   4.399  17.602  0.3611  0.8222  1.2494
 2369SOL    HW218741   2.068   4.486  17.480 -1.2771  0.5989 -0.2919
 2370SOL     OW18742   0.687   3.344   0.447 -0.3704  0.0508  0.7839
 2370SOL    HW118743   0.606   3.381   0.414 -0.3109 -0.5170 -0.0034
 2370SOL    HW218744   0.666   3.330   0.539 -0.0829 -1.3216  0.6368
 2371SOL     OW18745   4.503   0.967   8.468 -0.2207  0.2722  0.1932
 2371SOL    HW118746   4.566   0.899   8.493 -0.5422 -0.0120  0.2233
 2371SOL    HW218747   4.439   0.912   8.423 -0.7788  2.0427 -1.1826
 2372SOL     OW18748   0.288   4.088   3.146  0.1151  0.5717  0.4566
 2372SOL    HW118749   0.370   4.048   3.115 -0.2793 -1.2097  1.7490
 2372SOL    HW218750   0.297   4.176   3.109 -0.8529  0.2833 -0.4718
 2373SOL     OW18751   1.150   1.357   7.006 -0.0878  0.4719  0.1409
 2373SOL    HW118752   1.092   1.307   6.948 -1.5184  0.5211  1.5315
 2373SOL    HW218753   1.132   1.444   6.970  0.4020 -0.4173 -2.2530
 2374SOL     OW18754   2.751   1.112  12.010 -0.8260 -0.4692 -0.0170
 2374SOL    HW118755   2.755   1.060  11.930 -2.9291  0.7423 -0.9158
 2374SOL    HW218756   2.693   1.057  12.063 -2.6050  0.8860 -0.5366
 2375SOL     OW18757   3.280   3.008   1.597  0.6669 -0.1114 -0.2817
 2375SOL    HW118758   3.263   3.101   1.579  0.0457 -0.4357 -1.3850
 2375SOL    HW218759   3.226   2.976   1.525 -3.4012  2.2342  1.6919
 2376SOL     OW18760   1.407   4.581   1.803 -0.2030 -0.0732 -0.3307
 2376SOL    HW118761   1.422   4.490   1.780 -0.4350 -0.0551 -0.5513
 2376SOL    HW218762   1.315   4.586   1.827 -0.0137 -1.1818  0.6054
 2377SOL     OW18763   1.300   1.648  14.540 -0.0597  0.6578 -0.5342
 2377SOL    HW118764   1.256   1.729  14.514  0.1391  1.0666  0.4003
 2377SOL    HW218765   1.242   1.630  14.614  0.6777  1.7096  0.2939
 2378SOL     OW18766   4.412   3.136  10.650 -0.2831 -0.0016  0.2327
 2378SOL    HW118767   4.444   3.139  10.560  0.9115  0.5462  0.6800
 2378SOL    HW218768   4.318   3.122  10.639 -0.3275  1.1482 -0.9076
 2379SOL     OW18769   1.649   3.991   5.681 -0.5009  0.2967 -0.1801
 2379SOL    HW118770   1.710   4.012   5.751 -2.5198 -0.5367  1.8369
 2379SOL    HW218771   1.627   4.077   5.648  0.5609  0.5198 -0.3043
 2380SOL     OW18772   2.357   4.706   5.535 -0.5928 -0.6986  0.0637
 2380SOL    HW118773   2.422   4.643   5.566 -0.7475 -1.2362 -0.6894
 2380SOL    HW218774   2.377   4.727   5.444  0.2137 -0.3216  0.3319
 2381SOL     OW18775   0.461   2.320   9.449  1.1099  0.8275  0.5620
 2381SOL    HW118776   0.399   2.393   9.439  0.1942 -0.0719 -0.3638
 2381SOL    HW218777   0.400   2.257   9.488 -0.0752  0.8977 -1.1670
 2382SOL     OW18778   4.331   0.614   9.152 -0.0489  0.3458 -0.1104
 2382SOL    HW118779   4.324   0.525   9.118  1.5142  0.7101 -1.3547
 2382SOL    HW218780   4.283   0.669   9.090  0.0679  1.6345  0.9447
 2383SOL     OW18781   4.610   3.591   7.803  0.5307 -0.6024 -0.0422
 2383SOL    HW118782   4.631   3.651   7.875 -0.7268  0.2748 -0.4042
 2383SOL    HW218783   4.543   3.530   7.836 -0.1590  0.8267  1.1869
 2384SOL     OW18784   0.225   2.723  14.319 -0.7227  0.1651  0.2712
 2384SOL    HW118785   0.224   2.643  14.372  2.3549  0.0649  0.1500
 2384SOL    HW218786   0.288   2.701  14.251 -1.9801 -0.3722 -0.7277
 2385SOL     OW18787   2.515   3.181   2.662  0.2223  0.0885 -0.4764
 2385SOL    HW118788   2.450   3.117   2.631  1.0788 -1.1184  0.1992
 2385SOL    HW218789   2.514   3.156   2.755 -0.4372  1.0589 -0.2251
 2386SOL     OW18790   3.384   0.445   2.688  0.0658 -0.3236  0.1944
 2386SOL    HW118791   3.423   0.477   2.607 -0.5184  2.4356  1.0038
 2386SOL    HW218792   3.307   0.501   2.678  1.5128  1.2548 -1.9121
 2387SOL     OW18793   2.133   2.060   1.467  0.0794 -0.3753  0.0334
 2387SOL    HW118794   2.213   2.060   1.520 -0.8795  2.3368  1.5125
 2387SOL    HW218795   2.166   2.034   1.381  2.8269 -1.0134  1.2843
 2388SOL     OW18796   2.824   1.793  10.105  0.4398 -0.1039 -0.1949
 2388SOL    HW118797   2.810   1.840  10.023  0.7840  0.4567  0.0675
 2388SOL    HW218798   2.911   1.817  10.135 -0.1203  0.6052  0.8573
 2389SOL     OW18799   0.221   4.044  17.158  0.2074  0.1774 -0.4690
 2389SOL    HW118800   0.271   3.969  17.125  0.8115 -0.5483  2.0769
 2389SOL    HW218801   0.273   4.075  17.232 -0.6939 -0.1753  0.3165
 2390SOL     OW18802   2.109   4.130   7.561 -0.4798 -0.2941  0.6571
 2390SOL    HW118803   2.060   4.089   7.632 -1.1731  1.1517  1.0135
 2390SOL    HW218804   2.044   4.125   7.490 -1.6563 -0.4311  1.7371
 2391SOL     OW18805   4.177   0.921   2.894  0.1657  0.4171  0.8144
 2391SOL    HW118806   4.112   0.904   2.825  1.3823 -1.2592  0.0827
 2391SOL    HW218807   4.119   0.921   2.970 -1.2408  0.7528 -0.2502
 2392SOL     OW18808   0.031   3.653   6.237 -0.1929 -0.0846 -0.0735
 2392SOL    HW118809   4.716   3.732   6.258 -1.1269 -1.7457  3.7560
 2392SOL    HW218810   4.706   3.579   6.246  0.9833 -0.5728  3.5338
 2393SOL     OW18811   0.243   4.678   2.799  0.6358  0.0507 -0.0616
 2393SOL    HW118812   0.183   4.720   2.861  1.3436 -0.9705  1.3127
 2393SOL    HW218813   0.179   4.630   2.747  0.4030  1.1238 -0.7681
 2394SOL     OW18814   1.176   1.941  16.703 -0.4377  0.5085  0.1287
 2394SOL    HW118815   1.158   1.899  16.619  1.5736  0.2813 -0.1906
 2394SOL    HW218816   1.151   1.865  16.755 -0.0479  1.8109  2.1854
 2395SOL     OW18817   0.250   2.030   1.006  0.1632  0.3406 -0.5364
 2395SOL    HW118818   0.213   1.946   0.978  1.9165 -0.6225 -0.0246
 2395SOL    HW218819   0.288   1.993   1.086 -0.4300  0.5161 -0.1733
 2396SOL     OW18820   1.098   2.293   4.959  0.0638  0.3989  0.0235
 2396SOL    HW118821   1.111   2.220   4.898 -0.9978 -1.2877  1.7950
 2396SOL    HW218822   1.187   2.309   4.990  0.3740  1.0211 -1.2185
 2397SOL     OW18823   0.246   0.276   9.522 -0.2533  0.1094  0.0359
 2397SOL    HW118824   0.245   0.208   9.454  0.0787  0.3183 -0.1761
 2397SOL    HW218825   0.151   0.284   9.531 -0.2882  1.9377 -1.8024
 2398SOL     OW18826   1.065   2.926   5.701  0.4884  0.4022  0.9651
 2398SOL    HW118827   1.142   2.960   5.747  1.0368 -0.1276  0.4360
 2398SOL    HW218828   0.999   2.967   5.757 -2.3214  1.0867 -2.7957
 2399SOL     OW18829   4.050   2.018  16.139  0.1566  0.0679 -0.4476
 2399SOL    HW118830   4.000   2.090  16.101 -0.8634 -0.4947 -0.1796
 2399SOL    HW218831   4.121   2.072  16.174 -0.8617  1.3378 -0.3420
 2400SOL     OW18832   4.600   2.930   8.857 -0.4903 -0.0520 -0.0346
 2400SOL    HW118833   4.591   2.835   8.857  1.0160 -0.2021  2.6084
 2400SOL    HW218834   4.585   2.951   8.949 -0.1992  2.5065 -0.5606
 2401SOL     OW18835   1.469   1.452   4.011 -0.0794  0.2063 -0.2718
 2401SOL    HW118836   1.374   1.443   4.004 -0.5209  3.0653  1.8908
 2401SOL    HW218837   1.496   1.403   3.933 -1.2629 -1.9508  0.6464
 2402SOL     OW18838   2.866   2.105   3.572 -0.0195 -0.1714 -0.5730
 2402SOL    HW118839   2.896   2.188   3.610 -0.9014  0.0940 -0.4571
 2402SOL    HW218840   2.889   2.053   3.649  1.8608  0.8407 -0.4462
 2403SOL     OW18841   0.273   1.242   3.171 -0.5007  0.3180 -0.2334
 2403SOL    HW118842   0.193   1.191   3.161 -1.0129  1.0226  0.2938
 2403SOL    HW218843   0.241   1.328   3.198  1.5051  0.8280  0.5219
 2404SOL     OW18844   0.623   2.576   4.538  0.4319 -0.0024 -0.0820
 2404SOL    HW118845   0.700   2.612   4.580  0.6442  1.5424 -1.7653
 2404SOL    HW218846   0.593   2.524   4.613 -0.2831  2.6995  1.5052
 2405SOL     OW18847   3.102   0.559   2.626  0.0902 -0.2103  0.3706
 2405SOL    HW118848   3.075   0.483   2.677  0.8853 -0.7554 -0.0276
 2405SOL    HW218849   3.020   0.607   2.618  0.0209 -0.5740 -1.2189
 2406SOL     OW18850   0.422   3.205  14.696  0.6184 -0.1444 -0.3964
 2406SOL    HW118851   0.459   3.117  14.696  0.7326 -0.0968 -0.3741
 2406SOL    HW218852   0.443   3.229  14.606  0.2947  1.2612 -0.0891
 2407SOL     OW18853   0.956   0.552   7.992 -0.5590  0.2988  0.6047
 2407SOL    HW118854   1.043   0.513   7.992 -1.1467 -1.0034 -2.0845
 2407SOL    HW218855   0.914   0.478   8.037 -0.8125 -0.8355 -1.4875
 2408SOL     OW18856   0.701   2.758   0.069 -0.0299  0.3635 -0.4140
 2408SOL    HW118857   0.731   2.824   0.006  0.3243  0.0611 -0.5641
 2408SOL    HW218858   0.689   2.683   0.010  2.7324 -0.7331  0.4169
 2409SOL     OW18859   2.404   2.352   2.613 -0.2026  0.0577  0.0848
 2409SOL    HW118860   2.490   2.389   2.595  0.7193 -1.1856  1.9007
 2409SOL    HW218861   2.404   2.290   2.541  0.7064  0.2726 -0.0911
 2410SOL     OW18862   0.932   0.069   5.704 -0.3169  0.4138 -0.4284
 2410SOL    HW118863   0.992   0.088   5.776  0.6697 -2.4827 -0.4513
 2410SOL    HW218864   0.978   4.724   5.678  0.5061  0.3209  1.3801
 2411SOL     OW18865   1.439   3.524   2.734 -0.0472 -0.4909  0.3667
 2411SOL    HW118866   1.381   3.490   2.802 -1.3056 -2.4139 -1.6558
 2411SOL    HW218867   1.526   3.484   2.738  0.8767  1.5152  0.6486
 2412SOL     OW18868   3.096   1.926   3.782  0.0389 -0.4023 -0.2418
 2412SOL    HW118869   3.103   1.886   3.696  2.8012 -0.4939  0.0247
 2412SOL    HW218870   3.163   1.994   3.773  0.3420 -0.4088  1.8515
 2413SOL     OW18871   0.813   2.353   7.609  0.0450 -0.1916  0.3436
 2413SOL    HW118872   0.868   2.426   7.579 -0.0658  0.0991  0.8552
 2413SOL    HW218873   0.848   2.279   7.560  0.2031  1.2773 -1.7690
 2414SOL     OW18874   0.778   3.135   5.548 -0.6254 -0.2719 -0.3029
 2414SOL    HW118875   0.773   3.228   5.527 -0.2737 -0.3280 -0.6384
 2414SOL    HW218876   0.871   3.124   5.568 -0.9218 -1.6773  0.2811
 2415SOL     OW18877   4.564   3.016   9.118  0.3699 -0.3644  0.4176
 2415SOL    HW118878   4.612   2.969   9.186  0.2866  0.2647  0.9080
 2415SOL    HW218879   4.476   3.004   9.155  1.1342 -1.6217  1.8391
 2416SOL     OW18880   0.529   0.454   8.922  0.1070  0.2452  0.7150
 2416SOL    HW118881   0.566   0.468   8.834 -1.8903  1.2329  0.0231
 2416SOL    HW218882   0.579   0.522   8.967  1.4812  1.4316 -2.5510
 2417SOL     OW18883   2.885   3.612   5.309  0.1023  0.0996 -0.4880
 2417SOL    HW118884   2.790   3.597   5.308 -0.4155  3.3818 -0.7182
 2417SOL    HW218885   2.897   3.624   5.404  1.2853  2.6878 -0.9773
 2418SOL     OW18886   0.563   1.244  13.896 -0.2593 -0.5896  0.5810
 2418SOL    HW118887   0.492   1.180  13.894 -1.8280  1.1226  1.6693
 2418SOL    HW218888   0.637   1.198  13.855 -1.9517 -1.9665 -0.9290
 2419SOL     OW18889   0.055   4.028   2.386  0.3609  0.6461  0.2816
 2419SOL    HW118890   4.711   4.036   2.440 -0.2997 -1.3552 -0.3636
 2419SOL    HW218891   0.089   3.941   2.410 -1.6725 -0.6376 -1.4875
 2420SOL     OW18892   0.378   0.207   6.618  0.0284 -0.0784  0.5787
 2420SOL    HW118893   0.446   0.242   6.560  0.4350  0.3097  1.2997
 2420SOL    HW218894   0.303   0.257   6.585 -0.4539  1.4518  4.0313
 2421SOL     OW18895   4.451   2.205   7.591 -0.0832  0.1046  0.3105
 2421SOL    HW118896   4.476   2.141   7.657 -0.1277 -0.3499 -0.1068
 2421SOL    HW218897   4.387   2.261   7.635  1.2774  0.4514  1.8318
 2422SOL     OW18898   0.630   2.954  10.539 -0.4135  0.1091 -0.1630
 2422SOL    HW118899   0.641   3.049  10.544 -0.5601  0.1518 -0.7088
 2422SOL    HW218900   0.636   2.938  10.445  0.5724  1.4943 -0.3461
 2423SOL     OW18901   0.714   1.466   9.420  0.4482  0.2014 -0.1390
 2423SOL    HW118902   0.655   1.392   9.434  1.5816 -0.1344  2.9098
 2423SOL    HW218903   0.790   1.430   9.467 -0.2428  0.1317  0.9304
 2424SOL     OW18904   1.165   1.408   3.881 -0.0329 -0.5981  0.2217
 2424SOL    HW118905   1.174   1.447   3.794  2.4126 -0.2262  0.6364
 2424SOL    HW218906   1.107   1.340   3.848 -1.3623  0.4403  0.4124
 2425SOL     OW18907   0.082   2.823   7.654  0.1659 -0.4449  0.5104
 2425SOL    HW118908   0.159   2.878   7.667 -1.5188  1.6017  2.0964
 2425SOL    HW218909   0.061   2.826   7.561  0.9628 -4.1054  0.2209
 2426SOL     OW18910   2.843   0.835  16.538 -0.2452 -0.4028  0.5348
 2426SOL    HW118911   2.921   0.855  16.487  1.6106 -1.3865  3.0202
 2426SOL    HW218912   2.851   0.740  16.538 -0.5508 -0.4409 -1.0431
 2427SOL     OW18913   1.230   4.101   8.153  0.0708 -0.1281  0.1468
 2427SOL    HW118914   1.185   4.093   8.070 -0.7209 -2.7258  0.8369
 2427SOL    HW218915   1.262   4.012   8.167 -1.1913 -0.5928  0.0402
 2428SOL     OW18916   0.731   1.295   1.873  0.5027  0.2252  0.2995
 2428SOL    HW118917   0.698   1.295   1.783  0.4119 -1.6692  0.3442
 2428SOL    HW218918   0.658   1.266   1.928 -0.7519  0.9415 -0.9806
 2429SOL     OW18919   3.415   2.712   7.617 -0.3945  0.2139  0.4892
 2429SOL    HW118920   3.443   2.737   7.529  0.7730  0.8395  1.0402
 2429SOL    HW218921   3.321   2.694   7.612 -0.3761 -0.2729  1.6932
 2430SOL     OW18922   0.736   4.643   6.842 -0.1486  0.2217 -0.5205
 2430SOL    HW118923   0.660   4.700   6.833  0.3042  0.6382 -1.8076
 2430SOL    HW218924   0.752   4.604   6.756 -0.5175 -0.5151 -0.2495
 2431SOL     OW18925   1.011   0.836   3.693 -0.4172 -0.8025 -0.0410
 2431SOL    HW118926   0.982   0.921   3.661  2.2160  0.6585  1.4691
 2431SOL    HW218927   1.078   0.857   3.758 -0.6732  0.0919 -0.0650
 2432SOL     OW18928   3.598   0.791  15.306 -0.1823  0.0326 -0.0268
 2432SOL    HW118929   3.561   0.705  15.326  1.2725 -0.8175 -0.9902
 2432SOL    HW218930   3.521   0.847  15.317  0.9423  1.9934 -2.2924
 2433SOL     OW18931   1.072   4.365   3.079 -0.3863  0.4586 -0.3348
 2433SOL    HW118932   1.040   4.277   3.099  0.6427  0.2914  0.5798
 2433SOL    HW218933   1.130   4.349   3.005 -1.5462  1.8840 -1.5376
 2434SOL     OW18934   2.646   1.446   3.967  0.0597 -0.3611 -0.2395
 2434SOL    HW118935   2.701   1.375   4.000 -0.4961 -1.0429 -0.7695
 2434SOL    HW218936   2.713   1.511   3.943  0.4858 -1.8356 -3.0261
 2435SOL     OW18937   0.550   0.706   9.310  0.6002 -0.6045  0.0790
 2435SOL    HW118938   0.582   0.699   9.220 -0.3340 -2.0664 -0.1297
 2435SOL    HW218939   0.456   0.705   9.294  0.8958  0.1186 -1.7942
 2436SOL     OW18940   1.515   3.784   7.305 -0.2938  0.0899  0.3413
 2436SOL    HW118941   1.516   3.849   7.375 -0.1897  1.2247 -0.7260
 2436SOL    HW218942   1.600   3.800   7.264 -0.3677 -1.5159 -0.4316
 2437SOL     OW18943   0.146   4.052   6.729  0.5347  0.0958  0.2738
 2437SOL    HW118944   0.144   3.990   6.656  0.3168  0.5496 -0.1036
 2437SOL    HW218945   0.105   4.127   6.686  1.7079 -0.9075 -2.5322
 2438SOL     OW18946   2.546   2.917   0.570  0.2342 -0.0807  0.1689
 2438SOL    HW118947   2.484   2.990   0.563  0.6902  0.2432 -0.4900
 2438SOL    HW218948   2.587   2.924   0.484  2.0219  0.6631  1.0955
 2439SOL     OW18949   1.250   0.312  15.371 -0.2595 -0.1045 -0.2097
 2439SOL    HW118950   1.270   0.405  15.375 -1.2233 -0.0531  3.3451
 2439SOL    HW218951   1.155   0.303  15.371 -0.4247  1.7271 -1.8171
 2440SOL     OW18952   0.072   1.683   5.357 -0.0720 -0.0215  0.7330
 2440SOL    HW118953   0.136   1.680   5.285 -1.5045  2.0590 -0.6100
 2440SOL    HW218954   0.111   1.759   5.401  0.2214 -0.5593  1.4064
 2441SOL     OW18955   2.530   2.445   0.708  0.1363 -0.2823 -0.1361
 2441SOL    HW118956   2.558   2.405   0.626  0.9455  2.7312 -1.3319
 2441SOL    HW218957   2.583   2.525   0.700 -2.0907  1.1398 -0.7653
 2442SOL     OW18958   1.578   2.793  14.570 -0.0618  0.5897  0.1849
 2442SOL    HW118959   1.636   2.802  14.495 -0.0931 -1.0763 -0.0540
 2442SOL    HW218960   1.563   2.883  14.597 -0.0838  1.2976 -2.2141
 2443SOL     OW18961   4.170   0.626  14.081 -0.0155  0.1957  0.8904
 2443SOL    HW118962   4.141   0.617  14.171  0.7232 -4.6181  0.6858
 2443SOL    HW218963   4.241   0.689  14.087  0.1651  0.1092 -0.2483
 2444SOL     OW18964   2.522   1.512   2.740  0.5567 -0.4284 -0.2097
 2444SOL    HW118965   2.533   1.555   2.825 -0.3676  0.3372 -0.4758
 2444SOL    HW218966   2.610   1.515   2.704  0.0698  1.1121 -1.2348
 2445SOL     OW18967   3.988   0.984  15.700 -0.3316 -0.0329  0.1096
 2445SOL    HW118968   3.922   0.920  15.675 -0.9531  0.9533 -0.7382
 2445SOL    HW218969   4.047   0.981  15.625  0.9446  1.0929  1.0693
 2446SOL     OW18970   1.221   1.419  13.737  0.1188 -0.0862 -0.1819
 2446SOL    HW118971   1.281   1.481  13.778 -1.6665  1.5820 -0.0879
 2446SOL    HW218972   1.225   1.433  13.643 -1.5830  0.6400 -0.1542
 2447SOL     OW18973   1.279   1.492   6.304  0.6897  0.0174 -0.3239
 2447SOL    HW118974   1.307   1.410   6.264  1.5731 -0.1036  0.5516
 2447SOL    HW218975   1.354   1.549   6.321  1.8123 -0.9925 -1.9208
 2448SOL     OW18976   2.797   2.646   9.352 -0.1691 -0.2496 -0.1142
 2448SOL    HW118977   2.891   2.656   9.339  0.0514 -2.3095 -0.0738
 2448SOL    HW218978   2.793   2.551   9.337 -2.3539 -0.3569  1.0908
 2449SOL     OW18979   1.806   3.097   0.659 -0.1076 -0.6001  0.0135
 2449SOL    HW118980   1.732   3.153   0.634 -0.5595 -0.9085  0.6706
 2449SOL    HW218981   1.761   3.033   0.714  0.2635 -0.7896  0.0973
 2450SOL     OW18982   2.931   0.369   4.975  0.0732 -0.3473 -0.1970
 2450SOL    HW118983   2.886   0.290   5.003 -1.7606 -0.0625 -2.3332
 2450SOL    HW218984   2.864   0.437   4.975 -0.8195 -1.2437  0.8410
 2451SOL     OW18985   3.184   4.126   0.377 -0.2856 -0.3984  0.5406
 2451SOL    HW118986   3.198   4.132   0.283 -0.6683  2.4576  0.6822
 2451SOL    HW218987   3.201   4.032   0.385 -0.7331 -0.6063 -0.9342
 2452SOL     OW18988   2.855   0.740   0.432 -0.0315  0.3172 -0.2931
 2452SOL    HW118989   2.945   0.727   0.402  0.5234  0.7839  1.1708
 2452SOL    HW218990   2.834   0.659   0.479  4.5499  0.0790  1.2827
 2453SOL     OW18991   0.779   3.511  16.253 -0.0241 -0.6718 -0.4394
 2453SOL    HW118992   0.811   3.436  16.204  1.5656 -1.0705  1.1970
 2453SOL    HW218993   0.702   3.476  16.296  0.7667 -0.3801  1.2050
 2454SOL     OW18994   1.352   1.771   8.788  0.7204 -0.7837 -0.5143
 2454SOL    HW118995   1.303   1.848   8.818  0.9423 -0.7300 -0.2906
 2454SOL    HW218996   1.296   1.704   8.826 -0.1190 -0.7384 -1.6631
 2455SOL     OW18997   1.287   0.163   9.076  0.3329 -0.2773 -0.3557
 2455SOL    HW118998   1.225   0.098   9.106  1.1776 -0.8194  0.2086
 2455SOL    HW218999   1.262   0.172   8.984  1.9727 -1.2545 -0.8963
 2456SOL     OW19000   1.361   4.497   8.499 -0.9451  0.0316  0.1074
 2456SOL    HW119001   1.453   4.516   8.479 -1.5214 -0.2413 -2.8409
 2456SOL    HW219002   1.327   4.533   8.417 -4.2394 -2.3626  0.4257
 2457SOL     OW19003   2.717   4.417   7.319  0.6887 -0.1771 -0.0744
 2457SOL    HW119004   2.705   4.332   7.362 -1.6860 -0.6170 -1.5566
 2457SOL    HW219005   2.755   4.474   7.385 -0.2182  1.8736 -1.3491
 2458SOL     OW19006   0.741   1.631  14.602 -0.6355 -0.7120  0.4690
 2458SOL    HW119007   0.661   1.659  14.557 -0.0104 -1.1461 -0.9234
 2458SOL    HW219008   0.734   1.671  14.689  2.0295 -3.1029  1.7509
 2459SOL     OW19009   1.936   3.786   2.079  0.4657 -0.2004  0.3860
 2459SOL    HW119010   2.029   3.809   2.081 -0.2415  2.4197  3.1743
 2459SOL    HW219011   1.908   3.830   2.159  1.2210  2.9052 -1.0539
 2460SOL     OW19012   0.831   3.143   0.359 -0.3014 -0.0858  0.0393
 2460SOL    HW119013   0.783   3.224   0.373  0.4321  0.5130 -0.9523
 2460SOL    HW219014   0.785   3.082   0.417 -0.0488 -0.7733 -0.4813
 2461SOL     OW19015   0.086   4.508   4.154 -0.0487 -0.3150 -0.2430
 2461SOL    HW119016   0.101   4.602   4.152  0.3283 -0.3590  0.4135
 2461SOL    HW219017   0.138   4.470   4.083  1.7134  0.7780  0.4504
 2462SOL     OW19018   4.334   1.977   2.975 -0.1523 -0.3816 -0.6212
 2462SOL    HW119019   4.253   1.934   2.946 -2.1564  0.9652  2.9654
 2462SOL    HW219020   4.402   1.910   2.963  1.6356  0.7859  2.8213
 2463SOL     OW19021   2.149   1.959   4.938  0.0331 -0.3047  0.2077
 2463SOL    HW119022   2.150   2.039   4.884 -1.9053 -0.5570 -0.1837
 2463SOL    HW219023   2.233   1.915   4.923 -0.1094 -0.0879 -1.3123
 2464SOL     OW19024   3.419   3.607   4.234 -0.0250  0.0008 -0.6033
 2464SOL    HW119025   3.378   3.601   4.148 -0.6032  1.5952 -0.4335
 2464SOL    HW219026   3.510   3.603   4.202 -0.0997 -0.2844 -0.7841
 2465SOL     OW19027   3.014   1.101   1.091 -0.3969  0.1872 -0.1168
 2465SOL    HW119028   2.961   1.129   1.016 -2.2667 -0.9626  0.7799
 2465SOL    HW219029   3.104   1.107   1.058  0.6036  0.1097  2.6224
 2466SOL     OW19030   4.391   3.968   5.989 -0.1944  0.3616  0.5448
 2466SOL    HW119031   4.427   4.000   6.072  0.1659 -0.0706  0.5547
 2466SOL    HW219032   4.372   3.880   6.022 -0.4982  1.0695  2.2706
 2467SOL     OW19033   1.632   4.132  11.106  0.1646  0.3022  0.2861
 2467SOL    HW119034   1.662   4.217  11.138  2.0566 -0.7615  1.3340
 2467SOL    HW219035   1.582   4.104  11.183  0.2329 -3.2260 -0.9339
 2468SOL     OW19036   0.646   2.155   8.102  0.0950  0.6129  0.7109
 2468SOL    HW119037   0.586   2.192   8.167 -2.2175  0.7146 -1.4742
 2468SOL    HW219038   0.622   2.213   8.029 -1.0360 -0.0344  0.5674
 2469SOL     OW19039   2.007   2.564   6.506 -0.0179  0.4385 -0.0562
 2469SOL    HW119040   2.091   2.609   6.500  0.7959 -1.0698  0.1085
 2469SOL    HW219041   2.024   2.481   6.551  2.3601  1.1580  0.3281
 2470SOL     OW19042   2.084   2.321  15.716 -0.0042  0.1182  0.7135
 2470SOL    HW119043   2.015   2.321  15.649 -0.5839 -0.5668  1.3092
 2470SOL    HW219044   2.159   2.343  15.660 -0.4647  2.4693  1.0205
 2471SOL     OW19045   4.503   2.420   5.498 -0.5459 -0.2793 -0.5943
 2471SOL    HW119046   4.594   2.434   5.472  0.4652 -0.0788  3.1198
 2471SOL    HW219047   4.478   2.351   5.437  2.4308 -0.6438 -1.4069
 2472SOL     OW19048   2.866   1.979   9.908 -0.0141  0.3005  0.1295
 2472SOL    HW119049   2.892   2.048   9.969 -0.9200  0.5644  0.2318
 2472SOL    HW219050   2.814   2.029   9.845 -0.3592 -0.0966  0.0987
 2473SOL     OW19051   2.239   0.897   7.030  0.6729 -0.2803  0.0287
 2473SOL    HW119052   2.300   0.826   7.048 -1.5178 -2.7898 -2.4364
 2473SOL    HW219053   2.247   0.954   7.106 -0.8823  0.8334 -0.6417
 2474SOL     OW19054   0.083   0.037   4.777  0.3482 -0.1944  0.2334
 2474SOL    HW119055   0.071   0.095   4.853 -0.8498  1.4370 -1.2214
 2474SOL    HW219056   0.055   4.686   4.808 -2.0228  1.0993  1.7302
 2475SOL     OW19057   1.419   1.248   4.419 -0.5149  0.5445  0.4176
 2475SOL    HW119058   1.384   1.258   4.330  1.8289  2.3327 -0.2810
 2475SOL    HW219059   1.355   1.294   4.474  0.0633  1.3616  0.4018
 2476SOL     OW19060   3.048   4.488   6.637 -0.3201  0.2802 -0.9304
 2476SOL    HW119061   2.960   4.515   6.664  0.7908  1.0867  1.9093
 2476SOL    HW219062   3.075   4.572   6.602  3.8245 -0.7307 -0.1175
 2477SOL     OW19063   3.896   2.511   1.135  0.6023  0.6009  0.0673
 2477SOL    HW119064   3.929   2.421   1.131 -3.9164 -0.9686 -1.2424
 2477SOL    HW219065   3.856   2.505   1.222 -1.9030 -2.3261 -1.3014
 2478SOL     OW19066   0.033   1.176   7.056  0.1952  0.3841 -0.3930
 2478SOL    HW119067   4.699   1.178   6.989  0.4422 -0.7080 -0.6752
 2478SOL    HW219068   0.100   1.120   7.018  0.7199  1.2704 -0.7615
 2479SOL     OW19069   2.110   0.659   3.552 -0.0045 -0.1917  0.5274
 2479SOL    HW119070   2.146   0.643   3.639  0.5768 -1.5932  0.0296
 2479SOL    HW219071   2.036   0.599   3.548 -0.7434  0.6726  1.1988
 2480SOL     OW19072   1.538   2.359  16.161  0.0509 -0.3922  0.6655
 2480SOL    HW119073   1.521   2.268  16.134  0.8392 -0.7387  1.3590
 2480SOL    HW219074   1.521   2.406  16.079 -2.6386 -0.2793  1.3014
 2481SOL     OW19075   2.835   3.887   5.497 -0.4318 -0.9161  0.1077
 2481SOL    HW119076   2.812   3.879   5.404  1.6763  3.6673 -0.8362
 2481SOL    HW219077   2.883   3.806   5.512 -1.8714 -1.9772 -1.1066
 2482SOL     OW19078   4.578   1.681  10.594  0.2596 -0.6086  0.4701
 2482SOL    HW119079   4.584   1.725  10.509  0.3957 -1.8610 -0.1763
 2482SOL    HW219080   4.525   1.604  10.573 -0.8996  0.4898 -0.6604
 2483SOL     OW19081   0.393   1.491   1.154 -0.4211 -0.0364 -0.4765
 2483SOL    HW119082   0.451   1.528   1.088 -0.0661 -1.4641 -0.9580
 2483SOL    HW219083   0.336   1.449   1.090  0.7324  0.3128 -1.7260
 2484SOL     OW19084   4.205   3.948   5.203  0.5739  0.5302  0.7672
 2484SOL    HW119085   4.288   3.905   5.183  0.2034  0.9471 -1.6625
 2484SOL    HW219086   4.215   4.030   5.154 -2.0714  0.1601 -0.3777
 2485SOL     OW19087   1.801   3.353   9.703  0.2916 -0.5478 -0.3075
 2485SOL    HW119088   1.799   3.319   9.793  2.1065  0.6624  0.1983
 2485SOL    HW219089   1.879   3.409   9.705  0.3861 -0.6468 -1.1919
 2486SOL     OW19090   2.930   4.415  12.741  0.6917 -0.3562 -0.1535
 2486SOL    HW119091   2.852   4.362  12.724  0.8257 -0.5296 -0.2196
 2486SOL    HW219092   2.969   4.361  12.810 -1.0194  0.3633  1.3773
 2487SOL     OW19093   1.545   3.724   8.702 -0.5031 -0.2107  0.5454
 2487SOL    HW119094   1.579   3.782   8.634 -0.1372 -0.1061  0.8152
 2487SOL    HW219095   1.485   3.789   8.737 -0.2009  0.5660 -0.3937
 2488SOL     OW19096   0.666   3.589   7.703  0.4417 -0.1039 -0.0314
 2488SOL    HW119097   0.585   3.638   7.690  0.3342 -0.7435 -1.7303
 2488SOL    HW219098   0.685   3.609   7.795  1.2858 -1.6744  0.1405
 2489SOL     OW19099   3.584   2.669   5.978 -0.6070 -0.1046 -0.9466
 2489SOL    HW119100   3.586   2.655   5.883 -0.0359  2.4599 -1.3261
 2489SOL    HW219101   3.598   2.581   6.012  3.1270  0.4019 -1.2191
 2490SOL     OW19102   0.457   2.415   5.614 -0.1793  0.0799  0.5174
 2490SOL    HW119103   0.461   2.347   5.681  1.1258  0.0407  0.4059
 2490SOL    HW219104   0.517   2.475   5.657 -0.0837 -0.8729  1.7170
 2491SOL     OW19105   0.004   0.237  17.148 -0.2847  0.0647  0.0506
 2491SOL    HW119106   0.041   0.152  17.123 -2.7013 -0.4939 -1.5370
 2491SOL    HW219107   4.661   0.213  17.198 -0.3862  0.6712  0.1745
 2492SOL     OW19108   4.376   2.413   9.773 -0.1511  0.2333  0.0955
 2492SOL    HW119109   4.339   2.391   9.688  0.8684  1.6570 -0.7153
 2492SOL    HW219110   4.295   2.431   9.822  0.4283  1.1685  0.7198
 2493SOL     OW19111   1.750   4.026   5.951  0.1640  0.7020  0.4912
 2493SOL    HW119112   1.791   3.988   6.029 -1.7428  2.0385  2.1577
 2493SOL    HW219113   1.766   4.115   5.984  0.8969 -0.2471  2.6898
 2494SOL     OW19114   0.636   0.095  15.046 -0.5962 -0.1992 -0.0059
 2494SOL    HW119115   0.574   0.113  15.117 -0.4459  0.5606 -0.0615
 2494SOL    HW219116   0.604   0.015  15.004 -1.1846  0.3865 -0.6970
 2495SOL     OW19117   1.249   1.569  11.419  0.1991  0.4036  0.4614
 2495SOL    HW119118   1.157   1.572  11.446  0.0481 -1.3613  0.1862
 2495SOL    HW219119   1.240   1.506  11.347 -2.2093 -1.5602  2.4740
 2496SOL     OW19120   0.162   1.914   8.587  0.2770 -0.2218  0.3877
 2496SOL    HW119121   0.251   1.886   8.605  0.6389 -0.3692 -1.6799
 2496SOL    HW219122   0.120   1.830   8.608  0.1545 -0.4041 -0.5849
 2497SOL     OW19123   3.741   0.494   2.639 -0.9159  0.0114 -0.1335
 2497SOL    HW119124   3.751   0.571   2.583 -2.1610 -2.2826 -3.4852
 2497SOL    HW219125   3.734   0.433   2.565 -1.1426  0.2633 -0.3192
 2498SOL     OW19126   2.387   4.372   4.538  0.0685  0.4568 -0.2192
 2498SOL    HW119127   2.384   4.293   4.484  0.7260 -0.1004  0.5716
 2498SOL    HW219128   2.324   4.425   4.488 -0.2150  1.8047  1.5866
 2499SOL     OW19129   0.580   4.699  13.180 -0.4132  0.1420 -0.0121
 2499SOL    HW119130   0.580   0.049  13.225 -1.1673  0.2856 -0.2768
 2499SOL    HW219131   0.639   4.646  13.232 -1.1793 -0.7956 -0.1003
 2500SOL     OW19132   3.198   4.181   8.771 -0.9416  0.3364 -0.8726
 2500SOL    HW119133   3.211   4.271   8.798  1.2143 -0.5117  0.9017
 2500SOL    HW219134   3.261   4.136   8.827 -0.5712 -1.6000 -2.8006
 2501SOL     OW19135   3.192   3.554   0.104 -0.4479  0.4252 -0.4566
 2501SOL    HW119136   3.145   3.564   0.186  1.1341 -0.3462  0.5487
 2501SOL    HW219137   3.145   3.610   0.042 -0.9085  0.9452  0.3680
 2502SOL     OW19138   4.197   0.223   7.643  0.4015  0.3124  0.1246
 2502SOL    HW119139   4.219   0.207   7.551 -0.7709  0.0305 -0.0991
 2502SOL    HW219140   4.176   0.316   7.645  0.9260  0.4226  0.6596
 2503SOL     OW19141   2.319   4.537  17.229 -0.2716  0.5539 -0.6047
 2503SOL    HW119142   2.338   4.619  17.184  0.7031  1.4896  1.4945
 2503SOL    HW219143   2.405   4.515  17.267 -1.5101  0.2897  2.0109
 2504SOL     OW19144   1.109   3.480   5.908 -0.3747  0.4413  0.8867
 2504SOL    HW119145   1.034   3.539   5.916 -0.5910  0.6604 -2.5046
 2504SOL    HW219146   1.175   3.528   5.856 -2.3895  3.1849  0.8532
 2505SOL     OW19147   4.572   1.386   5.350 -0.4254  0.2633  0.5778
 2505SOL    HW119148   4.535   1.298   5.336 -1.0816  0.8922 -1.6168
 2505SOL    HW219149   4.635   1.369   5.420  1.2098  0.8054 -0.7679
 2506SOL     OW19150   1.345   2.218  10.371  0.0379  0.6396  0.2177
 2506SOL    HW119151   1.321   2.125  10.369 -2.4756  1.2753  2.1474
 2506SOL    HW219152   1.271   2.260  10.414 -0.7755  0.8390 -1.3855
 2507SOL     OW19153   2.191   1.477  10.256 -0.0151 -0.1732  0.1184
 2507SOL    HW119154   2.171   1.524  10.336 -0.9439 -1.4305  0.6312
 2507SOL    HW219155   2.109   1.437  10.228 -0.0507  1.4886 -2.1151
 2508SOL     OW19156   3.002   3.552   2.902  0.0382 -0.1564  0.6804
 2508SOL    HW119157   3.016   3.630   2.956 -0.1247 -0.5143  1.2341
 2508SOL    HW219158   2.918   3.513   2.926 -0.3315 -0.4093 -0.9704
 2509SOL     OW19159   0.974   1.202   8.661 -0.5890  0.5979 -0.1147
 2509SOL    HW119160   1.038   1.141   8.624 -0.2632  0.8571  0.0139
 2509SOL    HW219161   0.890   1.156   8.662 -0.3288  0.0518 -2.4380
 2510SOL     OW19162   0.569   1.577  14.817  0.1342  0.2750 -0.4645
 2510SOL    HW119163   0.528   1.631  14.885  2.8100 -0.3575  1.6675
 2510SOL    HW219164   0.588   1.493  14.859  0.5226  0.4868 -0.2118
 2511SOL     OW19165   1.839   1.590   4.728 -0.7751 -0.6146  0.3012
 2511SOL    HW119166   1.766   1.588   4.665 -2.2437 -0.1358  1.9878
 2511SOL    HW219167   1.913   1.558   4.676  0.0733  0.4548  0.8663
 2512SOL     OW19168   2.272   1.016   7.273  0.3973  0.2076 -0.0267
 2512SOL    HW119169   2.234   1.021   7.360 -1.3230 -0.7094 -0.7271
 2512SOL    HW219170   2.279   1.108   7.247  0.4358  0.1803 -0.1165
 2513SOL     OW19171   3.081   1.890   4.159  0.5367  0.8891  0.3083
 2513SOL    HW119172   3.026   1.936   4.097  0.0377 -0.3751 -0.1919
 2513SOL    HW219173   3.020   1.847   4.219  0.4971  0.4780 -0.0242
 2514SOL     OW19174   1.902   0.393   2.799  0.6680  0.0658 -0.1829
 2514SOL    HW119175   1.946   0.325   2.850 -0.9526 -0.3955  0.5866
 2514SOL    HW219176   1.840   0.332   2.759 -1.1514  0.5109  1.9571
 2515SOL     OW19177   2.598   3.702  13.354 -0.2556  0.5212 -0.1742
 2515SOL    HW119178   2.653   3.624  13.346 -1.4578 -0.5086  1.6366
 2515SOL    HW219179   2.508   3.671  13.345  0.2489 -0.7954 -0.6539
 2516SOL     OW19180   1.129   0.791   5.852 -0.0762  0.4284  0.3059
 2516SOL    HW119181   1.064   0.724   5.874  0.4163  0.0258  0.5377
 2516SOL    HW219182   1.087   0.822   5.771 -0.6910 -1.6596 -0.1579
 2517SOL     OW19183   0.415   2.803   2.980  0.2451 -0.3695  0.3073
 2517SOL    HW119184   0.501   2.842   2.959 -0.3548 -0.7350 -2.8995
 2517SOL    HW219185   0.446   2.719   3.014  0.0463 -0.6786 -0.2637
 2518SOL     OW19186   0.212   3.299  12.604 -0.3957  0.2207 -0.5261
 2518SOL    HW119187   0.259   3.380  12.627  1.2266 -0.6601 -0.7698
 2518SOL    HW219188   0.123   3.325  12.581 -0.5528  1.0274  0.9634
 2519SOL     OW19189   0.500   3.144   4.251 -0.2322  0.4671  0.3968
 2519SOL    HW119190   0.458   3.135   4.165  0.0662 -1.0685  0.4196
 2519SOL    HW219191   0.593   3.166   4.238 -0.0726 -2.5547 -3.4492
 2520SOL     OW19192   1.143   4.666  13.528 -0.5538 -0.2097 -0.4744
 2520SOL    HW119193   1.173   4.613  13.454  1.4091 -1.0036  0.8885
 2520SOL    HW219194   1.218   4.662  13.587  0.3700  1.1146 -1.5446
 2521SOL     OW19195   1.232   3.738   8.710 -0.0615 -0.0786 -0.0906
 2521SOL    HW119196   1.228   3.737   8.614 -2.7553 -2.3637  0.0407
 2521SOL    HW219197   1.291   3.811   8.728  0.5397 -0.5682 -0.0661
 2522SOL     OW19198   1.674   1.922   7.190 -0.5334  0.3928 -0.4330
 2522SOL    HW119199   1.645   2.000   7.236 -1.6347  0.7253 -1.6744
 2522SOL    HW219200   1.597   1.865   7.191  0.6785 -1.2031  1.3725
 2523SOL     OW19201   3.029   2.531   8.633  0.2134  0.1671 -0.3527
 2523SOL    HW119202   2.948   2.527   8.684  1.4491 -1.0439  1.5110
 2523SOL    HW219203   3.074   2.601   8.682  0.2518 -0.1359  0.0486
 2524SOL     OW19204   0.601   1.186   2.952 -0.1376 -0.2935  0.4988
 2524SOL    HW119205   0.548   1.122   3.000 -0.5274 -1.7399 -1.8538
 2524SOL    HW219206   0.534   1.204   2.886  2.7002  3.3661 -1.3508
 2525SOL     OW19207   3.515   2.589  15.411 -0.0247 -0.6740  0.0411
 2525SOL    HW119208   3.478   2.624  15.330 -0.3419 -0.3778  0.3171
 2525SOL    HW219209   3.566   2.521  15.365 -0.1612 -0.4915 -0.3814
 2526SOL     OW19210   3.253   2.926   2.279 -0.5754  0.1785 -0.4065
 2526SOL    HW119211   3.308   2.848   2.272  0.1538  0.7637 -1.1915
 2526SOL    HW219212   3.198   2.935   2.358 -0.3687  0.4619 -0.2942
 2527SOL     OW19213   4.091   0.608  12.219 -0.1559 -0.4158 -0.5792
 2527SOL    HW119214   4.023   0.565  12.271  1.9338  0.1249  2.6217
 2527SOL    HW219215   4.142   0.652  12.287  2.2874 -0.8024 -2.1951
 2528SOL     OW19216   2.205   4.274  13.635  0.0196 -0.2909 -0.6458
 2528SOL    HW119217   2.112   4.251  13.644 -0.0712  0.2404 -0.2148
 2528SOL    HW219218   2.212   4.309  13.546 -0.9136  3.8275  0.9093
 2529SOL     OW19219   2.037   2.592   8.685  0.1774 -0.3277 -0.0335
 2529SOL    HW119220   1.984   2.576   8.607  0.4219  1.6132 -0.6005
 2529SOL    HW219221   1.976   2.609   8.757  0.8938 -0.2038  0.5517
 2530SOL     OW19222   1.873   1.841  14.579  0.2897  0.6348 -0.2195
 2530SOL    HW119223   1.857   1.930  14.547  0.1384  1.0360  0.9724
 2530SOL    HW219224   1.966   1.833  14.560 -0.5540 -0.8941 -3.6333
 2531SOL     OW19225   2.687   1.059   3.853 -0.1159 -0.0008  0.7207
 2531SOL    HW119226   2.596   1.034   3.833 -0.4045  2.1032 -0.5684
 2531SOL    HW219227   2.698   1.032   3.945 -0.5205 -0.1561  0.7234
 2532SOL     OW19228   4.243   3.702   0.363  0.2731 -0.1881 -0.0826
 2532SOL    HW119229   4.309   3.709   0.431  0.1866 -0.1237 -0.0041
 2532SOL    HW219230   4.283   3.637   0.305 -0.6231 -1.0592  0.2813
 2533SOL     OW19231   3.463   0.073   0.661  0.2383  0.0624 -0.2465
 2533SOL    HW119232   3.549   0.047   0.628  0.0438 -0.0794 -0.6442
 2533SOL    HW219233   3.407   4.731   0.656  0.9339 -0.4774  0.2488
 2534SOL     OW19234   2.281   0.557  14.957 -0.0988 -0.2629 -0.0532
 2534SOL    HW119235   2.205   0.521  14.910  1.7021 -1.6621 -1.8685
 2534SOL    HW219236   2.235   0.569  15.040  0.9851  1.5727  0.2899
 2535SOL     OW19237   0.585   2.001   8.746 -0.4509  0.2692 -0.0418
 2535SOL    HW119238   0.582   2.005   8.650  0.4416 -0.5883 -0.1111
 2535SOL    HW219239   0.659   2.059   8.766 -0.2773  0.4332 -1.1348
 2536SOL     OW19240   1.812   4.719  14.903  0.0761 -0.0420 -0.2742
 2536SOL    HW119241   1.769   4.699  14.820 -1.3943  1.1348  0.2027
 2536SOL    HW219242   1.884   4.656  14.907  0.5103  0.3203 -2.2939
 2537SOL     OW19243   2.068   3.036   0.567 -0.2204 -0.3663 -0.1175
 2537SOL    HW119244   2.072   2.957   0.619  0.8837  0.2510  0.7420
 2537SOL    HW219245   1.984   3.073   0.591 -0.0143  0.6690 -0.9747
 2538SOL     OW19246   3.129   1.933  16.650 -0.0220 -0.2776  0.4159
 2538SOL    HW119247   3.131   1.844  16.685  0.9462  0.5981  2.6277
 2538SOL    HW219248   3.156   1.985  16.726  1.9959 -0.6095 -0.0693
 2539SOL     OW19249   0.007   1.083  15.944  0.2788  0.3518 -0.0275
 2539SOL    HW119250   0.004   1.061  15.851 -0.1638 -0.5498  0.2038
 2539SOL    HW219251   0.025   0.997  15.981 -0.1025  0.3607  0.1764
 2540SOL     OW19252   3.404   2.327  15.214 -0.3622  0.1260  0.1922
 2540SOL    HW119253   3.429   2.250  15.266  0.5587  0.1239 -0.2556
 2540SOL    HW219254   3.486   2.375  15.230 -0.1330  0.8346 -3.1352
 2541SOL     OW19255   0.709   0.750   6.995  0.5430  0.2504 -0.2821
 2541SOL    HW119256   0.664   0.677   7.037 -1.1749  0.8633 -1.0908
 2541SOL    HW219257   0.652   0.821   7.026 -0.9901 -0.6688 -1.0421
 2542SOL     OW19258   4.167   1.603  11.625  0.6081 -0.1590 -0.3492
 2542SOL    HW119259   4.226   1.675  11.603  0.8023 -0.2080  0.0136
 2542SOL    HW219260   4.205   1.537  11.566  5.0567  2.0927 -0.0575
 2543SOL     OW19261   0.895   0.720  10.068 -0.0480  0.1753  0.3351
 2543SOL    HW119262   0.969   0.727  10.008  0.6110  0.0383  1.1442
 2543SOL    HW219263   0.872   0.628  10.051 -1.4134  0.3298  1.3620
 2544SOL     OW19264   2.865   4.285   1.870 -0.0233  0.8733 -0.2001
 2544SOL    HW119265   2.935   4.329   1.917 -0.1890 -2.5865  3.2769
 2544SOL    HW219266   2.816   4.364   1.847  1.0101  1.7340  0.6029
 2545SOL     OW19267   2.752   4.370   8.430  0.6938  0.1179  0.1003
 2545SOL    HW119268   2.700   4.292   8.416  1.0959 -0.3778  1.3161
 2545SOL    HW219269   2.827   4.321   8.466  1.8281  2.1162  0.4710
 2546SOL     OW19270   2.520   2.470  15.002  0.0349  0.3678  0.1349
 2546SOL    HW119271   2.501   2.410  15.074  0.1277  1.1720  0.8328
 2546SOL    HW219272   2.568   2.419  14.936 -1.2621  0.8592 -1.1851
 2547SOL     OW19273   0.554   0.905   2.000  0.2444  0.1896 -0.1166
 2547SOL    HW119274   0.470   0.860   2.015 -0.8298  1.6993 -1.6970
 2547SOL    HW219275   0.626   0.849   2.030 -0.0915  0.9615  2.1592
 2548SOL     OW19276   0.618   1.222   4.804  0.7830  0.3719  0.6670
 2548SOL    HW119277   0.609   1.239   4.898  2.0303 -1.9200  1.2262
 2548SOL    HW219278   0.663   1.137   4.810 -0.3099 -0.3338 -1.1886
 2549SOL     OW19279   0.531   3.358   3.120 -0.3412 -0.7678 -0.3348
 2549SOL    HW119280   0.515   3.446   3.155  0.1014 -0.5109 -0.7710
 2549SOL    HW219281   0.595   3.373   3.050 -2.0944  2.5049 -1.2387
 2550SOL     OW19282   4.632   0.826  13.487  0.4085 -0.3960  0.0293
 2550SOL    HW119283   4.537   0.836  13.500  0.9386  1.5171  2.4454
 2550SOL    HW219284   4.658   0.916  13.504 -0.9776 -0.1608  0.9516
 2551SOL     OW19285   0.188   2.903   9.045  0.1190  0.2214  0.0748
 2551SOL    HW119286   0.176   2.867   8.957 -0.4450 -1.9022  1.0375
 2551SOL    HW219287   0.227   2.825   9.084  1.8709  1.1265  0.1388
 2552SOL     OW19288   1.756   3.001   4.246 -0.7380  0.2168 -0.2347
 2552SOL    HW119289   1.794   3.040   4.167 -0.1444 -0.1494 -0.1282
 2552SOL    HW219290   1.826   3.036   4.302  0.1771  0.1349 -1.3217
 2553SOL     OW19291   1.946   0.377   5.365  0.0339  0.2247 -0.0608
 2553SOL    HW119292   1.959   0.448   5.302  0.6483  0.3167  0.1660
 2553SOL    HW219293   2.036   0.352   5.385 -0.3389 -0.2916  0.9611
 2554SOL     OW19294   3.259   2.515  17.352 -0.3735 -0.0729  0.3271
 2554SOL    HW119295   3.216   2.554  17.277 -1.4370  0.3927  1.1783
 2554SOL    HW219296   3.187   2.460  17.383  1.2315 -1.5420  1.4928
 2555SOL     OW19297   0.473   0.630   3.241 -0.2510  0.0486 -0.3852
 2555SOL    HW119298   0.474   0.538   3.267 -1.5658 -0.0867 -0.8643
 2555SOL    HW219299   0.557   0.662   3.276 -0.7665  1.0476 -0.0786
 2556SOL     OW19300   0.104   1.657  13.148  0.2952 -0.8785 -0.3173
 2556SOL    HW119301   0.135   1.613  13.227 -2.3050 -0.7877  0.7160
 2556SOL    HW219302   0.011   1.667  13.164  0.1809  0.3501 -1.7090
 2557SOL     OW19303   3.888   3.172   5.561  0.0432 -0.1532  0.0742
 2557SOL    HW119304   3.979   3.171   5.591 -0.5098 -2.1789  1.6696
 2557SOL    HW219305   3.855   3.110   5.626  2.2496  0.2380  1.5805
 2558SOL     OW19306   1.491   3.247   1.927 -0.3257  0.4319  0.4960
 2558SOL    HW119307   1.581   3.263   1.956  0.0705 -1.1880  0.1433
 2558SOL    HW219308   1.481   3.152   1.935 -2.2286  0.3502 -2.8211
 2559SOL     OW19309   0.418   0.642  12.064  0.2830 -0.2105 -0.3948
 2559SOL    HW119310   0.448   0.684  12.144  1.7011  0.4890 -1.2909
 2559SOL    HW219311   0.428   0.552  12.095 -1.4265 -0.5604 -0.8613
 2560SOL     OW19312   4.394   2.519   3.277 -0.2872 -0.0462  0.0722
 2560SOL    HW119313   4.382   2.427   3.255 -2.9484  0.1539  0.6660
 2560SOL    HW219314   4.490   2.517   3.276 -0.3065 -1.6103  1.3417
 2561SOL     OW19315   1.096   2.509  11.347  0.4893  0.5735 -0.0519
 2561SOL    HW119316   1.168   2.541  11.402  0.9859 -1.0254  0.2126
 2561SOL    HW219317   1.137   2.463  11.274 -1.0350 -1.2443  0.2502
 2562SOL     OW19318   3.071   0.004   7.173  0.6803  0.4470  0.5848
 2562SOL    HW119319   3.117   0.022   7.091  0.3613 -0.1986  0.2650
 2562SOL    HW219320   3.081   4.644   7.169 -2.3386  0.1719 -0.1458
 2563SOL     OW19321   4.718   1.298   4.202  0.0298 -0.2888 -0.6597
 2563SOL    HW119322   4.728   1.348   4.121 -1.4563 -0.3189 -0.8734
 2563SOL    HW219323   4.630   1.265   4.182 -0.4871  1.6499 -1.5928
 2564SOL     OW19324   1.149   2.889   4.372 -0.6115 -0.4530 -0.0041
 2564SOL    HW119325   1.060   2.880   4.406 -0.3124  0.5894  1.0783
 2564SOL    HW219326   1.144   2.935   4.288 -2.9008  0.0544  0.4175
 2565SOL     OW19327   4.075   0.997   1.633 -0.7407  0.0587  0.2336
 2565SOL    HW119328   3.998   1.020   1.580 -1.5496 -0.0408  1.3836
 2565SOL    HW219329   4.106   0.912   1.601 -1.1537  0.0170 -0.0571
 2566SOL     OW19330   0.617   0.627   8.718 -0.8672  0.0241 -0.6765
 2566SOL    HW119331   0.710   0.639   8.700 -1.0678  1.5115 -0.7569
 2566SOL    HW219332   0.583   0.717   8.725  0.3884  0.4915 -0.5203
 2567SOL     OW19333   3.058   4.192  10.774 -0.1148 -0.6006 -0.3404
 2567SOL    HW119334   2.999   4.259  10.738 -1.7871 -2.4272 -0.9746
 2567SOL    HW219335   3.079   4.225  10.861  1.4432  1.1061 -1.3496
 2568SOL     OW19336   4.063   0.759   5.947  0.1338 -0.0144 -0.0918
 2568SOL    HW119337   3.980   0.716   5.928 -0.4126  0.7798  0.4825
 2568SOL    HW219338   4.124   0.686   5.944  0.0672  0.0155 -1.9286
 2569SOL     OW19339   1.075   2.005   0.095  0.1512  0.2092 -0.2796
 2569SOL    HW119340   1.047   1.950   0.022  1.5661  2.1994 -2.3342
 2569SOL    HW219341   1.057   1.940   0.163  1.2385  0.9192  0.6815
 2570SOL     OW19342   1.334   0.577  10.085  0.1483 -0.0341  0.1943
 2570SOL    HW119343   1.263   0.522  10.054  1.1143 -1.3229  0.2492
 2570SOL    HW219344   1.400   0.508  10.079 -1.4277 -1.4568 -0.5361
 2571SOL     OW19345   3.254   1.384  11.331 -0.2870 -0.4528  0.7538
 2571SOL    HW119346   3.162   1.370  11.307  0.8294  0.6928 -4.1900
 2571SOL    HW219347   3.255   1.454  11.395 -0.0352 -0.1626  0.4334
 2572SOL     OW19348   2.043   0.917   7.926  0.4086 -0.2454 -0.0565
 2572SOL    HW119349   2.070   0.831   7.959  0.6860  1.4392  4.0369
 2572SOL    HW219350   1.973   0.899   7.863 -0.9789  1.0274  1.1289
 2573SOL     OW19351   3.524   2.006   9.069 -0.1054  0.3471 -0.0075
 2573SOL    HW119352   3.454   2.026   9.007  0.6479  2.1992 -0.2713
 2573SOL    HW219353   3.489   1.939   9.127 -0.3832 -0.1769 -0.7713
 2574SOL     OW19354   2.087   2.667   7.803  0.0908 -0.5519 -0.1892
 2574SOL    HW119355   1.998   2.701   7.810 -0.7350 -2.8786  0.5651
 2574SOL    HW219356   2.122   2.736   7.747 -2.9423  1.0240 -0.1231
 2575SOL     OW19357   2.590   2.671  17.659 -0.0359  0.4781 -0.2343
 2575SOL    HW119358   2.501   2.659  17.692 -0.7205  0.7360 -2.0176
 2575SOL    HW219359   2.614   2.752  17.704  1.6728  0.2860 -0.7968
 2576SOL     OW19360   3.101   2.882   0.666  0.1404  0.4418  0.1610
 2576SOL    HW119361   3.168   2.934   0.621 -1.5000  1.1730 -1.4492
 2576SOL    HW219362   3.131   2.881   0.757  0.9312  0.1739 -0.1014
 2577SOL     OW19363   4.574   2.606   3.567  0.1450  0.2191 -0.0610
 2577SOL    HW119364   4.619   2.587   3.649  1.6673 -0.8144 -1.1172
 2577SOL    HW219365   4.482   2.597   3.589 -0.4245  0.9028 -2.1449
 2578SOL     OW19366   0.045   4.322   9.899 -0.6301  0.2563  0.1779
 2578SOL    HW119367   0.138   4.298   9.895 -1.2439 -1.6316 -3.1358
 2578SOL    HW219368   4.733   4.281   9.826 -0.5715 -0.5580  0.6023
 2579SOL     OW19369   3.326   2.043  15.980  0.3600  0.4419 -0.3928
 2579SOL    HW119370   3.293   1.964  15.938 -0.1016  1.5018 -2.0072
 2579SOL    HW219371   3.417   2.023  16.000  0.1342  0.1192  0.3349
 2580SOL     OW19372   2.685   0.094   3.511 -0.4305  0.0190 -0.2811
 2580SOL    HW119373   2.626   0.025   3.480 -0.4299 -0.0066 -0.2254
 2580SOL    HW219374   2.737   0.053   3.579  0.0536 -1.0908 -1.3173
 2581SOL     OW19375   2.624   4.018   3.205  0.0293  0.7334 -0.0848
 2581SOL    HW119376   2.648   4.007   3.297  1.8699  0.9370 -0.5380
 2581SOL    HW219377   2.603   4.110   3.221  1.3853  1.2258 -1.1780
 2582SOL     OW19378   3.737   4.510  10.256 -0.3279  0.3560 -0.8559
 2582SOL    HW119379   3.754   4.478  10.344  0.7648  0.8545 -0.8887
 2582SOL    HW219380   3.738   4.606  10.253 -0.5527  0.3492 -1.3026
 2583SOL     OW19381   4.603   0.752   8.761 -0.0380 -0.7815 -0.5536
 2583SOL    HW119382   4.553   0.679   8.799 -0.3414 -0.6521 -0.6990
 2583SOL    HW219383   4.538   0.822   8.759  1.7719  0.9009  0.0112
 2584SOL     OW19384   3.426   2.400   6.626  0.4022  0.1437  0.3836
 2584SOL    HW119385   3.347   2.346   6.631 -0.1118  0.7649 -1.1349
 2584SOL    HW219386   3.384   2.485   6.616 -1.3543 -0.6288  1.2050
 2585SOL     OW19387   2.889   1.628  12.123  0.0589 -0.4275  0.2157
 2585SOL    HW119388   2.890   1.544  12.079 -2.2783 -1.0604  1.3503
 2585SOL    HW219389   2.834   1.611  12.200  0.0592 -1.5995 -0.0575
 2586SOL     OW19390   3.684   2.359   4.468 -0.4627  0.1509 -0.2215
 2586SOL    HW119391   3.625   2.290   4.439  1.5684 -1.7929  0.3311
 2586SOL    HW219392   3.714   2.391   4.383 -1.7528 -1.0257 -1.1183
 2587SOL     OW19393   2.007   0.486   2.428 -0.1440  0.2851  0.3654
 2587SOL    HW119394   1.911   0.485   2.431 -0.1716 -1.3143 -0.6092
 2587SOL    HW219395   2.022   0.573   2.464  2.5716 -0.2583  0.5339
 2588SOL     OW19396   0.695   2.056   5.531  0.5954  0.2070 -0.1467
 2588SOL    HW119397   0.729   2.085   5.616  0.1616 -1.9012  0.7403
 2588SOL    HW219398   0.753   1.981   5.515  0.7705  0.3145 -0.0138
 2589SOL     OW19399   2.687   0.118   2.505 -0.0447  0.1431 -0.3760
 2589SOL    HW119400   2.642   0.037   2.529 -0.5253 -0.1014 -2.1330
 2589SOL    HW219401   2.775   0.082   2.498  0.6586  2.0981 -1.6199
 2590SOL     OW19402   0.002   0.247  12.584 -0.2501  0.5911 -0.0565
 2590SOL    HW119403   4.720   0.170  12.529  1.4660 -0.0895  0.3666
 2590SOL    HW219404   4.670   0.238  12.652  0.4508 -1.2987  0.3698
 2591SOL     OW19405   2.572   3.480   2.893 -0.0126 -0.4982  0.0618
 2591SOL    HW119406   2.661   3.455   2.917  0.3401  0.0865 -0.6405
 2591SOL    HW219407   2.594   3.564   2.853 -0.0904  0.0448  1.1390
 2592SOL     OW19408   2.752   1.771   7.667 -0.8129  0.6789 -0.3195
 2592SOL    HW119409   2.815   1.821   7.615  1.4962 -0.5742  1.2877
 2592SOL    HW219410   2.720   1.830   7.735 -0.3353 -0.8129  1.2180
 2593SOL     OW19411   3.913   3.657  12.636 -0.0770  0.4416 -0.3942
 2593SOL    HW119412   3.959   3.676  12.555 -1.1236  1.3816 -0.7663
 2593SOL    HW219413   3.857   3.585  12.606 -1.7200  1.6749 -0.2996
 2594SOL     OW19414   1.710   1.768   4.303  0.3552  0.3725  0.3974
 2594SOL    HW119415   1.692   1.718   4.383 -0.5840 -1.1859 -0.8001
 2594SOL    HW219416   1.677   1.699   4.247 -1.1415  0.4274  1.1972
 2595SOL     OW19417   3.761   2.438   3.944  1.1012  0.1243  0.5848
 2595SOL    HW119418   3.765   2.517   3.891  0.2525  1.1807  2.0938
 2595SOL    HW219419   3.738   2.372   3.879 -0.1820 -0.2402  1.4178
 2596SOL     OW19420   0.436   1.426   4.753 -0.2357 -0.7936 -0.3121
 2596SOL    HW119421   0.397   1.415   4.666  1.1784 -0.1853 -1.0279
 2596SOL    HW219422   0.500   1.355   4.748 -1.8534 -2.4169  2.2740
 2597SOL     OW19423   3.260   4.387   6.906 -0.2412  0.6009  0.3087
 2597SOL    HW119424   3.167   4.407   6.910 -0.3197  0.0563  1.3915
 2597SOL    HW219425   3.284   4.409   6.997 -0.5007  0.0644  0.5087
 2598SOL     OW19426   2.276   1.738   4.672  0.0332  0.0380 -0.1245
 2598SOL    HW119427   2.368   1.717   4.660  0.6373  1.1042  2.6106
 2598SOL    HW219428   2.261   1.702   4.759 -0.5680 -0.8062 -0.5779
 2599SOL     OW19429   3.343   1.101   2.169 -0.7069  0.2004  0.6944
 2599SOL    HW119430   3.307   1.083   2.083  0.2493 -0.7457  0.4979
 2599SOL    HW219431   3.382   1.021   2.204 -2.0998 -0.4623  0.7382
 2600SOL     OW19432   0.460   1.967   2.086 -0.7869  0.2163  0.1923
 2600SOL    HW119433   0.494   1.878   2.094 -4.3684 -0.8723  3.2852
 2600SOL    HW219434   0.441   1.952   1.994  3.3885  2.3256 -1.0033
 2601SOL     OW19435   3.983   0.569   4.588 -0.3232 -0.0340  0.0114
 2601SOL    HW119436   3.988   0.482   4.626 -1.2209 -0.2612 -0.3762
 2601SOL    HW219437   4.076   0.586   4.599 -0.6206  0.1597  2.1059
 2602SOL     OW19438   0.913   4.629  12.816  0.6430  0.2572  0.1747
 2602SOL    HW119439   0.923   4.620  12.911 -0.4656  0.5377  0.3139
 2602SOL    HW219440   0.929   4.544  12.776  0.3355  0.1872  0.2044
 2603SOL     OW19441   3.573   2.185   2.735 -0.6468 -0.2143  0.3182
 2603SOL    HW119442   3.623   2.161   2.656  1.6984 -1.2129  2.1024
 2603SOL    HW219443   3.493   2.136   2.719 -0.8318  0.5702 -1.1314
 2604SOL     OW19444   0.875   3.804   3.808 -1.1032  0.6703 -0.0194
 2604SOL    HW119445   0.867   3.716   3.771 -1.3386  0.0903  1.4057
 2604SOL    HW219446   0.959   3.834   3.775 -0.4910 -0.3452  0.5860
 2605SOL     OW19447   3.015   2.710   4.206  0.8242  0.2675  0.5981
 2605SOL    HW119448   3.078   2.760   4.258  0.9620 -1.1302  1.7690
 2605SOL    HW219449   3.015   2.623   4.244 -0.0648  0.3936  0.8758
 2606SOL     OW19450   0.296   3.177   8.420 -0.4141  0.2369 -0.0649
 2606SOL    HW119451   0.256   3.211   8.500 -1.9236  0.0545 -0.7331
 2606SOL    HW219452   0.380   3.222   8.429  0.1065 -1.3517  2.9247
 2607SOL     OW19453   4.121   3.707   6.823  0.6709  0.4832  0.2837
 2607SOL    HW119454   4.163   3.705   6.909 -0.4922 -1.3113  0.7989
 2607SOL    HW219455   4.093   3.797   6.804 -1.0319 -0.2331 -0.5724
 2608SOL     OW19456   2.764   2.402   4.609  0.8331 -0.5061  0.1221
 2608SOL    HW119457   2.721   2.470   4.661 -1.2649 -1.3847 -0.4607
 2608SOL    HW219458   2.732   2.433   4.524  0.1324  1.2602  1.0413
 2609SOL     OW19459   1.676   4.244  14.645 -0.4394  0.3986  0.3724
 2609SOL    HW119460   1.765   4.217  14.625 -0.3520  1.1701 -0.2856
 2609SOL    HW219461   1.673   4.227  14.739 -1.3002 -1.1979  0.0476
 2610SOL     OW19462   2.293   0.338   4.966  0.0922 -0.7050  0.6291
 2610SOL    HW119463   2.247   0.254   4.969  0.0167 -0.6333  1.3834
 2610SOL    HW219464   2.385   0.311   4.971 -0.2961 -1.6199  2.6075
 2611SOL     OW19465   2.617   1.911   5.634  0.1760 -0.0733  0.1369
 2611SOL    HW119466   2.576   1.989   5.597  1.8241  1.7645  2.1887
 2611SOL    HW219467   2.678   1.953   5.695  0.8148 -0.4354 -0.2444
 2612SOL     OW19468   1.722   1.107   1.915  0.2453  0.0631  0.3562
 2612SOL    HW119469   1.712   1.178   1.852 -0.2226 -0.9090 -0.6563
 2612SOL    HW219470   1.784   1.051   1.870  2.7959  2.6576  0.6185
 2613SOL     OW19471   3.973   2.779   2.949 -0.1739 -0.3385  0.1328
 2613SOL    HW119472   3.917   2.844   2.992  2.7229  1.9836  0.3908
 2613SOL    HW219473   3.934   2.694   2.971  2.2589 -1.8426 -1.4283
 2614SOL     OW19474   1.635   4.518   7.475  0.2784  0.2944 -0.3706
 2614SOL    HW119475   1.672   4.442   7.519 -2.1975 -1.0877 -0.6724
 2614SOL    HW219476   1.621   4.487   7.385 -1.5972 -0.0697  0.0511
 2615SOL     OW19477   2.921   0.051   6.003 -0.2271 -0.1568  0.3206
 2615SOL    HW119478   2.934   0.008   6.088 -3.4687 -1.1665  0.3226
 2615SOL    HW219479   2.920   4.708   5.947 -1.1328 -0.8906  1.3480
 2616SOL     OW19480   2.131   0.666  12.630 -0.1766  0.0323  0.2075
 2616SOL    HW119481   2.212   0.660  12.579 -0.3728  0.1400 -0.1227
 2616SOL    HW219482   2.159   0.669  12.721 -2.9214 -0.4339  1.0595
 2617SOL     OW19483   0.972   1.194  12.610  0.5429  0.5840 -0.0676
 2617SOL    HW119484   1.036   1.253  12.569  1.2285  0.3488  0.6580
 2617SOL    HW219485   0.902   1.198  12.545  0.2278 -1.1972  0.1544
 2618SOL     OW19486   0.375   4.119  13.627 -0.2070  0.5322 -0.0141
 2618SOL    HW119487   0.383   4.156  13.539 -0.7987 -1.4141 -0.9006
 2618SOL    HW219488   0.468   4.114  13.649 -0.8693 -0.6240  2.4835
 2619SOL     OW19489   3.330   4.073   3.370  0.7573  0.7927  0.2316
 2619SOL    HW119490   3.317   4.015   3.295 -0.1749  1.1386  0.1123
 2619SOL    HW219491   3.425   4.080   3.362  0.6440  1.5633 -0.4404
 2620SOL     OW19492   2.584   1.409   6.053  0.3838 -0.0011  0.6063
 2620SOL    HW119493   2.668   1.403   6.099 -0.4583 -1.0978  2.0152
 2620SOL    HW219494   2.531   1.366   6.120  1.1267  0.8822  1.7639
 2621SOL     OW19495   4.368   1.176   6.724 -0.2992 -0.2351  0.6276
 2621SOL    HW119496   4.426   1.196   6.651 -0.2080 -1.2706  0.4181
 2621SOL    HW219497   4.309   1.251   6.717  0.4490  0.3602  0.7546
 2622SOL     OW19498   4.394   1.433  10.588  0.1291 -0.2949 -0.4296
 2622SOL    HW119499   4.329   1.366  10.606 -0.1086 -0.5447 -2.2521
 2622SOL    HW219500   4.467   1.399  10.640  0.5817  1.5320  0.1352
 2623SOL     OW19501   1.386   2.385   5.338  0.3089 -0.2668  0.7665
 2623SOL    HW119502   1.371   2.296   5.307  1.1413  0.7770 -2.6636
 2623SOL    HW219503   1.479   2.390   5.315  0.0849  0.6021  0.0440
 2624SOL     OW19504   1.101   3.155   8.420  0.5207 -0.7927 -0.1695
 2624SOL    HW119505   1.142   3.081   8.465  1.0226 -1.0408 -1.0319
 2624SOL    HW219506   1.113   3.127   8.329  2.9183 -1.1211  0.2570
 2625SOL     OW19507   4.435   1.532  14.973 -0.0844 -0.5299  0.0942
 2625SOL    HW119508   4.461   1.602  14.913 -0.8663 -1.2575 -1.0847
 2625SOL    HW219509   4.346   1.506  14.946 -0.0644  0.8834 -1.3921
 2626SOL     OW19510   3.391   3.658   2.442  0.0622  0.3801  0.3130
 2626SOL    HW119511   3.350   3.598   2.380  3.3966 -0.8644 -0.7313
 2626SOL    HW219512   3.330   3.730   2.432  2.4935  2.5900  1.3507
 2627SOL     OW19513   2.571   0.338  12.115 -0.2993 -0.0754 -0.0802
 2627SOL    HW119514   2.516   0.291  12.177  0.3304 -0.0920  0.4695
 2627SOL    HW219515   2.500   0.371  12.060 -1.2678 -0.5660  0.8882
 2628SOL     OW19516   1.588   1.439   8.026  0.2484 -0.1643 -0.2016
 2628SOL    HW119517   1.519   1.372   8.029 -0.8934  1.0080 -0.0066
 2628SOL    HW219518   1.588   1.460   7.933  1.4726 -0.2158 -0.2066
 2629SOL     OW19519   2.177   0.688   1.314 -0.5207 -0.1844  0.0602
 2629SOL    HW119520   2.133   0.651   1.391 -2.1936  1.3284 -0.1767
 2629SOL    HW219521   2.132   0.649   1.239 -0.9304 -1.2287  0.8474
 2630SOL     OW19522   3.143   1.639   1.369  0.2419  0.1734 -0.3083
 2630SOL    HW119523   3.139   1.650   1.274 -1.7732 -1.4248 -0.4286
 2630SOL    HW219524   3.080   1.566   1.363  1.3457 -0.4658 -3.5657
 2631SOL     OW19525   3.417   3.753   5.753 -0.0871 -0.1636 -0.0076
 2631SOL    HW119526   3.323   3.765   5.768  0.3160  0.5105  1.9766
 2631SOL    HW219527   3.420   3.697   5.675 -2.6362 -1.3755  0.7508
 2632SOL     OW19528   2.412   1.996   7.110  0.1913  0.1128 -0.1994
 2632SOL    HW119529   2.481   1.973   7.047  1.0765 -0.7535  1.0801
 2632SOL    HW219530   2.405   1.908   7.147  0.6937 -0.3751 -1.2484
 2633SOL     OW19531   1.864   1.630   5.669  0.0396 -0.2551 -0.3758
 2633SOL    HW119532   1.786   1.635   5.725  1.6245 -0.0959  1.8082
 2633SOL    HW219533   1.926   1.613   5.740  0.3207  0.8324 -0.3671
 2634SOL     OW19534   2.165   1.694   6.671 -0.2295  0.2719 -0.2076
 2634SOL    HW119535   2.215   1.638   6.731  2.8714  1.6612 -1.5042
 2634SOL    HW219536   2.187   1.780   6.706  1.1543 -0.3526  0.4640
 2635SOL     OW19537   3.864   1.893  15.194  0.3999  0.4652 -0.0783
 2635SOL    HW119538   3.772   1.875  15.211 -0.4284  2.3762 -2.4612
 2635SOL    HW219539   3.893   1.816  15.146  0.4044 -1.3882  2.9473
 2636SOL     OW19540   1.278   1.520   6.644 -0.8787  0.0277  0.3185
 2636SOL    HW119541   1.364   1.555   6.665 -1.0552  1.0510 -0.6637
 2636SOL    HW219542   1.301   1.429   6.622  0.5135  0.3338  0.5154
 2637SOL     OW19543   2.794   0.458   6.379  0.2715  0.2422  0.1391
 2637SOL    HW119544   2.788   0.369   6.343 -3.5891  0.3973  0.4695
 2637SOL    HW219545   2.882   0.480   6.348  0.6384  0.8272  1.6200
 2638SOL     OW19546   3.419   4.703   6.453 -0.0853 -0.5720 -0.4350
 2638SOL    HW119547   3.503   4.670   6.419  0.0702  1.4176 -2.0203
 2638SOL    HW219548   3.363   4.631   6.426 -1.0910 -0.1981  0.6382
 2639SOL     OW19549   0.246   3.861   7.509 -0.2655 -0.7540  0.5987
 2639SOL    HW119550   0.277   3.828   7.425  1.4206 -2.2205  1.8182
 2639SOL    HW219551   0.183   3.798   7.544 -0.3965 -2.1081 -2.0974
 2640SOL     OW19552   3.585   4.387  11.121 -0.5187 -0.4370 -0.1086
 2640SOL    HW119553   3.543   4.361  11.203 -1.7847  2.5147  0.1816
 2640SOL    HW219554   3.624   4.470  11.150 -0.4160 -0.0947 -1.2455
 2641SOL     OW19555   3.598   2.132   9.528 -0.4479 -0.2282 -0.0355
 2641SOL    HW119556   3.684   2.148   9.488 -0.6522  4.8683  1.4947
 2641SOL    HW219557   3.563   2.066   9.468  3.0873 -1.2380 -1.0174
 2642SOL     OW19558   1.999   2.406   2.173  0.2531  0.1559  0.0645
 2642SOL    HW119559   1.921   2.438   2.219 -0.5751  0.5540 -1.6370
 2642SOL    HW219560   1.981   2.346   2.101 -1.6236  1.3135 -0.4397
 2643SOL     OW19561   1.057   2.375   8.779 -0.0071  0.3357  0.1841
 2643SOL    HW119562   1.094   2.322   8.708 -1.6260  1.0884 -1.2163
 2643SOL    HW219563   0.969   2.395   8.749 -0.0253  0.3179  0.2260
 2644SOL     OW19564   2.715   1.969   6.547  0.4333  0.4667  0.1506
 2644SOL    HW119565   2.698   2.005   6.461  1.1075 -2.1431 -1.0906
 2644SOL    HW219566   2.725   2.045   6.605 -1.4764 -0.1066  1.2423
 2645SOL     OW19567   1.490   3.765   6.388 -0.1551  0.8374  0.4105
 2645SOL    HW119568   1.510   3.721   6.470  1.9258 -2.0225 -1.6326
 2645SOL    HW219569   1.559   3.730   6.331  0.3951 -1.2137  2.3220
 2646SOL     OW19570   0.343   2.652   4.580 -0.5659 -0.0147  0.3093
 2646SOL    HW119571   0.346   2.695   4.666 -0.4277 -2.0686  1.3359
 2646SOL    HW219572   0.435   2.664   4.557 -0.5347 -0.5426  0.1507
 2647SOL     OW19573   3.880   2.600   8.537 -0.2129 -0.2520  0.3319
 2647SOL    HW119574   3.820   2.548   8.591  1.2755 -3.4784 -1.1190
 2647SOL    HW219575   3.958   2.584   8.591  0.0569 -1.6561 -0.4678
 2648SOL     OW19576   1.681   1.144   6.964  0.0218  0.2820  0.8119
 2648SOL    HW119577   1.688   1.238   6.975  0.3662  0.3280  0.2069
 2648SOL    HW219578   1.597   1.129   6.920  0.5880 -0.6361  0.0344
 2649SOL     OW19579   4.051   2.179  10.981  0.0429  1.1357 -0.1324
 2649SOL    HW119580   3.964   2.219  10.982 -0.9969 -1.0931 -0.1202
 2649SOL    HW219581   4.070   2.171  11.075 -4.0218 -1.9092  0.4399
 2650SOL     OW19582   1.991   4.630  10.217  0.7335  0.4037  0.3907
 2650SOL    HW119583   2.080   4.664  10.208  0.8357 -0.0765 -0.4655
 2650SOL    HW219584   2.000   4.587  10.302 -0.0294  0.4665  0.5028
 2651SOL     OW19585   4.569   4.199   3.819 -0.1641 -0.6145 -0.4312
 2651SOL    HW119586   4.654   4.159   3.840 -0.7826 -1.6268  0.1374
 2651SOL    HW219587   4.591   4.280   3.772 -1.6477 -0.8599 -1.5452
 2652SOL     OW19588   0.201   1.572   8.912 -0.0505  0.2836  0.6374
 2652SOL    HW119589   0.143   1.645   8.890  1.3875  1.0393 -0.6178
 2652SOL    HW219590   0.279   1.616   8.945 -0.6962  2.4444 -0.7510
 2653SOL     OW19591   1.570   2.383   7.596  0.1838  0.7090 -0.1738
 2653SOL    HW119592   1.489   2.336   7.618  0.0390  1.3928  0.7950
 2653SOL    HW219593   1.585   2.429   7.679 -1.7032 -0.0943  0.6263
 2654SOL     OW19594   0.358   4.195  12.974  0.1822  0.2169 -0.7129
 2654SOL    HW119595   0.340   4.182  13.067 -0.6342  0.5278 -0.8331
 2654SOL    HW219596   0.353   4.106  12.939  0.8876  0.3947 -1.2634
 2655SOL     OW19597   3.289   2.268   1.827 -0.5209  0.4955 -0.0960
 2655SOL    HW119598   3.296   2.185   1.779  2.3488 -0.5388  2.1426
 2655SOL    HW219599   3.249   2.322   1.758  1.7996  3.9086  1.2173
 2656SOL     OW19600   0.313   1.416  13.625 -0.1895  0.5459 -0.0874
 2656SOL    HW119601   0.220   1.424  13.604 -0.5188 -1.7702  0.4937
 2656SOL    HW219602   0.325   1.321  13.631 -1.0521  0.2777 -2.2434
 2657SOL     OW19603   1.256   3.422   6.591  0.3539 -0.1074 -0.0116
 2657SOL    HW119604   1.204   3.443   6.513  1.4420  1.0972 -0.3992
 2657SOL    HW219605   1.209   3.481   6.649  0.3819 -1.0260  0.9582
 2658SOL     OW19606   4.387   3.543   4.256  0.3722 -0.2590  0.2192
 2658SOL    HW119607   4.476   3.507   4.248  0.1449 -0.9115  0.5985
 2658SOL    HW219608   4.397   3.638   4.250  1.7257 -0.4125 -0.0269
 2659SOL     OW19609   2.934   4.266   7.550  0.1969 -0.9593  0.1747
 2659SOL    HW119610   2.840   4.272   7.565  0.4553 -0.0542  1.4080
 2659SOL    HW219611   2.972   4.295   7.633 -0.8492  0.8925 -0.0047
 2660SOL     OW19612   2.939   0.887   6.590  0.3727 -0.6614  0.5090
 2660SOL    HW119613   2.914   0.825   6.659  1.0315 -0.2213  1.1583
 2660SOL    HW219614   2.994   0.822   6.547 -1.5188 -2.4750  0.8548
 2661SOL     OW19615   4.699   1.627   8.071 -0.0669  0.2532  0.9916
 2661SOL    HW119616   0.020   1.656   7.999  0.1149 -1.8408  0.2672
 2661SOL    HW219617   4.679   1.540   8.036 -0.5546  0.8527 -0.2011
 2662SOL     OW19618   1.714   3.876   4.202  0.1578 -0.2155 -0.3168
 2662SOL    HW119619   1.798   3.872   4.247  0.5935 -1.1897 -1.2188
 2662SOL    HW219620   1.699   3.783   4.186  2.2290 -0.3899 -1.2659
 2663SOL     OW19621   4.415   0.126  12.850 -0.4387 -0.0827  0.2654
 2663SOL    HW119622   4.415   0.031  12.856 -0.2336 -0.0571  0.7402
 2663SOL    HW219623   4.431   0.130  12.756  2.2741  0.0690  0.7442
 2664SOL     OW19624   0.636   3.358  15.548 -0.0700  0.2267 -0.2185
 2664SOL    HW119625   0.646   3.263  15.544 -2.0748  0.0841 -2.0312
 2664SOL    HW219626   0.707   3.372  15.610  0.0295  2.2113 -0.7868
 2665SOL     OW19627   0.809   2.878   6.812 -0.0844 -0.7662  0.0139
 2665SOL    HW119628   0.867   2.923   6.750  2.6123 -1.4276  2.0463
 2665SOL    HW219629   0.819   2.791   6.772 -0.1998 -0.5212 -0.5490
 2666SOL     OW19630   0.694   1.986   4.156  0.5860 -0.2907 -0.0766
 2666SOL    HW119631   0.658   1.980   4.245  3.3464 -2.5975  0.9131
 2666SOL    HW219632   0.656   1.909   4.114  0.9639 -1.0687  0.9939
 2667SOL     OW19633   3.793   2.575   0.376  0.3231  0.2181  0.2642
 2667SOL    HW119634   3.772   2.487   0.406 -0.7510  0.5107  0.3478
 2667SOL    HW219635   3.885   2.568   0.348 -0.1086  0.7485 -1.2810
 2668SOL     OW19636   1.734   1.162   7.837 -0.0196  0.1662  0.3389
 2668SOL    HW119637   1.709   1.108   7.762 -0.2028  0.4754  0.1753
 2668SOL    HW219638   1.731   1.248   7.796 -1.6009  0.1632  0.4399
 2669SOL     OW19639   0.648   3.827   8.282 -0.0236  0.0439 -0.1697
 2669SOL    HW119640   0.586   3.884   8.238  1.1763  2.3832  1.1851
 2669SOL    HW219641   0.717   3.819   8.216 -0.7115 -2.5970 -0.5839
 2670SOL     OW19642   2.371   3.433   2.702 -0.3457  0.2659  0.1658
 2670SOL    HW119643   2.425   3.439   2.781 -1.6497  1.2626  0.9803
 2670SOL    HW219644   2.419   3.365   2.654  1.8050 -0.3046  3.1275
 2671SOL     OW19645   4.148   0.085   7.407 -0.0089  0.1787 -0.3754
 2671SOL    HW119646   4.211   0.126   7.347  0.2446  0.3223 -0.0144
 2671SOL    HW219647   4.087   0.159   7.409 -0.8305 -0.5143  0.2461
 2672SOL     OW19648   0.051   1.192  12.520  0.1503  0.0644  0.0762
 2672SOL    HW119649   0.061   1.242  12.439  0.2677 -1.8583 -1.0910
 2672SOL    HW219650   0.038   1.270  12.575 -1.4803 -1.4420  1.8305
 2673SOL     OW19651   0.883   3.645   8.917 -0.7333  0.0775 -0.1095
 2673SOL    HW119652   0.901   3.617   8.828 -0.8486  0.4951 -0.2654
 2673SOL    HW219653   0.789   3.658   8.904 -1.0637 -2.2975 -0.1262
 2674SOL     OW19654   3.257   3.557   3.654 -0.4056 -0.1435 -0.4629
 2674SOL    HW119655   3.255   3.643   3.614 -2.2341  0.3931  0.7638
 2674SOL    HW219656   3.181   3.570   3.711 -0.5421  0.1503 -0.7115
 2675SOL     OW19657   3.260   3.279  12.965  0.5296 -0.2944  0.6816
 2675SOL    HW119658   3.278   3.340  12.893 -0.1351 -0.9997 -0.0734
 2675SOL    HW219659   3.344   3.239  12.987 -0.4474 -1.8867  1.5188
 2676SOL     OW19660   1.122   1.692   6.271 -0.4848  0.2273  0.2181
 2676SOL    HW119661   1.166   1.769   6.236  1.8340 -1.4838 -0.6427
 2676SOL    HW219662   1.181   1.617   6.260 -1.1544 -0.2349 -0.3002
 2677SOL     OW19663   1.785   1.259   5.819 -0.3893  0.1308  0.2644
 2677SOL    HW119664   1.736   1.327   5.772  0.2213 -1.2009 -2.2777
 2677SOL    HW219665   1.776   1.181   5.765 -0.7912  0.3283  0.0493
 2678SOL     OW19666   1.786   3.783   3.754  0.0455  0.1049  0.5936
 2678SOL    HW119667   1.872   3.752   3.725 -1.2653 -3.1747  0.1541
 2678SOL    HW219668   1.797   3.820   3.841 -1.8053  0.7247  0.5595
 2679SOL     OW19669   1.576   3.520  11.701 -0.2747 -0.3515  0.3296
 2679SOL    HW119670   1.544   3.609  11.685  0.1784 -0.1430  0.5714
 2679SOL    HW219671   1.492   3.474  11.707  0.1895 -1.6609 -2.8599
 2680SOL     OW19672   3.533   4.517  12.117  0.6425  0.1466  0.3661
 2680SOL    HW119673   3.470   4.532  12.046  0.7785 -0.1579  0.1781
 2680SOL    HW219674   3.589   4.594  12.112 -1.8652  1.9600  0.2272
 2681SOL     OW19675   1.529   3.733   3.766 -0.0137  0.5654  0.3672
 2681SOL    HW119676   1.617   3.761   3.743 -0.6000  0.3313 -2.0982
 2681SOL    HW219677   1.524   3.639   3.753  1.7493  0.1419  2.8157
 2682SOL     OW19678   2.409   2.374   1.963 -0.3850  0.0764  0.4171
 2682SOL    HW119679   2.410   2.294   1.911  0.1407 -0.8166  1.7829
 2682SOL    HW219680   2.500   2.401   1.949 -0.8873  1.4644 -0.1840
 2683SOL     OW19681   4.662   0.800   7.194  0.4391  0.1685  0.3622
 2683SOL    HW119682   4.590   0.796   7.131 -0.1834 -2.5173  1.2378
 2683SOL    HW219683   4.609   0.770   7.267  2.6680 -2.4041  0.9104
 2684SOL     OW19684   1.976   0.394  15.476 -0.1462 -0.5745 -0.0361
 2684SOL    HW119685   1.947   0.372  15.387  2.5325 -2.4160 -0.4632
 2684SOL    HW219686   2.071   0.387  15.467 -0.0596 -0.7054  0.9617
 2685SOL     OW19687   4.158   2.529   0.589 -0.4909  0.4465  0.4520
 2685SOL    HW119688   4.085   2.561   0.643 -1.4908 -0.6443 -0.2345
 2685SOL    HW219689   4.235   2.531   0.645  0.7224  1.1149 -1.2228
 2686SOL     OW19690   4.310   4.285   8.996  0.0730  0.2473 -0.5035
 2686SOL    HW119691   4.362   4.259   8.920  3.2089  0.2431  1.6383
 2686SOL    HW219692   4.230   4.314   8.952  0.1236  1.2326  0.0478
 2687SOL     OW19693   0.126   0.944  16.668  0.2290 -0.0210  0.4481
 2687SOL    HW119694   0.112   0.984  16.582 -0.6658 -0.4354  0.4076
 2687SOL    HW219695   0.154   0.855  16.648  0.8890 -0.0014  1.2676
 2688SOL     OW19696   0.117   1.312  13.167 -0.3559  0.0415  0.0166
 2688SOL    HW119697   0.205   1.302  13.202 -0.7166  1.6862  1.4153
 2688SOL    HW219698   0.094   1.225  13.136 -0.7136  0.1858 -0.1347
 2689SOL     OW19699   1.676   3.263   7.277 -0.1115 -0.2947  0.4101
 2689SOL    HW119700   1.653   3.355   7.261  0.1058 -0.0880  1.2835
 2689SOL    HW219701   1.593   3.228   7.247 -0.8919  2.0379 -0.1410
 2690SOL     OW19702   3.420   4.469  17.319 -0.2060 -0.1198  0.2443
 2690SOL    HW119703   3.500   4.428  17.286  0.4944  1.8072 -0.4223
 2690SOL    HW219704   3.353   4.426  17.266  0.9762 -0.2083 -1.1617
 2691SOL     OW19705   1.143   3.139   7.076  0.0931 -0.3104 -0.2181
 2691SOL    HW119706   1.156   3.155   6.983  1.4521 -2.5012 -0.4163
 2691SOL    HW219707   1.115   3.223   7.112  1.7224  0.2090 -0.1800
 2692SOL     OW19708   2.422   4.624   6.413 -0.1444  0.0019  0.2899
 2692SOL    HW119709   2.337   4.669   6.405  0.6561  1.3950 -0.3781
 2692SOL    HW219710   2.451   4.664   6.331 -0.1335  0.5983  0.5814
 2693SOL     OW19711   2.954   3.523  17.478  0.0254  0.1305 -0.1729
 2693SOL    HW119712   3.015   3.459  17.442 -0.5271 -0.5671  0.1434
 2693SOL    HW219713   2.884   3.508  17.415  0.0056  1.1077 -0.3908
 2694SOL     OW19714   3.187   1.381   2.935 -0.5512 -0.5641 -0.7997
 2694SOL    HW119715   3.125   1.329   2.884  0.2735  0.2540 -2.6199
 2694SOL    HW219716   3.194   1.457   2.878  1.8703  0.1400  0.4684
 2695SOL     OW19717   2.119   1.595   2.407  0.3320 -0.7416  0.5152
 2695SOL    HW119718   2.113   1.550   2.491 -2.9513  0.3879  0.8960
 2695SOL    HW219719   2.182   1.659   2.440  2.1047 -2.4650  0.4584
 2696SOL     OW19720   2.112   2.074   3.653 -0.1094 -0.4527 -0.0875
 2696SOL    HW119721   2.163   2.138   3.702  0.8702 -1.6536  0.4618
 2696SOL    HW219722   2.096   2.001   3.713 -1.7390  1.3742  1.7111
 2697SOL     OW19723   3.925   3.892  14.602  0.0972  0.5492  0.2487
 2697SOL    HW119724   3.995   3.909  14.539 -0.5850  0.1700 -0.6124
 2697SOL    HW219725   3.943   3.801  14.628  0.1698  0.4277 -0.2252
 2698SOL     OW19726   3.682   1.107  13.756 -0.1877  0.5462  0.1312
 2698SOL    HW119727   3.623   1.091  13.683  1.8219 -0.3691 -1.2654
 2698SOL    HW219728   3.632   1.128  13.836 -1.6983  0.3815 -0.7672
 2699SOL     OW19729   1.044   2.643   6.359 -0.0173  0.0572 -0.3046
 2699SOL    HW119730   0.990   2.629   6.281  1.2196  1.4793 -1.4318
 2699SOL    HW219731   1.114   2.581   6.338  1.0422 -0.0632  3.5447
 2700SOL     OW19732   2.982   0.787   5.315  0.3297  0.2543  0.6146
 2700SOL    HW119733   2.907   0.751   5.362 -0.5234 -1.2033 -1.8971
 2700SOL    HW219734   3.013   0.703   5.283 -0.5377  0.8003 -1.6173
 2701SOL     OW19735   1.455   2.579  12.219  0.2750 -0.0962  0.3607
 2701SOL    HW119736   1.539   2.618  12.195  0.9587 -0.5597  2.0436
 2701SOL    HW219737   1.406   2.647  12.172  1.2434 -1.6109 -2.8622
 2702SOL     OW19738   3.971   0.947   6.465  0.5027 -0.4562  0.4942
 2702SOL    HW119739   4.049   0.903   6.431  0.7425 -0.1378  0.6408
 2702SOL    HW219740   4.010   1.034   6.472  1.1998 -0.7360  0.1068
 2703SOL     OW19741   3.983   2.090   5.634 -0.2223  0.3042 -0.3735
 2703SOL    HW119742   3.963   2.029   5.705  1.4337 -0.9842 -1.0308
 2703SOL    HW219743   3.969   2.172   5.680  3.6960 -0.0066  1.3569
 2704SOL     OW19744   3.317   1.286  12.256 -0.0947 -0.0373  0.3584
 2704SOL    HW119745   3.395   1.289  12.200 -0.5275  1.1939 -0.1810
 2704SOL    HW219746   3.319   1.368  12.307  0.2736  0.3976 -0.3450
 2705SOL     OW19747   2.207   1.610   1.944 -0.8501  0.1178  0.3400
 2705SOL    HW119748   2.285   1.599   1.890 -1.0106  3.4687 -0.5355
 2705SOL    HW219749   2.246   1.605   2.031  0.3486 -1.1435 -0.2609
 2706SOL     OW19750   3.832   2.867   5.075 -0.0016  0.0014 -0.3389
 2706SOL    HW119751   3.765   2.850   5.141  0.7101 -2.8441 -0.3559
 2706SOL    HW219752   3.787   2.875   4.991  1.4285 -3.6354 -1.4668
 2707SOL     OW19753   2.786   1.980   3.220 -0.2582 -0.6925 -0.3116
 2707SOL    HW119754   2.695   2.004   3.204  0.2649  0.4482 -1.6105
 2707SOL    HW219755   2.805   1.914   3.154  1.6887  0.8328 -1.2770
 2708SOL     OW19756   3.788   2.881   4.200  0.2944  0.0635  0.1796
 2708SOL    HW119757   3.711   2.903   4.148  1.5758  1.3649 -1.2007
 2708SOL    HW219758   3.839   2.847   4.126  1.4633 -0.2164  1.1203
 2709SOL     OW19759   4.468   3.373   5.941 -0.0232 -0.4603 -0.1644
 2709SOL    HW119760   4.390   3.423   5.965 -0.5779 -1.6029  0.3976
 2709SOL    HW219761   4.507   3.362   6.027 -0.4742  2.2988  0.3699
 2710SOL     OW19762   1.317   2.301  16.809  0.3281  0.0495  0.5896
 2710SOL    HW119763   1.308   2.303  16.905 -1.3407 -0.0051  0.4345
 2710SOL    HW219764   1.229   2.331  16.788 -0.0720 -0.2320  1.8480
 2711SOL     OW19765   3.966   1.267   8.090 -0.3350  0.3330  0.1040
 2711SOL    HW119766   4.025   1.220   8.149  1.7476 -0.2806 -2.5040
 2711SOL    HW219767   4.022   1.312   8.028  1.2763  0.1429  1.4269
 2712SOL     OW19768   2.345   0.540   2.509  0.0228  0.0577  0.4768
 2712SOL    HW119769   2.362   0.611   2.571  2.4969 -0.1441  0.0279
 2712SOL    HW219770   2.421   0.548   2.452 -0.5117 -0.1175 -0.2690
 2713SOL     OW19771   2.786   3.085   2.724 -0.3278  0.2706 -0.4862
 2713SOL    HW119772   2.702   3.131   2.731  0.6524  1.8059  1.1074
 2713SOL    HW219773   2.765   3.036   2.804 -0.6307 -1.2105 -1.4526
 2714SOL     OW19774   1.902   0.883   6.076 -0.3991  0.0878  0.3652
 2714SOL    HW119775   1.927   0.953   6.136 -2.1515  0.0307  1.1677
 2714SOL    HW219776   1.890   0.806   6.132 -0.0247 -2.1493 -2.5844
 2715SOL     OW19777   2.048   0.579   1.535  0.5188  0.0418 -0.0124
 2715SOL    HW119778   2.069   0.560   1.626  0.6325  0.1675 -0.0116
 2715SOL    HW219779   1.954   0.571   1.547  0.7777 -1.4943  0.9453
 2716SOL     OW19780   0.320   2.328   6.036  0.3037 -0.9294 -0.4481
 2716SOL    HW119781   0.279   2.384   5.969 -1.4412 -3.0105 -1.1001
 2716SOL    HW219782   0.263   2.252   6.046 -2.0683  0.5510 -2.4512
 2717SOL     OW19783   4.430   3.538   5.225 -0.1805  0.2575 -0.0409
 2717SOL    HW119784   4.466   3.451   5.212 -0.3823 -0.0675  1.4991
 2717SOL    HW219785   4.392   3.553   5.138  0.7886  0.5613 -0.4094
 2718SOL     OW19786   0.238   4.651   6.977 -0.4556  0.5285  0.2401
 2718SOL    HW119787   0.159   4.657   7.031 -1.5875  0.6245 -1.4042
 2718SOL    HW219788   0.225   4.721   6.913  1.3158  1.5828  1.0306
 2719SOL     OW19789   3.263   3.666  15.370 -0.2501  0.3942 -0.0042
 2719SOL    HW119790   3.340   3.680  15.314 -0.5221  2.3258  0.0989
 2719SOL    HW219791   3.292   3.717  15.446  1.5786 -0.8454  0.1275
 2720SOL     OW19792   2.768   3.527   8.316  0.1809 -0.0860  0.1833
 2720SOL    HW119793   2.682   3.563   8.297  1.1432  2.2022  0.1607
 2720SOL    HW219794   2.743   3.435   8.323  1.7033 -0.3404  2.3543
 2721SOL     OW19795   4.271   3.531  14.399  0.5765  0.1328 -0.1736
 2721SOL    HW119796   4.279   3.441  14.367  0.8907  0.4431 -0.9452
 2721SOL    HW219797   4.338   3.575  14.347  0.4415  0.1929 -0.2972
 2722SOL     OW19798   2.170   4.391   8.494 -0.1965 -0.4309  0.3948
 2722SOL    HW119799   2.081   4.423   8.501  0.2920  1.1737 -0.5968
 2722SOL    HW219800   2.214   4.474   8.514 -0.4953 -0.1612 -0.0503
 2723SOL     OW19801   3.253   3.701  16.958 -0.6816  0.0442 -0.3341
 2723SOL    HW119802   3.253   3.752  17.040  1.5805  1.4275 -1.1990
 2723SOL    HW219803   3.172   3.733  16.920  0.1545 -1.6565 -3.4910
 2724SOL     OW19804   0.935   3.836   6.102  0.3434 -0.2318 -0.0575
 2724SOL    HW119805   0.906   3.926   6.118  0.7523 -0.6747  3.1522
 2724SOL    HW219806   1.011   3.850   6.046 -1.7442 -2.0523 -3.3930
 2725SOL     OW19807   0.521   3.463   6.211  0.9611 -0.6255  0.4497
 2725SOL    HW119808   0.504   3.518   6.134  1.2911 -0.3565  0.5672
 2725SOL    HW219809   0.436   3.423   6.227  0.6757  0.1567  0.9002
 2726SOL     OW19810   3.171   1.529  14.252  0.2585 -0.4494  0.2437
 2726SOL    HW119811   3.156   1.619  14.281 -0.0176  0.2208 -1.9997
 2726SOL    HW219812   3.195   1.543  14.161  1.2789 -1.0645  0.4139
 2727SOL     OW19813   4.487   3.307   5.133  0.1616 -0.2036 -0.1940
 2727SOL    HW119814   4.518   3.324   5.044  1.4573  0.6207  0.4086
 2727SOL    HW219815   4.559   3.251   5.162 -0.0848  0.0600  0.9161
 2728SOL     OW19816   2.913   4.675  12.684 -0.2126 -0.2442 -0.5074
 2728SOL    HW119817   2.915   4.728  12.763  2.7153  2.3588 -2.3582
 2728SOL    HW219818   2.918   4.586  12.720  2.1767 -0.7836 -2.1922
 2729SOL     OW19819   2.840   1.644   3.691  0.7332  0.1176  0.6599
 2729SOL    HW119820   2.770   1.589   3.656  3.2573 -1.1898 -2.3554
 2729SOL    HW219821   2.831   1.719   3.632 -1.6058  1.2885  2.5186
 2730SOL     OW19822   2.532   0.790   3.456 -0.5449 -0.3411  0.0356
 2730SOL    HW119823   2.608   0.828   3.413  1.0067 -0.6239  2.5264
 2730SOL    HW219824   2.466   0.790   3.386  1.7728 -0.0882 -2.1351
 2731SOL     OW19825   2.778   0.318   9.192 -0.2403  0.9206  0.3178
 2731SOL    HW119826   2.813   0.255   9.130  0.0670  0.1268  1.2962
 2731SOL    HW219827   2.779   0.391   9.130 -0.0734  1.2931  0.7591
 2732SOL     OW19828   3.825   1.787   7.638 -0.0225 -0.6569 -0.7932
 2732SOL    HW119829   3.732   1.801   7.620 -0.2921 -2.3322 -0.6324
 2732SOL    HW219830   3.841   1.709   7.584  0.5025 -2.0802  1.4416
 2733SOL     OW19831   2.547   2.312   3.669 -0.3583  0.4430 -0.1281
 2733SOL    HW119832   2.498   2.245   3.621  1.4978 -2.0081  1.4296
 2733SOL    HW219833   2.536   2.390   3.614  1.9128 -1.2183 -2.9648
 2734SOL     OW19834   0.305   1.688   5.202  0.0465 -0.0012 -0.3359
 2734SOL    HW119835   0.317   1.686   5.107  2.4961 -1.4983 -0.0121
 2734SOL    HW219836   0.322   1.782   5.209  2.8566 -0.4621 -0.8324
 2735SOL     OW19837   2.093   1.119   3.659  0.3113  0.4680  0.5269
 2735SOL    HW119838   2.170   1.110   3.716  0.1868  0.7577  0.7430
 2735SOL    HW219839   2.049   1.038   3.683 -0.1517  0.1441 -1.3972
 2736SOL     OW19840   4.632   0.217   5.627 -0.0334 -0.1682 -0.2250
 2736SOL    HW119841   4.569   0.162   5.672  0.7094 -2.0793 -1.5502
 2736SOL    HW219842   4.716   0.173   5.640  0.2674  0.0525 -1.4395
 2737SOL     OW19843   1.775   3.756   7.863 -0.0091 -0.5996  0.1883
 2737SOL    HW119844   1.745   3.786   7.777  0.1297  1.3525  0.8076
 2737SOL    HW219845   1.844   3.701   7.827  0.4391  0.6984 -0.9293
 2738SOL     OW19846   0.316   3.331   3.530 -0.0733 -0.1852  0.1927
 2738SOL    HW119847   0.237   3.319   3.478  0.4379 -1.6892 -0.2219
 2738SOL    HW219848   0.296   3.413   3.575  0.6757  0.4728 -0.6645
 2739SOL     OW19849   2.701   2.634   6.757  0.0402  0.0821 -0.5222
 2739SOL    HW119850   2.699   2.540   6.775  1.3762  0.3365  0.9187
 2739SOL    HW219851   2.731   2.662   6.843 -0.7132  2.3794 -0.9913
 2740SOL     OW19852   3.326   1.183   8.495 -0.1680  0.0238  0.5233
 2740SOL    HW119853   3.240   1.208   8.530  0.9560  0.9151  2.6182
 2740SOL    HW219854   3.297   1.162   8.406  0.9444  0.3307  0.0845
 2741SOL     OW19855   0.768   4.173   7.963 -0.1182  0.7643  0.1919
 2741SOL    HW119856   0.764   4.095   7.907  3.5487 -0.3876  1.5596
 2741SOL    HW219857   0.702   4.149   8.028 -0.7757 -1.0117 -1.1191
 2742SOL     OW19858   3.446   2.382   7.443  0.0899 -0.3935  0.0708
 2742SOL    HW119859   3.437   2.421   7.356 -1.1500  1.2538  0.9336
 2742SOL    HW219860   3.496   2.303   7.426 -0.9544 -0.7629 -1.2876
 2743SOL     OW19861   1.166   1.779  12.461  0.1334 -0.4424 -0.1978
 2743SOL    HW119862   1.208   1.832  12.394  0.3809 -1.3236 -0.7466
 2743SOL    HW219863   1.112   1.724  12.403 -1.5347  1.5773 -0.5706
 2744SOL     OW19864   3.961   0.433   6.764 -0.1318 -0.1294  0.0951
 2744SOL    HW119865   3.879   0.395   6.733 -0.6429  0.0015  1.2855
 2744SOL    HW219866   3.983   0.376   6.838  1.1226 -0.1058 -0.2660
 2745SOL     OW19867   2.447   2.341   5.657  0.2959 -0.4588  0.4336
 2745SOL    HW119868   2.359   2.364   5.627 -0.3243 -4.2156 -0.5885
 2745SOL    HW219869   2.441   2.353   5.752  1.9050 -1.7644  0.7003
 2746SOL     OW19870   1.096   3.694   2.386  0.6255  0.1476 -0.6279
 2746SOL    HW119871   1.096   3.784   2.419  0.3290 -0.1196  0.0982
 2746SOL    HW219872   1.019   3.657   2.428  0.8925 -0.1370 -0.3887
 2747SOL     OW19873   0.793   0.472   2.857  0.4123 -0.0923 -0.1702
 2747SOL    HW119874   0.818   0.429   2.939  0.6855 -2.0669 -1.2948
 2747SOL    HW219875   0.825   0.411   2.791  0.5600 -1.6155  1.2990
 2748SOL     OW19876   4.208   1.203   9.545  0.0229 -0.1489 -0.2168
 2748SOL    HW119877   4.133   1.180   9.491 -1.3750 -0.2339  1.7521
 2748SOL    HW219878   4.282   1.195   9.485  0.0407 -0.1749 -0.1914
 2749SOL     OW19879   0.508   4.177  12.281  0.3863  0.2320 -0.6684
 2749SOL    HW119880   0.441   4.226  12.233 -1.6613  0.0803  2.0343
 2749SOL    HW219881   0.531   4.100  12.229  0.5312 -0.0782 -0.1403
 2750SOL     OW19882   0.620   1.084   3.949 -0.6014  0.1656 -0.4940
 2750SOL    HW119883   0.574   1.055   3.870  0.4786 -1.8173 -0.3927
 2750SOL    HW219884   0.702   1.037   3.938 -1.9550 -2.8483  2.3648
 2751SOL     OW19885   4.670   4.174   5.326  0.7937  0.1441 -0.3617
 2751SOL    HW119886   4.663   4.194   5.420  2.2391  1.2629 -0.4947
 2751SOL    HW219887   4.681   4.079   5.324  1.9513  0.2193  2.8020
 2752SOL     OW19888   2.789   0.725   3.615 -0.3306  0.3804  0.3119
 2752SOL    HW119889   2.760   0.752   3.528 -0.7671  1.3188  0.7383
 2752SOL    HW219890   2.805   0.634   3.592 -1.9633  0.1763  0.0043
 2753SOL     OW19891   0.477   4.578  12.946  0.3618 -0.1072 -0.0917
 2753SOL    HW119892   0.492   4.607  13.036 -2.5280 -0.9606  0.6956
 2753SOL    HW219893   0.535   4.630  12.892 -0.4068  1.1457  0.2829
 2754SOL     OW19894   2.207   3.078  16.637  0.4009 -0.3342  0.0730
 2754SOL    HW119895   2.249   3.026  16.706 -0.2243  0.0936  0.7797
 2754SOL    HW219896   2.280   3.132  16.607  2.7644 -2.6447  1.6362
 2755SOL     OW19897   3.911   1.266   5.415 -0.3246 -0.0387  0.5082
 2755SOL    HW119898   3.982   1.328   5.433 -1.9765  1.6731  1.1150
 2755SOL    HW219899   3.861   1.313   5.349  0.3730 -0.0467 -0.0281
 2756SOL     OW19900   1.771   2.976   7.424  0.5575 -0.1492  0.1124
 2756SOL    HW119901   1.727   2.986   7.340  0.6923 -0.1571  0.0425
 2756SOL    HW219902   1.739   2.890   7.452  0.7654 -0.6672 -1.2546
 2757SOL     OW19903   4.335   1.791   5.653 -0.1369 -0.5895  0.1763
 2757SOL    HW119904   4.270   1.724   5.674 -1.4576  0.5572 -0.2086
 2757SOL    HW219905   4.388   1.755   5.581 -2.2825 -2.9999 -0.2078
 2758SOL     OW19906   2.835   3.791   3.925  0.3715 -0.2351  0.0991
 2758SOL    HW119907   2.822   3.855   3.995  1.3233  1.3108 -1.1466
 2758SOL    HW219908   2.762   3.805   3.865  3.1034  1.3040 -2.8707
 2759SOL     OW19909   3.713   3.461   6.378  0.1368  0.5178 -0.3515
 2759SOL    HW119910   3.674   3.501   6.300  1.1629  0.6289 -0.8127
 2759SOL    HW219911   3.701   3.369   6.353  3.5827 -0.1755  0.6029
 2760SOL     OW19912   2.668   3.378   8.919  0.7876 -0.5565 -0.1568
 2760SOL    HW119913   2.594   3.382   8.979 -0.3450  1.6600 -1.6752
 2760SOL    HW219914   2.659   3.458   8.867 -1.6520 -1.6601 -1.4568
 2761SOL     OW19915   1.318   3.766  17.458  0.1914  0.2886 -0.6686
 2761SOL    HW119916   1.253   3.820  17.413  0.7655  0.6834 -1.0293
 2761SOL    HW219917   1.402   3.810  17.447 -1.2254  3.1806  0.0994
 2762SOL     OW19918   2.707   1.891  15.372 -0.1172 -0.1126 -0.4849
 2762SOL    HW119919   2.720   1.797  15.356  3.5648  0.3419 -0.1306
 2762SOL    HW219920   2.796   1.926  15.374  0.0906 -0.6265 -0.8795
 2763SOL     OW19921   0.227   1.472  14.727 -0.0751  0.4488 -0.0030
 2763SOL    HW119922   0.144   1.513  14.750 -1.0128 -0.8104 -1.0899
 2763SOL    HW219923   0.235   1.423  14.809  1.5577  0.9707  0.1417
 2764SOL     OW19924   4.050   2.555   0.338  0.2149  0.1521  0.1897
 2764SOL    HW119925   4.078   2.521   0.423 -1.2922  1.5923  1.2785
 2764SOL    HW219926   4.111   2.513   0.278 -0.6419 -3.0556  1.5818
 2765SOL     OW19927   1.702   0.872   5.873  0.3420 -0.0321  0.4568
 2765SOL    HW119928   1.778   0.886   5.929  0.7102 -3.7160  0.9054
 2765SOL    HW219929   1.666   0.787   5.899 -0.5774  0.0876 -0.3998
 2766SOL     OW19930   2.132   4.556   8.054 -0.4237 -0.0557 -0.3617
 2766SOL    HW119931   2.207   4.614   8.050 -0.7313  0.2541 -1.7822
 2766SOL    HW219932   2.163   4.477   8.099  2.4582  2.0360  1.2984
 2767SOL     OW19933   4.568   0.686   5.981 -0.2308 -0.0224  0.0686
 2767SOL    HW119934   4.653   0.648   5.962 -0.1001 -0.7896  2.1559
 2767SOL    HW219935   4.571   0.706   6.075  2.6415 -2.1638  0.4231
 2768SOL     OW19936   2.803   3.493   3.760  0.1248 -0.3548  0.4343
 2768SOL    HW119937   2.783   3.408   3.799 -1.3388 -0.3199 -0.2210
 2768SOL    HW219938   2.714   3.529   3.755  0.1282 -0.4319 -0.1792
 2769SOL     OW19939   0.797   1.711   2.946 -0.0853 -0.2522  0.8424
 2769SOL    HW119940   0.784   1.716   2.851  4.1795  0.3954  0.2815
 2769SOL    HW219941   0.761   1.623   2.954 -0.1358 -0.1197  2.0432
 2770SOL     OW19942   0.366   4.457   8.282  0.1889 -0.0175 -0.4430
 2770SOL    HW119943   0.311   4.379   8.295  0.1926  0.1430  0.5609
 2770SOL    HW219944   0.320   4.504   8.352  1.1353 -1.9749  1.4951
 2771SOL     OW19945   0.461   2.351   6.599  0.2345 -0.0104  0.3651
 2771SOL    HW119946   0.470   2.309   6.513 -0.5268  1.0128 -0.2093
 2771SOL    HW219947   0.504   2.287   6.655  1.0192 -1.1695 -1.5542
 2772SOL     OW19948   1.109   2.613   3.651  0.3219 -0.5604 -0.9689
 2772SOL    HW119949   1.145   2.619   3.562 -0.5491 -1.7974 -1.4108
 2772SOL    HW219950   1.121   2.518   3.659  0.7184 -0.4987 -0.8667
 2773SOL     OW19951   2.372   1.185   9.395  0.4077 -0.2434 -0.3758
 2773SOL    HW119952   2.348   1.275   9.417 -1.1918 -0.3423 -1.7482
 2773SOL    HW219953   2.371   1.190   9.300  1.0757  0.5449 -0.3372
 2774SOL     OW19954   2.201   2.251   8.912 -0.0240  0.1136 -0.1694
 2774SOL    HW119955   2.162   2.230   8.997  0.6009 -2.3820 -0.4784
 2774SOL    HW219956   2.287   2.209   8.908  0.1833  0.6305 -1.1964
 2775SOL     OW19957   0.345   4.291   0.939 -0.2450 -0.2840  0.4112
 2775SOL    HW119958   0.382   4.368   0.896  1.8297 -1.4003  0.2160
 2775SOL    HW219959   0.331   4.233   0.865  0.6058  0.3542 -0.2485
 2776SOL     OW19960   0.728   0.169   9.277 -0.0778 -0.5729 -0.0227
 2776SOL    HW119961   0.657   0.107   9.259  1.9271 -2.9308  0.1864
 2776SOL    HW219962   0.683   0.197   9.357  2.6931 -4.0241  2.7578
 2777SOL     OW19963   1.117   2.871   6.847 -0.1065 -0.0362  0.0508
 2777SOL    HW119964   1.184   2.913   6.794  0.2928  0.6102  1.0837
 2777SOL    HW219965   1.109   2.791   6.795 -2.9327  0.6381 -0.5305
 2778SOL     OW19966   0.247   2.017   7.401 -0.2160 -1.2393  0.2716
 2778SOL    HW119967   0.169   1.981   7.443 -0.8823 -1.5736 -1.2761
 2778SOL    HW219968   0.206   2.035   7.316  1.5559  0.6920 -0.1837
 2779SOL     OW19969   2.573   0.648  15.730 -0.2912  0.0145  0.0306
 2779SOL    HW119970   2.588   0.637  15.636 -5.2457  1.1266 -0.8503
 2779SOL    HW219971   2.661   0.626  15.761 -0.6807  0.1720  1.2579
 2780SOL     OW19972   1.745   2.373   8.272  0.2351 -0.5188 -0.5068
 2780SOL    HW119973   1.769   2.306   8.208  1.5727 -0.8047  0.3225
 2780SOL    HW219974   1.713   2.440   8.211  1.7652  1.3268  0.7430
 2781SOL     OW19975   3.577   0.165   5.892  0.5044 -0.5320  0.1594
 2781SOL    HW119976   3.629   0.179   5.813  1.0361 -2.1019  0.2329
 2781SOL    HW219977   3.502   0.213   5.858 -1.1625 -2.9569  0.4853
 2782SOL     OW19978   1.461   3.795   9.776  0.1305 -0.5837  0.3188
 2782SOL    HW119979   1.392   3.794   9.710 -0.1551 -1.9129  0.6415
 2782SOL    HW219980   1.518   3.723   9.747  0.1663  0.4198 -2.1683
 2783SOL     OW19981   4.549   2.172   8.041  0.6355 -0.7012 -0.2098
 2783SOL    HW119982   4.616   2.211   8.098 -0.4202  0.2292  0.3751
 2783SOL    HW219983   4.600   2.094   8.017 -2.0629 -1.7397 -2.5757
 2784SOL     OW19984   1.487   2.440  10.973  0.8520 -0.3487  0.2378
 2784SOL    HW119985   1.510   2.527  10.939  3.8940 -0.8800  0.9188
 2784SOL    HW219986   1.535   2.434  11.055  1.8980  1.1133 -0.2738
 2785SOL     OW19987   2.217   0.467   3.298  0.3441 -0.3654  0.5180
 2785SOL    HW119988   2.215   0.503   3.386  1.5388 -1.9439  1.2103
 2785SOL    HW219989   2.303   0.503   3.275  0.6250 -2.7109 -2.1953
 2786SOL     OW19990   1.939   2.930   1.433  0.1600 -0.1834  0.1277
 2786SOL    HW119991   1.920   2.883   1.515  0.4052 -1.0664 -0.3252
 2786SOL    HW219992   2.035   2.934   1.435  0.1772  0.4525 -1.9108
 2787SOL     OW19993   4.190   3.104   8.168 -0.0951 -0.0019 -0.2670
 2787SOL    HW119994   4.185   3.018   8.210  0.5153  0.5300  0.8840
 2787SOL    HW219995   4.104   3.138   8.192 -0.9074 -2.4857  0.4026
 2788SOL     OW19996   4.007   1.828   4.968 -0.2007 -0.0442  0.3420
 2788SOL    HW119997   4.090   1.828   4.921 -0.7747 -0.4486 -0.6588
 2788SOL    HW219998   3.956   1.774   4.909 -0.9576 -0.7054  1.5911
 2789SOL     OW19999   2.165   1.436   7.389  0.3776  0.5949  0.3745
 2789SOL    HW120000   2.136   1.513   7.437  1.2205  0.4500  1.1179
 2789SOL    HW220001   2.106   1.367   7.420 -1.4616  2.6189  1.3363
 2790SOL     OW20002   1.029   2.669   5.649  0.7723 -0.6349  0.1046
 2790SOL    HW120003   1.021   2.759   5.682 -1.2592 -0.6179 -0.4569
 2790SOL    HW220004   1.123   2.656   5.664  0.8476 -0.3385 -0.1056
 2791SOL     OW20005   4.236   0.951   5.819 -0.2434  0.2189  0.4107
 2791SOL    HW120006   4.189   1.018   5.769  3.5428  1.8395 -0.9667
 2791SOL    HW220007   4.162   0.893   5.837  0.0306 -0.0642  0.6247
 2792SOL     OW20008   0.320   0.038  12.077 -0.0704  0.2107 -0.0858
 2792SOL    HW120009   0.368   4.704  12.125  1.0919  0.1615 -1.3180
 2792SOL    HW220010   0.387   0.079  12.023  0.1093  3.0759  2.3296
 2793SOL     OW20011   2.863   0.900   2.761 -0.7993 -0.5003 -0.4964
 2793SOL    HW120012   2.899   0.939   2.840 -0.5715 -2.2496  0.2500
 2793SOL    HW220013   2.919   0.944   2.697 -0.7084 -2.5785 -1.8499
 2794SOL     OW20014   0.678   2.469   8.115  0.0075 -0.5748 -0.3170
 2794SOL    HW120015   0.618   2.535   8.079 -0.3628 -1.9186 -2.1988
 2794SOL    HW220016   0.612   2.413   8.155 -0.0243  0.9314  1.7075
 2795SOL     OW20017   1.567   4.555   4.099  0.5514 -0.0777 -0.2227
 2795SOL    HW120018   1.642   4.530   4.045 -0.9359 -1.3183 -1.7343
 2795SOL    HW220019   1.508   4.508   4.040  0.9290 -0.0458 -0.6223
 2796SOL     OW20020   4.498   1.376   9.504  0.4946  0.5958 -0.1217
 2796SOL    HW120021   4.524   1.310   9.568  0.6684 -0.2769 -1.1017
 2796SOL    HW220022   4.498   1.332   9.419  0.1826  1.3586 -0.5167
 2797SOL     OW20023   1.730   3.890  11.092  0.7741 -0.0911  0.1952
 2797SOL    HW120024   1.824   3.908  11.088  1.6205 -4.3956  0.5246
 2797SOL    HW220025   1.694   3.978  11.100  0.8221 -0.0810  0.2946
 2798SOL     OW20026   2.433   2.359   1.641 -0.0121  0.8577 -0.4385
 2798SOL    HW120027   2.487   2.436   1.624  0.0237  0.8595 -0.3101
 2798SOL    HW220028   2.412   2.333   1.551 -2.5912 -0.0031  0.3867
 2799SOL     OW20029   2.646   2.895   7.433 -0.2716 -0.2923 -0.3557
 2799SOL    HW120030   2.594   2.835   7.485 -1.4490 -0.4716 -1.7417
 2799SOL    HW220031   2.689   2.954   7.494  0.5338 -0.4207 -0.7914
 2800SOL     OW20032   4.170   1.783   9.787 -0.7765  0.5544  0.4129
 2800SOL    HW120033   4.170   1.854   9.723  3.3242  0.7966  0.7218
 2800SOL    HW220034   4.131   1.707   9.743 -1.7286  2.3846 -1.8919
 2801SOL     OW20035   1.274   2.608   2.535  0.5181 -0.2632 -0.0838
 2801SOL    HW120036   1.288   2.699   2.561  0.4944 -0.5536  0.9532
 2801SOL    HW220037   1.365   2.579   2.532  0.6250  0.1719 -1.0160
 2802SOL     OW20038   1.744   0.157   7.641 -1.0185 -0.5242 -0.1801
 2802SOL    HW120039   1.826   0.110   7.631 -0.5989 -0.1406  1.4598
 2802SOL    HW220040   1.692   0.119   7.570 -1.3133  0.1135 -0.3034
 2803SOL     OW20041   0.345   1.831   4.762  0.6093 -0.1110 -0.1508
 2803SOL    HW120042   0.333   1.774   4.686 -0.4236 -1.5730  1.0988
 2803SOL    HW220043   0.304   1.915   4.744  1.1197  0.3151  0.6531
 2804SOL     OW20044   4.540   1.279   4.949 -0.2104 -0.6035  0.1078
 2804SOL    HW120045   4.483   1.243   4.880 -0.6093  0.0526  0.0962
 2804SOL    HW220046   4.476   1.309   5.014  0.1548  2.7917 -1.1145
 2805SOL     OW20047   3.604   4.124   3.303  0.5038  0.4478  0.1187
 2805SOL    HW120048   3.646   4.050   3.347  0.1963  0.3148  0.1839
 2805SOL    HW220049   3.658   4.135   3.225 -0.0934  0.0429 -0.3563
 2806SOL     OW20050   1.810   1.850  13.523 -0.3067 -0.9603  0.1826
 2806SOL    HW120051   1.878   1.916  13.537 -2.2406  0.7494  1.8032
 2806SOL    HW220052   1.851   1.770  13.554  0.6476 -0.5914 -0.1178
 2807SOL     OW20053   0.612   0.879   4.733  0.3800  0.3874 -0.3372
 2807SOL    HW120054   0.671   0.842   4.798  0.8075  0.6467 -0.5746
 2807SOL    HW220055   0.679   0.899   4.668  0.9125  1.8054  0.6495
 2808SOL     OW20056   4.061   3.167  13.377  0.2460  0.1671  0.2922
 2808SOL    HW120057   4.018   3.097  13.328  1.1056 -0.3624  0.2849
 2808SOL    HW220058   4.008   3.161  13.456  1.2406  1.4136  1.0531
 2809SOL     OW20059   1.943   1.859   3.148  0.2071 -0.3962  0.1092
 2809SOL    HW120060   1.992   1.865   3.066  0.1271  1.5451  0.2159
 2809SOL    HW220061   1.893   1.940   3.156 -1.4782 -1.3322 -0.9567
 2810SOL     OW20062   3.871   3.882  10.788  0.6419  0.0049 -0.0956
 2810SOL    HW120063   3.940   3.859  10.850 -0.8623 -1.5637  1.0064
 2810SOL    HW220064   3.821   3.942  10.843  0.7284  0.0017 -0.0135
 2811SOL     OW20065   4.631   1.132   3.433  0.2788  0.0833  0.1204
 2811SOL    HW120066   4.649   1.180   3.352  0.3423  1.1076  0.7531
 2811SOL    HW220067   4.691   1.058   3.430  1.4693  1.0965 -1.0897
 2812SOL     OW20068   3.273   0.158   5.982  0.3458 -0.1420  0.4851
 2812SOL    HW120069   3.268   0.123   5.893  2.1307  1.7754 -0.3740
 2812SOL    HW220070   3.367   0.167   5.992  0.4646 -0.9166  0.0485
 2813SOL     OW20071   0.932   0.334   2.636  0.0167 -0.0295  0.3579
 2813SOL    HW120072   0.988   0.355   2.562  0.0863 -0.1999  0.3617
 2813SOL    HW220073   0.969   0.248   2.658  0.4478  0.0668 -0.0083
 2814SOL     OW20074   2.755   2.496  13.628 -0.1880  0.7193 -0.1901
 2814SOL    HW120075   2.752   2.501  13.532 -0.9493 -1.3124 -0.2653
 2814SOL    HW220076   2.817   2.566  13.647 -0.4009  1.7312 -3.2833
 2815SOL     OW20077   0.033   1.582  17.527 -0.0062 -0.4332  0.0644
 2815SOL    HW120078   0.104   1.608  17.585 -1.0880 -0.8458  1.5491
 2815SOL    HW220079   4.695   1.586  17.588 -0.6245 -2.0654 -0.5628
 2816SOL     OW20080   3.683   4.709   9.789 -0.4182 -0.6940 -0.1438
 2816SOL    HW120081   3.757   4.732   9.846  0.1846 -1.6308 -0.5405
 2816SOL    HW220082   3.728   4.633   9.751 -0.9640 -0.2732 -1.6322
 2817SOL     OW20083   3.721   2.879   3.079  0.3503  0.3421 -0.0643
 2817SOL    HW120084   3.666   2.812   3.120 -0.3439  0.2842 -1.0559
 2817SOL    HW220085   3.657   2.948   3.060 -0.0152  0.3325  1.1699
 2818SOL     OW20086   0.946   2.876   7.502  0.1780 -0.4180  0.2772
 2818SOL    HW120087   1.030   2.900   7.462  1.4523  0.8850  3.7694
 2818SOL    HW220088   0.892   2.908   7.429  0.1767 -1.5077 -0.1972
 2819SOL     OW20089   3.843   2.655   6.618  0.2491  0.1175  0.0209
 2819SOL    HW120090   3.824   2.585   6.556  0.5845 -1.4244  1.6557
 2819SOL    HW220091   3.846   2.606   6.700 -0.1754 -1.6148 -1.0117
 2820SOL     OW20092   0.424   0.730   2.638 -0.3072  0.2867  0.4504
 2820SOL    HW120093   0.452   0.666   2.703  2.0087 -0.7538 -1.5483
 2820SOL    HW220094   0.447   0.686   2.556  2.3860 -2.0919  2.4926
 2821SOL     OW20095   0.441   2.383   7.685  0.0025  0.0925 -0.1776
 2821SOL    HW120096   0.382   2.327   7.635 -0.4312  0.8829 -0.5622
 2821SOL    HW220097   0.376   2.436   7.732 -0.8019 -0.3690 -0.7705
 2822SOL     OW20098   2.034   0.527   7.303  0.2909 -0.0590  0.1372
 2822SOL    HW120099   2.022   0.621   7.286  0.6539 -0.2670 -1.2860
 2822SOL    HW220100   1.987   0.491   7.228 -2.5585  1.7774  1.0229
 2823SOL     OW20101   4.231   2.746   6.280 -0.0007  0.3856  0.1458
 2823SOL    HW120102   4.279   2.760   6.361  1.5217 -1.7539 -0.3984
 2823SOL    HW220103   4.252   2.834   6.247 -0.1649 -0.6420 -2.7300
 2824SOL     OW20104   0.570   0.925   6.831 -0.5429  0.3520 -0.2296
 2824SOL    HW120105   0.578   0.947   6.739 -1.8295 -0.2928 -0.5004
 2824SOL    HW220106   0.606   0.836   6.838 -0.6434  0.2506 -1.0457
 2825SOL     OW20107   3.072   3.659   6.167 -0.5182  0.4943 -0.7548
 2825SOL    HW120108   3.147   3.605   6.189 -0.9300  0.8722  1.5543
 2825SOL    HW220109   3.098   3.750   6.183 -2.9064  0.9832  0.3854
 2826SOL     OW20110   3.875   2.833   7.009 -0.0120 -0.5059 -0.0228
 2826SOL    HW120111   3.914   2.919   7.025  0.3106 -0.3243 -1.8119
 2826SOL    HW220112   3.953   2.781   6.989 -0.7285 -1.3907 -0.5632
 2827SOL     OW20113   0.010   4.511   4.833  0.4832  0.4267 -0.4884
 2827SOL    HW120114   4.733   4.419   4.810 -1.4765  0.8696 -1.2105
 2827SOL    HW220115   0.074   4.502   4.904 -1.3983 -1.0944  1.0215
 2828SOL     OW20116   3.602   1.056   1.570 -0.6995  0.6429 -0.2457
 2828SOL    HW120117   3.593   1.150   1.556  0.6415  0.5444 -1.7507
 2828SOL    HW220118   3.577   1.045   1.662  1.9696 -1.2432  0.2604
 2829SOL     OW20119   1.021   3.968  11.562 -0.3535  0.6726 -0.8663
 2829SOL    HW120120   1.002   4.061  11.560 -0.2925  0.6699 -1.9348
 2829SOL    HW220121   0.931   3.935  11.555 -1.1334  2.8273 -1.0481
 2830SOL     OW20122   0.336   2.463  14.638 -0.4475 -0.4885  0.3744
 2830SOL    HW120123   0.277   2.440  14.709  0.0449 -0.0552  0.9275
 2830SOL    HW220124   0.412   2.406  14.652 -1.5352 -1.3431  2.8251
 2831SOL     OW20125   4.417   4.087   8.305 -0.4207  0.0978 -0.4238
 2831SOL    HW120126   4.396   4.180   8.314 -0.6032  0.1118 -1.0049
 2831SOL    HW220127   4.348   4.050   8.249 -3.4722  0.9236  2.8241
 2832SOL     OW20128   3.834   1.248   2.709 -0.2615 -0.1413 -0.5200
 2832SOL    HW120129   3.769   1.180   2.694  0.2307 -0.6814 -0.1795
 2832SOL    HW220130   3.792   1.327   2.674  0.7618  0.2841 -0.7999
 2833SOL     OW20131   1.521   4.610   8.165  0.5091 -0.2882  0.3922
 2833SOL    HW120132   1.567   4.605   8.249 -1.7754  2.0162  1.7924
 2833SOL    HW220133   1.545   4.524   8.132 -1.2568  0.4335 -2.7928
 2834SOL     OW20134   4.593   1.518   6.924  0.4320 -0.1657 -0.4719
 2834SOL    HW120135   4.580   1.570   7.003  1.1739 -1.0714  0.2413
 2834SOL    HW220136   4.565   1.430   6.951 -0.8861 -0.1362 -1.7311
 2835SOL     OW20137   4.288   4.384  15.890 -0.3406  0.3687 -0.4596
 2835SOL    HW120138   4.331   4.425  15.815  0.2351  2.6686  1.1389
 2835SOL    HW220139   4.356   4.343  15.943 -0.8472  0.5325  0.3097
 2836SOL     OW20140   4.559   4.207   7.228 -0.4074  0.7304 -0.0813
 2836SOL    HW120141   4.603   4.122   7.237  0.2112  1.0926  0.3228
 2836SOL    HW220142   4.615   4.269   7.275 -0.5216  0.4960  0.3677
 2837SOL     OW20143   0.374   2.789   4.798  0.0440  0.0044 -0.2311
 2837SOL    HW120144   0.447   2.840   4.832 -0.1872  0.0519  0.2047
 2837SOL    HW220145   0.295   2.836   4.827  0.2635  0.3517 -0.1908
 2838SOL     OW20146   0.605   4.260   9.377  0.1860  0.1162 -0.5583
 2838SOL    HW120147   0.572   4.181   9.333  0.6350 -1.0494  1.1819
 2838SOL    HW220148   0.696   4.231   9.387  0.0354  0.5474  1.8903
 2839SOL     OW20149   2.452   2.017   1.407  0.4173  0.7324 -0.2605
 2839SOL    HW120150   2.412   1.990   1.490  2.7688 -1.6523  0.1127
 2839SOL    HW220151   2.446   1.930   1.368 -0.5676  0.5639  0.2464
 2840SOL     OW20152   3.883   4.221   9.509 -0.0078 -0.3309 -0.6182
 2840SOL    HW120153   3.804   4.274   9.495  0.8059  1.1935  0.5529
 2840SOL    HW220154   3.919   4.281   9.575  1.4577 -0.2151 -1.5240
 2841SOL     OW20155   0.576   2.937   4.513  0.0694 -0.0724 -0.0381
 2841SOL    HW120156   0.549   2.925   4.422 -0.2759 -0.0388  0.0599
 2841SOL    HW220157   0.664   2.969   4.498  0.3617 -2.3808 -3.3187
 2842SOL     OW20158   4.453   2.308   1.885 -0.2551 -0.0024  0.4990
 2842SOL    HW120159   4.520   2.260   1.836 -0.1313 -0.2036  0.8642
 2842SOL    HW220160   4.473   2.396   1.855 -0.7221 -0.9436 -2.5519
 2843SOL     OW20161   3.692   0.703   5.234 -0.0233 -0.4703  0.1424
 2843SOL    HW120162   3.700   0.620   5.188 -1.5919 -0.5981  0.0854
 2843SOL    HW220163   3.756   0.686   5.302 -1.2254 -1.2140  1.0900
 2844SOL     OW20164   1.246   1.578   7.662 -0.2579  0.1304 -0.0456
 2844SOL    HW120165   1.187   1.541   7.596  1.4742  0.0324 -1.5429
 2844SOL    HW220166   1.180   1.624   7.713 -1.5799 -0.5286 -1.1478
 2845SOL     OW20167   2.388   4.512   7.416  0.1417  0.3191  0.0099
 2845SOL    HW120168   2.355   4.602   7.419 -0.0088  0.2767 -0.3981
 2845SOL    HW220169   2.321   4.466   7.466 -0.9291 -0.2011 -1.8948
 2846SOL     OW20170   3.414   2.170  17.142  0.5201  0.0857 -0.0870
 2846SOL    HW120171   3.318   2.167  17.142  0.5051  1.1279  1.9695
 2846SOL    HW220172   3.426   2.259  17.175  0.3446  0.7665 -1.8388
 2847SOL     OW20173   4.500   0.618   3.518  0.5544 -0.5823 -0.2390
 2847SOL    HW120174   4.501   0.532   3.476  1.2020 -0.0340 -1.3464
 2847SOL    HW220175   4.589   0.649   3.502 -0.3967  2.1946 -0.2054
 2848SOL     OW20176   1.735   0.009   1.807  0.6721  0.4185  0.2364
 2848SOL    HW120177   1.806   0.072   1.805  2.0606 -1.2165 -1.6005
 2848SOL    HW220178   1.664   0.057   1.764 -0.2163  0.6015  1.8888
 2849SOL     OW20179   2.932   4.591   7.716 -0.3843 -0.7270  0.2347
 2849SOL    HW120180   2.996   4.647   7.671 -0.2740 -0.7127  0.4109
 2849SOL    HW220181   2.865   4.593   7.648 -2.2416 -1.2996  2.0500
 2850SOL     OW20182   1.621   0.164  13.820 -0.6595  0.0498 -0.2951
 2850SOL    HW120183   1.586   0.142  13.907  1.5936  1.6725  1.0443
 2850SOL    HW220184   1.545   0.200  13.776 -0.3919  2.0909  0.8879
 2851SOL     OW20185   3.804   0.634   7.050  0.7078 -0.7155 -0.4749
 2851SOL    HW120186   3.758   0.698   6.996  1.7252 -0.2156 -0.7578
 2851SOL    HW220187   3.737   0.565   7.045 -0.3940  0.2682  0.7996
 2852SOL     OW20188   2.517   1.089   9.600  0.2091 -0.2142  0.7064
 2852SOL    HW120189   2.466   1.101   9.520  1.2028 -1.6556 -0.1425
 2852SOL    HW220190   2.477   1.153   9.658 -0.8033 -0.9614  0.8190
 2853SOL     OW20191   3.751   1.303  16.928  0.1519  0.1125  1.0814
 2853SOL    HW120192   3.833   1.263  16.956  1.2082  1.2441 -0.4336
 2853SOL    HW220193   3.745   1.365  17.001 -0.1526  2.2683 -0.7961
 2854SOL     OW20194   2.891   2.919   0.458 -0.3268  0.0696  0.6603
 2854SOL    HW120195   2.832   2.860   0.412  0.0407  0.2792 -0.0849
 2854SOL    HW220196   2.964   2.909   0.398  0.0400  0.1640  1.0897
 2855SOL     OW20197   4.654   0.768   6.646  0.3553  0.2582  0.2382
 2855SOL    HW120198   4.627   0.676   6.638  1.1022  0.1637 -1.1801
 2855SOL    HW220199   0.013   0.751   6.644  0.4149  0.0734  3.7958
 2856SOL     OW20200   0.226   1.562  13.364 -0.5823  0.0645 -0.0231
 2856SOL    HW120201   0.256   1.472  13.360  1.9859  0.9441 -0.5604
 2856SOL    HW220202   0.244   1.589  13.454  0.5678  1.3195 -0.6266
 2857SOL     OW20203   0.020   1.161   3.156  0.0495 -0.6823 -0.2199
 2857SOL    HW120204   4.694   1.221   3.114  0.1806 -0.0552  0.4705
 2857SOL    HW220205   0.011   1.084   3.101  0.1525 -0.8566  0.0051
 2858SOL     OW20206   0.791   2.710   3.999 -0.0986 -0.3132 -0.4317
 2858SOL    HW120207   0.712   2.675   4.041 -1.2226  0.5093 -1.8417
 2858SOL    HW220208   0.763   2.770   3.929 -0.8535 -1.5349 -1.1831
 2859SOL     OW20209   0.731   0.676   6.612 -0.2125  0.5112 -0.4036
 2859SOL    HW120210   0.717   0.655   6.520  0.2680  0.6115 -0.4970
 2859SOL    HW220211   0.702   0.595   6.655 -0.7904  1.2243  0.5587
 2860SOL     OW20212   2.997   2.327   4.714  0.4029 -0.2773 -0.0799
 2860SOL    HW120213   2.920   2.348   4.661  0.0338  2.3670  1.4900
 2860SOL    HW220214   2.976   2.369   4.798 -0.1343 -0.7378  0.0114
 2861SOL     OW20215   3.760   1.451  17.141 -0.1016  0.2699  0.1456
 2861SOL    HW120216   3.729   1.537  17.171 -0.5454 -0.0077  0.4706
 2861SOL    HW220217   3.722   1.395  17.208 -0.6540  0.4922  0.0153
 2862SOL     OW20218   1.181   4.199   6.356 -0.2394  0.3955 -0.1222
 2862SOL    HW120219   1.086   4.184   6.360 -0.3674  0.8759 -1.5486
 2862SOL    HW220220   1.211   4.138   6.289  0.5304  0.1771  0.4213
 2863SOL     OW20221   3.332   1.643  12.205  0.4128 -0.2242  0.4644
 2863SOL    HW120222   3.307   1.728  12.242  1.4403 -0.1572  1.0208
 2863SOL    HW220223   3.368   1.596  12.281  0.7727 -0.0239  0.4199
 2864SOL     OW20224   1.122   3.122  16.258 -0.0096  0.1096  0.5134
 2864SOL    HW120225   1.179   3.126  16.182  0.1706  1.2839  0.7169
 2864SOL    HW220226   1.176   3.061  16.309  0.4218 -0.7408 -0.9732
 2865SOL     OW20227   2.125   4.386   5.561 -0.0013 -0.1373  0.0486
 2865SOL    HW120228   2.206   4.403   5.608  0.4848 -0.4185 -0.6838
 2865SOL    HW220229   2.147   4.366   5.470  2.2394 -0.5625  0.6898
 2866SOL     OW20230   4.214   1.640  12.960 -0.0953  0.2282  0.4607
 2866SOL    HW120231   4.177   1.710  13.013 -0.2413  0.1172  0.5047
 2866SOL    HW220232   4.292   1.682  12.922 -1.1073 -0.0911 -1.9369
 2867SOL     OW20233   1.448   1.020   0.265 -0.0848  0.6056  0.3720
 2867SOL    HW120234   1.419   1.074   0.338  2.8708  2.3085  0.3245
 2867SOL    HW220235   1.440   0.935   0.307  0.4884  0.1664 -0.4039
 2868SOL     OW20236   3.101   0.233   4.828 -0.4419 -0.2033  0.4334
 2868SOL    HW120237   3.041   0.293   4.873  1.0511  0.5914  1.3389
 2868SOL    HW220238   3.058   0.225   4.742  0.0777 -1.4012  0.2925
 2869SOL     OW20239   0.557   4.003   0.620 -0.1782 -0.5997 -0.6148
 2869SOL    HW120240   0.543   4.098   0.624  0.5431 -0.5315  0.2648
 2869SOL    HW220241   0.482   3.967   0.666  0.7080 -0.4269  0.9732
 2870SOL     OW20242   1.376   2.605   2.268  0.0703  0.2084  0.3176
 2870SOL    HW120243   1.451   2.627   2.323  1.3365  1.8181 -2.0874
 2870SOL    HW220244   1.303   2.642   2.318  0.2061  0.8109  0.0678
 2871SOL     OW20245   2.747   0.934   0.049  0.2719 -0.2324 -0.2726
 2871SOL    HW120246   2.748   0.866  17.721  1.7129  0.8717 -1.3928
 2871SOL    HW220247   2.673   0.991   0.027  1.2769  1.0715 -0.3025
 2872SOL     OW20248   3.448   1.614   6.051  0.2706  0.5497  0.3538
 2872SOL    HW120249   3.497   1.584   6.127 -0.1830 -0.7661  0.1441
 2872SOL    HW220250   3.361   1.626   6.088 -1.1859 -1.4477 -2.4004
 2873SOL     OW20251   1.026   0.287   6.315  0.0264 -0.4253  0.6424
 2873SOL    HW120252   0.938   0.270   6.350 -0.2870 -1.0893 -0.4687
 2873SOL    HW220253   1.047   0.374   6.349  1.7749 -1.4178  2.1225
 2874SOL     OW20254   3.636   3.232   4.822  0.3704  0.4199  0.1547
 2874SOL    HW120255   3.585   3.212   4.744 -0.1983 -0.2164  0.6886
 2874SOL    HW220256   3.657   3.323   4.805  1.1761  0.3884  0.9411
 2875SOL     OW20257   0.902   4.327   5.978  0.3690  0.2459 -0.1047
 2875SOL    HW120258   0.974   4.384   5.953  1.2478 -0.4461  0.9050
 2875SOL    HW220259   0.831   4.372   5.930  0.8088 -0.2370 -1.2112
 2876SOL     OW20260   0.172   1.681  17.297 -0.1263 -0.1369 -0.1511
 2876SOL    HW120261   0.149   1.618  17.365  1.3818 -1.7313 -1.1127
 2876SOL    HW220262   0.242   1.717  17.352  1.3994 -3.0971 -0.1585
 2877SOL     OW20263   4.257   4.143   2.805 -0.7095  0.2190  0.1198
 2877SOL    HW120264   4.298   4.102   2.730 -1.1717  2.7927 -1.5337
 2877SOL    HW220265   4.285   4.087   2.878 -1.0171  1.1140  0.9320
 2878SOL     OW20266   3.629   4.329   2.723  0.1205 -0.2504 -0.2520
 2878SOL    HW120267   3.612   4.297   2.634  0.6649  2.2673 -1.2818
 2878SOL    HW220268   3.603   4.254   2.776  1.7520  1.1860  2.5668
 2879SOL     OW20269   1.102   4.195  13.395 -0.2488  0.3752 -0.0394
 2879SOL    HW120270   1.184   4.183  13.346  0.9578  0.7680  1.8622
 2879SOL    HW220271   1.106   4.120  13.454  1.6261  0.2462 -0.3044
 2880SOL     OW20272   0.575   2.646  17.340 -0.3373 -0.4134  0.0157
 2880SOL    HW120273   0.484   2.676  17.346 -0.0575  0.6093 -0.8598
 2880SOL    HW220274   0.620   2.701  17.404  1.6645 -0.7589 -1.0888
 2881SOL     OW20275   3.507   2.998   4.706  0.1268  0.2870  0.1591
 2881SOL    HW120276   3.468   2.913   4.689 -0.6327  0.5146  0.7621
 2881SOL    HW220277   3.517   3.002   4.801 -1.4788 -2.0371  0.4219
 2882SOL     OW20278   4.168   0.053   4.181  0.5406 -0.1247  0.5231
 2882SOL    HW120279   4.146   4.697   4.205 -1.5006 -0.2683 -1.9077
 2882SOL    HW220280   4.079   0.088   4.181  0.5447 -0.1138  1.3794
 2883SOL     OW20281   2.166   1.037   7.519 -0.1809  0.0453  0.7606
 2883SOL    HW120282   2.101   0.972   7.545 -0.6206  0.8854  1.7245
 2883SOL    HW220283   2.212   1.041   7.603  0.2152 -0.3908  0.5661
 2884SOL     OW20284   4.488   1.324  10.214 -0.7483  0.7577  0.2718
 2884SOL    HW120285   4.446   1.410  10.218 -2.1933 -0.1067  3.1110
 2884SOL    HW220286   4.562   1.352  10.159  1.5072 -1.7700  2.0431
 2885SOL     OW20287   1.983   2.970   6.383 -0.0458 -0.2232  0.0897
 2885SOL    HW120288   1.946   2.883   6.369 -1.3855 -0.0136  2.4289
 2885SOL    HW220289   1.929   3.020   6.323  1.8436 -0.0976 -1.5278
 2886SOL     OW20290   2.351   0.307   8.765  0.2205 -0.2652 -0.3119
 2886SOL    HW120291   2.272   0.256   8.747 -0.7509  0.6144  1.4548
 2886SOL    HW220292   2.386   0.339   8.682 -0.1087  0.0049 -0.3516
 2887SOL     OW20293   2.729   4.290   3.034 -0.6396  0.5154  0.0035
 2887SOL    HW120294   2.646   4.329   3.061 -1.1536 -0.7971  0.3442
 2887SOL    HW220295   2.712   4.289   2.940 -0.3422 -0.4337 -0.0470
 2888SOL     OW20296   3.114   4.104   6.240  0.5941  0.4392 -0.1235
 2888SOL    HW120297   3.113   4.083   6.334 -1.7291  0.3332 -0.1800
 2888SOL    HW220298   3.135   4.196   6.231 -1.2906  1.0621  1.9328
 2889SOL     OW20299   3.430   1.707   3.366 -0.1973 -0.1074 -0.2722
 2889SOL    HW120300   3.335   1.719   3.371 -0.0494  0.5935  0.8447
 2889SOL    HW220301   3.435   1.645   3.294 -0.0537 -0.4684  0.0536
 2890SOL     OW20302   2.481   3.120  11.727 -0.3977  0.3409  0.0852
 2890SOL    HW120303   2.525   3.169  11.796  0.0602  3.5353 -2.4864
 2890SOL    HW220304   2.510   3.031  11.745  2.1125  1.5951  2.2714
 2891SOL     OW20305   3.922   4.144   0.129  0.1754 -0.4375 -0.2980
 2891SOL    HW120306   3.934   4.051   0.112  2.7025 -0.2427  0.3920
 2891SOL    HW220307   3.908   4.174   0.039 -2.2351  3.1451  1.2545
 2892SOL     OW20308   2.715   3.112  16.174  0.1001  0.2379  0.4108
 2892SOL    HW120309   2.753   3.033  16.134  0.1548  0.3409  0.2582
 2892SOL    HW220310   2.796   3.161  16.190 -0.0636  0.9410 -0.8750
 2893SOL     OW20311   3.959   1.689  17.496  0.5528 -0.0989  0.1145
 2893SOL    HW120312   4.044   1.665  17.461  1.3274  1.9684  0.6008
 2893SOL    HW220313   3.932   1.768  17.450  0.6671  0.1521  0.4759
 2894SOL     OW20314   1.948   0.919   3.377  0.1263 -0.5191 -0.4515
 2894SOL    HW120315   2.040   0.944   3.363 -0.4531  1.4850 -0.7529
 2894SOL    HW220316   1.908   0.932   3.291  1.6480  2.3993 -0.7216
 2895SOL     OW20317   0.938   4.400   6.923  0.4100 -0.5567 -0.3272
 2895SOL    HW120318   0.918   4.391   6.830  0.6052 -0.9712 -0.3307
 2895SOL    HW220319   0.855   4.370   6.961 -0.6305  2.8330  0.0490
 2896SOL     OW20320   2.424   2.779  11.279 -0.3672  0.0878  0.4630
 2896SOL    HW120321   2.373   2.790  11.359 -0.7148  0.0190  0.2489
 2896SOL    HW220322   2.468   2.695  11.286  1.2626  0.6240 -3.3172
 2897SOL     OW20323   2.819   0.317   3.891  0.3885 -0.0103  0.0550
 2897SOL    HW120324   2.733   0.313   3.850  0.4023 -2.1267  0.2229
 2897SOL    HW220325   2.802   0.242   3.948 -3.3959 -1.0859 -2.5403
 2898SOL     OW20326   0.374   2.544  16.333  0.4087 -0.2568  0.2807
 2898SOL    HW120327   0.377   2.490  16.413  0.4276 -0.1915  0.3243
 2898SOL    HW220328   0.427   2.492  16.273 -1.3334 -2.1970  0.4006
 2899SOL     OW20329   3.916   1.092  15.360  0.2911  0.4243 -0.0757
 2899SOL    HW120330   3.929   1.006  15.319  1.4758  1.3745 -1.7381
 2899SOL    HW220331   3.974   1.097  15.436 -0.5192  0.0785  0.5532
 2900SOL     OW20332   4.427   4.320   0.400  0.3914  0.1342 -0.3700
 2900SOL    HW120333   4.439   4.396   0.343  1.2287  0.1994 -0.1080
 2900SOL    HW220334   4.405   4.380   0.472 -2.0290  1.9155 -2.5996
 2901SOL     OW20335   3.866   2.866  16.142  0.0969  0.1631 -0.5828
 2901SOL    HW120336   3.942   2.808  16.153  1.7377  2.8629  2.2656
 2901SOL    HW220337   3.801   2.822  16.196  0.4556 -0.7757 -0.9064
 2902SOL     OW20338   4.366   1.829   6.407  0.2293 -0.4630  0.1287
 2902SOL    HW120339   4.285   1.779   6.416  0.7234 -1.2566  0.2203
 2902SOL    HW220340   4.375   1.822   6.312  1.7066  1.9566  0.1026
 2903SOL     OW20341   3.183   0.840  13.256 -0.3558 -0.2356  0.2053
 2903SOL    HW120342   3.144   0.909  13.203  0.8135  0.8461  0.7648
 2903SOL    HW220343   3.128   0.838  13.335 -0.7326 -2.0202 -0.1018
 2904SOL     OW20344   3.890   0.788  14.541  0.9361  0.1352 -0.6067
 2904SOL    HW120345   3.945   0.862  14.513 -1.8483  1.6952 -1.9647
 2904SOL    HW220346   3.829   0.777  14.469  0.2358 -2.2413  0.3603
 2905SOL     OW20347   3.067   1.594   2.789 -0.0092 -0.1041  0.2806
 2905SOL    HW120348   2.980   1.580   2.827  0.3691 -2.3822  0.3213
 2905SOL    HW220349   3.040   1.567   2.701  1.1976 -0.6873  0.0882
 2906SOL     OW20350   3.191   2.393   5.191  0.3221 -0.3071 -0.3556
 2906SOL    HW120351   3.220   2.342   5.267  1.4281  0.6585 -0.1265
 2906SOL    HW220352   3.275   2.395   5.144  0.8518 -1.5810  0.5269
 2907SOL     OW20353   3.652   0.514  13.065  0.3205 -0.2560  0.1411
 2907SOL    HW120354   3.656   0.581  12.997 -2.3266  0.2141  0.4188
 2907SOL    HW220355   3.578   0.549  13.116  0.9587  0.8104  0.3422
 2908SOL     OW20356   4.113   2.334  16.851  0.4165 -0.6158  0.0514
 2908SOL    HW120357   4.122   2.428  16.838  1.2970 -0.4611  1.8381
 2908SOL    HW220358   4.134   2.306  16.762 -0.7775  2.0196 -1.0699
 2909SOL     OW20359   1.571   2.398   8.637 -0.4034  0.1231  0.0031
 2909SOL    HW120360   1.560   2.459   8.710 -0.3969  4.2539 -3.4115
 2909SOL    HW220361   1.656   2.361   8.658 -0.0822 -0.1533 -1.8166
 2910SOL     OW20362   4.499   0.403  11.942 -0.7978 -0.3516 -0.0255
 2910SOL    HW120363   4.474   0.454  12.019  1.3165  0.2707  0.2262
 2910SOL    HW220364   4.594   0.392  11.947 -0.6576  0.8656  0.0162
 2911SOL     OW20365   0.895   0.472  12.016  0.5066 -0.1954  0.2803
 2911SOL    HW120366   0.950   0.504  11.944 -0.1263  2.0473  0.7928
 2911SOL    HW220367   0.810   0.473  11.972  1.8263 -1.0056 -2.2953
 2912SOL     OW20368   2.753   0.590   7.632  0.1940  0.5831 -0.2955
 2912SOL    HW120369   2.668   0.633   7.622 -0.0286  0.4730  1.1381
 2912SOL    HW220370   2.794   0.635   7.558  1.6308  0.3393  0.3579
 2913SOL     OW20371   1.930   4.064   4.088 -0.5152 -0.2276  0.0198
 2913SOL    HW120372   1.847   4.075   4.133 -0.2003  0.7614  0.3568
 2913SOL    HW220373   1.978   4.132   4.135  0.6857 -0.8962 -0.2163
 2914SOL     OW20374   1.091   3.921   2.907  0.3172  0.4859 -0.7376
 2914SOL    HW120375   1.049   3.881   2.831  0.2660  0.2685 -0.5958
 2914SOL    HW220376   1.042   3.999   2.931  0.5115  0.5192 -0.4406
 2915SOL     OW20377   1.736   4.649   5.827  0.0805  0.4353  0.2795
 2915SOL    HW120378   1.804   4.650   5.893 -1.0386 -0.9803  1.4540
 2915SOL    HW220379   1.721   4.555   5.825  0.3103  0.4172 -1.0558
 2916SOL     OW20380   1.417   2.017   8.198  0.0105  0.1487  0.3444
 2916SOL    HW120381   1.363   1.962   8.254  0.2611 -0.5812 -0.1293
 2916SOL    HW220382   1.364   2.095   8.180  2.2967  2.1463  2.2367
 2917SOL     OW20383   0.590   2.204   2.007 -0.1055  0.3027  0.2927
 2917SOL    HW120384   0.671   2.154   2.003 -1.4081 -1.7266 -0.5902
 2917SOL    HW220385   0.521   2.138   2.013  0.4128 -0.1327  1.6909
 2918SOL     OW20386   2.457   2.641  14.215  0.1253  0.1665  0.0046
 2918SOL    HW120387   2.509   2.577  14.165 -0.5505  0.9232 -1.6771
 2918SOL    HW220388   2.523   2.710  14.203  0.6006 -0.0164  1.5969
 2919SOL     OW20389   1.936   1.899   7.756 -0.2475 -0.2292 -0.0785
 2919SOL    HW120390   1.994   1.914   7.831  1.3060  1.3194 -1.6107
 2919SOL    HW220391   1.871   1.964   7.781 -2.2491 -1.7244 -1.4295
 2920SOL     OW20392   2.326   3.723   1.790  0.4889  0.4590 -0.0435
 2920SOL    HW120393   2.323   3.636   1.831  1.5273 -0.0443 -1.0306
 2920SOL    HW220394   2.345   3.782   1.863  0.6998  0.2967  0.0313
 2921SOL     OW20395   4.066   1.461   1.974 -0.4412 -0.1748  0.0541
 2921SOL    HW120396   4.054   1.391   2.039 -0.8582  1.0265  1.2680
 2921SOL    HW220397   4.154   1.484   2.002 -0.8200 -0.6785  1.6813
 2922SOL     OW20398   4.193   3.517   6.608 -0.4770 -0.0095  0.3651
 2922SOL    HW120399   4.119   3.522   6.548 -0.1105  1.5179  0.0397
 2922SOL    HW220400   4.164   3.585   6.669  2.2535  1.0472  0.4908
 2923SOL     OW20401   3.653   4.145   8.929  0.1833 -0.0609 -0.1375
 2923SOL    HW120402   3.729   4.140   8.986  0.3988 -0.3664 -0.4507
 2923SOL    HW220403   3.680   4.087   8.858 -1.5796 -0.4072 -0.5474
 2924SOL     OW20404   0.359   2.667   9.138 -0.2273  0.1334  0.0541
 2924SOL    HW120405   0.389   2.668   9.229 -0.3550  0.6082  0.0945
 2924SOL    HW220406   0.383   2.579   9.109 -1.2715 -0.0685 -0.1848
 2925SOL     OW20407   2.657   2.341  13.827 -0.2684  0.0249 -0.1001
 2925SOL    HW120408   2.570   2.350  13.787  0.3841  0.0261 -1.5310
 2925SOL    HW220409   2.714   2.371  13.755  1.1565  0.8599  1.3709
 2926SOL     OW20410   2.273   2.668   9.853 -0.5286 -0.4160  0.1728
 2926SOL    HW120411   2.228   2.594   9.893  1.8442 -1.1850  1.3881
 2926SOL    HW220412   2.276   2.650   9.759  0.4359 -0.4992  0.2174
 2927SOL     OW20413   0.905   3.857   8.032 -0.0652  0.0778 -0.3389
 2927SOL    HW120414   0.933   3.943   8.002 -1.7356  0.1753 -1.6453
 2927SOL    HW220415   0.883   3.820   7.946  0.9680 -1.0965 -0.1034
 2928SOL     OW20416   0.563   3.211  10.203  0.4793 -0.0952 -0.0756
 2928SOL    HW120417   0.658   3.221  10.202  0.5403 -0.8006 -1.2952
 2928SOL    HW220418   0.563   3.217  10.299 -1.5244  0.9995 -0.1516
 2929SOL     OW20419   0.015   2.029   6.510 -0.4726  0.1739  0.0974
 2929SOL    HW120420   0.017   2.094   6.580 -3.2751 -1.0264  1.3012
 2929SOL    HW220421   0.053   2.079   6.438 -1.2128  0.9920  0.2744
 2930SOL     OW20422   3.188   2.699   6.318  0.6811 -0.3492  0.1155
 2930SOL    HW120423   3.270   2.661   6.286  1.0900  0.1999  0.5164
 2930SOL    HW220424   3.206   2.791   6.298  1.8734 -0.3659  1.1265
 2931SOL     OW20425   4.086   0.994   7.951 -0.5160 -0.1624  0.7300
 2931SOL    HW120426   4.130   1.003   8.035 -0.8758 -0.4880  0.9543
 2931SOL    HW220427   4.051   0.905   7.940 -1.1366  0.1553  0.0795
 2932SOL     OW20428   0.038   2.150   3.885 -0.5633  0.6110 -0.2805
 2932SOL    HW120429   0.089   2.069   3.890 -2.7441 -0.8628 -1.8288
 2932SOL    HW220430   4.685   2.113   3.897  0.2564 -0.2899  2.9904
 2933SOL     OW20431   0.278   2.861   2.679 -0.3822  0.4667  0.0505
 2933SOL    HW120432   0.248   2.891   2.765 -0.2578 -1.8991  0.8990
 2933SOL    HW220433   0.195   2.817   2.660 -1.5091  2.6064  0.0192
 2934SOL     OW20434   4.152   4.040   6.208 -0.2076 -0.2654 -0.6717
 2934SOL    HW120435   4.161   4.096   6.131  1.7922 -1.5411 -1.3771
 2934SOL    HW220436   4.064   4.065   6.236 -0.8418 -2.6700 -0.5138
 2935SOL     OW20437   0.108   4.108   3.910 -0.2987 -0.3575  0.8309
 2935SOL    HW120438   0.137   4.034   3.857  0.0204  0.3436  0.0139
 2935SOL    HW220439   0.127   4.074   3.997 -0.0242  0.0156  0.9168
 2936SOL     OW20440   2.834   2.231   7.660 -0.0096 -0.1682  0.0800
 2936SOL    HW120441   2.909   2.285   7.685 -0.4192  0.3096  0.2733
 2936SOL    HW220442   2.874   2.144   7.667 -0.2456 -0.3196 -0.4132
 2937SOL     OW20443   1.622   0.076   7.424  0.4188  0.4269 -0.3382
 2937SOL    HW120444   1.545   0.098   7.372  2.2907  0.8583 -2.9379
 2937SOL    HW220445   1.600   4.722   7.450  1.4540 -0.4835 -2.5179
 2938SOL     OW20446   0.531   0.542   2.813  0.0129 -0.3676 -0.0714
 2938SOL    HW120447   0.623   0.527   2.833 -0.1559  1.5268  2.1407
 2938SOL    HW220448   0.503   0.451   2.816  1.6110 -0.7811  2.4811
 2939SOL     OW20449   3.435   0.938  12.085 -0.6137  0.2058 -0.7566
 2939SOL    HW120450   3.455   0.973  11.999 -3.1776  1.0911 -0.9905
 2939SOL    HW220451   3.405   1.023  12.118 -0.3805 -0.3518  0.8962
 2940SOL     OW20452   3.215   1.158  14.198 -0.2584  0.0900 -0.1897
 2940SOL    HW120453   3.261   1.076  14.216  1.3092  0.6731 -1.5906
 2940SOL    HW220454   3.261   1.189  14.121  1.0628  0.2414  0.6549
 2941SOL     OW20455   3.666   1.755   7.875  0.8121 -0.3806 -0.0040
 2941SOL    HW120456   3.602   1.747   7.804 -1.2475  0.2616  1.7883
 2941SOL    HW220457   3.720   1.677   7.866 -0.7300 -1.4275 -0.2550
 2942SOL     OW20458   2.520   1.509   7.877 -0.3134  0.3140 -0.0765
 2942SOL    HW120459   2.515   1.506   7.972  1.3105 -1.3011 -0.0461
 2942SOL    HW220460   2.474   1.591   7.859 -1.2929 -0.4195 -0.8617
 2943SOL     OW20461   0.965   4.720   0.703 -0.1495 -0.5530  0.0817
 2943SOL    HW120462   0.873   0.009   0.716  0.4302  2.2800 -1.0257
 2943SOL    HW220463   0.990   0.064   0.655  0.5381 -1.3699 -0.8954
 2944SOL     OW20464   4.028   1.683  11.274 -0.4885 -0.5204 -0.0520
 2944SOL    HW120465   4.032   1.589  11.254  0.6182 -0.5912  0.4701
 2944SOL    HW220466   3.938   1.699  11.247 -0.6118  0.1547  0.7618
 2945SOL     OW20467   0.818   4.679   7.987 -0.0161  0.2016 -0.5356
 2945SOL    HW120468   0.799   4.686   7.894 -0.5317 -0.3076 -0.4672
 2945SOL    HW220469   0.739   4.708   8.033  0.7174 -1.0280  1.5238
 2946SOL     OW20470   1.814   0.429  10.692 -0.0891 -0.9160 -0.7293
 2946SOL    HW120471   1.836   0.446  10.783 -0.4543 -0.3201 -0.7530
 2946SOL    HW220472   1.893   0.449  10.643 -0.5073  2.2787 -0.0929
 2947SOL     OW20473   2.279   1.269   5.276 -0.4182 -0.1564 -0.3775
 2947SOL    HW120474   2.283   1.230   5.363  1.0460  0.8091 -0.0019
 2947SOL    HW220475   2.350   1.333   5.268  0.2691 -0.9303 -0.4578
 2948SOL     OW20476   0.780   3.228  12.182 -0.1625  0.6257  0.0263
 2948SOL    HW120477   0.874   3.211  12.187 -0.4104 -0.5453  0.5827
 2948SOL    HW220478   0.760   3.241  12.275 -1.4826  0.9955 -0.3134
 2949SOL     OW20479   4.301   3.326   4.082  0.6704 -0.8768  0.9055
 2949SOL    HW120480   4.212   3.298   4.063 -0.9712  4.7461  0.3330
 2949SOL    HW220481   4.289   3.420   4.071  2.9125 -0.4393  2.1040
 2950SOL     OW20482   4.157   0.566   3.858 -0.6766  0.5660  0.3366
 2950SOL    HW120483   4.213   0.609   3.794 -0.4334  0.2634  0.3474
 2950SOL    HW220484   4.195   0.479   3.856  0.0243  0.9355 -2.3241
 2951SOL     OW20485   0.633   4.184   6.759 -0.0019 -0.1716 -0.7279
 2951SOL    HW120486   0.708   4.126   6.775  1.9028  2.1901 -0.9731
 2951SOL    HW220487   0.644   4.252   6.826 -3.6011  0.0443 -0.3620
 2952SOL     OW20488   0.381   2.685   8.853  0.6074 -0.4060 -0.1370
 2952SOL    HW120489   0.348   2.678   8.942 -1.8511  0.5974 -0.9644
 2952SOL    HW220490   0.336   2.607   8.821  2.0344 -1.4513  0.4475
 2953SOL     OW20491   4.557   2.846  17.292 -0.0024 -0.1184  0.0112
 2953SOL    HW120492   4.505   2.884  17.363 -0.3145  1.7860 -1.2208
 2953SOL    HW220493   4.506   2.851  17.211 -0.7762 -0.3632  0.4893
 2954SOL     OW20494   4.573   3.911   8.998 -0.0152  0.0868 -0.6777
 2954SOL    HW120495   4.495   3.960   9.025  0.0006 -1.4737  2.2100
 2954SOL    HW220496   4.636   3.973   8.960  2.6561 -2.2438 -0.0094
 2955SOL     OW20497   0.794   2.971  12.857 -0.0893 -0.1996  0.0706
 2955SOL    HW120498   0.835   2.960  12.771 -1.1354 -0.3225 -0.4085
 2955SOL    HW220499   0.796   2.878  12.880 -2.0967 -0.6995 -1.7526
 2956SOL     OW20500   1.406   3.082   3.900  0.2469  0.7623  0.0584
 2956SOL    HW120501   1.340   3.135   3.854 -1.4503 -0.5173  1.0573
 2956SOL    HW220502   1.478   3.100   3.839  1.2646  1.1374  1.3930
 2957SOL     OW20503   4.492   0.754   7.401  0.4479 -0.0650  0.1892
 2957SOL    HW120504   4.494   0.723   7.491  0.2398 -1.5512 -0.3109
 2957SOL    HW220505   4.403   0.787   7.401  1.3822  2.4813 -0.1482
 2958SOL     OW20506   2.222   1.205   5.008 -0.0688  0.0845 -0.3684
 2958SOL    HW120507   2.222   1.222   5.102  1.6073 -1.1287 -0.1698
 2958SOL    HW220508   2.130   1.232   4.997 -0.1559  0.0512  0.2889
 2959SOL     OW20509   0.479   4.325   4.010 -1.0245 -0.7164  0.1290
 2959SOL    HW120510   0.534   4.248   4.027 -0.7896 -0.3069  1.2181
 2959SOL    HW220511   0.391   4.295   4.033 -0.0834 -1.8191  2.2346
 2960SOL     OW20512   3.482   3.977   6.836 -0.2040 -0.0273 -0.0099
 2960SOL    HW120513   3.403   4.025   6.810 -0.4199  0.4665  1.5155
 2960SOL    HW220514   3.490   3.919   6.761 -1.0050 -0.5335  0.2910
 2961SOL     OW20515   3.872   3.081  12.428  0.1730  0.5410 -0.1478
 2961SOL    HW120516   3.945   3.020  12.421 -0.7636 -0.8924  2.6311
 2961SOL    HW220517   3.919   3.144  12.482  0.3645  1.2485 -1.1411
 2962SOL     OW20518   3.708   2.397   7.987 -0.3455 -0.3957 -0.0358
 2962SOL    HW120519   3.639   2.444   7.941 -0.0966 -0.3439 -0.3597
 2962SOL    HW220520   3.784   2.409   7.929 -0.6267 -0.9811 -0.5203
 2963SOL     OW20521   2.963   3.301  16.989  0.2230  0.3744 -0.9015
 2963SOL    HW120522   2.916   3.218  16.986 -2.1000  1.6005  1.0385
 2963SOL    HW220523   3.040   3.263  16.947  0.5308  0.4197 -0.3828
 2964SOL     OW20524   4.412   3.198  14.744  0.6458  0.1349 -0.0188
 2964SOL    HW120525   4.382   3.283  14.712 -4.7015 -1.4676  0.7149
 2964SOL    HW220526   4.504   3.186  14.721  0.8338  0.0198  0.7924
 2965SOL     OW20527   2.142   2.076  12.635 -0.3087  0.6236  0.5232
 2965SOL    HW120528   2.141   1.999  12.692  1.4135 -0.1078 -0.4512
 2965SOL    HW220529   2.116   2.053  12.545  0.2617 -1.2608  0.8441
 2966SOL     OW20530   2.981   3.317   9.142 -0.1630 -0.0101  0.2162
 2966SOL    HW120531   2.925   3.288   9.071 -2.1728  0.3465  1.6544
 2966SOL    HW220532   3.013   3.228   9.158  1.7649  0.3455 -1.6729
 2967SOL     OW20533   3.537   4.367   8.818 -0.0713 -0.0952  0.7225
 2967SOL    HW120534   3.582   4.433   8.870 -1.3286  0.1002  1.5545
 2967SOL    HW220535   3.559   4.283   8.859 -0.1625 -1.8614 -2.8746
 2968SOL     OW20536   1.972   0.865   7.600  0.0020  0.0578 -0.6179
 2968SOL    HW120537   1.907   0.892   7.664 -0.4804 -0.1239 -1.0302
 2968SOL    HW220538   1.922   0.832   7.525 -0.8272 -1.1933  0.4812
 2969SOL     OW20539   1.486   2.742  11.507  0.0297  0.3294  0.0769
 2969SOL    HW120540   1.431   2.665  11.495 -1.1688  1.4114 -1.3941
 2969SOL    HW220541   1.490   2.768  11.415  5.0928 -0.1719  0.1429
 2970SOL     OW20542   2.384   3.027   6.302  0.0277 -0.0045  0.0084
 2970SOL    HW120543   2.446   2.956   6.318 -1.1710 -0.6505  1.8020
 2970SOL    HW220544   2.412   3.050   6.214  1.2117  2.4628  1.0460
 2971SOL     OW20545   2.817   2.617   3.535 -0.1925  0.0013  0.1874
 2971SOL    HW120546   2.864   2.608   3.452  2.0546  2.1626  1.1982
 2971SOL    HW220547   2.732   2.648   3.504 -0.8598 -1.1348  0.9302
 2972SOL     OW20548   1.553   3.059   6.080  0.2912  0.2044  0.5253
 2972SOL    HW120549   1.529   3.004   6.155  1.0991  1.1482  1.4710
 2972SOL    HW220550   1.494   3.132   6.101 -2.1221 -1.8551  0.9595
 2973SOL     OW20551   3.123   1.240  12.065  0.1779 -0.2074 -0.5092
 2973SOL    HW120552   3.134   1.146  12.051 -1.1499  0.1202 -3.6315
 2973SOL    HW220553   3.155   1.246  12.155  1.3844 -0.6700 -0.9140
 2974SOL     OW20554   4.699   3.452   1.561 -0.0381  0.1675 -0.0630
 2974SOL    HW120555   4.613   3.412   1.550  0.3789 -0.3564 -1.5128
 2974SOL    HW220556   0.012   3.444   1.478 -0.5985  2.9782 -0.6542
 2975SOL     OW20557   4.697   0.182  15.619 -0.5025 -0.2531  0.5229
 2975SOL    HW120558   0.016   0.177  15.540 -0.9837  0.6915  0.1316
 2975SOL    HW220559   4.677   0.275  15.614  0.9826 -0.0434 -1.5371
 2976SOL     OW20560   0.733   0.089   8.795 -0.1295  0.5884 -0.2067
 2976SOL    HW120561   0.646   0.108   8.830 -0.6951 -0.6697 -0.9305
 2976SOL    HW220562   0.705   0.064   8.707  3.2903  0.9177 -1.3807
 2977SOL     OW20563   4.329   2.265  13.209 -0.1248 -0.1657  0.0023
 2977SOL    HW120564   4.339   2.304  13.296  0.0502  0.8634 -0.4729
 2977SOL    HW220565   4.234   2.262  13.197 -0.2702 -2.7311  1.9831
 2978SOL     OW20566   4.332   2.995  13.923  0.3873  0.5161  0.3024
 2978SOL    HW120567   4.290   2.911  13.944  3.1215 -1.4984 -2.3081
 2978SOL    HW220568   4.417   2.985  13.965  0.9247  1.5148 -0.5522
 2979SOL     OW20569   3.170   1.563   4.416 -0.1456 -0.1706  0.2439
 2979SOL    HW120570   3.181   1.534   4.325  0.3490 -2.8741  1.1528
 2979SOL    HW220571   3.255   1.532   4.448 -0.9533 -0.3023  2.2154
 2980SOL     OW20572   1.422   4.062  16.483 -0.7370 -0.0943  0.3730
 2980SOL    HW120573   1.417   4.057  16.388 -0.0532  0.0253  0.3303
 2980SOL    HW220574   1.342   4.113  16.497 -0.6737  0.0662  0.1618
 2981SOL     OW20575   3.352   2.083  15.356 -0.4852 -0.3581  0.2086
 2981SOL    HW120576   3.446   2.085  15.377 -0.5487  1.9220  0.2572
 2981SOL    HW220577   3.339   1.990  15.335  1.1554 -0.3024 -1.1034
 2982SOL     OW20578   3.274   1.885  17.131 -0.3968 -0.2783  0.0868
 2982SOL    HW120579   3.318   1.818  17.078  0.6388  0.0999  0.4780
 2982SOL    HW220580   3.341   1.952  17.140  2.6913 -3.5114  1.2206
 2983SOL     OW20581   1.285   2.706  12.033  0.6428  0.6641 -0.3772
 2983SOL    HW120582   1.197   2.744  12.044  0.3154 -0.0254 -0.5895
 2983SOL    HW220583   1.338   2.773  11.990  0.8775  1.1508  0.6810
 2984SOL     OW20584   1.321   4.583   3.453  0.1425 -0.2290  0.5563
 2984SOL    HW120585   1.277   4.498   3.443 -2.3799  1.5918 -3.6949
 2984SOL    HW220586   1.406   4.553   3.485 -0.8288 -3.1202  0.4604
 2985SOL     OW20587   2.042   4.618   8.672 -0.2191 -0.2369  0.6326
 2985SOL    HW120588   2.062   4.704   8.637 -0.8048  0.0554  1.0231
 2985SOL    HW220589   2.059   4.624   8.766 -2.8358  0.9624  1.0129
 2986SOL     OW20590   0.670   2.457   1.984  0.2582 -0.1801  0.0087
 2986SOL    HW120591   0.635   2.393   1.922  0.5585  0.5271 -0.8971
 2986SOL    HW220592   0.704   2.397   2.051  0.7690 -0.0499 -0.1332
 2987SOL     OW20593   0.879   0.699   7.274  0.6748 -0.3165  0.0694
 2987SOL    HW120594   0.922   0.682   7.357 -0.5151  1.5761  1.0710
 2987SOL    HW220595   0.947   0.673   7.212 -0.7555 -2.5368 -0.5971
 2988SOL     OW20596   4.379   1.755   8.713  0.1613 -0.1428  0.1225
 2988SOL    HW120597   4.399   1.787   8.801 -1.3861  1.5419 -0.1561
 2988SOL    HW220598   4.314   1.819   8.686 -1.6420 -1.1135  2.1790
 2989SOL     OW20599   3.493   4.423  12.441 -0.2813  0.5159  0.0234
 2989SOL    HW120600   3.516   4.343  12.393  2.1681  1.3673 -0.1867
 2989SOL    HW220601   3.401   4.417  12.415 -0.0098 -3.6485 -0.0333
 2990SOL     OW20602   2.480   4.101   8.970 -0.3522  0.2011  0.2558
 2990SOL    HW120603   2.415   4.069   8.908  2.6937  2.3503 -4.0780
 2990SOL    HW220604   2.507   4.173   8.911 -0.9960  0.6402  0.5024
 2991SOL     OW20605   0.167   0.436   7.482 -0.0995 -0.3469 -0.2679
 2991SOL    HW120606   0.075   0.434   7.507 -0.6245 -1.6036 -2.2980
 2991SOL    HW220607   0.199   0.525   7.498  2.4160 -0.8998 -2.2144
 2992SOL     OW20608   2.636   1.481   4.696  0.2206 -0.0186  0.0949
 2992SOL    HW120609   2.689   1.402   4.698  0.8180  0.3495 -1.7089
 2992SOL    HW220610   2.560   1.450   4.746  1.3236 -2.9765 -0.0850
 2993SOL     OW20611   3.363   0.012   3.407  0.6162  0.0558  0.1214
 2993SOL    HW120612   3.413   4.692   3.347 -0.8595 -0.2877 -0.7949
 2993SOL    HW220613   3.414   4.732   3.487  4.0571  0.8018 -1.9268
 2994SOL     OW20614   2.028   0.177   6.797  0.2043 -0.3202 -0.1798
 2994SOL    HW120615   2.055   0.093   6.760  2.4814  1.0431 -1.6506
 2994SOL    HW220616   2.066   0.164   6.883 -0.5057  0.5775  0.2668
 2995SOL     OW20617   0.346   3.243   8.873 -0.1772 -0.2218  0.1750
 2995SOL    HW120618   0.421   3.302   8.870  0.8722 -1.4866  1.5373
 2995SOL    HW220619   0.292   3.273   8.800 -1.1272  0.5345  1.1967
 2996SOL     OW20620   3.533   3.411  10.947 -0.6812  0.4595  0.6404
 2996SOL    HW120621   3.605   3.468  10.922 -0.5212 -0.1850 -0.4009
 2996SOL    HW220622   3.471   3.430  10.877  1.5248 -0.8644 -1.6641
 2997SOL     OW20623   1.565   0.171   6.927 -0.0303  0.4670  0.5617
 2997SOL    HW120624   1.477   0.139   6.909  0.6157 -0.3369 -1.2315
 2997SOL    HW220625   1.597   0.182   6.837 -2.0203  2.2832  0.0825
 2998SOL     OW20626   0.209   3.083   5.022 -0.2646  0.2673  0.1476
 2998SOL    HW120627   0.267   3.031   5.076  0.5344  1.9000  0.8580
 2998SOL    HW220628   0.233   3.175   5.038 -2.1195  1.0891 -1.6941
 2999SOL     OW20629   1.065   0.089   2.610 -0.0256  0.3813 -0.3027
 2999SOL    HW120630   1.056   0.068   2.518  1.2041  1.6263 -0.7114
 2999SOL    HW220631   1.139   0.036   2.639 -0.0699  0.5005  0.0383
 3000SOL     OW20632   0.059   0.776  14.657  0.3866 -0.6881  0.2262
 3000SOL    HW120633   4.735   0.711  14.617 -1.2832 -0.0550  1.7062
 3000SOL    HW220634   0.058   0.841  14.587 -1.5177 -1.6741 -0.6904
 3001SOL     OW20635   3.276   0.331   6.202  0.2434  0.6440 -0.3766
 3001SOL    HW120636   3.260   0.274   6.127  1.3620 -0.1687  0.0121
 3001SOL    HW220637   3.278   0.417   6.159  1.5374  0.9220  0.2341
 3002SOL     OW20638   0.953   1.122   1.150 -0.4410 -0.2663  0.5059
 3002SOL    HW120639   0.985   1.143   1.237  1.1691  0.5498 -0.2725
 3002SOL    HW220640   1.032   1.102   1.099  0.1133 -2.1542  2.1314
 3003SOL     OW20641   3.475   4.665   7.798  0.3746 -0.3406 -0.2804
 3003SOL    HW120642   3.386   4.696   7.784  0.9333  1.0528 -0.6555
 3003SOL    HW220643   3.453   4.575   7.824 -0.9712  0.1712  0.3155
 3004SOL     OW20644   4.719   0.604   0.888 -0.4661 -0.2458 -1.0198
 3004SOL    HW120645   4.646   0.557   0.929  1.7359 -1.6454  1.3110
 3004SOL    HW220646   0.018   0.521   0.855  0.7881  0.9047 -2.6056
 3005SOL     OW20647   3.648   4.199   7.777  0.0780  0.1579  0.0676
 3005SOL    HW120648   3.658   4.232   7.688 -1.4366  0.8731  0.1502
 3005SOL    HW220649   3.584   4.130   7.761 -0.0994  0.3630 -0.1135
 3006SOL     OW20650   0.552   4.013   3.112  0.4405  0.3860 -0.8019
 3006SOL    HW120651   0.570   3.930   3.157 -0.6025  0.1777 -0.7798
 3006SOL    HW220652   0.628   4.068   3.134  0.2974 -0.2219  1.2283
 3007SOL     OW20653   2.277   1.818  17.692 -0.0834 -0.0110 -0.2087
 3007SOL    HW120654   2.203   1.770  17.654 -1.4409  2.0154 -0.1035
 3007SOL    HW220655   2.323   1.854  17.617 -2.1923  1.3856 -0.8459
 3008SOL     OW20656   0.404   4.646   4.492 -0.2051 -0.5360  0.2382
 3008SOL    HW120657   0.370   4.700   4.420 -0.4976 -3.1936 -1.5992
 3008SOL    HW220658   0.394   4.700   4.571  0.3399  0.1043 -0.1292
 3009SOL     OW20659   1.623   2.639   1.707 -0.2037 -0.8742 -0.0560
 3009SOL    HW120660   1.573   2.721   1.707 -0.5155 -1.0653 -1.2380
 3009SOL    HW220661   1.567   2.579   1.756  0.6874 -2.2002 -0.6610
 3010SOL     OW20662   1.498   2.767   1.174 -0.0132 -0.5996  0.2244
 3010SOL    HW120663   1.512   2.779   1.080 -0.6592 -3.5626 -0.2404
 3010SOL    HW220664   1.533   2.845   1.216 -3.9848  1.4908 -0.3758
 3011SOL     OW20665   4.408   1.258   3.243 -0.0647 -0.3639  0.3183
 3011SOL    HW120666   4.495   1.266   3.205 -0.5153 -0.9888 -0.8393
 3011SOL    HW220667   4.368   1.199   3.179 -1.7892 -0.3433  1.3790
 3012SOL     OW20668   4.027   3.888  10.131 -0.4601 -0.0765  0.2155
 3012SOL    HW120669   3.988   3.848  10.209 -2.8591 -0.3057 -1.1024
 3012SOL    HW220670   4.047   3.976  10.162 -0.7840  0.6716 -1.6844
 3013SOL     OW20671   2.564   1.712   3.316  0.2398  0.4296  0.0107
 3013SOL    HW120672   2.609   1.760   3.386  1.0768  1.8107 -1.4708
 3013SOL    HW220673   2.511   1.789   3.294 -0.3872  0.3464  1.1860
 3014SOL     OW20674   3.108   1.160   6.978  0.2284  0.0451  0.0730
 3014SOL    HW120675   3.129   1.231   7.039 -0.2662 -0.6802  1.0912
 3014SOL    HW220676   3.189   1.151   6.927  0.6631  0.2156  0.7301
 3015SOL     OW20677   2.722   2.525   5.584  0.1773  0.0401 -0.0960
 3015SOL    HW120678   2.798   2.556   5.633 -1.1500  0.6002  1.6071
 3015SOL    HW220679   2.673   2.470   5.645 -0.9758 -1.4530 -2.3513
 3016SOL     OW20680   3.044   1.166   2.792 -0.4242  0.2391 -0.1287
 3016SOL    HW120681   3.083   1.106   2.856 -1.3440  0.8439  0.9980
 3016SOL    HW220682   3.096   1.137   2.717 -1.5047 -1.4838 -0.1987
 3017SOL     OW20683   3.765   2.664   8.990 -0.3564 -0.6631 -0.3435
 3017SOL    HW120684   3.702   2.609   8.944 -0.3594 -0.6271 -0.3829
 3017SOL    HW220685   3.797   2.728   8.927  0.2404  1.0424  1.6674
 3018SOL     OW20686   0.877   3.621   5.859 -0.1265  0.1739 -0.1645
 3018SOL    HW120687   0.883   3.640   5.766  0.1248 -0.4504 -0.2774
 3018SOL    HW220688   0.837   3.701   5.893  0.9971  0.3340  0.7874
 3019SOL     OW20689   0.241   4.037   4.370 -0.0715 -0.5597  0.5652
 3019SOL    HW120690   0.180   4.096   4.414  1.2160  2.6762 -1.8970
 3019SOL    HW220691   0.311   4.031   4.435  1.1885  2.6774 -0.4383
 3020SOL     OW20692   4.702   2.136  14.886 -0.1694 -0.4540  0.1175
 3020SOL    HW120693   4.723   2.145  14.979  2.8491  3.4518 -0.9468
 3020SOL    HW220694   4.671   2.047  14.873 -0.1181 -0.6200  1.1244
 3021SOL     OW20695   3.876   1.260  15.697  0.3150 -0.2109  0.1125
 3021SOL    HW120696   3.804   1.315  15.728  1.3507  1.7825 -1.0225
 3021SOL    HW220697   3.831   1.180  15.671  1.6113 -0.6826 -0.6451
 3022SOL     OW20698   0.698   4.360  12.210  0.2388 -0.0261 -0.5176
 3022SOL    HW120699   0.637   4.420  12.167  0.5919 -0.3824 -1.5294
 3022SOL    HW220700   0.634   4.323  12.271  1.3600  0.1196  0.7504
 3023SOL     OW20701   1.933   3.506   6.865 -0.4427  0.1330 -0.2681
 3023SOL    HW120702   2.027   3.515   6.847 -0.2912 -0.4928  0.1902
 3023SOL    HW220703   1.891   3.568   6.805  0.0499 -0.3577 -1.1133
 3024SOL     OW20704   4.277   2.769  15.477  0.0147 -0.2888  0.1961
 3024SOL    HW120705   4.193   2.777  15.431 -0.4151 -0.2573  0.9750
 3024SOL    HW220706   4.287   2.858  15.511  2.1486 -1.2834  2.1817
 3025SOL     OW20707   3.489   4.295   4.430  0.1545  0.5057  0.0284
 3025SOL    HW120708   3.409   4.275   4.381 -0.5456  1.3138  0.8368
 3025SOL    HW220709   3.540   4.227   4.386  0.4239  0.6583  0.1025
 3026SOL     OW20710   2.257   2.456   9.289  0.7993  0.3547  0.0358
 3026SOL    HW120711   2.306   2.475   9.209  0.6692  1.8636  0.3143
 3026SOL    HW220712   2.312   2.485   9.361  2.5503 -2.3852 -0.2159
 3027SOL     OW20713   1.242   2.251   6.692  0.4736 -0.2111  0.3087
 3027SOL    HW120714   1.329   2.249   6.652  0.6743 -1.5593  0.8044
 3027SOL    HW220715   1.225   2.157   6.684  0.7063 -0.1772 -0.6063
 3028SOL     OW20716   4.221   1.854  11.260  0.0912  0.5301  0.6526
 3028SOL    HW120717   4.160   1.781  11.266 -1.2627  1.5132 -1.2488
 3028SOL    HW220718   4.169   1.925  11.298  2.2382  1.3083  2.1365
 3029SOL     OW20719   3.814   3.977   8.760 -0.7271 -1.0569 -0.4032
 3029SOL    HW120720   3.821   3.925   8.840 -2.3375  0.6844  0.8659
 3029SOL    HW220721   3.908   3.987   8.744 -0.7042 -0.8901 -0.1671
 3030SOL     OW20722   3.678   3.362   2.754 -0.7446  0.4496 -0.3853
 3030SOL    HW120723   3.758   3.403   2.721 -0.9491 -0.4451 -1.9622
 3030SOL    HW220724   3.617   3.435   2.741  0.4983  1.5364 -0.1079
 3031SOL     OW20725   0.198   0.929  13.881  0.4007  0.3909  0.0327
 3031SOL    HW120726   0.173   0.875  13.806  3.1632 -1.2495  0.3086
 3031SOL    HW220727   0.114   0.969  13.904  0.3926  0.3769  0.0278
 3032SOL     OW20728   2.846   0.177   5.145  0.3167 -0.2118  0.0667
 3032SOL    HW120729   2.886   0.094   5.169  2.5598  0.9099  0.1615
 3032SOL    HW220730   2.890   0.241   5.200  1.5492  0.5237 -1.7502
 3033SOL     OW20731   2.402   4.524  16.912  0.1631 -0.2780  0.3189
 3033SOL    HW120732   2.414   4.456  16.845 -0.1630  1.8185 -1.8764
 3033SOL    HW220733   2.470   4.497  16.974 -1.4566 -1.6347  1.4953
 3034SOL     OW20734   2.907   1.058   5.631  0.1830 -0.7625 -0.2656
 3034SOL    HW120735   2.910   1.111   5.711  2.0483  1.1015 -1.5898
 3034SOL    HW220736   2.938   1.117   5.563 -2.3978 -0.7832 -1.4171
 3035SOL     OW20737   2.283   3.193   8.965  0.6365  0.2230 -0.2068
 3035SOL    HW120738   2.205   3.195   9.021  2.3254  0.5830  2.1251
 3035SOL    HW220739   2.349   3.243   9.013 -0.2399  1.3723 -0.2095
 3036SOL     OW20740   3.094   0.567  14.007  0.2322  0.2191  0.3841
 3036SOL    HW120741   3.090   0.662  14.007 -0.7182  0.1791 -0.0228
 3036SOL    HW220742   3.173   0.550  13.957 -0.3489 -2.4874  0.3721
 3037SOL     OW20743   0.510   1.545   5.346 -0.2872  0.2159  0.4112
 3037SOL    HW120744   0.506   1.596   5.427 -1.3239 -0.4708  0.7871
 3037SOL    HW220745   0.443   1.593   5.298 -0.8528 -0.7094  0.2714
 3038SOL     OW20746   4.707   4.048   9.258 -0.3260 -0.0409  0.2755
 3038SOL    HW120747   4.631   4.053   9.199 -1.1934 -0.1058  1.3886
 3038SOL    HW220748   0.019   4.113   9.205  0.6390 -1.7278 -0.9350
 3039SOL     OW20749   3.971   3.676   9.614  0.5066  0.8702  0.2033
 3039SOL    HW120750   4.002   3.638   9.532 -2.8479 -0.1874 -0.5886
 3039SOL    HW220751   3.884   3.637   9.620  1.5622 -1.6714 -0.6618
 3040SOL     OW20752   1.669   0.990  16.132 -0.5192  0.1343  0.1414
 3040SOL    HW120753   1.727   1.045  16.185 -1.0787  1.9685 -1.1574
 3040SOL    HW220754   1.641   0.921  16.192  0.9356  0.0017  0.6775
 3041SOL     OW20755   4.428   2.391  10.089  0.2712  1.0147 -0.1556
 3041SOL    HW120756   4.374   2.468  10.072 -0.2420  0.4818 -0.9407
 3041SOL    HW220757   4.472   2.424  10.167  2.7176 -1.9307 -0.2719
 3042SOL     OW20758   3.751   0.481   8.560  0.1732  0.2141 -0.0985
 3042SOL    HW120759   3.771   0.543   8.631  0.1441 -0.2464  0.3155
 3042SOL    HW220760   3.810   0.523   8.498  0.5351 -0.1542 -0.0036
 3043SOL     OW20761   1.902   1.310  15.195 -0.0287  0.4284 -0.0746
 3043SOL    HW120762   1.885   1.340  15.284  2.6561  0.5999  0.3614
 3043SOL    HW220763   1.827   1.255  15.170 -0.0477  0.2915  0.2864
 3044SOL     OW20764   0.235   0.358   5.564 -0.4137 -0.0487  0.2349
 3044SOL    HW120765   0.270   0.445   5.585 -2.6948  1.3046 -1.4563
 3044SOL    HW220766   0.196   0.359   5.476  0.1675  0.5813 -0.0166
 3045SOL     OW20767   1.331   2.538   7.023  0.1531  0.6304  0.2000
 3045SOL    HW120768   1.245   2.529   6.982  0.3837  1.1706 -0.3968
 3045SOL    HW220769   1.331   2.456   7.072 -0.9311  1.3113  1.3466
 3046SOL     OW20770   0.924   2.230   7.864  0.1066 -0.3427 -0.0504
 3046SOL    HW120771   1.012   2.267   7.866 -0.4402  1.1326 -3.2913
 3046SOL    HW220772   0.897   2.232   7.772 -0.8544 -0.4582  0.2294
 3047SOL     OW20773   2.695   3.953   8.648  0.1676  0.6891 -0.2985
 3047SOL    HW120774   2.777   3.952   8.599 -0.0389  0.2368 -0.6328
 3047SOL    HW220775   2.647   3.878   8.612 -0.1799  1.6445 -1.8688
 3048SOL     OW20776   0.822   3.963  11.907 -0.0341 -0.3042  0.5434
 3048SOL    HW120777   0.881   4.001  11.841 -0.2842 -0.1780  0.3950
 3048SOL    HW220778   0.793   4.044  11.949  1.7366  0.2072  0.7840
 3049SOL     OW20779   1.374   4.517   3.910  0.1919 -0.6347  0.4193
 3049SOL    HW120780   1.304   4.582   3.915 -0.6413 -1.3692 -1.6041
 3049SOL    HW220781   1.404   4.525   3.820  0.2785  2.1776  0.6820
 3050SOL     OW20782   2.419   0.021   0.201  0.5071  0.2368 -0.1096
 3050SOL    HW120783   2.411   0.065   0.117 -1.0215 -0.0273 -0.1023
 3050SOL    HW220784   2.454   4.670   0.177 -1.3778 -0.0507 -1.7167
 3051SOL     OW20785   4.261   2.941   2.898  0.5256  0.1514 -0.1808
 3051SOL    HW120786   4.243   3.027   2.935  2.6576  0.2077  0.7401
 3051SOL    HW220787   4.263   2.895   2.982 -0.3650 -1.2981 -0.9431
 3052SOL     OW20788   1.812   0.889   4.459  0.3935  0.8706  0.1376
 3052SOL    HW120789   1.736   0.939   4.430 -0.3670  0.4431  1.3924
 3052SOL    HW220790   1.889   0.941   4.436 -1.1502  2.7052 -0.9028
 3053SOL     OW20791   3.344   1.976   8.859  0.0228 -0.4982  0.4597
 3053SOL    HW120792   3.337   1.971   8.764 -1.4084  3.5398  0.3786
 3053SOL    HW220793   3.261   2.021   8.877  0.5982  0.4542  0.6834
 3054SOL     OW20794   2.498   0.613   5.899  0.2398  0.0118 -0.3005
 3054SOL    HW120795   2.425   0.581   5.953  1.2348 -0.4733  0.7517
 3054SOL    HW220796   2.493   0.546   5.832 -0.0023  0.0976 -0.3693
 3055SOL     OW20797   4.631   4.542  14.491  0.0899  0.3751  0.1767
 3055SOL    HW120798   4.684   4.471  14.454  1.6540  0.7702  1.6496
 3055SOL    HW220799   4.679   4.624  14.477 -0.5526  0.6215 -0.5767
 3056SOL     OW20800   4.245   1.871   1.688 -0.5523 -0.2952  0.8283
 3056SOL    HW120801   4.223   1.836   1.602  0.4160  1.4543 -0.1338
 3056SOL    HW220802   4.175   1.847   1.748 -0.1706 -3.6982 -0.0737
 3057SOL     OW20803   2.659   0.532   0.647 -0.2658  0.7367 -0.1475
 3057SOL    HW120804   2.640   0.450   0.691 -0.4299  2.1201  2.3460
 3057SOL    HW220805   2.599   0.524   0.573 -1.2748  0.3792  0.7238
 3058SOL     OW20806   2.003   3.622   7.249 -0.2769  0.4289  0.2446
 3058SOL    HW120807   2.090   3.586   7.264 -0.7042 -0.9527 -0.6878
 3058SOL    HW220808   1.980   3.556   7.184  1.7314  0.6773 -0.7210
 3059SOL     OW20809   1.373   0.676  11.939 -0.0926 -0.2659  0.5998
 3059SOL    HW120810   1.324   0.735  11.882 -0.8286 -1.1769  0.2839
 3059SOL    HW220811   1.459   0.670  11.897 -0.7408 -0.2149 -0.7425
 3060SOL     OW20812   3.675   3.647   5.821  0.3780 -0.1173  0.2454
 3060SOL    HW120813   3.702   3.722   5.874 -1.4518  0.4884  0.3330
 3060SOL    HW220814   3.595   3.679   5.780  1.0316  1.4058  0.1773
 3061SOL     OW20815   2.977   3.669   5.581 -0.0988 -0.3590  0.2736
 3061SOL    HW120816   3.004   3.577   5.584  3.2465  0.6393  0.1532
 3061SOL    HW220817   2.984   3.680   5.675 -0.6914  2.6177 -0.0444
 3062SOL     OW20818   0.972   4.014   3.547  0.3614 -0.4130  0.0953
 3062SOL    HW120819   1.030   4.090   3.539 -0.9419  0.4615 -1.0787
 3062SOL    HW220820   1.000   3.964   3.623  3.4982  0.3725 -0.5093
 3063SOL     OW20821   3.383   0.345   7.550 -0.1154  0.3286 -0.1372
 3063SOL    HW120822   3.424   0.398   7.482  1.2357 -0.2735  0.1830
 3063SOL    HW220823   3.366   0.270   7.494 -2.5932  0.4435  0.4881
 3064SOL     OW20824   0.452   1.065   9.884  0.0762 -0.4587  0.1348
 3064SOL    HW120825   0.464   1.038   9.975  2.2593  1.3698  0.4027
 3064SOL    HW220826   0.416   0.980   9.859 -0.1599 -0.4951  0.5983
 3065SOL     OW20827   2.052   4.596   7.255 -0.8972  0.8066 -0.2283
 3065SOL    HW120828   1.994   4.531   7.217  0.6911  0.2033 -1.6122
 3065SOL    HW220829   2.049   4.579   7.349 -3.0025  1.0360 -0.2521
 3066SOL     OW20830   2.917   1.068   2.163 -0.0467  0.1761  0.5472
 3066SOL    HW120831   2.966   1.148   2.182  1.2538 -0.9454  1.8991
 3066SOL    HW220832   2.835   1.099   2.203  0.1217  1.0581  0.2081
 3067SOL     OW20833   4.106   0.320  11.960 -0.2007  0.5996  0.0097
 3067SOL    HW120834   4.136   0.245  11.908  0.2995  0.8735 -0.0998
 3067SOL    HW220835   4.142   0.287  12.043 -1.0201 -1.1907 -0.3527
 3068SOL     OW20836   1.896   0.366  15.215  0.0278  0.0695 -0.5595
 3068SOL    HW120837   1.824   0.314  15.251 -0.2721  1.4841  0.8663
 3068SOL    HW220838   1.922   0.314  15.139  0.3717 -2.2275  1.1294
 3069SOL     OW20839   2.591   3.211   8.700  0.2013  0.1255 -0.0742
 3069SOL    HW120840   2.615   3.261   8.778 -1.0876  0.8639 -0.1356
 3069SOL    HW220841   2.667   3.219   8.643  0.2010  0.1441 -0.0721
 3070SOL     OW20842   1.497   2.661   7.191 -0.5408  0.2711 -0.1264
 3070SOL    HW120843   1.451   2.616   7.120 -1.2320  1.0407 -0.1804
 3070SOL    HW220844   1.499   2.606   7.269 -0.8844  1.0867  0.4717
 3071SOL     OW20845   0.360   4.518   6.779  0.5380 -0.2481  0.2113
 3071SOL    HW120846   0.302   4.563   6.840 -3.0130 -0.3694 -3.1116
 3071SOL    HW220847   0.396   4.451   6.837 -0.2739  0.9533  2.1295
 3072SOL     OW20848   0.362   0.285   7.361  0.4246 -0.3128 -0.3348
 3072SOL    HW120849   0.304   0.358   7.385  2.3392  1.0421  0.2232
 3072SOL    HW220850   0.339   0.273   7.269 -1.0271  1.9329 -0.2745
 3073SOL     OW20851   0.451   4.386  14.098  0.4758  0.2048 -0.4551
 3073SOL    HW120852   0.430   4.299  14.066 -0.1956  0.4595 -0.7173
 3073SOL    HW220853   0.404   4.434  14.029 -1.4854  1.2925  1.6251
 3074SOL     OW20854   3.157   1.528   9.178  0.3921  0.3208 -0.0813
 3074SOL    HW120855   3.132   1.518   9.270  0.9863  1.9264  0.2577
 3074SOL    HW220856   3.090   1.586   9.141 -0.8623 -0.2549  1.2906
 3075SOL     OW20857   2.656   1.406   9.725  0.0955  0.3619 -0.0290
 3075SOL    HW120858   2.719   1.341   9.754 -1.0378  0.1382  1.8941
 3075SOL    HW220859   2.710   1.481   9.698 -0.6951  0.7586 -0.5343
 3076SOL     OW20860   4.235   3.230   5.246  0.5600 -0.1070 -0.3931
 3076SOL    HW120861   4.316   3.269   5.213 -0.1369 -0.4999 -2.5702
 3076SOL    HW220862   4.199   3.181   5.172 -0.5974  1.1664 -0.6805
 3077SOL     OW20863   1.180   4.535  11.316 -0.5030  0.3611 -0.4256
 3077SOL    HW120864   1.102   4.508  11.267 -0.3499 -2.4769  0.8991
 3077SOL    HW220865   1.128   4.583  11.380  1.7960  3.9669 -1.2592
 3078SOL     OW20866   2.852   1.654   3.979  0.0068 -0.0620 -0.0750
 3078SOL    HW120867   2.919   1.636   3.913  1.9558  0.0503  1.8473
 3078SOL    HW220868   2.807   1.727   3.937 -0.5801 -1.3499 -1.6858
 3079SOL     OW20869   1.732   0.916   8.991 -0.3780 -0.0844 -0.1502
 3079SOL    HW120870   1.697   0.828   8.999  0.9284 -0.4302  1.7818
 3079SOL    HW220871   1.694   0.938   8.906  1.5263  3.4959 -0.0894
 3080SOL     OW20872   2.629   1.845   2.021  0.3800  0.5644 -0.1831
 3080SOL    HW120873   2.636   1.803   2.107 -0.2738 -0.7704 -0.7943
 3080SOL    HW220874   2.603   1.935   2.042  3.8640  1.4291  0.4527
 3081SOL     OW20875   1.869   2.757   9.263  0.4492  0.1544 -0.4993
 3081SOL    HW120876   1.915   2.677   9.239  0.4921 -0.0408  0.2183
 3081SOL    HW220877   1.782   2.717   9.277  0.4857  0.6139  1.0134
 3082SOL     OW20878   3.257   1.293  10.857  0.0711  0.1086 -0.1238
 3082SOL    HW120879   3.326   1.338  10.808 -1.7492  0.5507 -2.2717
 3082SOL    HW220880   3.298   1.294  10.943 -0.1862  0.3232 -0.0047
 3083SOL     OW20881   4.072   0.837   7.145 -0.2701 -0.6181  0.1150
 3083SOL    HW120882   3.990   0.805   7.183  0.6188 -1.9049  0.9694
 3083SOL    HW220883   4.064   0.803   7.056  1.8968 -0.1664 -0.2479
 3084SOL     OW20884   1.027   4.263   8.250 -0.3096  0.1552  0.8087
 3084SOL    HW120885   0.958   4.205   8.281 -2.2807  1.2059 -1.6033
 3084SOL    HW220886   1.109   4.217   8.266  0.2998  1.1394  0.4932
 3085SOL     OW20887   0.242   1.909   9.413 -0.6003  0.0048 -0.4857
 3085SOL    HW120888   0.158   1.946   9.384 -0.6369  1.3306  1.3882
 3085SOL    HW220889   0.232   1.817   9.389  0.4307 -0.1898 -0.1443
 3086SOL     OW20890   2.458   2.748   9.130  0.3793 -0.2424 -0.3524
 3086SOL    HW120891   2.382   2.732   9.073 -0.4318 -1.2835  1.0158
 3086SOL    HW220892   2.506   2.668   9.149  1.1535  0.5463  0.9977
 3087SOL     OW20893   4.362   1.803  11.634 -0.0275  0.4144 -0.2371
 3087SOL    HW120894   4.373   1.895  11.660 -2.6966 -0.0191  2.3907
 3087SOL    HW220895   4.449   1.784  11.598  0.3816 -1.8361  1.9991
 3088SOL     OW20896   1.935   3.218   5.240 -0.2864  0.6085 -0.6339
 3088SOL    HW120897   1.867   3.231   5.173 -0.5341 -1.4669 -0.7773
 3088SOL    HW220898   2.005   3.267   5.197  2.3209 -2.7961 -0.1578
 3089SOL     OW20899   3.011   2.194   9.323  0.1105 -0.2304 -0.3280
 3089SOL    HW120900   2.999   2.270   9.380  1.4361  0.2068 -0.6424
 3089SOL    HW220901   2.958   2.140   9.382 -0.5835  2.3605  1.4183
 3090SOL     OW20902   2.358   1.647   5.311 -0.2456 -0.1061  0.3287
 3090SOL    HW120903   2.429   1.697   5.350  1.2921 -0.6616 -1.7792
 3090SOL    HW220904   2.388   1.619   5.224 -1.9106  0.9053 -0.5878
 3091SOL     OW20905   1.406   2.660   6.637  0.0357 -0.4123  0.3297
 3091SOL    HW120906   1.421   2.752   6.661  1.3461 -1.4403  3.3552
 3091SOL    HW220907   1.463   2.616   6.700 -1.5437  1.6256  3.1941
 3092SOL     OW20908   2.417   0.208  17.717  0.0996 -0.8585  0.1260
 3092SOL    HW120909   2.366   0.156  17.654  0.0323 -0.3262 -0.2555
 3092SOL    HW220910   2.388   0.295  17.688  0.6290 -0.0813  1.9571
 3093SOL     OW20911   1.345   0.907  10.490 -0.4689  0.1464 -0.2247
 3093SOL    HW120912   1.372   0.994  10.461  0.5250  0.1649  0.7420
 3093SOL    HW220913   1.343   0.860  10.407  0.1571 -0.4660  0.1035
 3094SOL     OW20914   3.806   4.438   4.318  0.2243 -0.1579  0.0530
 3094SOL    HW120915   3.805   4.466   4.409 -0.4127  3.9866 -1.2382
 3094SOL    HW220916   3.836   4.512   4.264  2.2339 -1.3882 -0.5173
 3095SOL     OW20917   2.820   2.046   4.691 -0.6593 -0.0255  0.2168
 3095SOL    HW120918   2.793   2.135   4.714 -0.9086  0.2117 -1.0272
 3095SOL    HW220919   2.874   2.072   4.617 -1.0556 -3.6478 -1.3844
 3096SOL     OW20920   2.923   2.876   1.549  0.2964 -0.5864  0.2384
 3096SOL    HW120921   2.957   2.806   1.494 -0.3321 -0.3491 -0.4572
 3096SOL    HW220922   2.941   2.844   1.637 -0.9009  1.1468  1.1237
 3097SOL     OW20923   1.527   0.361   2.154  0.2852 -0.2172  0.1605
 3097SOL    HW120924   1.455   0.424   2.164 -1.0180 -1.2688 -2.3800
 3097SOL    HW220925   1.584   0.385   2.227  3.1240  1.0457 -2.4707
 3098SOL     OW20926   0.093   4.249   9.118  0.1887  0.0937 -0.5167
 3098SOL    HW120927   0.082   4.215   9.029 -0.8605  1.2179 -0.8168
 3098SOL    HW220928   0.076   4.343   9.112  0.9241  0.1389 -1.9835
 3099SOL     OW20929   4.019   3.773   3.038  0.5513 -0.1490  0.0092
 3099SOL    HW120930   3.950   3.801   2.977  0.9830 -0.5476 -0.6493
 3099SOL    HW220931   3.980   3.700   3.085 -0.0826  1.2812  1.7417
 3100SOL     OW20932   1.712   4.607  11.782  0.3552 -0.2419  0.2085
 3100SOL    HW120933   1.659   4.534  11.813 -0.1116 -0.1999 -0.5012
 3100SOL    HW220934   1.647   4.664  11.741 -0.8407  0.0915  2.5774
 3101SOL     OW20935   2.517   3.555   8.251  0.2904  0.7777 -0.0712
 3101SOL    HW120936   2.444   3.614   8.231 -1.0666 -1.0897 -0.6043
 3101SOL    HW220937   2.461   3.483   8.279  0.9587  1.1140  2.1350
 3102SOL     OW20938   2.222   0.170   6.468 -0.6859 -0.4964  0.0764
 3102SOL    HW120939   2.199   0.098   6.527  1.0245 -1.0621  0.0554
 3102SOL    HW220940   2.314   0.180   6.494 -0.4234 -0.6481 -0.7979
 3103SOL     OW20941   0.186   1.333   8.111  1.0218 -0.7037 -0.5804
 3103SOL    HW120942   0.163   1.343   8.203  1.8174 -0.7215 -0.3792
 3103SOL    HW220943   0.187   1.238   8.098  0.1035 -0.4348 -2.6789
 3104SOL     OW20944   4.052   2.326  14.186  0.4654  0.6997  0.5767
 3104SOL    HW120945   4.083   2.281  14.108  1.0220  1.1739  0.5197
 3104SOL    HW220946   4.097   2.277  14.255 -1.7681 -1.3433  0.5768
 3105SOL     OW20947   3.906   3.633   6.696  0.3872 -0.2912 -0.1885
 3105SOL    HW120948   3.980   3.651   6.754  2.2500 -0.4936 -2.4952
 3105SOL    HW220949   3.904   3.711   6.640 -0.0731 -0.8551 -0.9596
 3106SOL     OW20950   0.249   1.243   7.560  0.1772  0.6639 -0.3792
 3106SOL    HW120951   0.222   1.335   7.562 -0.4325  0.4926 -1.0133
 3106SOL    HW220952   0.201   1.219   7.639 -0.2010  0.0841 -0.7900
 3107SOL     OW20953   2.720   0.159  10.285 -0.3053  0.1337  0.3193
 3107SOL    HW120954   2.760   0.245  10.295 -0.8430  0.5004 -0.6566
 3107SOL    HW220955   2.776   0.101  10.338  0.0744  0.2490  0.0408
 3108SOL     OW20956   1.516   2.770  15.368 -0.3661 -0.2509  0.3662
 3108SOL    HW120957   1.586   2.822  15.328 -1.4355 -0.2619 -1.4973
 3108SOL    HW220958   1.470   2.726  15.296  0.6737 -2.4940  1.0772
 3109SOL     OW20959   3.454   2.813   1.986  0.2351  0.1725 -0.0856
 3109SOL    HW120960   3.470   2.799   2.079  0.7557  0.4667 -0.1307
 3109SOL    HW220961   3.486   2.726   1.961  1.4266  0.7385 -0.5293
 3110SOL     OW20962   2.487   3.391   4.916 -0.2678  0.3778 -0.3164
 3110SOL    HW120963   2.509   3.370   5.007  0.0756 -1.9040 -0.9327
 3110SOL    HW220964   2.462   3.311   4.871 -1.8203  0.5260  0.2697
 3111SOL     OW20965   1.683   3.168   8.466  0.0686 -0.2006 -0.2076
 3111SOL    HW120966   1.618   3.174   8.537  1.0165  2.1074  0.4634
 3111SOL    HW220967   1.689   3.075   8.443 -0.4478 -0.2558 -0.1259
 3112SOL     OW20968   1.072   1.276   2.120  0.5418 -0.2664 -0.8392
 3112SOL    HW120969   1.092   1.256   2.029 -0.3263 -0.9643 -0.8825
 3112SOL    HW220970   1.086   1.370   2.125 -1.7903  0.0174  0.7644
 3113SOL     OW20971   2.218   0.619   3.843 -0.2053 -0.1823  0.1467
 3113SOL    HW120972   2.124   0.604   3.850 -0.0140 -1.5766 -0.2496
 3113SOL    HW220973   2.247   0.663   3.923  1.6872  1.5472 -1.4916
 3114SOL     OW20974   1.155   1.363  12.483 -0.4454 -0.6489 -0.0479
 3114SOL    HW120975   1.178   1.298  12.417  1.1500 -0.9024  0.7680
 3114SOL    HW220976   1.228   1.424  12.485 -0.1827 -0.8977 -2.1330
 3115SOL     OW20977   3.448   0.637  15.870 -0.0651 -0.2267  1.1175
 3115SOL    HW120978   3.484   0.569  15.813  0.3164  1.2949 -0.4741
 3115SOL    HW220979   3.506   0.706  15.838 -2.0738  0.3726 -1.2100
 3116SOL     OW20980   1.383   3.058   7.449  0.0667 -0.1659 -0.3042
 3116SOL    HW120981   1.440   3.027   7.378  1.0900  1.9525 -0.4169
 3116SOL    HW220982   1.379   2.983   7.508  2.1587  1.3660  1.7884
 3117SOL     OW20983   1.858   3.735   9.715 -0.0451  0.0703 -0.2804
 3117SOL    HW120984   1.870   3.829   9.698  0.4376 -0.0168 -0.4054
 3117SOL    HW220985   1.948   3.714   9.740 -0.1531 -1.6731 -1.3549
 3118SOL     OW20986   3.206   2.020  13.367  0.3377  0.1470 -0.1215
 3118SOL    HW120987   3.139   2.082  13.339 -1.4869 -2.3361 -1.2173
 3118SOL    HW220988   3.157   1.966  13.428 -0.5378  2.6725  1.4356
 3119SOL     OW20989   0.368   4.512  14.987  0.0325  0.1818 -0.5458
 3119SOL    HW120990   0.310   4.588  14.999  2.1249  2.1557 -2.8519
 3119SOL    HW220991   0.449   4.552  14.954 -0.9600  1.7262 -1.1056
 3120SOL     OW20992   1.456   3.974  10.250  0.5072  0.1347 -0.3540
 3120SOL    HW120993   1.493   4.062  10.255 -0.9920  0.7237  0.7005
 3120SOL    HW220994   1.525   3.911  10.232 -0.4024 -1.2851  1.1396
 3121SOL     OW20995   4.430   0.921   4.666  0.6296  0.0206  0.9375
 3121SOL    HW120996   4.339   0.941   4.644  1.1990  1.7160  0.1490
 3121SOL    HW220997   4.460   1.012   4.668  1.8716 -0.3643  0.0729
 3122SOL     OW20998   1.623   1.656   3.526 -0.0629  0.5369  0.1921
 3122SOL    HW120999   1.690   1.674   3.460  1.0070 -2.2759  0.4607
 3122SOL    HW221000   1.594   1.744   3.550 -1.4247  0.4547 -1.2330
 3123SOL     OW21001   3.975   4.193   5.270 -0.2226  0.3638  0.2270
 3123SOL    HW121002   3.979   4.282   5.306  0.6367  0.2592  0.3881
 3123SOL    HW221003   4.039   4.201   5.199 -0.0545 -1.8601  0.1303
 3124SOL     OW21004   0.148   0.372  14.762 -0.6003  0.0400  0.2231
 3124SOL    HW121005   0.204   0.356  14.686 -1.3686 -0.5428 -0.2250
 3124SOL    HW221006   0.088   0.298  14.775  0.1835 -0.1924  2.5341
 3125SOL     OW21007   2.914   2.700   1.192  0.2411  0.1150 -0.0924
 3125SOL    HW121008   2.938   2.792   1.176  1.3922 -0.2875 -0.6322
 3125SOL    HW221009   2.855   2.669   1.124  0.3147  1.1802 -0.6423
 3126SOL     OW21010   3.566   3.880  12.558 -0.5190  0.1221 -0.4551
 3126SOL    HW121011   3.540   3.929  12.636  3.3262 -0.6952  1.3469
 3126SOL    HW221012   3.634   3.938  12.524  0.4075 -0.2562  0.7637
 3127SOL     OW21013   0.150   2.244   0.184 -0.7611 -0.2867 -0.1334
 3127SOL    HW121014   0.151   2.292   0.267 -0.3561  0.3167 -0.4899
 3127SOL    HW221015   0.164   2.316   0.122 -1.2305 -0.2081 -0.1508
 3128SOL     OW21016   0.634   3.217   8.369  0.1630 -0.2440 -0.1668
 3128SOL    HW121017   0.697   3.159   8.327  1.1820  1.2337 -0.7162
 3128SOL    HW221018   0.650   3.186   8.458 -0.3491 -0.3190 -0.1021
 3129SOL     OW21019   1.885   2.731   1.618  0.4910  0.0266 -0.7430
 3129SOL    HW121020   1.906   2.647   1.578  2.1125 -0.7469  1.7137
 3129SOL    HW221021   1.797   2.714   1.652  1.0837 -3.0930 -0.7278
 3130SOL     OW21022   2.029   0.513   1.105  0.1078  0.1833 -0.5034
 3130SOL    HW121023   2.102   0.451   1.109  1.0906  1.4222  0.7145
 3130SOL    HW221024   1.954   0.461   1.135 -1.0584  3.0521  1.5392
 3131SOL     OW21025   1.894   3.370   4.397 -0.2355  0.1807  0.0070
 3131SOL    HW121026   1.800   3.365   4.412 -0.2905  1.0455 -0.0535
 3131SOL    HW221027   1.919   3.389   4.307 -0.1071  0.1285  0.0320
 3132SOL     OW21028   0.656   1.005   6.575  0.2985  0.1300 -0.2554
 3132SOL    HW121029   0.718   0.956   6.521 -2.0803 -1.8795 -1.2238
 3132SOL    HW221030   0.664   1.085   6.524 -0.6697  0.7524  0.5818
 3133SOL     OW21031   1.514   3.458   4.675  0.5498  0.0660  0.2241
 3133SOL    HW121032   1.577   3.508   4.623  0.4279  0.4862  0.4790
 3133SOL    HW221033   1.433   3.494   4.640  0.6048 -0.8199 -0.8040
 3134SOL     OW21034   4.011   1.116   7.717  0.1364  0.2169  0.1218
 3134SOL    HW121035   4.001   1.037   7.663 -0.9384 -0.5181  1.4041
 3134SOL    HW221036   4.027   1.077   7.803  0.4789  1.5812  0.6768
 3135SOL     OW21037   2.221   0.697   4.485 -0.5213 -0.0911  0.2979
 3135SOL    HW121038   2.262   0.782   4.503  0.5712 -0.4346 -0.5149
 3135SOL    HW221039   2.160   0.720   4.415  0.3899 -1.2945 -0.8899
 3136SOL     OW21040   3.816   0.960  14.849  0.2167 -0.0565  0.5370
 3136SOL    HW121041   3.735   0.911  14.835  0.3083  0.1994 -0.9548
 3136SOL    HW221042   3.836   0.960  14.942  0.0278 -0.2291  0.5759
 3137SOL     OW21043   4.493   0.023   3.331  0.1501 -0.1149 -0.7299
 3137SOL    HW121044   4.493   4.724   3.420  2.0832 -0.4907 -0.8655
 3137SOL    HW221045   4.415   0.078   3.335  2.3778  2.8819  1.1285
 3138SOL     OW21046   1.474   0.010   9.956 -0.0486 -0.0721  0.1623
 3138SOL    HW121047   1.570   0.019   9.949  0.0503 -1.3906 -0.2148
 3138SOL    HW221048   1.462   4.718  10.047 -2.5391 -0.6436 -0.3461
 3139SOL     OW21049   1.137   3.212  10.405  0.1543 -0.0121 -0.3849
 3139SOL    HW121050   1.204   3.145  10.392 -0.8501 -0.4969 -3.0738
 3139SOL    HW221051   1.069   3.154  10.439 -1.4336  1.8647 -0.3728
 3140SOL     OW21052   0.810   1.681   9.273 -0.1350 -0.3046 -0.5102
 3140SOL    HW121053   0.788   1.611   9.335 -0.3296 -0.3853 -0.6718
 3140SOL    HW221054   0.899   1.711   9.294 -0.0473 -2.0396  1.6435
 3141SOL     OW21055   3.954   2.924  13.291 -0.4958 -0.2940  0.9267
 3141SOL    HW121056   4.020   2.858  13.311  0.3091  0.1460 -0.2783
 3141SOL    HW221057   3.870   2.878  13.286 -0.4392 -0.4349  1.2887
 3142SOL     OW21058   1.122   0.895   2.251  0.1061 -0.1083  0.0209
 3142SOL    HW121059   1.197   0.866   2.304 -1.1277 -2.3481  0.5752
 3142SOL    HW221060   1.129   0.986   2.278 -2.0147 -0.2707  1.1049
 3143SOL     OW21061   4.159   0.217   2.777 -0.3214  0.0074 -0.2100
 3143SOL    HW121062   4.098   0.291   2.775  0.1212  0.3793  0.1894
 3143SOL    HW221063   4.204   0.232   2.693 -1.3141 -0.4812 -0.8256
 3144SOL     OW21064   1.472   2.390   3.578  0.4278 -0.0182  0.1362
 3144SOL    HW121065   1.438   2.322   3.520  0.5960  1.8811 -2.1781
 3144SOL    HW221066   1.459   2.344   3.661  2.1134  0.6561  0.7764
 3145SOL     OW21067   3.565   1.725  17.539 -0.0856  0.2012  0.1874
 3145SOL    HW121068   3.577   1.724  17.444  1.7172 -0.3838  0.4189
 3145SOL    HW221069   3.524   1.811  17.553  1.1325  0.4788  1.9864
 3146SOL     OW21070   3.850   2.034   5.105  0.6197  0.0746  0.8005
 3146SOL    HW121071   3.821   2.085   5.030 -0.0526  1.2125  1.8192
 3146SOL    HW221072   3.920   1.975   5.077  0.9952  0.3613  1.1327
 3147SOL     OW21073   1.058   0.990  15.423  0.4578  0.3064  0.0711
 3147SOL    HW121074   1.080   1.071  15.376  1.6410  0.0506  0.1724
 3147SOL    HW221075   1.149   0.968  15.442  1.1363  0.4046 -3.0663
 3148SOL     OW21076   2.893   4.127   4.467 -0.2225  0.1991 -0.1161
 3148SOL    HW121077   2.803   4.124   4.500 -0.4652 -1.8788 -0.9778
 3148SOL    HW221078   2.944   4.100   4.543 -0.7460  0.8041  0.4494
 3149SOL     OW21079   3.627   3.790  10.706 -0.2399  0.0985  0.2291
 3149SOL    HW121080   3.712   3.820  10.737 -0.3851 -2.8140  3.4585
 3149SOL    HW221081   3.614   3.707  10.751  1.6199  0.4182  1.3398
 3150SOL     OW21082   1.614   3.306   1.173  0.2598  0.4313  0.2081
 3150SOL    HW121083   1.653   3.386   1.209  1.6705 -0.6775  1.1601
 3150SOL    HW221084   1.614   3.258   1.256  0.5027  2.3650  1.3209
 3151SOL     OW21085   2.125   3.239  13.949 -0.6057  0.6107  0.6629
 3151SOL    HW121086   2.042   3.222  13.905  0.8377 -1.9553 -1.0818
 3151SOL    HW221087   2.136   3.153  13.990  0.6694  1.2440  1.6707
 3152SOL     OW21088   2.295   0.968   4.489 -0.0658 -0.0579  0.3776
 3152SOL    HW121089   2.382   0.978   4.525 -0.4859  0.1982  1.3141
 3152SOL    HW221090   2.233   1.022   4.538  0.1700 -0.9198  1.6348
 3153SOL     OW21091   4.479   4.271  11.288 -0.0772  0.2646  0.3862
 3153SOL    HW121092   4.524   4.202  11.337 -0.8903  0.0582  0.8566
 3153SOL    HW221093   4.541   4.276  11.215  1.4032 -0.3444  1.5925
 3154SOL     OW21094   2.164   2.635   0.264 -0.2550 -0.4435 -0.3972
 3154SOL    HW121095   2.090   2.695   0.250  0.3996  0.0861 -1.5607
 3154SOL    HW221096   2.185   2.622   0.172 -1.7678  0.0043 -0.8043
 3155SOL     OW21097   1.999   1.555   0.114  0.0342  0.5585 -0.0152
 3155SOL    HW121098   2.068   1.578   0.177 -0.9653  1.9738  0.5410
 3155SOL    HW221099   2.043   1.534   0.032 -0.9742 -0.3567 -0.3147
 3156SOL     OW21100   2.145   3.531   4.951 -0.1815 -0.1836  0.7023
 3156SOL    HW121101   2.093   3.503   5.025 -0.9745  0.0138  0.2192
 3156SOL    HW221102   2.088   3.602   4.921  3.3821  1.5901 -2.0208
 3157SOL     OW21103   0.802   3.493   6.636 -0.0672  0.6105 -0.0688
 3157SOL    HW121104   0.726   3.488   6.579  0.2495  1.1250 -0.5387
 3157SOL    HW221105   0.761   3.560   6.690 -2.5697 -1.4135  0.5353
 3158SOL     OW21106   0.677   4.089   5.784  0.1742 -0.4177 -0.1093
 3158SOL    HW121107   0.617   4.108   5.857  1.9937  1.1262  0.9948
 3158SOL    HW221108   0.627   4.115   5.707  2.4413  1.4026 -0.9528
 3159SOL     OW21109   0.111   1.474  12.916  0.1257 -0.2920  0.1452
 3159SOL    HW121110   0.147   1.394  12.954 -0.2055 -0.7365 -0.4736
 3159SOL    HW221111   0.110   1.537  12.987 -0.0390  0.9278 -0.9416
 3160SOL     OW21112   3.113   2.672   8.053  0.3253 -0.3292 -0.1032
 3160SOL    HW121113   3.138   2.690   8.144 -0.7893 -1.1013  0.3624
 3160SOL    HW221114   3.196   2.652   8.011  0.7741 -1.5238  1.3198
 3161SOL     OW21115   2.246   3.545   3.777  0.1420  0.7585  0.0949
 3161SOL    HW121116   2.154   3.520   3.783  0.6598 -1.7897 -2.3943
 3161SOL    HW221117   2.278   3.496   3.852 -0.0008 -0.9603 -0.9722
 3162SOL     OW21118   4.222   2.415  15.673 -0.1325 -0.0240 -0.7462
 3162SOL    HW121119   4.240   2.435  15.582 -1.4755  0.6775 -0.8583
 3162SOL    HW221120   4.195   2.500  15.708  0.8707 -0.3881  0.9518
 3163SOL     OW21121   1.137   3.835   3.705  0.2327 -0.4164  0.6840
 3163SOL    HW121122   1.218   3.883   3.693 -0.2576  0.2368 -0.0263
 3163SOL    HW221123   1.168   3.796   3.787  1.1955 -1.4538 -0.1658
 3164SOL     OW21124   1.539   3.233  13.543  0.1865 -0.2857  0.1717
 3164SOL    HW121125   1.452   3.256  13.576  0.6961 -1.2587  2.2041
 3164SOL    HW221126   1.517   3.207  13.453 -1.5212  1.0982  0.1932
 3165SOL     OW21127   0.764   0.948   7.303  0.0625  0.0707  0.1393
 3165SOL    HW121128   0.812   0.874   7.267 -2.2683 -0.8133 -1.1104
 3165SOL    HW221129   0.752   0.920   7.394  2.5018 -0.9439  0.1510
 3166SOL     OW21130   3.373   0.264   6.557 -0.1844  0.0346 -0.4365
 3166SOL    HW121131   3.282   0.235   6.556 -0.5899  1.2176  1.1152
 3166SOL    HW221132   3.400   0.174   6.542  2.2455  0.2036  2.8811
 3167SOL     OW21133   0.949   4.412   4.093  0.1273  0.0455  0.4757
 3167SOL    HW121134   0.990   4.478   4.037  0.8668 -0.8721 -0.0797
 3167SOL    HW221135   0.985   4.332   4.054  0.2360  0.9248 -1.2644
 3168SOL     OW21136   1.289   4.044   6.184 -0.1173  0.3322 -0.4007
 3168SOL    HW121137   1.277   3.999   6.101  0.0481 -1.3707  0.5074
 3168SOL    HW221138   1.336   4.120   6.149 -0.9982  1.7747  1.5685
 3169SOL     OW21139   3.409   0.977  17.637 -0.2326  0.1499  0.1511
 3169SOL    HW121140   3.490   1.023  17.661 -1.2678  3.1854 -2.2449
 3169SOL    HW221141   3.397   1.001  17.545 -2.4256 -2.6207 -0.2963
 3170SOL     OW21142   2.495   3.458  13.283 -0.0337 -0.1851  0.5412
 3170SOL    HW121143   2.443   3.451  13.203 -2.7448  1.6710  2.1354
 3170SOL    HW221144   2.432   3.475  13.354 -2.8910 -1.1389 -1.7401
 3171SOL     OW21145   3.675   3.408   7.770  0.1342 -0.4715 -0.6792
 3171SOL    HW121146   3.607   3.352   7.733  0.4438 -0.2271 -1.6220
 3171SOL    HW221147   3.751   3.354   7.749  1.4072  1.0068  0.1474
 3172SOL     OW21148   1.015   4.668   7.566  0.7713  0.4019 -0.4227
 3172SOL    HW121149   1.088   4.708   7.614  1.7192 -1.1738 -0.5367
 3172SOL    HW221150   1.045   4.640   7.480  1.7901  1.0096 -0.2722
 3173SOL     OW21151   2.261   0.264   1.105 -0.0664 -0.3447 -0.0754
 3173SOL    HW121152   2.242   0.175   1.073  0.9654 -0.1157 -1.3261
 3173SOL    HW221153   2.234   0.258   1.196 -1.3768 -2.0071 -0.5567
 3174SOL     OW21154   0.388   4.347   5.198 -0.5075 -0.2533  0.4949
 3174SOL    HW121155   0.326   4.354   5.125  0.5066 -0.7009 -0.4293
 3174SOL    HW221156   0.464   4.335   5.141  0.3730  0.4373  1.5381
 3175SOL     OW21157   1.522   0.388   3.599 -0.1088  0.3738 -0.2213
 3175SOL    HW121158   1.465   0.334   3.543  0.5674 -0.5440 -0.0100
 3175SOL    HW221159   1.446   0.417   3.650 -0.0337 -1.4044  0.8997
 3176SOL     OW21160   2.650   4.174   0.939 -0.2399  0.1628 -0.3101
 3176SOL    HW121161   2.649   4.086   0.977 -0.6992 -0.1128 -0.9661
 3176SOL    HW221162   2.687   4.160   0.852 -0.5992 -0.0283 -0.4322
 3177SOL     OW21163   0.330   4.398  10.849 -0.2653 -0.0753 -0.1742
 3177SOL    HW121164   0.387   4.337  10.802 -0.2347 -0.4814  0.3828
 3177SOL    HW221165   0.348   4.471  10.790 -0.9836  0.7361  0.6073
 3178SOL     OW21166   0.135   4.349   3.456 -0.4670  0.2815 -0.3897
 3178SOL    HW121167   0.222   4.308   3.452 -1.2810 -1.5029  0.2181
 3178SOL    HW221168   0.093   4.315   3.377  0.3053 -1.1705 -0.1723
 3179SOL     OW21169   3.571   2.913   4.977 -0.0872  0.0747  0.1472
 3179SOL    HW121170   3.558   2.870   5.061 -1.4346 -2.7969 -1.4961
 3179SOL    HW221171   3.580   3.003   5.008  0.4867  0.3331 -0.7541
 3180SOL     OW21172   1.538   3.288   6.879 -0.7326  0.2774 -0.5645
 3180SOL    HW121173   1.464   3.347   6.889  0.4147  1.6988 -0.3966
 3180SOL    HW221174   1.535   3.258   6.970 -1.5395 -0.7528 -0.9311
 3181SOL     OW21175   0.677   1.580   2.552 -0.1282 -0.4485  0.7237
 3181SOL    HW121176   0.608   1.541   2.606 -2.1536  0.0857 -1.4582
 3181SOL    HW221177   0.753   1.528   2.577  1.6302  0.7857 -1.9901
 3182SOL     OW21178   2.128   3.838  15.661  0.1165  0.3579 -0.1704
 3182SOL    HW121179   2.134   3.906  15.727 -0.9141  0.8621 -0.6013
 3182SOL    HW221180   2.182   3.766  15.694 -0.8673 -0.9942 -1.5284
 3183SOL     OW21181   2.778   3.270  12.362 -0.2105 -0.5574 -0.2269
 3183SOL    HW121182   2.856   3.224  12.331 -1.0771 -2.3497  0.2077
 3183SOL    HW221183   2.808   3.288  12.451  0.1762 -0.0237 -0.4682
 3184SOL     OW21184   2.489   1.126   1.922  0.0130 -1.0603 -0.0063
 3184SOL    HW121185   2.581   1.125   1.947 -0.0331  1.8656  0.2675
 3184SOL    HW221186   2.487   1.154   1.831  2.0545  1.1023  0.6092
 3185SOL     OW21187   3.809   4.055  16.936 -0.0102 -0.4637 -0.1652
 3185SOL    HW121188   3.820   4.046  16.842  2.1041 -2.8100  0.2784
 3185SOL    HW221189   3.790   3.964  16.960 -1.4420 -0.2107 -0.3565
 3186SOL     OW21190   1.507   1.904   1.874  0.5834 -0.9991 -0.1292
 3186SOL    HW121191   1.528   1.856   1.954 -0.6199 -1.4878 -0.1058
 3186SOL    HW221192   1.458   1.982   1.899  1.4590 -0.2473 -0.7209
 3187SOL     OW21193   2.638   4.431   4.122  0.1352  0.7303 -0.3439
 3187SOL    HW121194   2.655   4.366   4.054  0.7988 -0.3035  0.8063
 3187SOL    HW221195   2.640   4.377   4.201  0.8065  2.7802  1.0331
 3188SOL     OW21196   3.818   4.508  15.476  0.0361  0.1366  0.3891
 3188SOL    HW121197   3.808   4.436  15.538 -0.5227  0.9523  1.2519
 3188SOL    HW221198   3.727   4.520  15.451  0.5156  0.7387 -1.0634
 3189SOL     OW21199   4.001   3.637   3.877 -0.3242 -0.3066  0.3515
 3189SOL    HW121200   4.004   3.554   3.830  1.8027 -0.1998  0.2983
 3189SOL    HW221201   3.906   3.645   3.892  0.1684  2.4879  1.9892
 3190SOL     OW21202   3.514   3.616  10.454  0.2826 -0.1963 -0.0830
 3190SOL    HW121203   3.452   3.672  10.502  1.8884  0.0293  1.7222
 3190SOL    HW221204   3.460   3.597  10.378  0.0444  1.2903 -0.2916
 3191SOL     OW21205   3.902   0.247   2.278 -0.0791  0.2642  0.1365
 3191SOL    HW121206   3.895   0.341   2.262  0.5285  0.6415  2.0934
 3191SOL    HW221207   3.878   0.209   2.194 -0.8554  1.5672 -0.2241
 3192SOL     OW21208   4.213   2.896   5.624  0.2066  0.5990 -0.0013
 3192SOL    HW121209   4.211   2.899   5.720 -0.9711  0.4912 -0.0119
 3192SOL    HW221210   4.275   2.823   5.618 -0.3844  0.0196  0.9188
 3193SOL     OW21211   2.070   1.212   2.444  0.1262  0.5397  0.6606
 3193SOL    HW121212   2.100   1.292   2.487  0.2749  0.6443  0.3577
 3193SOL    HW221213   2.122   1.151   2.496 -0.0050 -1.3483 -1.4132
 3194SOL     OW21214   1.332   1.938   6.418  0.5653  0.3180 -0.0198
 3194SOL    HW121215   1.371   1.851   6.407  0.2047  0.0627  0.7284
 3194SOL    HW221216   1.379   1.987   6.351  0.7926  0.2270  0.0741
 3195SOL     OW21217   2.505   0.546   4.088  0.5010  0.3593 -0.2310
 3195SOL    HW121218   2.493   0.468   4.034  1.0176 -0.7018  1.1624
 3195SOL    HW221219   2.538   0.500   4.166  0.7407  0.5199 -0.2379
 3196SOL     OW21220   2.375   4.731   5.283 -0.3594 -0.3628  0.3162
 3196SOL    HW121221   2.394   4.645   5.246 -0.9020 -0.5551  0.4692
 3196SOL    HW221222   2.452   0.046   5.259 -1.2233  0.2555 -1.1241
 3197SOL     OW21223   3.765   1.356   0.954 -0.2378 -0.5586 -0.0969
 3197SOL    HW121224   3.766   1.268   0.916 -3.6018  0.6330 -2.9367
 3197SOL    HW221225   3.676   1.362   0.989  0.3746  1.7751  1.0558
 3198SOL     OW21226   2.077   1.490   2.947  0.1774  0.1417 -0.3637
 3198SOL    HW121227   1.985   1.516   2.952  0.4196  1.2569 -1.5413
 3198SOL    HW221228   2.068   1.398   2.969 -1.1641 -0.3839 -3.2102
 3199SOL     OW21229   2.956   2.440   4.957 -0.6444  0.0711 -0.2909
 3199SOL    HW121230   2.988   2.519   5.002  4.5799 -0.7802 -2.6028
 3199SOL    HW221231   3.019   2.379   4.996 -0.8211 -1.8346 -3.0596
 3200SOL     OW21232   4.579   4.442   7.873  0.2340 -0.4832  0.0664
 3200SOL    HW121233   4.532   4.523   7.894  0.9047  0.1871 -0.9831
 3200SOL    HW221234   4.671   4.466   7.856 -0.0549  0.5659 -0.0604
 3201SOL     OW21235   1.012   0.580   6.496 -0.3039 -0.2552 -0.3158
 3201SOL    HW121236   1.047   0.497   6.530 -0.5731 -0.6516 -0.9992
 3201SOL    HW221237   1.063   0.642   6.549  1.3994 -1.3112 -0.7105
 3202SOL     OW21238   4.650   2.588   3.304  0.3465  0.0478 -0.4624
 3202SOL    HW121239   4.668   2.607   3.396 -0.6514 -0.1224 -0.2309
 3202SOL    HW221240   4.674   2.675   3.272 -0.4854  0.6240  0.4855
 3203SOL     OW21241   0.880   2.572   4.636 -0.4859  0.5948 -0.3364
 3203SOL    HW121242   0.893   2.537   4.724 -4.8686 -0.6940 -0.2174
 3203SOL    HW221243   0.875   2.490   4.588  0.4324  1.2176 -1.4977
 3204SOL     OW21244   2.332   1.170   0.715 -0.2228  0.6003  0.0428
 3204SOL    HW121245   2.297   1.089   0.678 -0.0694  0.4231  0.2849
 3204SOL    HW221246   2.352   1.143   0.805  0.5077 -0.0834 -0.3340
 3205SOL     OW21247   2.209   4.251   7.092 -0.1110  0.0974  0.3224
 3205SOL    HW121248   2.254   4.218   7.169 -1.1695 -0.8728  0.5233
 3205SOL    HW221249   2.276   4.305   7.049  0.4918 -1.8990 -1.2508
 3206SOL     OW21250   0.781   0.930  14.164 -0.1225  0.0898  0.1343
 3206SOL    HW121251   0.752   0.919  14.254 -2.1177 -0.4332 -0.5881
 3206SOL    HW221252   0.870   0.962  14.181  0.3913 -1.0484 -0.3570
 3207SOL     OW21253   2.771   1.293   4.165 -0.2314 -0.3439 -0.3968
 3207SOL    HW121254   2.684   1.327   4.185  0.1721  1.0363 -0.9930
 3207SOL    HW221255   2.822   1.319   4.241  0.4016  0.0668 -0.9576
 3208SOL     OW21256   1.563   2.358   2.332 -0.1489  0.0349 -0.5755
 3208SOL    HW121257   1.512   2.399   2.262  2.2889  1.4047 -1.5283
 3208SOL    HW221258   1.520   2.273   2.342  0.6001 -0.1667  0.9295
 3209SOL     OW21259   3.737   2.736   0.580  0.4294  0.1060  0.2383
 3209SOL    HW121260   3.781   2.819   0.563 -0.1327  0.1651 -0.8797
 3209SOL    HW221261   3.771   2.684   0.508 -1.3180  1.1407 -1.3243
 3210SOL     OW21262   2.495   1.038   4.681 -0.0776 -0.1993  0.5436
 3210SOL    HW121263   2.583   1.003   4.694  0.6026  1.9485  1.6729
 3210SOL    HW221264   2.457   1.034   4.769 -1.8363 -2.7062 -0.3384
 3211SOL     OW21265   2.740   3.056   7.196 -0.2391 -0.1158  0.3929
 3211SOL    HW121266   2.681   2.997   7.244 -1.6116  0.5771 -0.4295
 3211SOL    HW221267   2.818   3.061   7.251 -0.0143 -1.5510  0.1909
 3212SOL     OW21268   2.578   2.508   4.414 -0.2090  0.2534  0.5049
 3212SOL    HW121269   2.617   2.585   4.456  2.2200 -1.4130  1.3144
 3212SOL    HW221270   2.532   2.559   4.348  0.7396 -2.3248 -2.1548
 3213SOL     OW21271   1.032   4.626  11.514 -0.6666  0.1782  0.2995
 3213SOL    HW121272   0.988   4.580  11.586  2.1938 -1.5308  0.9211
 3213SOL    HW221273   1.065   4.699  11.566  1.5478 -0.6509  0.0407
 3214SOL     OW21274   0.311   2.890   2.237 -0.4428 -0.0204  0.1802
 3214SOL    HW121275   0.241   2.947   2.271 -0.0970 -0.8329  2.2690
 3214SOL    HW221276   0.283   2.800   2.253  0.8638 -0.3482  0.5992
 3215SOL     OW21277   3.723   3.607   9.598  0.7343 -0.3090  0.7207
 3215SOL    HW121278   3.643   3.659   9.606  0.5096 -0.3796 -0.9783
 3215SOL    HW221279   3.676   3.524   9.597  0.9808 -0.4326 -0.6914
 3216SOL     OW21280   3.279   2.267   0.142 -0.0712 -0.3357 -0.4129
 3216SOL    HW121281   3.303   2.345   0.192  0.2181  0.3371 -1.5961
 3216SOL    HW221282   3.191   2.254   0.177  0.2629 -2.5012 -0.3286
 3217SOL     OW21283   2.298   3.305   5.383  0.5407 -0.0331 -0.0055
 3217SOL    HW121284   2.319   3.253   5.460 -1.7587 -2.6893 -1.1500
 3217SOL    HW221285   2.207   3.327   5.402  0.7542 -0.1476  1.1282
 3218SOL     OW21286   1.631   2.233   1.860 -0.0670 -0.6745  0.5069
 3218SOL    HW121287   1.714   2.186   1.861  1.1298  1.4445  0.8239
 3218SOL    HW221288   1.576   2.193   1.928 -0.6521  1.1654  1.1315
 3219SOL     OW21289   0.694   4.387  11.757  0.2398 -0.6458  0.3838
 3219SOL    HW121290   0.634   4.400  11.831  2.4866  1.1920  1.9021
 3219SOL    HW221291   0.664   4.452  11.693 -1.7773 -0.7480  1.2129
 3220SOL     OW21292   1.334   4.556   5.507  0.2295  0.3669 -0.1729
 3220SOL    HW121293   1.425   4.574   5.530 -0.0262 -0.2465  1.3481
 3220SOL    HW221294   1.342   4.574   5.414 -1.8185  2.0416 -0.0266
 3221SOL     OW21295   3.660   2.157  11.110  0.4988  0.1329  0.2294
 3221SOL    HW121296   3.649   2.133  11.018  1.5843 -0.3568  0.2281
 3221SOL    HW221297   3.752   2.184  11.119  0.6257 -0.3955  0.5236
 3222SOL     OW21298   1.578   3.046   2.946  0.1965 -0.2354  0.7546
 3222SOL    HW121299   1.654   3.100   2.966 -1.6985  2.1359  1.5742
 3222SOL    HW221300   1.616   2.965   2.912  2.4490  1.2664 -0.3115
 3223SOL     OW21301   1.607   3.903   1.308 -0.6834  0.1791 -0.2787
 3223SOL    HW121302   1.551   3.864   1.241  0.0048 -0.3107 -0.5568
 3223SOL    HW221303   1.638   3.970   1.248  0.7319  0.0852  0.3516
 3224SOL     OW21304   3.524   0.714   7.340  0.3021  0.2289  0.2861
 3224SOL    HW121305   3.444   0.716   7.288 -1.0175  0.4646  2.3558
 3224SOL    HW221306   3.564   0.796   7.309  0.4178  0.1259  0.1642
 3225SOL     OW21307   0.489   2.589   5.809  0.5003  0.1008  0.3529
 3225SOL    HW121308   0.526   2.589   5.897 -0.0108 -0.6987  0.5728
 3225SOL    HW221309   0.567   2.613   5.758 -0.2444  2.2220  0.2426
 3226SOL     OW21310   1.676   3.253   7.876  0.3719  0.2671 -0.2534
 3226SOL    HW121311   1.730   3.329   7.898  0.2950  0.5530 -1.0605
 3226SOL    HW221312   1.698   3.250   7.783  0.2961 -2.9307 -0.1619
 3227SOL     OW21313   2.665   3.977  15.813  0.7890 -0.4667  0.6017
 3227SOL    HW121314   2.725   4.049  15.831 -2.1670  2.5040 -1.4922
 3227SOL    HW221315   2.698   3.955  15.725 -0.8864  3.8112 -1.1082
 3228SOL     OW21316   1.231   1.169   7.794  0.3602 -0.4227  0.6484
 3228SOL    HW121317   1.216   1.092   7.739 -3.0472  0.1451  0.7843
 3228SOL    HW221318   1.263   1.236   7.734 -1.7801  0.3478  0.3490
 3229SOL     OW21319   1.604   0.671  11.766  0.0857  0.2703 -0.3705
 3229SOL    HW121320   1.676   0.655  11.705 -0.2672  0.7145 -0.9010
 3229SOL    HW221321   1.649   0.726  11.830 -1.4249  1.7441 -0.5907
 3230SOL     OW21322   4.709   0.085  13.248 -0.9044  0.1014 -0.1294
 3230SOL    HW121323   4.661   0.037  13.315  1.3860 -1.7509  0.1625
 3230SOL    HW221324   4.709   0.020  13.178 -0.9224  0.2342 -0.2516
 3231SOL     OW21325   1.056   2.976   6.135 -0.0812  0.3568 -0.2769
 3231SOL    HW121326   0.985   2.936   6.085  0.2585  0.4712 -0.8416
 3231SOL    HW221327   1.105   3.032   6.075  1.6396 -1.7473 -0.8431
 3232SOL     OW21328   2.528   4.042   4.019 -0.5277  0.1209  0.0644
 3232SOL    HW121329   2.550   3.951   4.001  1.0905  0.1990  1.6520
 3232SOL    HW221330   2.606   4.079   3.977 -0.6640  0.8134  0.4230
 3233SOL     OW21331   3.585   1.561   8.920 -0.0611 -0.1370 -0.4027
 3233SOL    HW121332   3.604   1.556   9.014  0.2206  0.8930 -0.4084
 3233SOL    HW221333   3.490   1.552   8.930  0.1266 -0.9535  0.6929
 3234SOL     OW21334   1.681   3.200  12.518  0.1722  0.5276 -0.3620
 3234SOL    HW121335   1.775   3.180  12.520 -0.2656 -1.6079 -1.9503
 3234SOL    HW221336   1.676   3.259  12.594  2.5658  1.5497 -0.9893
 3235SOL     OW21337   0.540   1.257   3.248 -0.2541  0.8117 -0.0507
 3235SOL    HW121338   0.453   1.228   3.221  0.6113 -0.3890 -1.4914
 3235SOL    HW221339   0.531   1.351   3.231 -3.0776  0.4789 -0.4505
 3236SOL     OW21340   0.692   1.376   9.127 -0.1742 -0.2674  0.3862
 3236SOL    HW121341   0.666   1.315   9.196  1.1611  0.1888  1.2928
 3236SOL    HW221342   0.611   1.427   9.120  1.6729  2.6430  0.1183
 3237SOL     OW21343   4.602   0.767   6.252 -0.3895 -0.6252 -0.0902
 3237SOL    HW121344   4.611   0.843   6.309 -0.8508 -0.7553  0.1609
 3237SOL    HW221345   4.671   0.720   6.298 -1.6365 -0.3969  2.0307
 3238SOL     OW21346   0.665   3.086  13.411  0.3082  0.0978  0.0507
 3238SOL    HW121347   0.733   3.047  13.466 -0.9897 -2.0245  0.1632
 3238SOL    HW221348   0.708   3.067  13.328 -0.8123  0.2038 -0.5551
 3239SOL     OW21349   1.860   4.446   0.823 -0.4094 -0.1109 -0.2487
 3239SOL    HW121350   1.904   4.432   0.906 -0.6907  0.1333 -0.0614
 3239SOL    HW221351   1.874   4.360   0.782 -2.2118 -1.9233  2.9351
 3240SOL     OW21352   0.991   0.983  16.711 -0.1792 -0.3272 -0.3196
 3240SOL    HW121353   1.063   0.965  16.770 -1.1134  1.5239  1.3931
 3240SOL    HW221354   0.989   0.901  16.662  0.6088  0.1364 -1.1302
 3241SOL     OW21355   3.848   2.647   7.844 -0.1830 -0.0939  0.1767
 3241SOL    HW121356   3.924   2.589   7.849  0.4644  0.7476  0.1865
 3241SOL    HW221357   3.770   2.598   7.817 -0.7602 -0.2793  2.2118
 3242SOL     OW21358   2.983   4.077   7.992 -0.3633 -0.0882 -0.2245
 3242SOL    HW121359   2.958   4.103   7.904  1.1709  1.3153 -0.2415
 3242SOL    HW221360   3.005   3.985   7.979 -1.7579 -0.3102 -1.0025
 3243SOL     OW21361   4.132   3.723  14.607 -0.1095 -0.2159 -0.0650
 3243SOL    HW121362   4.136   3.666  14.530  1.9841 -0.9249  0.5878
 3243SOL    HW221363   4.134   3.669  14.685  1.3789  1.1330  0.8416
 3244SOL     OW21364   3.697   2.993  17.445  0.3128 -0.0736  0.0971
 3244SOL    HW121365   3.760   2.922  17.456  1.3303  0.6938 -0.7410
 3244SOL    HW221366   3.709   3.040  17.527 -2.1362 -2.6633  1.9503
 3245SOL     OW21367   2.450   3.048   6.666 -0.1589  0.1865  0.3607
 3245SOL    HW121368   2.374   3.027   6.612 -0.6595  1.5403  0.5272
 3245SOL    HW221369   2.466   2.966   6.713  0.0286 -0.1349 -0.2584
 3246SOL     OW21370   3.174   4.047   8.542 -0.0466 -0.3015  0.2189
 3246SOL    HW121371   3.142   4.115   8.601 -0.3750  0.3033 -0.6536
 3246SOL    HW221372   3.263   4.081   8.543 -0.6529  1.3026  0.1825
 3247SOL     OW21373   3.304   2.063   2.324 -0.2254  0.2499 -0.0855
 3247SOL    HW121374   3.234   2.019   2.275  1.1766 -2.1957  0.1106
 3247SOL    HW221375   3.351   1.989   2.363 -0.6683  1.0055  1.8983
 3248SOL     OW21376   2.037   3.765   8.202 -0.2982 -0.1619  0.6454
 3248SOL    HW121377   1.996   3.821   8.136 -1.9347 -2.1788 -0.0380
 3248SOL    HW221378   1.960   3.731   8.246  0.6201  1.9108  3.8039
 3249SOL     OW21379   0.641   1.889   8.034  0.1792 -0.1587 -0.5187
 3249SOL    HW121380   0.639   1.896   7.939 -0.4459  1.7917 -0.3564
 3249SOL    HW221381   0.642   1.982   8.053  1.1498 -0.3115  0.1971
 3250SOL     OW21382   4.645   2.886  14.458  0.3528 -0.2708 -0.1486
 3250SOL    HW121383   4.675   2.843  14.378  0.0228  1.8818 -1.4338
 3250SOL    HW221384   4.670   2.818  14.521  0.2586 -1.7893 -1.7370
 3251SOL     OW21385   1.652   4.571   4.383  0.1470  0.6601 -0.2141
 3251SOL    HW121386   1.682   4.661   4.393  0.0374  0.5486  1.2022
 3251SOL    HW221387   1.607   4.572   4.299  0.9503 -0.3667 -0.6641
 3252SOL     OW21388   2.391   4.227  10.440 -0.2914  0.1212  0.2870
 3252SOL    HW121389   2.414   4.148  10.391  0.6772 -0.3158  1.4251
 3252SOL    HW221390   2.480   4.261  10.445  0.0715 -0.5867 -1.5294
 3253SOL     OW21391   4.462   0.375  17.408 -0.2409 -0.0541 -0.5223
 3253SOL    HW121392   4.432   0.370  17.317  0.6244 -1.9666 -0.6885
 3253SOL    HW221393   4.503   0.291  17.424  0.8681  0.1066 -2.5559
 3254SOL     OW21394   0.691   1.961   7.760 -0.6694  0.2091  0.4199
 3254SOL    HW121395   0.688   1.929   7.670  1.1888  1.0715  0.0611
 3254SOL    HW221396   0.785   1.971   7.769 -0.6646  0.1398  0.4438
 3255SOL     OW21397   2.399   0.918  13.750  0.2412  0.2739  0.1096
 3255SOL    HW121398   2.349   0.881  13.823  2.7937 -0.8524  1.2802
 3255SOL    HW221399   2.471   0.855  13.745 -0.6670 -0.5842 -2.5213
 3256SOL     OW21400   0.583   2.310  11.960 -0.7031 -0.1434 -0.0027
 3256SOL    HW121401   0.569   2.271  11.874  0.2703 -0.9847  0.2175
 3256SOL    HW221402   0.504   2.272  11.998 -1.9353 -0.6987 -3.0804
 3257SOL     OW21403   1.066   2.225   6.944 -0.3654  0.6785 -0.6854
 3257SOL    HW121404   1.019   2.183   6.872 -2.2767 -0.4846  1.2447
 3257SOL    HW221405   1.153   2.237   6.906 -0.8452 -1.2875 -2.4058
 3258SOL     OW21406   4.002   2.975   3.935 -0.8887 -0.5587 -0.4259
 3258SOL    HW121407   4.084   2.929   3.957 -0.0437  0.0302 -2.2916
 3258SOL    HW221408   3.969   2.918   3.866  1.1131  0.3112 -2.1169
 3259SOL     OW21409   0.991   4.188  15.298  0.0342  0.1672  0.4695
 3259SOL    HW121410   0.966   4.105  15.257 -1.7669  0.7749  0.3364
 3259SOL    HW221411   0.923   4.207  15.362 -1.4295 -1.0471 -0.7094
 3260SOL     OW21412   1.328   4.653   3.180 -0.0009 -0.6498 -0.0142
 3260SOL    HW121413   1.367   0.004   3.170  0.0213 -0.7523 -0.8091
 3260SOL    HW221414   1.337   4.647   3.275  0.8529  1.6297  0.0348
 3261SOL     OW21415   1.333   1.862   6.064 -0.1902  0.0406  0.5459
 3261SOL    HW121416   1.353   1.899   5.978 -0.6727 -0.2279  0.3190
 3261SOL    HW221417   1.423   1.859   6.098  0.0718 -0.1899 -0.1495
 3262SOL     OW21418   2.338   3.532  10.554 -0.5165  0.1289  0.1226
 3262SOL    HW121419   2.334   3.516  10.648  0.9714  0.8801  0.3111
 3262SOL    HW221420   2.257   3.491  10.523 -2.2470  1.6252  2.7023
 3263SOL     OW21421   2.469   1.923   2.359  0.0800 -0.0067  0.0098
 3263SOL    HW121422   2.545   1.939   2.303  0.8129 -1.5343  0.5880
 3263SOL    HW221423   2.421   1.857   2.309 -1.8948  1.7580 -0.4572
 3264SOL     OW21424   0.703   1.978   2.484  0.1783  0.4340 -0.2598
 3264SOL    HW121425   0.742   2.066   2.479 -2.8097  1.7760 -0.1684
 3264SOL    HW221426   0.626   1.993   2.539 -0.4827 -0.2333 -0.9926
 3265SOL     OW21427   1.575   0.611  13.482  0.7735 -0.0142  0.3827
 3265SOL    HW121428   1.535   0.612  13.395  2.9341 -1.0065 -0.6240
 3265SOL    HW221429   1.648   0.670  13.463  0.8125 -0.0494  0.4220
 3266SOL     OW21430   0.913   2.843   5.367 -0.7609 -0.1962  0.5192
 3266SOL    HW121431   0.945   2.812   5.282  0.6430 -2.8814  2.0257
 3266SOL    HW221432   0.991   2.838   5.423  0.0215 -0.7194 -0.6146
 3267SOL     OW21433   0.881   2.994  13.546  0.4906  0.1806 -0.5114
 3267SOL    HW121434   0.901   2.924  13.608 -0.1285 -0.1029 -0.6334
 3267SOL    HW221435   0.933   3.066  13.582  0.6139 -0.5326  0.7354
 3268SOL     OW21436   4.390   0.855   6.774 -0.7117 -0.3970 -0.7968
 3268SOL    HW121437   4.353   0.941   6.752  0.0604 -0.4779 -2.3607
 3268SOL    HW221438   4.471   0.857   6.724 -0.8600  0.1810 -1.0114
 3269SOL     OW21439   0.397   3.527   8.895  0.5119 -0.2630 -0.1970
 3269SOL    HW121440   0.305   3.552   8.895  0.3991 -0.6684  0.8348
 3269SOL    HW221441   0.420   3.559   8.808  0.9736 -1.0619 -0.3773
 3270SOL     OW21442   1.170   2.217  10.032  0.0454  0.0684  0.1077
 3270SOL    HW121443   1.177   2.255   9.945 -0.1590  0.0325  0.0769
 3270SOL    HW221444   1.122   2.137  10.013  1.4872 -0.6407 -0.5416
 3271SOL     OW21445   0.275   2.561   7.810  0.8342  0.6919  0.5085
 3271SOL    HW121446   0.312   2.611   7.883  1.0257  0.1215  0.8075
 3271SOL    HW221447   0.256   2.636   7.754  1.7330  1.1902  0.8605
 3272SOL     OW21448   0.594   0.874  15.289  0.6655 -0.4485 -0.3878
 3272SOL    HW121449   0.608   0.947  15.349 -2.9313 -0.1073  0.0363
 3272SOL    HW221450   0.502   0.897  15.275  0.9237  0.3160 -0.8408
 3273SOL     OW21451   3.975   4.405   6.104  0.5791 -0.2580  0.2427
 3273SOL    HW121452   4.038   4.423   6.034  0.0984  0.7953  0.0825
 3273SOL    HW221453   4.014   4.461   6.172  0.3338 -1.3857  1.3023
 3274SOL     OW21454   0.986   2.261  17.203 -0.2054 -0.2338  0.1027
 3274SOL    HW121455   0.930   2.336  17.180 -0.9989 -1.2250 -1.2341
 3274SOL    HW221456   1.052   2.303  17.258 -0.0487 -1.2550  0.6990
 3275SOL     OW21457   3.488   0.458   6.699  0.2760 -0.3586 -0.1547
 3275SOL    HW121458   3.442   0.386   6.658 -0.8254  0.8324 -1.0132
 3275SOL    HW221459   3.432   0.533   6.676  0.4204  0.1952  1.2522
 3276SOL     OW21460   2.283   2.322  15.533 -0.1056 -0.0467  0.0041
 3276SOL    HW121461   2.225   2.303  15.460 -0.4651 -1.5338  0.6706
 3276SOL    HW221462   2.369   2.320  15.491 -1.0548 -0.3457 -1.9329
 3277SOL     OW21463   3.006   1.989   0.513  0.0101  0.2801  0.2363
 3277SOL    HW121464   3.099   2.013   0.518 -0.1877  1.4355 -1.7403
 3277SOL    HW221465   2.978   2.020   0.599  1.6209  0.7442  0.5895
 3278SOL     OW21466   0.092   3.002   2.320 -0.0439 -0.3079 -0.2096
 3278SOL    HW121467   0.041   2.978   2.398 -1.1064  2.5469 -0.0394
 3278SOL    HW221468   0.033   3.017   2.246  1.5073  0.3683 -1.3090
 3279SOL     OW21469   2.155   1.733   5.734  0.6922  0.2705 -0.0100
 3279SOL    HW121470   2.249   1.745   5.726  0.6889  1.3503  1.6778
 3279SOL    HW221471   2.148   1.642   5.763 -2.3887  0.5217  0.1094
 3280SOL     OW21472   3.003   2.818   2.106 -0.6850  0.6910  0.0155
 3280SOL    HW121473   3.026   2.814   2.198  0.6942  2.6305 -0.2331
 3280SOL    HW221474   2.965   2.731   2.091  2.3098 -0.4431 -0.9512
 3281SOL     OW21475   2.273   0.259   8.134  0.7618 -0.0011  0.1110
 3281SOL    HW121476   2.315   0.331   8.180  0.9574  0.0034 -0.0731
 3281SOL    HW221477   2.349   0.233   8.081  1.8375  1.0452  1.1270
 3282SOL     OW21478   3.045   4.480   8.023 -0.4284 -0.1247 -0.0693
 3282SOL    HW121479   3.100   4.475   8.101  1.8282  2.1252 -1.4998
 3282SOL    HW221480   2.962   4.479   8.071  0.1631  1.0166  0.9758
 3283SOL     OW21481   0.547   4.164   5.554 -0.0390  0.0344 -0.2502
 3283SOL    HW121482   0.602   4.213   5.493  0.9738 -1.5198 -0.6038
 3283SOL    HW221483   0.519   4.083   5.511 -1.0258  0.4625 -0.3853
 3284SOL     OW21484   3.351   0.106   7.072  0.0742 -0.0225  0.2050
 3284SOL    HW121485   3.386   0.186   7.035 -0.6469 -0.3660 -1.2457
 3284SOL    HW221486   3.432   0.060   7.091  0.1390 -0.0317 -0.0882
 3285SOL     OW21487   0.390   3.976  11.659  0.2795  0.5413  0.0269
 3285SOL    HW121488   0.451   4.049  11.664  0.2637  0.6313 -1.2415
 3285SOL    HW221489   0.426   3.910  11.719  0.4789  1.0257  0.4358
 3286SOL     OW21490   0.307   2.066   2.287 -0.2151 -0.0530  0.4446
 3286SOL    HW121491   0.298   1.973   2.309 -1.6416  0.2568  1.1284
 3286SOL    HW221492   0.359   2.037   2.212  1.2386  0.9663  1.0645
 3287SOL     OW21493   1.970   3.901   4.629  0.0316 -0.2558 -0.2609
 3287SOL    HW121494   2.055   3.899   4.674 -0.3294  2.9764  0.6216
 3287SOL    HW221495   1.945   3.993   4.621  0.6787  0.0537  1.2957
 3288SOL     OW21496   4.272   2.946  11.678  0.2108 -0.1808 -0.1779
 3288SOL    HW121497   4.231   2.995  11.606  0.9493  1.2644  0.3791
 3288SOL    HW221498   4.364   2.938  11.654  0.7247  3.2038  0.5769
 3289SOL     OW21499   3.451   4.592   5.284  0.9460  0.0408  0.5912
 3289SOL    HW121500   3.431   4.569   5.375  1.1517  0.6377  0.7884
 3289SOL    HW221501   3.365   4.570   5.248  0.9448  1.7091 -0.3896
 3290SOL     OW21502   2.777   4.681   7.918  0.9382 -0.5264 -0.3904
 3290SOL    HW121503   2.811   4.701   8.005  1.0159  2.6843 -1.1671
 3290SOL    HW221504   2.852   4.646   7.870  1.1702  1.8706 -1.7699
 3291SOL     OW21505   4.491   1.419   6.523 -0.0849  0.2204  0.2436
 3291SOL    HW121506   4.553   1.491   6.509 -1.1775  1.0686 -0.1856
 3291SOL    HW221507   4.441   1.471   6.585 -0.7463  1.3218 -1.2251
 3292SOL     OW21508   0.680   1.470   2.918 -0.0503  0.6189  0.0938
 3292SOL    HW121509   0.662   1.385   2.958 -0.9119  1.3165  1.2101
 3292SOL    HW221510   0.703   1.445   2.829  0.7977  1.3035  0.1266
 3293SOL     OW21511   2.535   2.319  15.419 -0.5572 -0.4090 -0.2262
 3293SOL    HW121512   2.525   2.226  15.400  0.0677 -0.4570 -0.3279
 3293SOL    HW221513   2.631   2.319  15.424 -0.7445  0.2696  3.7961
 3294SOL     OW21514   1.636   2.609   3.602 -0.5605  0.7702 -0.6252
 3294SOL    HW121515   1.571   2.538   3.597  0.3518 -0.0672 -0.6698
 3294SOL    HW221516   1.702   2.564   3.549 -0.5806  0.4855 -0.4103
 3295SOL     OW21517   0.249   2.206   8.754  0.3052  0.0148  0.1818
 3295SOL    HW121518   0.313   2.211   8.683  0.2644  0.6324  0.1919
 3295SOL    HW221519   0.277   2.121   8.788  1.1644  0.2794  0.1493
 3296SOL     OW21520   1.963   0.943  17.292 -0.6827 -0.6972 -0.5453
 3296SOL    HW121521   2.031   1.003  17.261 -0.6314  0.3394  1.5984
 3296SOL    HW221522   1.887   1.001  17.285  0.0662  0.5010  1.5470
 3297SOL     OW21523   3.642   2.432   8.832 -0.5557 -0.5930 -0.3390
 3297SOL    HW121524   3.643   2.337   8.842 -0.1232 -0.4957  0.6188
 3297SOL    HW221525   3.573   2.460   8.893  1.2311  2.4005  0.3596
 3298SOL     OW21526   3.362   1.549  11.534 -0.0919 -0.1539  0.2922
 3298SOL    HW121527   3.282   1.569  11.582 -0.8737 -0.6118 -0.8293
 3298SOL    HW221528   3.420   1.540  11.610  1.6244 -1.4499 -1.1977
 3299SOL     OW21529   1.655   2.822   6.482 -0.4618 -0.3159  0.1231
 3299SOL    HW121530   1.738   2.805   6.438 -0.0869 -0.4314  0.8623
 3299SOL    HW221531   1.650   2.737   6.526 -0.0119 -1.0125 -1.1886
 3300SOL     OW21532   2.807   1.306   0.614  0.0510  0.1524  0.1617
 3300SOL    HW121533   2.741   1.248   0.652  0.8148  0.4518  1.9406
 3300SOL    HW221534   2.768   1.322   0.528 -1.5379  0.1613  0.8853
 3301SOL     OW21535   0.109   3.802  14.638  0.6124  0.2126 -0.6091
 3301SOL    HW121536   0.157   3.762  14.710  1.7655 -0.7922 -1.9446
 3301SOL    HW221537   0.113   3.895  14.658  1.1999 -0.0309  0.4242
 3302SOL     OW21538   1.258   2.280  11.897 -0.2453  0.4098  0.1697
 3302SOL    HW121539   1.290   2.252  11.811 -0.5877 -0.1816  0.2373
 3302SOL    HW221540   1.303   2.365  11.892  0.4585  0.0830  0.9601
 3303SOL     OW21541   3.049   2.338  17.374  0.9561 -0.0794 -0.5655
 3303SOL    HW121542   2.955   2.335  17.355  0.6537 -1.5074  1.1913
 3303SOL    HW221543   3.044   2.324  17.468 -0.3038 -1.3662 -0.8336
 3304SOL     OW21544   0.234   1.011   5.731  0.1681 -0.2045 -0.0484
 3304SOL    HW121545   0.269   1.008   5.642 -2.1221  0.1302 -0.9663
 3304SOL    HW221546   0.152   1.059   5.720 -0.4255 -1.4963 -1.3588
 3305SOL     OW21547   2.377   4.520   8.743  0.1891  0.1607 -0.0920
 3305SOL    HW121548   2.358   4.544   8.652  1.1371  1.7519  0.1424
 3305SOL    HW221549   2.386   4.607   8.781  2.7717 -0.4024  0.5586
 3306SOL     OW21550   4.662   1.108  13.531 -0.5605  0.3402 -0.1216
 3306SOL    HW121551   4.648   1.110  13.625  0.8846  4.2811  0.0005
 3306SOL    HW221552   4.576   1.129  13.495 -0.0171  2.8075  0.0292
 3307SOL     OW21553   0.430   0.849   6.456  0.4407  0.0528  0.2320
 3307SOL    HW121554   0.511   0.893   6.483  0.8730 -1.8049  1.9802
 3307SOL    HW221555   0.450   0.836   6.363  2.9403  2.0578  0.4864
 3308SOL     OW21556   4.148   1.078   4.830  0.0572 -0.0577  0.3321
 3308SOL    HW121557   4.156   1.173   4.837  1.7505 -0.3485  2.2522
 3308SOL    HW221558   4.195   1.068   4.747  0.3239 -0.4664  0.5312
 3309SOL     OW21559   2.007   2.641   4.644  0.2162  0.0013  0.5120
 3309SOL    HW121560   1.911   2.639   4.642  0.2050 -0.3062  1.2071
 3309SOL    HW221561   2.013   2.565   4.702  0.6441  0.2948  0.8460
 3310SOL     OW21562   1.022   4.078  16.480  0.4719  0.4974 -0.5723
 3310SOL    HW121563   1.077   4.155  16.494 -0.4058  0.8214  1.0294
 3310SOL    HW221564   1.073   4.028  16.416 -0.4166  0.9199 -1.6081
 3311SOL     OW21565   0.383   1.368   6.311 -0.2928  0.2389  0.8449
 3311SOL    HW121566   0.411   1.408   6.229  0.3442 -0.1533  0.8731
 3311SOL    HW221567   0.438   1.416   6.373  1.4165  0.7356 -1.0719
 3312SOL     OW21568   1.767   3.010   0.273 -1.0442 -0.1122 -0.1275
 3312SOL    HW121569   1.682   2.994   0.315 -1.4575  1.3402 -0.4238
 3312SOL    HW221570   1.772   3.105   0.278  0.7003 -0.2492  0.7333
 3313SOL     OW21571   1.189   3.554   4.040 -0.0578  0.8079 -0.1589
 3313SOL    HW121572   1.119   3.548   4.106  0.1663  2.5544  0.2258
 3313SOL    HW221573   1.139   3.563   3.960 -0.4196 -3.0899 -0.4050
 3314SOL     OW21574   2.488   0.187   6.531 -0.4577  0.2556  0.4317
 3314SOL    HW121575   2.502   0.135   6.610  0.6798 -0.5834 -0.3281
 3314SOL    HW221576   2.545   0.258   6.561  1.3856 -1.4761  1.0275
 3315SOL     OW21577   1.766   4.471   9.824 -0.3498 -0.6561  0.0176
 3315SOL    HW121578   1.777   4.473   9.919  0.7545 -3.6274 -0.0248
 3315SOL    HW221579   1.789   4.560   9.797  0.0175 -0.3798  1.2471
 3316SOL     OW21580   3.670   3.324   9.698 -0.5468 -0.1194 -0.6738
 3316SOL    HW121581   3.628   3.303   9.781 -0.2725  0.0428 -0.4941
 3316SOL    HW221582   3.626   3.267   9.635  0.4101  2.0952 -3.3395
 3317SOL     OW21583   3.334   2.058   6.397  0.2284 -0.6532 -0.0591
 3317SOL    HW121584   3.420   2.019   6.411  0.0143 -0.7980  0.8899
 3317SOL    HW221585   3.279   1.979   6.398 -0.3657 -0.2364  0.0728
 3318SOL     OW21586   0.027   0.356  13.313  0.1983  0.6175  0.3938
 3318SOL    HW121587   4.728   0.267  13.321  0.8517  0.0884 -2.7442
 3318SOL    HW221588   0.077   0.348  13.394  0.8650 -1.3467 -0.2111
 3319SOL     OW21589   4.198   1.913   4.478  0.0431  0.6346  0.4481
 3319SOL    HW121590   4.242   1.990   4.514  0.5658  0.9908 -0.9380
 3319SOL    HW221591   4.110   1.941   4.505  1.0794  2.8439  1.6058
 3320SOL     OW21592   2.887   1.153   3.190 -0.0837 -0.1394  0.5738
 3320SOL    HW121593   2.882   1.243   3.222  0.8423 -0.0204  0.3862
 3320SOL    HW221594   2.893   1.111   3.276 -0.3732 -1.2810  0.0388
 3321SOL     OW21595   3.637   2.904   8.522  0.2533 -0.1602 -0.1662
 3321SOL    HW121596   3.702   2.878   8.457  0.1275 -1.1195  0.1002
 3321SOL    HW221597   3.577   2.962   8.475  3.5699  2.9477 -0.6441
 3322SOL     OW21598   3.137   1.284   7.224  0.6258  0.2415 -0.3082
 3322SOL    HW121599   3.081   1.210   7.247  1.3382 -1.1496 -3.0535
 3322SOL    HW221600   3.139   1.331   7.307  0.7206 -0.0952 -0.1190
 3323SOL     OW21601   4.446   3.105   6.407  0.1065  0.0601 -0.0752
 3323SOL    HW121602   4.530   3.145   6.428  1.6406 -1.4719 -3.3219
 3323SOL    HW221603   4.377   3.167   6.430  1.1394  1.2679 -0.1972
 3324SOL     OW21604   2.675   1.171   9.375  0.1970  0.2948  0.0627
 3324SOL    HW121605   2.624   1.148   9.453  0.5404  2.4233  0.9094
 3324SOL    HW221606   2.756   1.137   9.413  0.5524  0.7535 -0.2804
 3325SOL     OW21607   0.017   2.650   6.625 -0.7263  0.6032 -0.3822
 3325SOL    HW121608   0.067   2.591   6.569 -0.4204  0.0611  0.4650
 3325SOL    HW221609   4.711   2.594   6.690  1.2343 -0.2570  0.1182
 3326SOL     OW21610   3.441   2.606  13.258 -0.0941 -0.3015 -0.4040
 3326SOL    HW121611   3.382   2.531  13.266 -0.2796 -0.0915  0.1852
 3326SOL    HW221612   3.508   2.564  13.312 -1.2371 -0.9054  0.5585
 3327SOL     OW21613   4.194   4.195   5.104 -0.4653 -0.4610 -0.4772
 3327SOL    HW121614   4.282   4.229   5.117 -0.3615 -1.5002  1.5247
 3327SOL    HW221615   4.172   4.247   5.027  1.9401 -2.0744 -2.2411
 3328SOL     OW21616   3.928   3.164   3.383 -0.3583 -0.5536 -0.2828
 3328SOL    HW121617   3.995   3.124   3.438 -0.0286  1.4266  0.7776
 3328SOL    HW221618   3.952   3.127   3.298 -0.4325  3.8613 -2.2699
 3329SOL     OW21619   1.902   4.365  14.931 -0.0883 -0.0886 -0.1477
 3329SOL    HW121620   1.931   4.283  14.971  0.7854 -1.3970 -3.4708
 3329SOL    HW221621   1.808   4.351  14.936 -0.0724 -0.1203  0.0335
 3330SOL     OW21622   0.636   0.001   8.560 -0.1939  0.1499 -0.2167
 3330SOL    HW121623   0.541   4.729   8.566  0.0437 -2.5415  0.6626
 3330SOL    HW221624   0.646   4.693   8.475 -0.8351 -0.1114 -0.1589
 3331SOL     OW21625   2.706   0.360  15.735  0.6884  0.0220  0.5527
 3331SOL    HW121626   2.726   0.304  15.810  1.6058  0.2063  0.4475
 3331SOL    HW221627   2.783   0.340  15.683 -1.1114 -0.1133 -2.0354
 3332SOL     OW21628   1.197   0.819   6.574 -0.4311 -0.4962  0.4511
 3332SOL    HW121629   1.187   0.909   6.605  0.1340 -0.0824 -0.5810
 3332SOL    HW221630   1.210   0.832   6.480  1.1011 -1.1784  0.5579
 3333SOL     OW21631   3.024   0.342   2.775 -0.1294  0.0560  0.2643
 3333SOL    HW121632   2.938   0.340   2.732 -0.3785  0.4093  0.7464
 3333SOL    HW221633   2.986   0.317   2.859  0.5563 -1.3858  0.1270
 3334SOL     OW21634   1.952   2.904   8.630 -0.4166  0.1754  0.4492
 3334SOL    HW121635   1.861   2.873   8.632 -1.6659  3.6284 -3.2478
 3334SOL    HW221636   1.984   2.891   8.719  0.3123 -0.9457  0.0295
 3335SOL     OW21637   0.735   2.256   0.222  0.5401  0.1137  0.3311
 3335SOL    HW121638   0.764   2.347   0.216 -1.2611  0.7271  0.9378
 3335SOL    HW221639   0.660   2.273   0.279  1.7638  0.6433  1.7745
 3336SOL     OW21640   0.758   2.877   3.794  0.2996 -0.2162  0.2238
 3336SOL    HW121641   0.735   2.969   3.805  0.5436 -0.1536  0.2088
 3336SOL    HW221642   0.734   2.869   3.701  0.3512 -0.3344  0.2209
 3337SOL     OW21643   1.177   1.700  16.913 -0.4481  0.0566  0.7379
 3337SOL    HW121644   1.133   1.738  16.990 -0.9327  1.1041 -0.0569
 3337SOL    HW221645   1.165   1.606  16.926 -1.6089  0.0932 -0.0882
 3338SOL     OW21646   3.305   1.320   1.505  0.0801  0.0098 -0.1380
 3338SOL    HW121647   3.346   1.266   1.437  0.2044  0.6091 -0.5351
 3338SOL    HW221648   3.364   1.305   1.578  0.0292  2.8621  0.4576
 3339SOL     OW21649   0.633   0.315   5.248 -0.5482 -0.1347 -0.1307
 3339SOL    HW121650   0.640   0.268   5.331  0.9679 -0.0991 -0.2355
 3339SOL    HW221651   0.566   0.260   5.208 -0.5326  0.9468 -1.6492
 3340SOL     OW21652   3.352   2.651   5.706  0.3542  0.8182 -0.0376
 3340SOL    HW121653   3.263   2.662   5.672  0.2326  0.3418  0.1280
 3340SOL    HW221654   3.330   2.615   5.791  0.3185  2.4339  0.6353
 3341SOL     OW21655   0.297   3.558  15.676  0.3141  0.4821 -0.0772
 3341SOL    HW121656   0.339   3.637  15.709  0.2772  0.8045 -0.7990
 3341SOL    HW221657   0.310   3.572  15.582 -1.8805 -0.4974 -0.5461
 3342SOL     OW21658   3.687   0.919   2.296  0.1376  0.5693 -0.8768
 3342SOL    HW121659   3.594   0.938   2.296  0.0238 -0.0033 -1.0282
 3342SOL    HW221660   3.722   0.999   2.336  0.5957 -0.4689  0.8013
 3343SOL     OW21661   1.500   1.876   3.616  0.1813  0.1416  0.5827
 3343SOL    HW121662   1.465   1.873   3.705  0.6049 -1.1723  0.6986
 3343SOL    HW221663   1.538   1.963   3.623 -1.5442  1.0045 -0.6886
 3344SOL     OW21664   2.330   4.387   3.466 -0.2451  0.2683  0.1420
 3344SOL    HW121665   2.249   4.426   3.498 -0.7109 -0.2995 -0.3614
 3344SOL    HW221666   2.326   4.295   3.490 -1.4399  0.2255 -0.2636
 3345SOL     OW21667   3.901   1.296   6.397  0.2421  0.2552  0.4389
 3345SOL    HW121668   3.886   1.247   6.316  0.7191  1.3028 -0.2886
 3345SOL    HW221669   3.974   1.251   6.439  0.4982  1.0109  0.8100
 3346SOL     OW21670   1.839   0.111   5.283  0.2316 -0.1573  0.1164
 3346SOL    HW121671   1.871   0.200   5.297  0.2069 -0.3559  1.5120
 3346SOL    HW221672   1.848   0.071   5.370 -1.3950  1.7810  1.1739
 3347SOL     OW21673   3.013   0.341   5.323  0.2194 -0.0947  0.1833
 3347SOL    HW121674   3.070   0.362   5.398  0.8788  0.6689 -0.5356
 3347SOL    HW221675   3.077   0.308   5.261  0.2448 -1.6964  1.0715
 3348SOL     OW21676   1.345   3.250   2.694 -0.7069  0.1948 -0.7642
 3348SOL    HW121677   1.255   3.235   2.663 -1.1122  2.2413 -0.5481
 3348SOL    HW221678   1.360   3.342   2.672  0.2056  0.3608  0.6096
 3349SOL     OW21679   0.894   4.160   2.331  0.0971  0.1101 -0.3298
 3349SOL    HW121680   0.888   4.105   2.252 -0.5567 -0.0500 -0.1681
 3349SOL    HW221681   0.813   4.211   2.329  0.1734  0.1809 -2.2618
 3350SOL     OW21682   3.125   3.853   0.132  0.1374 -0.2715  0.0704
 3350SOL    HW121683   3.076   3.926   0.094  0.5055  0.0475  0.2037
 3350SOL    HW221684   3.076   3.786   0.084  0.7007  0.2139 -1.1862
 3351SOL     OW21685   2.668   3.588  12.407 -0.2253  0.0753 -0.2795
 3351SOL    HW121686   2.612   3.632  12.343  1.9298  1.3812 -1.2664
 3351SOL    HW221687   2.737   3.547  12.357 -0.8432 -3.0531  1.4419
 3352SOL     OW21688   4.045   2.932   5.410  0.1991  0.2051 -0.2171
 3352SOL    HW121689   4.104   2.894   5.345 -0.9694 -1.4390 -0.3416
 3352SOL    HW221690   4.101   2.922   5.486 -2.0870 -0.2741  1.4060
 3353SOL     OW21691   2.898   1.358  16.375 -0.0725  0.3874  0.1417
 3353SOL    HW121692   2.827   1.303  16.408 -0.4796  0.9076  0.1334
 3353SOL    HW221693   2.947   1.300  16.318 -0.1164 -0.1487  0.6484
 3354SOL     OW21694   3.322   2.757   4.671  0.4879  0.3502 -0.4825
 3354SOL    HW121695   3.375   2.695   4.621 -0.7404  0.4858 -1.9386
 3354SOL    HW221696   3.289   2.698   4.738  1.6250  0.6104  0.3135
 3355SOL     OW21697   1.798   1.535   8.372  0.1615  0.1403 -0.0158
 3355SOL    HW121698   1.742   1.612   8.376 -1.4741 -1.0104 -1.0155
 3355SOL    HW221699   1.748   1.470   8.422  1.1821 -0.2571  0.4981
 3356SOL     OW21700   2.314   1.716  11.445 -0.1109  0.0138 -0.6197
 3356SOL    HW121701   2.223   1.742  11.451 -0.7857 -1.8565 -2.5778
 3356SOL    HW221702   2.348   1.724  11.356  0.0416  0.5667 -0.5081
 3357SOL     OW21703   1.748   0.667   4.047 -0.2521  0.4662  0.0337
 3357SOL    HW121704   1.707   0.590   4.084  2.9464 -1.8343 -1.1830
 3357SOL    HW221705   1.703   0.670   3.962 -0.5049  0.5549  0.1722
 3358SOL     OW21706   0.809   3.052  11.458 -0.2367  0.0995 -0.1750
 3358SOL    HW121707   0.838   3.140  11.482 -1.8152  0.2334  1.2231
 3358SOL    HW221708   0.724   3.060  11.502 -0.3480  1.1253 -0.5809
 3359SOL     OW21709   3.335   2.629   1.576  0.6895 -0.8603 -0.2994
 3359SOL    HW121710   3.371   2.694   1.636 -0.9199 -0.0282 -0.2393
 3359SOL    HW221711   3.413   2.619   1.521  0.0895  0.9842 -1.4778
 3360SOL     OW21712   3.115   1.412   2.117 -0.6078  0.2755  0.0236
 3360SOL    HW121713   3.178   1.478   2.089  1.1684 -0.9441  1.1752
 3360SOL    HW221714   3.106   1.372   2.031 -2.2119  0.0427  0.3002
 3361SOL     OW21715   3.962   0.069   4.906  0.2613  0.2920  0.3666
 3361SOL    HW121716   4.004   0.132   4.964  0.1417  1.9540 -1.3490
 3361SOL    HW221717   4.036   0.010   4.921 -1.7466 -2.1813  0.6149
 3362SOL     OW21718   3.918   3.333   6.687  0.3636 -0.4532  0.2210
 3362SOL    HW121719   3.945   3.421   6.661  0.0854 -0.4235  0.0280
 3362SOL    HW221720   3.880   3.350   6.774 -1.5539 -1.4995 -0.4075
 3363SOL     OW21721   2.286   4.631   6.839  0.1723 -0.2236 -0.3560
 3363SOL    HW121722   2.250   4.673   6.917 -1.2634  0.8786 -1.6181
 3363SOL    HW221723   2.298   4.544   6.876 -1.5409  0.6410  2.2361
 3364SOL     OW21724   2.064   3.344   2.701  0.3302 -0.0657 -0.3653
 3364SOL    HW121725   2.155   3.365   2.678  0.1901 -0.0069 -0.8693
 3364SOL    HW221726   2.041   3.425   2.747 -0.3953  0.2988 -1.3885
 3365SOL     OW21727   3.230   2.066  17.574  0.3848 -0.6573  0.6814
 3365SOL    HW121728   3.164   2.017  17.623 -0.7321 -0.2949 -0.4537
 3365SOL    HW221729   3.193   2.154  17.566  1.1152 -0.5226 -1.3022
 3366SOL     OW21730   0.929   4.636  14.201 -0.0595 -0.4940 -0.2178
 3366SOL    HW121731   0.845   4.591  14.203  0.3084 -1.0245  2.8627
 3366SOL    HW221732   0.923   4.683  14.284  1.0002  1.7446 -1.3993
 3367SOL     OW21733   3.365   3.795   7.244  0.2289  0.0534 -0.0437
 3367SOL    HW121734   3.345   3.871   7.298 -2.4476  0.0758 -1.0417
 3367SOL    HW221735   3.300   3.730   7.269  0.0085  0.3187  0.0760
 3368SOL     OW21736   0.057   0.051   6.164  1.0581  0.3732  0.0728
 3368SOL    HW121737   0.131   0.108   6.184  0.6976  0.8485  0.0331
 3368SOL    HW221738   0.084   0.014   6.080 -0.2733  0.9680 -0.6136
 3369SOL     OW21739   1.720   4.623   2.928  0.5770  0.2300  0.3037
 3369SOL    HW121740   1.768   4.638   3.009  0.4049 -1.7867  0.7747
 3369SOL    HW221741   1.682   4.710   2.915  2.6394  1.0442 -0.2760
 3370SOL     OW21742   0.900   2.632   7.558  0.2732  0.3019  0.4331
 3370SOL    HW121743   0.921   2.724   7.538 -0.7989  0.6867  1.0741
 3370SOL    HW221744   0.861   2.607   7.474  1.0449  1.1506 -0.1860
 3371SOL     OW21745   0.804   3.734   2.082  0.3375  0.6441 -0.2915
 3371SOL    HW121746   0.890   3.693   2.080  1.3011  2.5977  1.2816
 3371SOL    HW221747   0.753   3.653   2.079  0.7867  0.3600 -0.1512
 3372SOL     OW21748   0.101   4.314   7.683  0.3953  0.3832  0.4260
 3372SOL    HW121749   0.030   4.250   7.672  1.0505 -0.0244 -1.3197
 3372SOL    HW221750   0.172   4.271   7.637  1.5316  2.5500  0.1520
 3373SOL     OW21751   3.241   1.520  11.982 -0.1003 -0.1137  0.1806
 3373SOL    HW121752   3.276   1.548  12.067  1.2047 -0.7377 -0.1541
 3373SOL    HW221753   3.210   1.433  12.007 -2.3799  1.4890  2.9667
 3374SOL     OW21754   0.293   2.040   3.743 -0.4587 -0.0646 -0.2382
 3374SOL    HW121755   0.322   1.951   3.765 -0.7313 -0.2969 -0.8064
 3374SOL    HW221756   0.316   2.087   3.823 -0.0389 -0.2607 -0.2441
 3375SOL     OW21757   1.681   3.541   0.966  0.3085 -0.4830  0.2568
 3375SOL    HW121758   1.765   3.533   0.921 -0.5654 -1.7232 -1.1681
 3375SOL    HW221759   1.714   3.522   1.054  1.7251 -0.2453 -0.2249
 3376SOL     OW21760   1.806   1.147   2.725 -0.1264 -0.6382  0.2817
 3376SOL    HW121761   1.759   1.067   2.698  1.9654 -1.6806 -0.2499
 3376SOL    HW221762   1.771   1.215   2.667 -2.0482 -1.3109  0.6466
 3377SOL     OW21763   2.558   1.531   5.512  0.2134  0.1342 -0.1733
 3377SOL    HW121764   2.518   1.607   5.555 -1.5993 -0.7874 -0.2030
 3377SOL    HW221765   2.580   1.473   5.585 -1.3780 -0.4173 -0.1354
 3378SOL     OW21766   3.315   4.329  10.723 -0.3568 -0.2946 -0.0111
 3378SOL    HW121767   3.243   4.266  10.721  0.5664 -1.3389 -0.0978
 3378SOL    HW221768   3.352   4.322  10.635  1.0104 -1.9929  0.7080
 3379SOL     OW21769   4.656   0.098   2.643 -0.2045  0.1049 -0.3845
 3379SOL    HW121770   4.624   0.122   2.556 -1.8119 -2.1843 -0.3961
 3379SOL    HW221771   4.586   0.123   2.703  0.3926  3.1063 -0.9442
 3380SOL     OW21772   2.603   3.246   2.368 -0.2522  0.2136  0.1390
 3380SOL    HW121773   2.544   3.221   2.439  0.7901  0.3981  1.0693
 3380SOL    HW221774   2.643   3.159   2.359 -0.3677 -0.0319  1.9484
 3381SOL     OW21775   1.843   1.402   3.307 -0.0605 -0.6156 -0.6248
 3381SOL    HW121776   1.929   1.415   3.268 -0.1543 -0.4884 -0.7944
 3381SOL    HW221777   1.813   1.493   3.304  0.2729 -0.4126  1.8198
 3382SOL     OW21778   3.597   2.504   8.582 -0.0414 -0.1158 -0.2749
 3382SOL    HW121779   3.592   2.488   8.676 -3.4991  3.8302  0.2192
 3382SOL    HW221780   3.588   2.600   8.581  0.6080 -0.0672 -1.3953
 3383SOL     OW21781   3.852   0.335   2.010  0.5407  0.9288 -0.7906
 3383SOL    HW121782   3.947   0.340   2.000  0.8045 -2.5745 -0.1206
 3383SOL    HW221783   3.832   0.335   1.916  2.0537  2.6109 -1.1203
 3384SOL     OW21784   0.548   1.689  16.232 -0.2415 -0.1549  0.1617
 3384SOL    HW121785   0.579   1.742  16.159 -2.0870 -1.8558 -1.8634
 3384SOL    HW221786   0.473   1.743  16.256 -0.4740  0.2697 -1.5550
 3385SOL     OW21787   2.540   1.861   3.839  0.1494  0.0550 -0.1361
 3385SOL    HW121788   2.544   1.874   3.934  1.5016 -1.3597  0.0066
 3385SOL    HW221789   2.634   1.874   3.823  0.0334 -1.7962 -2.2947
 3386SOL     OW21790   2.858   3.151   5.321 -0.3253 -0.3565 -0.0750
 3386SOL    HW121791   2.931   3.213   5.314 -0.9858  0.2840 -1.3782
 3386SOL    HW221792   2.907   3.072   5.297  1.9599  1.3902 -1.1461
 3387SOL     OW21793   0.989   2.011   2.291  0.3845 -0.5624  0.3013
 3387SOL    HW121794   0.981   1.918   2.312  1.1473 -0.3078  1.7373
 3387SOL    HW221795   0.912   2.021   2.235  1.8545  0.0521 -1.5749
 3388SOL     OW21796   1.260   2.439   4.696 -0.4297 -0.3488 -0.2776
 3388SOL    HW121797   1.168   2.468   4.699 -0.4918 -0.5073 -0.6371
 3388SOL    HW221798   1.303   2.517   4.731 -0.9572 -0.1451 -0.0830
 3389SOL     OW21799   3.907   2.249   4.215  0.0316 -0.0356  0.2452
 3389SOL    HW121800   3.855   2.171   4.233  1.0998 -0.8979 -0.4560
 3389SOL    HW221801   3.941   2.277   4.300  1.0156 -0.6448  0.0510
 3390SOL     OW21802   2.431   1.209   3.422 -0.3002  0.2239 -0.0680
 3390SOL    HW121803   2.478   1.237   3.500 -1.5150  3.0413 -0.3786
 3390SOL    HW221804   2.441   1.286   3.367  2.3517 -0.7321 -0.9218
 3391SOL     OW21805   0.913   3.873   2.683 -0.3423 -0.1924 -0.2026
 3391SOL    HW121806   0.918   3.789   2.638  1.9242  0.1852 -0.6476
 3391SOL    HW221807   0.975   3.927   2.634  0.6488 -1.4593 -0.3185
 3392SOL     OW21808   0.395   0.811   9.820 -0.5053 -1.3795  0.1905
 3392SOL    HW121809   0.376   0.785   9.729 -1.0244  1.8067 -0.5922
 3392SOL    HW221810   0.355   0.737   9.866 -0.6995 -1.8251 -0.6838
 3393SOL     OW21811   4.683   2.589   5.990  0.1998 -0.6202 -0.2775
 3393SOL    HW121812   4.659   2.680   5.973  0.9431 -0.2658  0.5677
 3393SOL    HW221813   0.040   2.594   6.016  0.1070 -0.2649 -0.0210
 3394SOL     OW21814   4.332   2.092   3.673  0.1675  0.2363 -0.0600
 3394SOL    HW121815   4.248   2.094   3.626 -0.0185  0.5906  0.2886
 3394SOL    HW221816   4.319   2.038   3.751 -0.2008  1.2802  0.6028
 3395SOL     OW21817   0.653   0.281   7.059 -0.3079 -0.4437 -0.1717
 3395SOL    HW121818   0.568   0.314   7.031  0.7235  0.7240 -1.9483
 3395SOL    HW221819   0.680   0.363   7.101  0.6597  0.3648 -2.3262
 3396SOL     OW21820   2.479   0.323   5.457  0.2144 -0.3072 -0.1532
 3396SOL    HW121821   2.570   0.322   5.485  0.0384 -0.3671  0.4196
 3396SOL    HW221822   2.481   0.366   5.371  1.1117 -0.0463 -0.0032
 3397SOL     OW21823   1.290   0.906   8.378 -0.6976  0.2048  0.0185
 3397SOL    HW121824   1.349   0.901   8.454 -0.8539 -1.3266  0.0319
 3397SOL    HW221825   1.314   0.995   8.351  0.1870 -0.7989 -2.4396
 3398SOL     OW21826   1.468   2.412   6.410  0.3708 -0.5442 -0.1708
 3398SOL    HW121827   1.394   2.473   6.410 -1.1187 -2.3665  1.2540
 3398SOL    HW221828   1.544   2.461   6.443 -2.2053  3.3053  0.0855
 3399SOL     OW21829   1.420   0.023   6.719  0.8531 -0.1678  0.3115
 3399SOL    HW121830   1.478   4.685   6.741  0.1666 -1.0571 -0.7988
 3399SOL    HW221831   1.355   4.722   6.658 -0.3784  1.6298  0.5598
 3400SOL     OW21832   3.283   0.834   8.732  0.4999 -0.1777  0.7945
 3400SOL    HW121833   3.223   0.846   8.659  1.7880  0.6452 -0.1416
 3400SOL    HW221834   3.222   0.833   8.806  0.8286 -0.1320  1.0661
 3401SOL     OW21835   1.452   3.717   5.224 -0.0589 -0.3538 -0.1533
 3401SOL    HW121836   1.479   3.729   5.315 -0.3510  1.7226 -0.3338
 3401SOL    HW221837   1.416   3.629   5.217 -0.5976 -0.3948  3.0402
 3402SOL     OW21838   0.277   0.288  10.032  0.2897 -0.1900  0.2176
 3402SOL    HW121839   0.205   0.255  10.086  0.0071 -1.6118 -1.0215
 3402SOL    HW221840   0.250   0.257   9.946 -1.7105  0.0723  0.7479
 3403SOL     OW21841   0.310   0.656   7.847  0.5525 -0.3292  0.1336
 3403SOL    HW121842   0.216   0.661   7.827  0.2966 -0.9766  1.2038
 3403SOL    HW221843   0.325   0.562   7.841 -1.2465 -0.6115 -0.1130
 3404SOL     OW21844   1.372   2.535   1.842  0.4481 -0.0224  0.0260
 3404SOL    HW121845   1.335   2.595   1.778  0.5482 -0.8657 -0.8216
 3404SOL    HW221846   1.375   2.588   1.921  3.6178 -2.3621  1.5074
 3405SOL     OW21847   3.457   2.041   6.715  0.5858 -0.2831 -0.4693
 3405SOL    HW121848   3.502   2.009   6.637  2.9596 -1.2922  1.3099
 3405SOL    HW221849   3.383   2.093   6.683 -1.8333 -2.8374  1.0317
 3406SOL     OW21850   1.653   4.223   3.451  0.0279  0.5461 -0.0671
 3406SOL    HW121851   1.707   4.243   3.528  2.0543  0.7204 -1.5346
 3406SOL    HW221852   1.693   4.139   3.430  0.3820  1.1198 -1.7091
 3407SOL     OW21853   1.744   1.108   5.196 -0.1366  0.8745 -0.2444
 3407SOL    HW121854   1.811   1.151   5.248  0.5979  0.6153 -0.9735
 3407SOL    HW221855   1.703   1.187   5.161  1.1496  1.3460 -0.6858
 3408SOL     OW21856   3.887   2.075  12.825 -0.3497  0.0464 -0.1671
 3408SOL    HW121857   3.935   2.139  12.772 -0.7911  0.2627 -0.3026
 3408SOL    HW221858   3.957   2.009  12.824 -0.8045 -0.4524  0.9538
 3409SOL     OW21859   4.620   0.505   6.629  0.1814  0.3625 -0.2833
 3409SOL    HW121860   4.658   0.465   6.551  0.8224 -0.3006  0.3763
 3409SOL    HW221861   4.566   0.437   6.668 -0.0880  0.3422 -0.7004
 3410SOL     OW21862   2.093   0.705  13.046  0.6862 -0.6028  0.4949
 3410SOL    HW121863   2.048   0.653  12.980 -3.5697  0.1900  2.7883
 3410SOL    HW221864   2.175   0.735  13.005 -0.6537 -0.0577 -1.7507
 3411SOL     OW21865   1.828   0.976   0.130 -0.4020  0.3184 -0.4816
 3411SOL    HW121866   1.874   0.935   0.203  0.3456  0.1422 -1.0479
 3411SOL    HW221867   1.846   0.912   0.061  3.4444  1.5848 -0.6407
 3412SOL     OW21868   3.053   2.955  17.670  0.1538  0.1726  0.0583
 3412SOL    HW121869   2.999   3.022  17.711 -1.7596 -0.8259 -0.8429
 3412SOL    HW221870   3.023   2.957  17.579  2.2324  0.1200 -0.6408
 3413SOL     OW21871   3.930   4.171   2.862 -0.4752 -0.1845 -0.0296
 3413SOL    HW121872   3.942   4.249   2.807  0.8211  0.0610  0.5870
 3413SOL    HW221873   3.990   4.187   2.934  2.0538 -0.3078 -2.0918
 3414SOL     OW21874   2.029   1.667  11.020  0.2212 -0.2321  0.1227
 3414SOL    HW121875   2.100   1.647  11.081 -0.3140 -1.4020  0.3454
 3414SOL    HW221876   1.978   1.587  11.028 -0.9927  0.2269 -3.4452
 3415SOL     OW21877   1.459   0.079   3.780 -0.2444 -0.5079  0.2542
 3415SOL    HW121878   1.392   0.119   3.726  0.0681  0.1424  0.3548
 3415SOL    HW221879   1.448   0.132   3.859 -0.5001 -1.0094  0.5569
 3416SOL     OW21880   1.578   2.203   7.078 -0.0835 -0.2776  0.6544
 3416SOL    HW121881   1.537   2.207   7.165  1.9463 -1.2096  1.6350
 3416SOL    HW221882   1.502   2.175   7.027 -0.6045  0.9190  0.7768
 3417SOL     OW21883   3.947   4.014   2.627 -0.0802  0.4301  0.0790
 3417SOL    HW121884   3.996   3.939   2.661 -1.4794 -0.7170 -0.4110
 3417SOL    HW221885   3.942   4.069   2.706  1.1244 -1.3139  1.3902
 3418SOL     OW21886   0.205   3.446   1.751  0.3783 -0.1686 -0.1203
 3418SOL    HW121887   0.252   3.478   1.674 -0.6606  3.6681  0.8211
 3418SOL    HW221888   0.117   3.435   1.714 -0.2273 -0.4413  1.4033
 3419SOL     OW21889   4.433   1.073   7.969  0.2278 -0.7344  0.1519
 3419SOL    HW121890   4.489   1.124   8.028 -0.3443  0.8970 -0.7264
 3419SOL    HW221891   4.345   1.101   7.995  0.8341  0.8062  0.5056
 3420SOL     OW21892   4.347   0.822   7.866 -0.0546  0.3120  0.1221
 3420SOL    HW121893   4.345   0.915   7.888 -1.0580 -0.1076  1.8412
 3420SOL    HW221894   4.257   0.791   7.881 -0.1594  0.6192  0.1277
 3421SOL     OW21895   3.033   4.074   4.244 -0.1794 -0.8288  0.3162
 3421SOL    HW121896   3.007   4.119   4.324  1.8721 -0.3556  0.7189
 3421SOL    HW221897   3.050   3.983   4.269 -0.6726 -0.8878  0.4492
 3422SOL     OW21898   0.939   2.882   9.203 -0.1286  0.6336  0.0273
 3422SOL    HW121899   0.927   2.923   9.289  0.1014  2.7252 -0.9284
 3422SOL    HW221900   0.860   2.910   9.157  1.0447 -1.4369 -3.2561
 3423SOL     OW21901   1.171   3.735  11.515 -0.7267 -0.7241  0.5618
 3423SOL    HW121902   1.244   3.766  11.462 -1.1974 -1.3520 -0.4444
 3423SOL    HW221903   1.129   3.819  11.533  0.3582  0.0329 -0.4775
 3424SOL     OW21904   3.674   0.470   4.223 -0.0607  0.4614  0.3939
 3424SOL    HW121905   3.754   0.443   4.179 -0.7970  2.0764 -1.9675
 3424SOL    HW221906   3.693   0.433   4.309 -1.7126  0.6342  0.8436
 3425SOL     OW21907   3.165   1.904   2.137  0.1341 -0.0133  0.4140
 3425SOL    HW121908   3.165   1.850   2.058 -1.5135  2.6531 -1.3857
 3425SOL    HW221909   3.090   1.954   2.108 -0.2756 -0.5934  0.4660
 3426SOL     OW21910   2.507   1.137  12.592 -0.6123  0.1409 -0.1125
 3426SOL    HW121911   2.539   1.051  12.568 -1.3302  0.1030 -0.9455
 3426SOL    HW221912   2.579   1.184  12.633 -0.2394 -1.3336  0.9071
 3427SOL     OW21913   1.353   3.375   7.709 -0.1908  0.0285  0.4052
 3427SOL    HW121914   1.382   3.357   7.620 -0.8049 -0.2815  0.2649
 3427SOL    HW221915   1.324   3.292   7.747  0.2011  0.0704  0.7988
 3428SOL     OW21916   0.552   0.347  16.074 -0.1290  0.2539  0.2154
 3428SOL    HW121917   0.504   0.266  16.093  0.4169 -0.5284 -1.6329
 3428SOL    HW221918   0.523   0.411  16.139  0.3159 -0.9955  1.6370
 3429SOL     OW21919   3.968   0.862   2.718  0.2259  0.0995 -0.3348
 3429SOL    HW121920   3.939   0.774   2.742 -2.1325  1.4597  1.8568
 3429SOL    HW221921   3.896   0.918   2.749 -0.1890 -0.7183  0.1808
 3430SOL     OW21922   0.420   2.195   5.782 -0.6035  0.3710  0.0527
 3430SOL    HW121923   0.334   2.158   5.801 -0.6905  0.2071 -0.6362
 3430SOL    HW221924   0.448   2.213   5.871 -0.5510  1.6290 -0.2230
 3431SOL     OW21925   1.290   0.108   7.051 -0.8095 -0.4355  0.0677
 3431SOL    HW121926   1.271   0.190   7.005 -1.9017 -0.0779  1.1317
 3431SOL    HW221927   1.205   0.067   7.064 -1.2521  0.7147  0.8576
 3432SOL     OW21928   0.762   2.703  12.874 -0.6572  0.4198  0.4704
 3432SOL    HW121929   0.803   2.643  12.936 -5.5158 -2.8520  0.4782
 3432SOL    HW221930   0.774   2.662  12.789  1.7210  1.5118  0.2580
 3433SOL     OW21931   0.456   0.628   3.551 -0.4819 -0.6752  0.5492
 3433SOL    HW121932   0.537   0.676   3.565 -1.5461  1.3204 -0.0304
 3433SOL    HW221933   0.413   0.687   3.490  0.9554 -0.6804 -0.4603
 3434SOL     OW21934   0.578   2.990   9.321 -0.8839  0.4898  0.2717
 3434SOL    HW121935   0.529   3.072   9.317 -0.8247  0.5348  0.4743
 3434SOL    HW221936   0.621   2.990   9.236  0.1943 -1.9888  0.8199
 3435SOL     OW21937   2.487   1.559   0.386 -0.1463 -0.6785  0.2809
 3435SOL    HW121938   2.519   1.627   0.444 -2.8476  0.0852  0.8928
 3435SOL    HW221939   2.488   1.484   0.446 -0.2507  0.3491  1.5650
 3436SOL     OW21940   2.346   2.997   1.896 -0.9162 -0.3122  0.0430
 3436SOL    HW121941   2.315   2.910   1.872  1.3345 -0.8883 -0.7608
 3436SOL    HW221942   2.379   3.040   1.817  0.0384 -0.6092  0.2811
 3437SOL     OW21943   2.326   4.114   0.896 -0.5221 -0.0071  0.3208
 3437SOL    HW121944   2.390   4.069   0.950 -1.8176 -0.8191  1.1838
 3437SOL    HW221945   2.388   4.151   0.833 -0.1591 -1.3292 -0.1036
 3438SOL     OW21946   4.366   2.719   3.065 -0.1206 -0.1029  0.4407
 3438SOL    HW121947   4.423   2.671   3.005 -0.5575 -0.5063  0.3466
 3438SOL    HW221948   4.382   2.673   3.147 -0.2249  0.9107  1.0324
 3439SOL     OW21949   0.872   1.233   7.763  0.2812 -0.0543 -0.1405
 3439SOL    HW121950   0.907   1.277   7.685  1.3876 -1.7187 -0.5911
 3439SOL    HW221951   0.835   1.151   7.729  0.2924 -0.0622 -0.1341
 3440SOL     OW21952   2.690   2.773   2.666  0.1838 -0.0773  0.0250
 3440SOL    HW121953   2.697   2.862   2.699  0.4266  0.2098 -0.7889
 3440SOL    HW221954   2.692   2.724   2.748  2.2900  0.3196  0.2226
 3441SOL     OW21955   0.256   0.166   9.770  0.1616  0.1173 -0.0908
 3441SOL    HW121956   0.252   0.081   9.727  0.0067  0.8394 -1.5324
 3441SOL    HW221957   0.260   0.219   9.690  1.2823 -1.8471 -1.3472
 3442SOL     OW21958   1.150   3.647  12.456  0.0350 -0.2949 -0.0638
 3442SOL    HW121959   1.118   3.628  12.368 -0.0103  0.2274 -0.1595
 3442SOL    HW221960   1.225   3.588  12.451  0.2635  0.2392 -2.6283
 3443SOL     OW21961   0.596   0.113   6.224 -0.1122  0.6032 -0.1491
 3443SOL    HW121962   0.673   0.161   6.192 -0.1118 -0.5438 -1.8703
 3443SOL    HW221963   0.633   0.038   6.270 -2.9248 -1.3913 -1.1037
 3444SOL     OW21964   3.410   2.602   8.013 -0.0925 -0.4835 -0.0759
 3444SOL    HW121965   3.426   2.569   8.101 -0.8953  0.0376  0.2674
 3444SOL    HW221966   3.481   2.666   8.010  1.0470 -1.7842 -0.7085
 3445SOL     OW21967   4.621   0.459   0.200 -0.7673 -0.3704 -0.1826
 3445SOL    HW121968   4.633   0.553   0.182  1.0495 -0.1194  2.4133
 3445SOL    HW221969   4.665   0.416   0.126  0.2717  0.2649  0.0632
 3446SOL     OW21970   3.668   1.109   2.994 -0.1214 -0.4494 -0.5362
 3446SOL    HW121971   3.585   1.155   3.008 -0.3116 -0.1284 -2.6844
 3446SOL    HW221972   3.663   1.046   3.066 -0.6637  0.3310  0.1053
 3447SOL     OW21973   4.420   4.227   7.946 -0.7614 -0.0700  0.7399
 3447SOL    HW121974   4.377   4.266   8.022  0.6918  1.4757  0.7778
 3447SOL    HW221975   4.473   4.303   7.926 -0.5175 -0.3028  0.4933
 3448SOL     OW21976   1.493   1.800   5.330 -0.2382  0.3838 -0.2652
 3448SOL    HW121977   1.576   1.759   5.355 -0.6975  0.3086  1.1625
 3448SOL    HW221978   1.510   1.894   5.335  0.5549  0.1896  0.6173
 3449SOL     OW21979   3.676   4.641  12.341  0.8739 -0.0690  0.5574
 3449SOL    HW121980   3.621   4.563  12.347 -0.7903  1.0460 -0.4058
 3449SOL    HW221981   3.754   4.603  12.300 -0.2208 -0.5554 -1.0438
 3450SOL     OW21982   1.544   4.507   6.812  0.1131 -0.1026  0.0006
 3450SOL    HW121983   1.600   4.430   6.817 -0.6681 -0.7174 -0.8662
 3450SOL    HW221984   1.527   4.521   6.905 -1.5580  0.6261 -0.4213
 3451SOL     OW21985   3.390   3.186   2.739  1.0421 -0.4416  0.0786
 3451SOL    HW121986   3.363   3.260   2.685  2.2947 -0.2014 -0.2264
 3451SOL    HW221987   3.475   3.181   2.696  0.8864  1.5532 -0.4714
 3452SOL     OW21988   0.920   0.460   6.859 -0.1071  0.1105 -0.3346
 3452SOL    HW121989   0.933   0.551   6.833  0.1821 -0.0300 -0.6863
 3452SOL    HW221990   0.876   0.463   6.944  0.6189 -1.6768  0.1075
 3453SOL     OW21991   3.893   1.851   4.235 -0.3972 -0.0445  0.0215
 3453SOL    HW121992   3.982   1.816   4.234 -0.5616 -0.4697  0.2674
 3453SOL    HW221993   3.838   1.774   4.246  1.9134 -1.7983 -0.5722
 3454SOL     OW21994   3.321   3.819   7.636  0.8760  0.0411  0.9282
 3454SOL    HW121995   3.319   3.752   7.705  1.9068  0.1499  1.0700
 3454SOL    HW221996   3.322   3.902   7.684 -1.0443 -0.6744  2.2100
 3455SOL     OW21997   0.674   3.765  16.253  0.3718  0.3136 -0.0401
 3455SOL    HW121998   0.734   3.763  16.179  0.3831  1.3804 -0.0680
 3455SOL    HW221999   0.676   3.671  16.271 -0.1517  0.4460  0.6997
 3456SOL     OW22000   1.994   0.999   8.940  0.1737  0.1795 -0.5712
 3456SOL    HW122001   2.005   0.917   8.989  0.6276  0.9267  0.5882
 3456SOL    HW222002   1.900   1.009   8.948  0.3991  0.8815  1.1386
 3457SOL     OW22003   3.280   3.837   8.107 -0.4399  0.0109 -0.2473
 3457SOL    HW122004   3.268   3.773   8.178  2.3146  0.7319  0.8696
 3457SOL    HW222005   3.243   3.919   8.138 -1.1767 -0.4606  0.1222
 3458SOL     OW22006   2.375   0.418   6.957  0.3985 -0.4425  0.3635
 3458SOL    HW122007   2.382   0.448   6.866  1.7013  1.7565  1.1702
 3458SOL    HW222008   2.281   0.407   6.971 -0.1419  1.6557 -1.5532
 3459SOL     OW22009   4.360   1.192   8.607  0.1262  0.2684  0.5289
 3459SOL    HW122010   4.418   1.139   8.552  0.5616  1.5153 -0.2172
 3459SOL    HW222011   4.342   1.277   8.565  1.5378 -0.3837 -1.3909
 3460SOL     OW22012   2.054   3.607   3.310 -0.3700 -0.8967 -0.2834
 3460SOL    HW122013   1.985   3.568   3.364  0.4017  0.8227  1.9409
 3460SOL    HW222014   2.114   3.533   3.302 -0.9888 -1.3323 -0.8638
 3461SOL     OW22015   3.363   0.620   5.386  0.0334 -0.1446 -0.1230
 3461SOL    HW122016   3.291   0.568   5.424 -0.5602  2.2449  2.0048
 3461SOL    HW222017   3.385   0.569   5.308 -0.6116 -0.5333 -0.0517
 3462SOL     OW22018   3.158   1.061   4.014 -0.4971 -0.1947 -0.4086
 3462SOL    HW122019   3.077   1.110   4.001 -0.8147 -0.6241 -0.0634
 3462SOL    HW222020   3.151   1.059   4.109 -0.3297  0.6576 -0.3790
 3463SOL     OW22021   2.628   2.143   2.038 -0.1715  0.3162 -0.3717
 3463SOL    HW122022   2.654   2.234   2.025 -0.8530  0.0879 -3.4614
 3463SOL    HW222023   2.560   2.138   1.971  0.0397  2.2733 -0.7034
 3464SOL     OW22024   3.663   1.098   8.828  0.5266  0.0807 -0.2715
 3464SOL    HW122025   3.578   1.141   8.824  0.2971 -0.0437  3.7272
 3464SOL    HW222026   3.704   1.161   8.887  0.2465  2.2695 -2.4168
 3465SOL     OW22027   2.171   3.915   6.370 -0.0845  0.1952  0.9119
 3465SOL    HW122028   2.198   3.919   6.461  2.4396  2.2611  0.0676
 3465SOL    HW222029   2.249   3.943   6.322 -0.4262 -0.4435 -0.0186
 3466SOL     OW22030   2.007   3.372   7.708 -0.5354 -0.8130 -0.5215
 3466SOL    HW122031   1.961   3.290   7.727 -2.0142  0.0753 -0.3093
 3466SOL    HW222032   2.020   3.365   7.613 -0.7959  0.3330 -0.6341
 3467SOL     OW22033   0.924   2.575   6.881 -0.1469  0.1121  0.1686
 3467SOL    HW122034   0.974   2.511   6.830 -0.6020  0.3958 -0.6337
 3467SOL    HW222035   0.844   2.564   6.829 -0.5785  0.1245  0.8258
 3468SOL     OW22036   2.617   1.991  17.366 -0.2984  0.2242  0.2866
 3468SOL    HW122037   2.626   1.948  17.281 -1.5477  0.7696 -0.1187
 3468SOL    HW222038   2.700   1.979  17.412 -0.0101 -0.0684 -0.3071
 3469SOL     OW22039   0.863   1.575   3.536 -0.2414 -0.6848  0.3801
 3469SOL    HW122040   0.785   1.593   3.588  0.8147  0.8970  1.4196
 3469SOL    HW222041   0.871   1.644   3.471 -1.7420 -2.1402 -1.3491
 3470SOL     OW22042   1.391   2.942   7.893  0.1944 -0.3261  0.5248
 3470SOL    HW122043   1.347   2.969   7.813  1.4867  2.1713  0.6685
 3470SOL    HW222044   1.396   3.029   7.932  0.3384  0.1177 -0.5051
 3471SOL     OW22045   3.245   3.698   3.222 -0.0935 -0.1733 -0.5881
 3471SOL    HW122046   3.316   3.643   3.253 -0.1851  1.4732  2.5624
 3471SOL    HW222047   3.167   3.642   3.224  1.3622 -2.2235 -0.8639
 3472SOL     OW22048   1.700   3.176  17.620 -0.0870 -0.1742  0.1046
 3472SOL    HW122049   1.723   3.218  17.702  0.3494  0.1718 -0.1955
 3472SOL    HW222050   1.696   3.251  17.560  2.3042 -0.1228  0.0100
 3473SOL     OW22051   1.507   4.331   9.075 -0.4964  0.0900  0.6210
 3473SOL    HW122052   1.530   4.279   9.151 -1.8412 -2.9480 -1.0688
 3473SOL    HW222053   1.589   4.348   9.027 -0.3787  0.6117  1.0084
 3474SOL     OW22054   0.128   2.362   9.496  0.3002 -0.5296  0.1743
 3474SOL    HW122055   0.152   2.283   9.545  0.9508 -1.7704 -2.1278
 3474SOL    HW222056   0.116   2.316   9.413 -0.8084  0.3765 -0.1728
 3475SOL     OW22057   3.823   1.043   3.758 -0.2359  0.0383  0.4345
 3475SOL    HW122058   3.772   1.041   3.676 -0.0798  0.8803  0.3129
 3475SOL    HW222059   3.897   1.097   3.729  0.0034 -1.0392 -0.9692
 3476SOL     OW22060   3.024   2.088   7.303 -0.1808 -0.1537 -0.2777
 3476SOL    HW122061   3.113   2.069   7.275 -0.3334 -0.5144 -0.5179
 3476SOL    HW222062   3.031   2.182   7.285  2.5484  0.0528  1.8540
 3477SOL     OW22063   3.707   1.359   5.745 -0.0237  0.5558 -0.0515
 3477SOL    HW122064   3.706   1.283   5.687  0.3418 -0.1508  0.8667
 3477SOL    HW222065   3.614   1.349   5.766  0.1692 -0.8581  0.1035
 3478SOL     OW22066   1.732   2.603   4.663 -0.4701  0.7491 -0.3556
 3478SOL    HW122067   1.667   2.603   4.593 -0.4647 -2.1171 -0.3474
 3478SOL    HW222068   1.736   2.696   4.684 -0.7580  0.7316 -0.2197
 3479SOL     OW22069   0.762   4.647   6.553  0.1871 -0.6277  0.1487
 3479SOL    HW122070   0.854   4.619   6.554  0.1781 -0.6181  1.0475
 3479SOL    HW222071   0.716   4.622   6.473 -1.4495  0.0761  0.8838
 3480SOL     OW22072   1.593   0.455   4.101 -0.1476 -0.1276 -0.2612
 3480SOL    HW122073   1.532   0.483   4.169 -0.8080  1.1963 -1.4248
 3480SOL    HW222074   1.544   0.382   4.063  0.5748  0.0618 -1.5318
 3481SOL     OW22075   1.750   1.550  11.922 -0.5314 -0.7955 -0.2164
 3481SOL    HW122076   1.670   1.566  11.972  1.0826  0.5150  1.9462
 3481SOL    HW222077   1.729   1.541  11.829  1.7985  0.5450 -0.8923
 3482SOL     OW22078   2.063   1.310   8.131  0.1743 -0.0363  0.1579
 3482SOL    HW122079   2.143   1.338   8.086  0.4554 -1.6918 -0.3898
 3482SOL    HW222080   2.005   1.378   8.098  1.6520  0.4215 -1.5311
 3483SOL     OW22081   3.110   3.116   4.684 -0.2437 -0.2605  0.8551
 3483SOL    HW122082   3.177   3.068   4.636 -2.1197 -3.5301  1.5108
 3483SOL    HW222083   3.042   3.105   4.618  0.0645  2.4041  0.1038
 3484SOL     OW22084   1.475   3.183   8.644  0.0753  0.2450  0.0404
 3484SOL    HW122085   1.417   3.138   8.705 -0.5574  0.9854 -0.0089
 3484SOL    HW222086   1.463   3.278   8.651  0.9346  0.3878 -0.3820
 3485SOL     OW22087   1.577   4.640   5.599 -0.3557 -0.0327  0.3466
 3485SOL    HW122088   1.635   4.667   5.670  1.5134  4.3155 -2.8041
 3485SOL    HW222089   1.643   4.589   5.553  0.0754  2.0241 -1.3237
 3486SOL     OW22090   1.757   2.634   4.061  0.6866 -0.1755 -0.2434
 3486SOL    HW122091   1.793   2.690   4.129  0.0963 -0.1159  0.0221
 3486SOL    HW222092   1.678   2.678   4.032  1.1688  1.4669  0.9125
 3487SOL     OW22093   3.682   0.885   5.025 -0.5260  0.4283 -0.0615
 3487SOL    HW122094   3.653   0.828   4.954 -1.0001 -1.0906  1.3753
 3487SOL    HW222095   3.688   0.822   5.097  2.3884 -0.7011 -1.2841
 3488SOL     OW22096   0.227   2.203  16.981  0.0040 -0.1052  0.7116
 3488SOL    HW122097   0.186   2.175  17.063  0.7897 -0.6089  0.9288
 3488SOL    HW222098   0.143   2.203  16.935 -1.0186  1.7017  2.6209
 3489SOL     OW22099   4.125   0.071   2.277 -0.1136 -0.3871 -0.1739
 3489SOL    HW122100   4.087   0.012   2.211 -1.7125  0.0400  0.3791
 3489SOL    HW222101   4.056   0.137   2.284  0.3114 -0.1178  1.4724
 3490SOL     OW22102   4.396   1.616   3.414  0.8619 -0.3619 -0.2985
 3490SOL    HW122103   4.392   1.657   3.500  2.9097 -0.6742 -0.0562
 3490SOL    HW222104   4.310   1.636   3.377 -0.4518 -0.8364  2.5555
 3491SOL     OW22105   1.465   2.936   6.301 -0.1804 -0.7178  0.2439
 3491SOL    HW122106   1.474   2.980   6.386 -1.2557  1.1592 -0.6046
 3491SOL    HW222107   1.464   2.842   6.316 -0.1707 -0.6529  0.6489
 3492SOL     OW22108   2.371   0.691   2.753  0.3318  0.3466  0.1348
 3492SOL    HW122109   2.453   0.738   2.762  0.0204  1.1427 -1.1107
 3492SOL    HW222110   2.378   0.622   2.819  1.6432  0.5609  0.2117
 3493SOL     OW22111   2.610   4.151   5.338  0.0566 -0.2210  0.3362
 3493SOL    HW122112   2.600   4.101   5.420  0.7055  1.2772  1.3267
 3493SOL    HW222113   2.705   4.163   5.337  0.2257 -1.6887 -1.4781
 3494SOL     OW22114   3.557   2.322   4.840 -0.0356  0.5173 -0.4092
 3494SOL    HW122115   3.640   2.301   4.799  0.4664  2.5914 -0.4366
 3494SOL    HW222116   3.499   2.352   4.770 -0.5172 -1.3401 -0.8085
 3495SOL     OW22117   4.659   2.846   4.306  0.3429  0.3419  0.4164
 3495SOL    HW122118   4.629   2.899   4.380 -0.4952  0.8464 -0.2841
 3495SOL    HW222119   4.632   2.755   4.323 -0.1658  0.3056 -0.6037
 3496SOL     OW22120   2.040   3.368   9.345  0.0153 -0.1076  0.0625
 3496SOL    HW122121   2.016   3.286   9.387 -2.1273  0.1793 -0.6332
 3496SOL    HW222122   1.959   3.393   9.301 -0.1619  1.3811  1.2415
 3497SOL     OW22123   3.940   4.332   7.280  0.4385 -0.5104  0.1079
 3497SOL    HW122124   3.981   4.408   7.320 -2.3799  0.8529  0.3706
 3497SOL    HW222125   3.950   4.273   7.355  0.5477  2.0927  2.1240
 3498SOL     OW22126   1.364   2.518   9.342 -0.2692  0.0655 -0.1927
 3498SOL    HW122127   1.342   2.450   9.406 -0.9314 -0.0458 -0.5361
 3498SOL    HW222128   1.309   2.491   9.268  0.2085 -0.6121 -0.3005
 3499SOL     OW22129   3.704   3.109   7.833  0.3258  0.1834  0.2670
 3499SOL    HW122130   3.630   3.123   7.773  1.4122  0.0848 -1.0919
 3499SOL    HW222131   3.749   3.034   7.794  0.3612  0.0967  0.4765
 3500SOL     OW22132   3.346   2.108   1.558 -0.4986  0.2639 -0.5593
 3500SOL    HW122133   3.272   2.137   1.506  0.5582 -0.0251 -2.2348
 3500SOL    HW222134   3.370   2.020   1.530 -1.9722  0.4166 -2.2838
 3501SOL     OW22135   1.785   3.219   2.869  0.1160 -0.4918 -0.2302
 3501SOL    HW122136   1.764   3.310   2.851 -1.2641 -0.7864 -0.1067
 3501SOL    HW222137   1.851   3.231   2.938 -1.0789  0.1735  0.7846
 3502SOL     OW22138   2.650   2.496   5.989 -0.0429 -0.6076  0.2582
 3502SOL    HW122139   2.723   2.487   5.927 -1.2525 -0.3824 -1.1884
 3502SOL    HW222140   2.678   2.575   6.035  0.8191  0.7967 -2.6862
 3503SOL     OW22141   0.681   4.484  14.069 -0.4716 -0.2149 -0.4505
 3503SOL    HW122142   0.663   4.518  13.981 -0.9701  0.1785 -0.1946
 3503SOL    HW222143   0.604   4.427  14.073  0.4441 -1.4185 -0.2210
 3504SOL     OW22144   4.155   0.532   0.353  0.5008 -0.2924  0.2556
 3504SOL    HW122145   4.061   0.526   0.367 -0.1913  1.1757 -4.0526
 3504SOL    HW222146   4.167   0.625   0.369 -0.5664 -0.0999 -0.1011
 3505SOL     OW22147   2.681   4.689   7.002 -0.8590 -0.2170  0.1039
 3505SOL    HW122148   2.702   4.622   7.068 -0.7410  0.9234  1.2194
 3505SOL    HW222149   2.665   0.034   7.052  2.4178 -1.0608  2.4902
 3506SOL     OW22150   0.192   4.641   0.017  0.1886 -0.2705 -0.3974
 3506SOL    HW122151   0.275   4.671  17.719 -0.2875  1.5765  0.0395
 3506SOL    HW222152   0.200   4.546   0.007  2.3073 -0.3070  1.5649
 3507SOL     OW22153   0.214   2.033   9.904  0.4833 -0.2026  0.4701
 3507SOL    HW122154   0.241   2.122   9.879 -0.6773 -0.2860 -1.1021
 3507SOL    HW222155   0.136   2.042   9.959 -0.4590 -0.6119 -0.7935
 3508SOL     OW22156   0.438   4.676   5.114  0.1995  0.4643  0.2222
 3508SOL    HW122157   0.411   0.028   5.142 -0.2215  0.7454 -1.0553
 3508SOL    HW222158   0.500   4.700   5.045 -0.5714  0.3794 -0.5052
 3509SOL     OW22159   3.248   1.970   9.375 -0.1898  0.2431  0.4504
 3509SOL    HW122160   3.306   1.937   9.444  1.9563 -0.6152 -1.7367
 3509SOL    HW222161   3.162   1.955   9.415  0.1833 -2.3730  0.2399
 3510SOL     OW22162   0.515   2.189   0.055  0.4166  0.4944 -0.0279
 3510SOL    HW122163   0.499   2.167   0.147  0.3248 -0.9407 -0.3765
 3510SOL    HW222164   0.611   2.180   0.052  0.2700 -0.4527 -2.0008
 3511SOL     OW22165   0.510   3.781   7.616  0.5344 -0.0469 -0.2855
 3511SOL    HW122166   0.428   3.818   7.583 -0.1442 -1.5173 -0.2429
 3511SOL    HW222167   0.558   3.793   7.535  0.8860 -0.4030 -0.1297
 3512SOL     OW22168   4.704   0.865   2.661  0.3548  1.2251  0.7351
 3512SOL    HW122169   4.705   0.774   2.692  1.6501  0.5434 -1.3553
 3512SOL    HW222170   0.054   0.872   2.619  0.3802  1.0752  0.7599
 3513SOL     OW22171   3.858   0.427  15.607  0.1646 -0.4581  0.5904
 3513SOL    HW122172   3.820   0.488  15.544 -0.5912  0.7325  2.2083
 3513SOL    HW222173   3.848   0.338  15.572 -1.6630 -0.1352  0.3141
 3514SOL     OW22174   4.089   0.825   4.929  0.1365  0.1070  0.4438
 3514SOL    HW122175   4.051   0.856   5.011  0.2065 -0.8193  0.8263
 3514SOL    HW222176   4.139   0.899   4.893  0.7793 -0.8174 -0.5646
 3515SOL     OW22177   2.121   2.045   2.665  0.3698  0.8419 -0.1803
 3515SOL    HW122178   2.042   2.010   2.622 -1.0914  3.7641  0.1515
 3515SOL    HW222179   2.080   2.125   2.697 -0.9272  0.3486 -0.6076
 3516SOL     OW22180   4.037   2.505   5.698  0.0246 -0.4018  0.0336
 3516SOL    HW122181   4.129   2.486   5.717 -0.4708 -1.8116  1.0355
 3516SOL    HW222182   4.050   2.523   5.605  1.8699 -1.0092  0.1821
 3517SOL     OW22183   1.336   1.536  16.280  0.0877 -0.3753  0.0378
 3517SOL    HW122184   1.308   1.524  16.371  0.7558  2.1012  0.5720
 3517SOL    HW222185   1.423   1.572  16.295 -0.7023  1.3961  0.4080
 3518SOL     OW22186   3.184   1.795   3.527  0.1122  0.0310 -0.4484
 3518SOL    HW122187   3.141   1.738   3.463  0.9262  1.6504 -2.4122
 3518SOL    HW222188   3.199   1.725   3.591 -0.2380 -1.0412 -1.5399
 3519SOL     OW22189   0.767   3.819  11.351 -0.2469  0.5778 -0.7137
 3519SOL    HW122190   0.744   3.882  11.283 -0.1791  1.7747  0.3863
 3519SOL    HW222191   0.748   3.872  11.428 -0.1087 -0.4198  0.0196
 3520SOL     OW22192   3.258   2.518   4.037  0.2296  0.3650 -0.2741
 3520SOL    HW122193   3.186   2.495   3.978  1.5318 -0.5970 -1.4973
 3520SOL    HW222194   3.211   2.536   4.119  0.3907 -2.5791  0.4609
 3521SOL     OW22195   3.463   2.842  12.882 -0.2231  0.6305 -0.6262
 3521SOL    HW122196   3.533   2.840  12.947 -3.1350 -0.3658  2.4590
 3521SOL    HW222197   3.385   2.832  12.937  1.5205  1.6684  2.0238
 3522SOL     OW22198   3.683   3.953   4.739  0.0188  0.0615  0.3151
 3522SOL    HW122199   3.731   3.974   4.659  0.1780  2.0956  0.9350
 3522SOL    HW222200   3.733   3.998   4.807  0.9522  1.8501 -1.5376
 3523SOL     OW22201   4.160   1.385   5.456  0.0810 -0.0331  0.0459
 3523SOL    HW122202   4.195   1.327   5.524 -0.3527 -0.2684  0.0610
 3523SOL    HW222203   4.228   1.452   5.446  1.9357 -1.9448 -0.1606
 3524SOL     OW22204   4.030   1.771  16.023  0.4168 -0.0770  0.4981
 3524SOL    HW122205   4.074   1.808  15.946 -0.8477 -1.9597 -1.1309
 3524SOL    HW222206   4.042   1.846  16.081 -3.2774  2.6677 -2.2901
 3525SOL     OW22207   4.089   1.685   7.288  0.4306  0.6000  0.1010
 3525SOL    HW122208   4.102   1.627   7.363  0.1636  0.2935 -0.0881
 3525SOL    HW222209   3.995   1.700   7.293  0.3415 -0.1913  0.8358
 3526SOL     OW22210   4.526   4.357  16.032 -0.2559  0.1540 -0.2539
 3526SOL    HW122211   4.503   4.293  16.099 -0.1317 -1.1602 -1.4593
 3526SOL    HW222212   4.602   4.395  16.076 -2.5993  2.5554  1.6736
 3527SOL     OW22213   3.469   4.533  11.680 -0.6459  0.0610 -0.4083
 3527SOL    HW122214   3.549   4.587  11.679 -1.1784  0.8604  0.0763
 3527SOL    HW222215   3.412   4.586  11.736  1.5691  1.1941  0.7851
 3528SOL     OW22216   0.259   3.764  10.800 -0.6278  0.3906 -0.5808
 3528SOL    HW122217   0.197   3.794  10.733 -0.8843 -0.9908 -0.9768
 3528SOL    HW222218   0.275   3.844  10.849 -1.5723  0.1234  0.1663
 3529SOL     OW22219   3.549   2.119   7.466 -0.7729 -0.1891  0.5556
 3529SOL    HW122220   3.547   2.070   7.384 -0.5033 -0.5730  0.7791
 3529SOL    HW222221   3.640   2.101   7.489 -0.6654 -0.0555  0.2421
 3530SOL     OW22222   3.739   0.351   4.586 -0.7564  0.0531 -0.5605
 3530SOL    HW122223   3.728   0.266   4.630  2.0880 -0.2707 -0.4976
 3530SOL    HW222224   3.764   0.405   4.661 -0.8460 -1.8195  0.8383
 3531SOL     OW22225   1.957   0.282   5.867  0.7787  0.2714  0.0588
 3531SOL    HW122226   1.868   0.252   5.848  0.4525  0.2437  1.6388
 3531SOL    HW222227   1.946   0.368   5.826  0.3086 -0.6592 -1.7289
 3532SOL     OW22228   3.637   1.502   9.190  0.2533  0.6541  0.2305
 3532SOL    HW122229   3.580   1.512   9.266  0.6566 -0.1971  0.6499
 3532SOL    HW222230   3.704   1.567   9.209  0.3860  1.3929 -2.7561
 3533SOL     OW22231   0.194   1.520   6.898 -0.0691 -0.1101 -0.0983
 3533SOL    HW122232   0.245   1.449   6.859 -0.2256 -0.9954  1.3225
 3533SOL    HW222233   0.113   1.511   6.848  0.5325  2.5259 -1.5203
 3534SOL     OW22234   2.345   3.708   3.012  0.0247 -0.3649 -0.0024
 3534SOL    HW122235   2.301   3.783   3.052  0.4475  0.6033 -1.3611
 3534SOL    HW222236   2.386   3.753   2.937  0.0390  1.9106  1.3560
 3535SOL     OW22237   1.251   0.209   3.689 -0.0138 -0.0297 -0.2685
 3535SOL    HW122238   1.223   0.192   3.779 -0.5979  0.3192 -0.3871
 3535SOL    HW222239   1.257   0.304   3.677  1.4127  0.2432  2.5190
 3536SOL     OW22240   4.234   2.850   4.013  0.0401 -0.2704 -0.5892
 3536SOL    HW122241   4.319   2.890   4.034 -0.4882  0.0803  0.8425
 3536SOL    HW222242   4.235   2.766   4.059  4.1274 -0.6415 -1.3758
 3537SOL     OW22243   3.159   3.005   8.783 -0.1298 -0.2170  0.0317
 3537SOL    HW122244   3.237   2.991   8.729  0.8794  0.5942  1.2683
 3537SOL    HW222245   3.143   3.099   8.771  1.6959 -0.2035 -2.2774
 3538SOL     OW22246   3.689   3.488   3.866  0.1035 -0.3015  0.4541
 3538SOL    HW122247   3.747   3.417   3.837  2.9606  3.0361 -1.9810
 3538SOL    HW222248   3.681   3.543   3.788 -3.3576 -1.2715  0.1408
 3539SOL     OW22249   0.062   4.451   9.563 -0.2740 -0.1222  0.1725
 3539SOL    HW122250   0.080   4.378   9.622 -0.4852  0.6843  1.2250
 3539SOL    HW222251   4.704   4.461   9.585 -0.1676  1.4531 -0.0754
 3540SOL     OW22252   3.138   4.174   4.691  0.2863  0.3489 -0.1035
 3540SOL    HW122253   3.197   4.166   4.766 -1.3278 -0.3018  1.0957
 3540SOL    HW222254   3.172   4.108   4.631 -0.5126  0.5690 -0.7954
 3541SOL     OW22255   1.059   2.899   9.679  0.1707 -0.1331  0.7493
 3541SOL    HW122256   1.024   2.925   9.764  1.2153  1.2878  0.7476
 3541SOL    HW222257   1.120   2.972   9.664  1.4702 -0.7047  3.3061
 3542SOL     OW22258   3.285   1.668   0.628 -0.1135  0.5319  0.0671
 3542SOL    HW122259   3.345   1.643   0.559 -1.6117 -3.2121  0.1531
 3542SOL    HW222260   3.210   1.704   0.580 -0.5882 -0.2480  0.2332
 3543SOL     OW22261   3.583   2.008   7.215 -0.4393 -0.6804 -0.5774
 3543SOL    HW122262   3.637   1.940   7.174  0.9978  0.5464 -0.7242
 3543SOL    HW222263   3.603   2.090   7.170 -1.4112 -0.2713 -0.2627
 3544SOL     OW22264   0.529   3.971  10.915  0.6997 -0.4549  0.6264
 3544SOL    HW122265   0.555   4.014  10.834 -1.3040 -1.4968 -0.5790
 3544SOL    HW222266   0.518   3.888  10.868 -2.7890  0.8580 -0.8834
 3545SOL     OW22267   4.584   1.533   7.649 -0.4158 -0.3362 -0.2193
 3545SOL    HW122268   4.500   1.578   7.649 -0.6437 -0.7803 -0.9940
 3545SOL    HW222269   4.627   1.589   7.584 -1.3990  2.3331  1.4171
 3546SOL     OW22270   1.317   1.266   6.573 -0.0292 -0.1362  0.2848
 3546SOL    HW122271   1.301   1.207   6.647 -1.7051 -0.8785 -0.6858
 3546SOL    HW222272   1.252   1.241   6.508  0.9108 -0.0211 -0.7087
 3547SOL     OW22273   2.804   0.975   4.706 -0.2557 -0.4840  0.2942
 3547SOL    HW122274   2.819   0.896   4.758  0.9880 -1.0095 -0.8659
 3547SOL    HW222275   2.894   1.007   4.708 -0.6557  0.5494  1.3495
 3548SOL     OW22276   2.155   3.287  16.977  0.2887 -0.0591  0.5561
 3548SOL    HW122277   2.066   3.270  17.008  0.1683 -1.0511 -0.3286
 3548SOL    HW222278   2.143   3.380  16.960  0.9742 -0.7803 -3.8994
 3549SOL     OW22279   1.354   4.673   9.689 -0.3964  0.5664  0.1267
 3549SOL    HW122280   1.363   4.604   9.754 -0.1166 -1.9969 -2.6408
 3549SOL    HW222281   1.442   4.670   9.652 -0.3883  0.3217  0.1685
 3550SOL     OW22282   2.121   3.688   1.623  0.1210 -0.3806 -0.0611
 3550SOL    HW122283   2.057   3.666   1.690  0.3764 -0.7614  0.0630
 3550SOL    HW222284   2.202   3.687   1.674 -2.7223  0.0240  4.3628
 3551SOL     OW22285   1.115   2.920  12.969 -0.3273  0.5050 -0.2581
 3551SOL    HW122286   1.178   2.848  12.975 -0.7062  0.3489  1.7072
 3551SOL    HW222287   1.086   2.903  13.059  1.2765 -2.9019 -0.3519
 3552SOL     OW22288   1.752   2.591   7.153  0.0729  0.2439 -0.0132
 3552SOL    HW122289   1.683   2.652   7.176  1.7096  1.8844  0.5335
 3552SOL    HW222290   1.815   2.595   7.225 -0.6663 -3.3420  0.8719
 3553SOL     OW22291   2.221   0.569   5.093 -0.1994 -0.0515  0.5269
 3553SOL    HW122292   2.189   0.536   5.177  0.7808 -0.0750  0.8903
 3553SOL    HW222293   2.225   0.488   5.040  0.3926 -0.3880  1.0953
 3554SOL     OW22294   2.222   2.467  15.041  0.0833 -0.2075 -0.5645
 3554SOL    HW122295   2.258   2.482  15.128  2.0517  0.0905 -1.4231
 3554SOL    HW222296   2.238   2.374  15.025 -1.7359 -0.6176  0.0439
 3555SOL     OW22297   1.870   0.680   9.672 -0.1003 -0.8752 -0.0917
 3555SOL    HW122298   1.958   0.648   9.693 -0.1346  0.4830  2.0930
 3555SOL    HW222299   1.812   0.623   9.722  0.6688 -0.0706  1.7251
 3556SOL     OW22300   1.402   2.035  16.784  0.4727  0.0125  0.0317
 3556SOL    HW122301   1.326   1.990  16.746  1.9268 -1.6827 -0.8718
 3556SOL    HW222302   1.380   2.127  16.770 -2.0984 -1.0286 -2.8229
 3557SOL     OW22303   1.867   4.140   9.429 -0.0324  0.1741  0.1520
 3557SOL    HW122304   1.956   4.123   9.459  0.1344  0.4391 -0.2050
 3557SOL    HW222305   1.880   4.184   9.346 -4.1949 -0.8954 -1.0758
 3558SOL     OW22306   1.074   2.928   2.880  0.1407 -0.3511 -0.2339
 3558SOL    HW122307   1.165   2.959   2.874  0.9638 -2.5027  1.1687
 3558SOL    HW222308   1.057   2.897   2.792 -0.8325  0.3586 -0.2952
 3559SOL     OW22309   3.875   4.310   4.641 -0.1663 -0.2502 -0.2231
 3559SOL    HW122310   3.934   4.383   4.661  1.9422 -1.7608 -0.8988
 3559SOL    HW222311   3.834   4.285   4.724  0.3458 -0.1612  0.0629
 3560SOL     OW22312   3.730   1.146   6.191  0.0884 -0.4882 -0.1519
 3560SOL    HW122313   3.790   1.141   6.116 -1.1170  1.0214 -1.2220
 3560SOL    HW222314   3.647   1.156   6.144 -0.9575  0.8311  2.0003
 3561SOL     OW22315   1.382   2.973   3.161  0.6828  0.2420  0.3214
 3561SOL    HW122316   1.363   3.066   3.149  0.3537  0.0712 -0.4927
 3561SOL    HW222317   1.462   2.959   3.111  2.3855  1.1377  2.7803
 3562SOL     OW22318   2.249   1.611  11.194 -0.0415 -0.4158 -0.9198
 3562SOL    HW122319   2.242   1.549  11.267 -1.3094  1.6205  0.6641
 3562SOL    HW222320   2.336   1.585  11.165 -0.0260 -2.9922  1.3881
 3563SOL     OW22321   0.170   0.769  11.945 -0.1180  0.0638 -0.0900
 3563SOL    HW122322   0.234   0.720  11.997 -0.5259 -1.4583 -0.9951
 3563SOL    HW222323   0.230   0.800  11.877  0.0211 -0.5794 -0.2704
 3564SOL     OW22324   0.539   2.543  12.931  0.1726 -0.0726 -0.1771
 3564SOL    HW122325   0.480   2.534  12.856 -0.2516  1.0428  0.0235
 3564SOL    HW222326   0.607   2.608  12.912 -0.3126  0.3835 -0.3706
 3565SOL     OW22327   1.509   4.203  16.699 -0.1316 -0.0612 -0.7224
 3565SOL    HW122328   1.563   4.272  16.661  1.4337 -0.7363  0.2604
 3565SOL    HW222329   1.502   4.133  16.633  0.5410 -1.4072  0.6254
 3566SOL     OW22330   4.029   3.001  10.315 -0.3662 -0.7952 -0.3081
 3566SOL    HW122331   3.947   3.046  10.338 -0.8006 -1.5823 -0.3207
 3566SOL    HW222332   4.000   2.939  10.248  1.1574 -1.5172 -0.2997
 3567SOL     OW22333   4.562   2.466   8.785 -0.2139 -0.3564 -0.1262
 3567SOL    HW122334   4.547   2.373   8.769  0.7243 -0.7690  1.3792
 3567SOL    HW222335   4.624   2.482   8.714  1.6429 -0.4947  1.4789
 3568SOL     OW22336   1.207   2.337   4.372  0.4653  0.2365 -0.0150
 3568SOL    HW122337   1.283   2.308   4.321  0.6353 -0.4923  0.6576
 3568SOL    HW222338   1.225   2.328   4.466  1.4070  2.0556 -0.0163
 3569SOL     OW22339   3.916   4.406   6.664 -0.3269 -0.0512 -0.1416
 3569SOL    HW122340   3.940   4.485   6.712 -0.8369  0.3236 -0.5131
 3569SOL    HW222341   3.949   4.337   6.722  0.5982  1.2421  0.8614
 3570SOL     OW22342   1.324   4.471   7.353  1.2006  0.0165  0.4467
 3570SOL    HW122343   1.339   4.429   7.438  0.3625  0.4757  0.8212
 3570SOL    HW222344   1.337   4.394   7.298 -0.3109  0.1295 -0.0753
 3571SOL     OW22345   2.214   1.467   7.939  0.0485 -0.1243 -0.2641
 3571SOL    HW122346   2.231   1.558   7.963 -0.5495  0.0459 -0.4850
 3571SOL    HW222347   2.298   1.446   7.898  0.3746 -0.0226  0.3622
 3572SOL     OW22348   3.308   0.278  14.838 -0.8141 -0.1103  0.3247
 3572SOL    HW122349   3.342   0.352  14.888 -0.9513  0.8391 -0.9873
 3572SOL    HW222350   3.294   0.214  14.908 -0.4374 -0.5096  0.0319
 3573SOL     OW22351   3.784   2.459   3.142 -0.1051 -0.3678 -0.7809
 3573SOL    HW122352   3.721   2.396   3.107  0.3842 -0.2128 -1.9169
 3573SOL    HW222353   3.828   2.483   3.061 -1.9858  1.7607 -1.1937
 3574SOL     OW22354   4.260   1.297   5.733  0.3153 -0.4410  0.2899
 3574SOL    HW122355   4.337   1.245   5.756  0.0674 -0.9664 -0.0862
 3574SOL    HW222356   4.216   1.229   5.683  0.1982  0.5945 -1.0010
 3575SOL     OW22357   0.350   1.996   8.916 -0.2460 -0.6832 -0.5829
 3575SOL    HW122358   0.412   1.958   8.854  0.2097 -2.2821  0.8826
 3575SOL    HW222359   0.405   2.059   8.962  0.0328  0.7092 -2.8121
 3576SOL     OW22360   3.519   0.302  16.367  0.2664  0.3117  0.4144
 3576SOL    HW122361   3.583   0.300  16.296 -0.2395  1.3113 -0.0744
 3576SOL    HW222362   3.439   0.333  16.323 -2.2053 -5.4211  0.8332
 3577SOL     OW22363   2.339   1.888   3.354 -0.5562  0.2807  0.5229
 3577SOL    HW122364   2.365   1.928   3.272 -0.7500 -0.2049  0.2237
 3577SOL    HW222365   2.251   1.922   3.371 -0.4569  1.9966 -2.4592
 3578SOL     OW22366   0.820   4.463   4.925  0.0516  0.3828  0.2534
 3578SOL    HW122367   0.839   4.548   4.887 -0.1653  0.9349  1.4003
 3578SOL    HW222368   0.843   4.416   4.845 -0.1087 -0.0734  0.4731
 3579SOL     OW22369   2.624   4.037   4.493  0.2298 -1.3891 -0.2095
 3579SOL    HW122370   2.604   3.948   4.463  0.1417 -1.0561 -1.1374
 3579SOL    HW222371   2.561   4.041   4.565 -0.9508  2.0709 -1.4434
 3580SOL     OW22372   4.255   0.552   3.027 -0.8186 -0.6160  1.0138
 3580SOL    HW122373   4.277   0.486   3.093 -4.0842 -1.3588  1.3541
 3580SOL    HW222374   4.178   0.591   3.069 -0.7804  2.1709 -1.5398
 3581SOL     OW22375   4.415   0.108   7.255  0.3118 -0.1667  0.0134
 3581SOL    HW122376   4.405   0.018   7.286  0.6211 -0.2459 -0.1145
 3581SOL    HW222377   4.422   0.161   7.334 -0.6865  0.3819 -0.2765
 3582SOL     OW22378   0.874   4.570   9.162 -0.0295 -0.2198  0.0683
 3582SOL    HW122379   0.785   4.602   9.149  0.2465 -0.6406 -2.8342
 3582SOL    HW222380   0.875   4.569   9.258 -1.6467  0.8966  0.0798
 3583SOL     OW22381   0.721   3.284   7.771  0.0488 -0.5752 -0.0707
 3583SOL    HW122382   0.682   3.364   7.736  2.1679  1.1663  1.5864
 3583SOL    HW222383   0.730   3.228   7.694 -0.0863 -0.9066  0.1511
 3584SOL     OW22384   0.832   2.782   6.035 -0.2623  0.9530 -0.3073
 3584SOL    HW122385   0.835   2.815   5.945 -0.5415 -0.7528 -0.9575
 3584SOL    HW222386   0.920   2.746   6.046 -0.5655  0.4812  0.5898
 3585SOL     OW22387   1.488   3.743  11.600  0.3079  0.3661 -0.0258
 3585SOL    HW122388   1.554   3.802  11.563  0.0285  1.4873  1.2556
 3585SOL    HW222389   1.489   3.681  11.527 -0.1288  2.3146 -1.6767
 3586SOL     OW22390   1.119   3.781   5.082  0.2571  0.4115 -0.1079
 3586SOL    HW122391   1.064   3.846   5.037 -0.6930 -1.4197 -1.6131
 3586SOL    HW222392   1.163   3.733   5.012 -0.3804 -0.6210  0.1951
 3587SOL     OW22393   3.562   2.075   0.438  0.0708  0.6593 -0.2536
 3587SOL    HW122394   3.543   2.083   0.344 -1.6286  0.8940  0.1146
 3587SOL    HW222395   3.613   1.994   0.438  0.4481  0.9043  0.5039
 3588SOL     OW22396   0.395   3.206  13.962  0.0247 -0.4114  0.4926
 3588SOL    HW122397   0.347   3.141  13.910  0.5150 -0.0775 -0.3785
 3588SOL    HW222398   0.447   3.244  13.892  2.8856 -2.9293  1.2413
 3589SOL     OW22399   1.911   0.017   5.558  0.1482  0.0351  0.1562
 3589SOL    HW122400   1.992   0.057   5.590  0.4412  0.3424 -0.9802
 3589SOL    HW222401   1.854   0.057   5.623 -2.1962  0.0055 -1.8815
 3590SOL     OW22402   2.535   3.946   1.660 -0.0750 -0.0251 -0.1255
 3590SOL    HW122403   2.572   4.034   1.656 -0.5680  0.2141  0.5520
 3590SOL    HW222404   2.573   3.924   1.745  1.0432  1.0878 -0.3461
 3591SOL     OW22405   4.183   3.494   8.316  0.9132  0.0229 -0.1566
 3591SOL    HW122406   4.127   3.513   8.241  0.8743 -3.0397 -0.9207
 3591SOL    HW222407   4.245   3.566   8.318 -1.4383  1.9901  1.9915
 3592SOL     OW22408   0.007   2.088   5.425  0.0561 -0.1323  0.3840
 3592SOL    HW122409   4.652   2.073   5.396 -0.1892  1.0641  0.5284
 3592SOL    HW222410   0.057   2.091   5.343 -2.0200 -2.3268 -0.9599
 3593SOL     OW22411   1.843   1.220   3.585 -0.1425  0.6295  0.3178
 3593SOL    HW122412   1.834   1.269   3.504 -0.2651 -1.0088 -0.6661
 3593SOL    HW222413   1.937   1.204   3.594 -0.3847 -1.5167 -1.0002
 3594SOL     OW22414   3.684   0.901  13.484  0.1402 -0.3344 -0.2387
 3594SOL    HW122415   3.647   0.847  13.414 -0.7143  0.4962 -0.4321
 3594SOL    HW222416   3.611   0.917  13.544  0.4797 -0.2020  0.1414
 3595SOL     OW22417   1.842   1.083  16.705 -0.5475 -0.4055 -0.4656
 3595SOL    HW122418   1.859   1.177  16.712 -0.2348 -0.3089 -2.4177
 3595SOL    HW222419   1.748   1.075  16.688 -0.7789  1.5721 -0.1567
 3596SOL     OW22420   3.827   3.736   8.922 -0.2357  0.2793  0.3046
 3596SOL    HW122421   3.910   3.706   8.960  0.0886  0.5689 -0.1694
 3596SOL    HW222422   3.811   3.659   8.866  0.0420  0.0479  0.5446
 3597SOL     OW22423   0.314   4.363   4.456 -0.8504 -0.1974  0.6343
 3597SOL    HW122424   0.363   4.444   4.439 -0.5672 -0.6309 -0.5938
 3597SOL    HW222425   0.234   4.403   4.491 -0.1969  0.7600  1.0481
 3598SOL     OW22426   4.167   1.986  10.846 -0.4722 -0.1844 -0.1660
 3598SOL    HW122427   4.153   2.066  10.896 -2.0142 -0.9529  0.6219
 3598SOL    HW222428   4.092   1.980  10.787  0.6350  0.0452 -1.6026
 3599SOL     OW22429   0.463   1.528   8.080 -0.4364 -0.1683  0.1627
 3599SOL    HW122430   0.549   1.509   8.119  0.2375  2.3105 -0.1052
 3599SOL    HW222431   0.454   1.447   8.030 -0.4615  1.2365 -2.1186
 3600SOL     OW22432   2.152   2.473  10.058  0.0150  0.4472 -0.1836
 3600SOL    HW122433   2.110   2.413  10.119  1.1840  0.3914  0.5633
 3600SOL    HW222434   2.073   2.505  10.013  1.4967  0.0547 -3.0724
 3601SOL     OW22435   0.322   0.273  14.978 -0.0045 -0.6301  0.0107
 3601SOL    HW122436   0.247   0.315  14.937 -0.0460  0.3703  1.1262
 3601SOL    HW222437   0.399   0.318  14.943 -0.9708 -0.3062 -1.6912
 3602SOL     OW22438   3.363   4.604   9.961  0.2574  0.0185 -0.1461
 3602SOL    HW122439   3.403   4.519   9.943 -1.2628 -0.8233  0.4973
 3602SOL    HW222440   3.299   4.580  10.027  0.5005  1.0213  0.4610
 3603SOL     OW22441   0.791   3.975   6.749  0.6823 -0.3208  0.0310
 3603SOL    HW122442   0.739   3.895   6.741 -3.1760  2.0520  1.6063
 3603SOL    HW222443   0.803   3.991   6.655 -0.5571 -2.0970 -0.4265
 3604SOL     OW22444   4.082   3.255  14.510 -0.1073  0.0987 -0.1855
 3604SOL    HW122445   4.154   3.311  14.482 -0.0410 -0.1863 -0.5738
 3604SOL    HW222446   4.003   3.296  14.474 -1.3168 -2.2071 -0.1343
 3605SOL     OW22447   3.617   3.631  15.251 -0.0323  0.0824 -0.0842
 3605SOL    HW122448   3.550   3.630  15.182  0.4974  0.8687 -0.6090
 3605SOL    HW222449   3.620   3.724  15.273  1.1964 -0.3304  1.5212
 3606SOL     OW22450   1.446   1.058   4.929 -0.6250 -0.5703  0.3667
 3606SOL    HW122451   1.471   1.135   4.980 -1.4814 -1.5474  2.3008
 3606SOL    HW222452   1.352   1.051   4.944 -1.2974 -0.5926 -3.8582
 3607SOL     OW22453   1.298   1.461  11.683 -0.0392  0.1315  0.6118
 3607SOL    HW122454   1.275   1.516  11.608  0.6251  0.2314  0.4805
 3607SOL    HW222455   1.320   1.525  11.750 -2.3735 -0.7864  2.2514
 3608SOL     OW22456   1.888   3.994  15.769 -0.1704  0.1761  0.1956
 3608SOL    HW122457   1.967   4.048  15.767 -0.9667  1.2915 -1.0944
 3608SOL    HW222458   1.906   3.957  15.683  0.5930 -1.7500  1.1855
 3609SOL     OW22459   1.853   0.482   7.047 -0.0482 -0.2427 -0.5033
 3609SOL    HW122460   1.794   0.479   6.971 -1.2209 -1.9258  0.4910
 3609SOL    HW222461   1.824   0.568   7.077  1.5512  1.3608 -3.5249
 3610SOL     OW22462   1.351   4.083   2.501  0.2313 -0.3307 -0.0481
 3610SOL    HW122463   1.255   4.091   2.505  0.2315 -0.0025 -0.7544
 3610SOL    HW222464   1.376   4.175   2.504  0.1548 -0.2429 -2.1665
 3611SOL     OW22465   2.344   2.538   6.219  0.2387 -0.2933 -0.1855
 3611SOL    HW122466   2.408   2.497   6.277 -1.7287 -1.9358  0.7974
 3611SOL    HW222467   2.263   2.499   6.250  0.4596  0.5631  1.4675
 3612SOL     OW22468   4.354   1.872  15.501 -0.3808  0.1227  0.2822
 3612SOL    HW122469   4.434   1.917  15.472 -0.1240 -1.1200 -0.9241
 3612SOL    HW222470   4.296   1.930  15.451 -0.8549 -0.4801  0.1343
 3613SOL     OW22471   1.280   0.931   6.947  0.5734 -0.2799  0.8759
 3613SOL    HW122472   1.258   0.863   7.010 -0.9719 -1.4048 -0.8734
 3613SOL    HW222473   1.195   0.940   6.904  1.0130 -2.5068 -0.4925
 3614SOL     OW22474   1.679   0.557   3.433  0.1398  0.1903  0.4473
 3614SOL    HW122475   1.619   0.502   3.484 -0.1862 -1.1606 -1.3900
 3614SOL    HW222476   1.715   0.610   3.504 -1.8572  1.1492  0.7374
 3615SOL     OW22477   3.859   4.106  14.294  0.4039  0.7760 -0.8706
 3615SOL    HW122478   3.839   4.013  14.289  0.9936  0.6902 -1.7462
 3615SOL    HW222479   3.935   4.099  14.235  1.4812 -1.5781  0.8037
 3616SOL     OW22480   3.349   1.382   3.965  0.0688  0.4171 -0.5318
 3616SOL    HW122481   3.337   1.288   3.971 -1.0983  0.4860 -1.7720
 3616SOL    HW222482   3.437   1.390   3.930  0.1211 -0.5003 -0.5833
 3617SOL     OW22483   1.793   4.469  10.114  0.2177  0.0688  0.2466
 3617SOL    HW122484   1.852   4.536  10.150  0.3812 -1.3808  2.6535
 3617SOL    HW222485   1.848   4.395  10.140  0.6691  1.1772  2.4217
 3618SOL     OW22486   1.329   1.382   5.596  0.4190 -0.4154  0.6669
 3618SOL    HW122487   1.243   1.344   5.614  0.5264 -1.3892 -0.8882
 3618SOL    HW222488   1.308   1.452   5.534 -0.0779 -0.3037  0.9602
 3619SOL     OW22489   4.299   2.376   8.645  0.8848  0.0627  0.3099
 3619SOL    HW122490   4.276   2.400   8.735 -0.9217 -1.4986  0.2694
 3619SOL    HW222491   4.388   2.411   8.643  0.5335  1.0946  2.1199
 3620SOL     OW22492   1.579   3.588   0.579 -0.2309 -0.1041 -0.2372
 3620SOL    HW122493   1.501   3.537   0.557  0.7754 -1.6526 -0.2213
 3620SOL    HW222494   1.555   3.626   0.663  1.6324  0.2862  0.1363
 3621SOL     OW22495   0.941   1.822  15.004 -0.0032 -0.2328  0.0237
 3621SOL    HW122496   1.019   1.844  15.054  0.3610 -0.5362 -0.4114
 3621SOL    HW222497   0.942   1.900  14.948 -0.5331 -0.5968 -0.4946
 3622SOL     OW22498   3.821   3.953   4.092 -0.7058 -0.5214  0.1715
 3622SOL    HW122499   3.754   3.903   4.045 -1.9022  0.8795  0.4000
 3622SOL    HW222500   3.779   4.029   4.131 -0.5303 -0.2459 -0.1778
 3623SOL     OW22501   3.724   0.098   6.547 -0.2862 -0.0489 -0.0406
 3623SOL    HW122502   3.729   0.033   6.618  0.7087 -0.4299 -0.4629
 3623SOL    HW222503   3.696   0.036   6.479  0.0518  0.0781 -0.2917
 3624SOL     OW22504   3.142   1.300  13.611  0.0335  0.1753  0.2402
 3624SOL    HW122505   3.169   1.331  13.524 -1.3765  0.0605 -0.2336
 3624SOL    HW222506   3.121   1.209  13.589 -1.3019  0.0869  1.9021
 3625SOL     OW22507   2.187   0.700   7.994  0.3774  0.2247  0.6578
 3625SOL    HW122508   2.217   0.614   7.967  0.9918  1.1521 -1.5827
 3625SOL    HW222509   2.231   0.702   8.080 -1.7143 -0.8970  1.7423
 3626SOL     OW22510   2.352   1.097  12.163 -0.1358  0.1425 -0.7041
 3626SOL    HW122511   2.325   1.122  12.074 -3.5467 -0.7932  0.0741
 3626SOL    HW222512   2.382   1.183  12.191  0.6180  0.0797 -1.3367
 3627SOL     OW22513   4.478   2.096   5.368  0.1019  0.3761 -0.4091
 3627SOL    HW122514   4.455   2.107   5.275  0.2772  1.6573 -0.3098
 3627SOL    HW222515   4.394   2.067   5.404 -0.0822  0.7300 -0.5504
 3628SOL     OW22516   3.163   3.462   0.575  0.4726 -0.1575  0.2710
 3628SOL    HW122517   3.200   3.385   0.534 -0.5435  0.0805 -1.0779
 3628SOL    HW222518   3.113   3.415   0.642 -1.5020 -0.9948 -1.7775
 3629SOL     OW22519   0.739   4.045   5.222  0.0752  0.0094  0.3467
 3629SOL    HW122520   0.674   4.022   5.155 -2.9299  0.2899  3.1503
 3629SOL    HW222521   0.807   4.060   5.157 -1.1949  0.5902 -0.8493
 3630SOL     OW22522   0.615   1.463   5.665  0.6128  0.0766 -0.1770
 3630SOL    HW122523   0.670   1.419   5.600 -0.3485  0.7651 -1.4602
 3630SOL    HW222524   0.635   1.401   5.735  0.3635 -0.0681 -0.2335
 3631SOL     OW22525   0.823   2.015   9.086  0.5688  0.6140 -0.1014
 3631SOL    HW122526   0.903   2.039   9.133  1.2336 -1.4456 -0.1796
 3631SOL    HW222527   0.832   2.062   9.003 -1.8541 -0.1386 -0.7882
 3632SOL     OW22528   2.059   0.833   2.271  0.0773  0.4453 -0.2967
 3632SOL    HW122529   2.079   0.820   2.364 -1.4382 -0.9221 -0.1719
 3632SOL    HW222530   2.013   0.917   2.273  1.4427  1.2155 -0.9941
 3633SOL     OW22531   4.221   2.859   5.214 -0.4119 -0.3750  0.4617
 3633SOL    HW122532   4.256   2.770   5.220  0.8115  0.1405  0.9415
 3633SOL    HW222533   4.302   2.900   5.183 -1.6653  0.5711 -1.5716
 3634SOL     OW22534   4.527   2.990   4.725  0.3759 -0.2653 -0.8421
 3634SOL    HW122535   4.506   2.986   4.631  0.3787  2.7230 -0.9640
 3634SOL    HW222536   4.488   2.906   4.750  2.2942 -0.1721  2.3432
 3635SOL     OW22537   1.558   4.563   3.661  0.0536  0.1642 -0.2540
 3635SOL    HW122538   1.651   4.568   3.639  0.0076 -0.3559 -0.5635
 3635SOL    HW222539   1.532   4.637   3.717 -0.9952 -1.2273  1.1256
 3636SOL     OW22540   2.127   0.927  12.235  0.3970  0.2283 -0.1040
 3636SOL    HW122541   2.200   0.990  12.240 -1.2409  2.3452 -2.5788
 3636SOL    HW222542   2.178   0.847  12.225 -1.6117 -0.9917 -0.4941
 3637SOL     OW22543   2.384   1.057   6.059  0.3528 -0.4660  0.0667
 3637SOL    HW122544   2.375   0.992   6.129  3.6892 -0.7780  0.1783
 3637SOL    HW222545   2.342   1.012   5.986  2.1710 -2.4224  0.2439
 3638SOL     OW22546   2.511   2.931   3.118 -0.1934  0.5216 -0.5950
 3638SOL    HW122547   2.593   2.911   3.164 -0.1577 -0.5784 -1.1507
 3638SOL    HW222548   2.468   2.849   3.095 -0.3606  1.0700 -2.2048
 3639SOL     OW22549   1.671   0.077   8.072 -0.2045 -0.3886  0.1114
 3639SOL    HW122550   1.609   0.014   8.109 -0.9194 -0.0050 -0.4422
 3639SOL    HW222551   1.627   0.108   7.993  0.6931  1.1875  0.2397
 3640SOL     OW22552   0.288   2.668   4.149 -0.5693  0.0927 -0.3411
 3640SOL    HW122553   0.243   2.622   4.220 -0.1977 -0.6496 -0.5885
 3640SOL    HW222554   0.255   2.753   4.177 -0.3917  0.7207 -2.0116
 3641SOL     OW22555   3.594   0.459   2.889  0.2190  0.1990  0.0046
 3641SOL    HW122556   3.517   0.442   2.835 -0.2729 -0.4339  0.9153
 3641SOL    HW222557   3.659   0.431   2.825 -0.2932 -2.3676  0.6161
 3642SOL     OW22558   2.907   2.550  17.222  0.4212  0.7278 -0.2703
 3642SOL    HW122559   2.859   2.471  17.197  0.6595  0.5799 -0.2527
 3642SOL    HW222560   2.897   2.551  17.317  0.8497  0.2436 -0.2243
 3643SOL     OW22561   4.224   3.725   3.732  0.3546  0.1691 -0.2484
 3643SOL    HW122562   4.145   3.716   3.785 -0.6449  0.3095 -1.7025
 3643SOL    HW222563   4.238   3.635   3.705 -1.1924  0.2498 -1.3244
 3644SOL     OW22564   4.579   3.262   6.173 -0.2206  0.5870 -0.2669
 3644SOL    HW122565   4.621   3.257   6.259 -2.5484  1.7268  0.9251
 3644SOL    HW222566   4.495   3.299   6.201 -1.0494 -2.3765  1.1158
 3645SOL     OW22567   1.138   1.876  14.761 -0.3744  0.3182 -0.3370
 3645SOL    HW122568   1.165   1.864  14.670  0.3337 -1.1207  0.0627
 3645SOL    HW222569   1.075   1.805  14.772  0.8526 -0.6701  0.2208
 3646SOL     OW22570   0.943   0.017  13.343  0.1375 -0.4578  0.1846
 3646SOL    HW122571   0.853   0.038  13.366  0.4102  1.5588 -0.6193
 3646SOL    HW222572   0.983   4.731  13.428 -0.6030  1.2715  0.9410
 3647SOL     OW22573   4.611   1.775  17.332  0.6796 -0.5767 -0.5809
 3647SOL    HW122574   4.706   1.767  17.329  0.4682 -2.7725 -1.1435
 3647SOL    HW222575   4.598   1.721  17.410 -1.7636 -2.2742 -2.1605
 3648SOL     OW22576   2.836   1.934   7.130  0.3182 -0.0635 -0.3504
 3648SOL    HW122577   2.899   1.993   7.171  1.2027 -0.2862 -1.3840
 3648SOL    HW222578   2.755   1.985   7.125 -0.0243 -0.7094 -1.4381
 3649SOL     OW22579   0.554   2.222   7.863  0.5237  0.5652  0.2460
 3649SOL    HW122580   0.502   2.287   7.817  0.3652  0.5960  0.4672
 3649SOL    HW222581   0.581   2.173   7.785 -0.5346 -0.5320  0.5694
 3650SOL     OW22582   4.233   2.779  12.286 -0.2208  0.0242  0.1243
 3650SOL    HW122583   4.249   2.862  12.331  0.0708 -0.6696  1.2787
 3650SOL    HW222584   4.139   2.777  12.301  0.1794 -3.9046  1.8839
 3651SOL     OW22585   0.347   3.264   1.454 -0.1533  0.3185  0.2587
 3651SOL    HW122586   0.394   3.222   1.526  0.1226  0.2044  0.0148
 3651SOL    HW222587   0.258   3.236   1.473  0.2269 -0.3603  1.0661
 3652SOL     OW22588   1.787   1.632   9.773  0.0769 -0.3895 -0.5374
 3652SOL    HW122589   1.827   1.590   9.849 -1.6801 -2.5808 -0.8149
 3652SOL    HW222590   1.734   1.573   9.720 -0.2493  2.1305 -2.9841
 3653SOL     OW22591   2.534   3.661   1.608  0.4164 -0.7252 -0.0643
 3653SOL    HW122592   2.468   3.712   1.654  1.6414 -1.7740  2.8485
 3653SOL    HW222593   2.614   3.713   1.613 -0.0916 -0.0080  0.5939
 3654SOL     OW22594   2.362   0.455   7.896 -0.2612  0.0423  0.0451
 3654SOL    HW122595   2.448   0.474   7.934 -0.2868 -0.5811  0.4080
 3654SOL    HW222596   2.400   0.393   7.834 -2.4523  0.7514 -1.9708
 3655SOL     OW22597   3.422   4.724   4.075  0.0852 -0.0407  0.1697
 3655SOL    HW122598   3.390   4.636   4.094  1.1173 -0.3412  0.5301
 3655SOL    HW222599   3.415   0.031   4.161 -1.8929 -0.5767  0.2577
 3656SOL     OW22600   3.690   3.804  16.954  0.0964  0.1770 -0.6703
 3656SOL    HW122601   3.663   3.798  16.862 -1.0216  0.6194 -0.3682
 3656SOL    HW222602   3.727   3.717  16.966  0.3539  0.5018  0.8039
 3657SOL     OW22603   3.972   1.511   4.597 -0.0267 -0.5624  0.1388
 3657SOL    HW122604   3.936   1.555   4.520  0.1119  0.6762  0.7779
 3657SOL    HW222605   3.946   1.578   4.660  0.2911  0.3694 -0.7253
 3658SOL     OW22606   2.161   0.510   9.406  0.2311 -0.1514  0.5298
 3658SOL    HW122607   2.070   0.535   9.390  1.4795  1.4060 -3.9103
 3658SOL    HW222608   2.209   0.530   9.326 -0.6309  0.1090  0.0846
 3659SOL     OW22609   3.460   1.675   1.254  0.2957 -0.2928  0.4772
 3659SOL    HW122610   3.411   1.607   1.302 -2.4854  0.5288 -1.2343
 3659SOL    HW222611   3.537   1.676   1.311  0.5740  3.1388  0.0108
 3660SOL     OW22612   3.594   3.579   3.194 -0.4415 -0.0240 -0.1585
 3660SOL    HW122613   3.568   3.551   3.106 -2.5306  0.0123  0.4533
 3660SOL    HW222614   3.641   3.502   3.227  1.5352  1.0427 -0.4594
 3661SOL     OW22615   1.744   4.238   7.311 -0.0691 -0.4752  0.0073
 3661SOL    HW122616   1.714   4.294   7.239  1.1668 -0.8906 -0.8426
 3661SOL    HW222617   1.665   4.234   7.364  1.1109 -0.8010  1.7488
 3662SOL     OW22618   2.615   3.682   4.404  0.6029  0.6299  0.5895
 3662SOL    HW122619   2.706   3.666   4.380  0.1959 -1.2730  0.2956
 3662SOL    HW222620   2.598   3.599   4.448 -0.8692  0.5819 -0.0646
 3663SOL     OW22621   4.002   2.630   6.197 -0.0051  0.2401 -1.1231
 3663SOL    HW122622   4.087   2.673   6.197 -1.5014  3.1702 -0.4498
 3663SOL    HW222623   3.958   2.696   6.144  0.2253  1.8125  0.6504
 3664SOL     OW22624   1.842   3.877   6.942 -0.3136  0.3086  0.5285
 3664SOL    HW122625   1.852   3.846   6.852 -0.0084  1.8381  0.0370
 3664SOL    HW222626   1.909   3.944   6.954  1.2803 -1.5083  1.8084
 3665SOL     OW22627   0.985   1.274   9.168 -0.2913 -0.4519  0.0658
 3665SOL    HW122628   1.007   1.275   9.075 -0.8221  0.4685 -0.0513
 3665SOL    HW222629   0.892   1.299   9.165 -0.2682 -0.5615 -1.5418
 3666SOL     OW22630   3.563   2.447   3.454 -0.0447  0.8155 -0.2637
 3666SOL    HW122631   3.542   2.466   3.363  1.2292  0.9690 -0.5186
 3666SOL    HW222632   3.568   2.352   3.446 -2.9046  0.6939 -0.7251
 3667SOL     OW22633   0.572   3.879   2.008  0.4164 -0.7329  0.1005
 3667SOL    HW122634   0.520   3.817   1.958 -1.3394  0.9020 -0.1003
 3667SOL    HW222635   0.657   3.837   2.021 -0.1284 -2.0805 -0.7476
 3668SOL     OW22636   1.667   1.847   2.878 -0.4107  0.2695 -0.2102
 3668SOL    HW122637   1.725   1.855   2.802 -0.3766  2.0325 -0.0177
 3668SOL    HW222638   1.704   1.923   2.924 -0.0089 -0.1304  0.1191
 3669SOL     OW22639   4.463   4.204   4.981  0.5775  0.5933 -0.1263
 3669SOL    HW122640   4.398   4.240   4.921  0.4432  0.0641 -0.3033
 3669SOL    HW222641   4.476   4.125   4.928  2.8922  1.6577 -1.1392
 3670SOL     OW22642   3.881   2.834   3.534 -0.1047  0.0393  0.6830
 3670SOL    HW122643   3.973   2.824   3.513 -0.3854 -0.4257 -0.3223
 3670SOL    HW222644   3.848   2.798   3.452 -0.4298  0.0272  0.8164
 3671SOL     OW22645   4.177   2.622  12.675 -0.4438  0.0644  0.1229
 3671SOL    HW122646   4.097   2.581  12.641  0.2949  0.0855 -1.6347
 3671SOL    HW222647   4.206   2.548  12.728 -0.1856 -0.1798 -0.3654
 3672SOL     OW22648   2.326   0.426   9.077 -0.4217  0.0164  0.0470
 3672SOL    HW122649   2.271   0.390   9.007  1.5823 -3.2304  0.1522
 3672SOL    HW222650   2.292   0.509   9.112  3.7727  2.2009 -1.1461
 3673SOL     OW22651   2.797   2.628   0.954  0.3924  0.5901  0.3169
 3673SOL    HW122652   2.769   2.627   0.863  1.3789 -3.8486  0.0941
 3673SOL    HW222653   2.710   2.635   0.996 -0.6447 -1.9031 -1.4506
 3674SOL     OW22654   3.794   0.493   4.849 -0.0160 -0.4423  0.1928
 3674SOL    HW122655   3.799   0.491   4.945  0.4391  0.9578  0.1926
 3674SOL    HW222656   3.882   0.458   4.839 -0.0846 -0.5984  0.1257
 3675SOL     OW22657   3.316   0.570   3.976  0.2364 -0.2599  0.2990
 3675SOL    HW122658   3.255   0.643   3.965  1.0256  0.0509 -2.0097
 3675SOL    HW222659   3.398   0.618   3.986  0.0019  0.2555 -0.2021
 3676SOL     OW22660   3.180   1.543   9.517 -0.2329 -0.2170 -0.2136
 3676SOL    HW122661   3.206   1.469   9.573  0.8966  0.4643  0.1546
 3676SOL    HW222662   3.124   1.595   9.575 -0.7034 -0.1602 -0.7207
 3677SOL     OW22663   2.879   0.157   7.268 -0.4900 -0.1330  1.0416
 3677SOL    HW122664   2.935   0.084   7.242 -0.9581  0.1107 -0.6292
 3677SOL    HW222665   2.938   0.208   7.323  1.2493  0.8906 -1.7594
 3678SOL     OW22666   3.335   1.824   2.457 -0.5744 -0.5773  0.2448
 3678SOL    HW122667   3.378   1.772   2.390 -0.0428 -0.6593  0.6492
 3678SOL    HW222668   3.267   1.764   2.486  0.5815 -0.7310  2.6490
 3679SOL     OW22669   3.054   1.424   6.661  0.5360  0.0784 -0.3273
 3679SOL    HW122670   3.077   1.455   6.749  2.3343 -0.7721 -0.5035
 3679SOL    HW222671   3.045   1.329   6.669 -2.1195  0.2743 -0.8984
 3680SOL     OW22672   3.051   3.935   5.195  0.2335 -0.2018 -0.5927
 3680SOL    HW122673   2.958   3.949   5.213  0.3157  0.3963 -0.6300
 3680SOL    HW222674   3.090   3.915   5.280  0.9853  0.4293 -0.7892
 3681SOL     OW22675   2.240   4.291   3.871  0.0340 -0.4330  0.2704
 3681SOL    HW122676   2.226   4.282   3.965  1.1738 -0.4023  0.4457
 3681SOL    HW222677   2.154   4.326   3.850 -0.7676 -2.5322 -0.0102
 3682SOL     OW22678   1.937   1.117   7.236  0.3216  0.4087 -0.2806
 3682SOL    HW122679   1.869   1.139   7.301  1.1610  0.2184  0.6658
 3682SOL    HW222680   2.021   1.153   7.265  0.2062  0.8046 -0.4403
 3683SOL     OW22681   3.116   0.991   5.438 -0.1327 -0.4887 -0.0718
 3683SOL    HW122682   3.070   0.926   5.385  0.1641  1.6418 -2.9031
 3683SOL    HW222683   3.086   1.078   5.413  3.5530  0.7553 -0.2286
 3684SOL     OW22684   1.563   4.052   9.804 -0.5210  0.1891  0.3615
 3684SOL    HW122685   1.561   4.073   9.897 -0.0279 -1.3501  0.7129
 3684SOL    HW222686   1.510   3.972   9.802 -0.9967  0.4762  1.3662
 3685SOL     OW22687   2.250   0.951   3.866  0.2470 -0.4064  0.4330
 3685SOL    HW122688   2.330   0.948   3.813 -0.7743  1.0629 -1.1933
 3685SOL    HW222689   2.260   0.876   3.925 -1.2617  0.0458  1.2572
 3686SOL     OW22690   4.674   0.795   4.677 -0.6829 -0.2548  0.2336
 3686SOL    HW122691   4.679   0.781   4.583  1.4882  1.7677  0.0668
 3686SOL    HW222692   4.585   0.832   4.682 -0.6683  0.1647 -2.5139
 3687SOL     OW22693   0.574   4.039   4.122  0.3700 -0.1242  0.0777
 3687SOL    HW122694   0.555   4.101   4.192 -1.0646 -0.2609 -0.1807
 3687SOL    HW222695   0.517   3.967   4.149 -1.6431  0.9743 -1.2674
 3688SOL     OW22696   1.463   1.505   1.187 -0.8650 -0.4299  0.5968
 3688SOL    HW122697   1.486   1.592   1.217  0.7775 -0.7639  0.2781
 3688SOL    HW222698   1.421   1.471   1.266  1.0823  0.7278  2.1179
 3689SOL     OW22699   3.293   2.592   0.641  0.0382 -0.3745 -0.0344
 3689SOL    HW122700   3.353   2.525   0.608  1.1687  0.7553 -0.2892
 3689SOL    HW222701   3.340   2.628   0.716  0.5983 -0.9829 -0.0915
 3690SOL     OW22702   2.780   3.747   7.999  0.1420  0.4580  0.1012
 3690SOL    HW122703   2.803   3.765   8.090  0.9291  0.5902 -0.1214
 3690SOL    HW222704   2.868   3.740   7.963 -0.5677 -0.0355 -1.5774
 3691SOL     OW22705   1.800   4.270   8.386 -0.0235 -0.3038  0.0200
 3691SOL    HW122706   1.824   4.326   8.460  3.1379 -1.0145 -0.4835
 3691SOL    HW222707   1.871   4.207   8.377  1.0755  0.8784  0.4844
 3692SOL     OW22708   2.163   3.259   7.892 -0.4359 -0.2057  0.4630
 3692SOL    HW122709   2.122   3.172   7.894  0.8756 -0.9923 -5.5641
 3692SOL    HW222710   2.102   3.312   7.841  0.7625  0.8011  0.0758
 3693SOL     OW22711   4.565   4.139   2.509 -0.2883 -0.5864 -0.0906
 3693SOL    HW122712   4.494   4.088   2.549  0.1792  1.0294  2.7525
 3693SOL    HW222713   4.512   4.193   2.450  0.7617  0.3709 -0.1563
 3694SOL     OW22714   0.044   1.674  16.774 -0.4546 -0.4895 -0.3513
 3694SOL    HW122715   0.062   1.767  16.761 -0.9342 -0.2077  0.9677
 3694SOL    HW222716   0.074   1.654  16.863  0.9834  1.3878 -0.4076
 3695SOL     OW22717   2.747   3.060   3.842  0.0799 -1.0861 -0.0855
 3695SOL    HW122718   2.732   3.144   3.884 -1.0887 -1.0468 -0.5740
 3695SOL    HW222719   2.780   3.002   3.910  1.1424  1.3487  1.4691
 3696SOL     OW22720   4.544   0.016  15.773  0.1640  0.1140 -0.1765
 3696SOL    HW122721   4.615   0.059  15.726  1.0869 -1.9106 -0.6506
 3696SOL    HW222722   4.472   0.078  15.760 -0.7632 -0.9930 -0.4053
 3697SOL     OW22723   0.817   0.858   2.616  0.8745  0.3437 -0.3354
 3697SOL    HW122724   0.743   0.877   2.559  0.3841 -0.7093 -0.0328
 3697SOL    HW222725   0.847   0.781   2.567 -0.0793 -0.1303 -0.1632
 3698SOL     OW22726   1.150   3.435  12.746  0.6654 -0.5642 -0.0302
 3698SOL    HW122727   1.189   3.397  12.667  0.7237 -1.7049  0.5449
 3698SOL    HW222728   1.089   3.365  12.772 -0.7242  0.8150  0.3903
 3699SOL     OW22729   3.008   4.521  12.209 -0.0744 -0.4286 -0.4688
 3699SOL    HW122730   2.983   4.614  12.207 -1.1015 -0.6544  2.1579
 3699SOL    HW222731   2.980   4.484  12.293 -1.1233 -0.3112 -0.7714
 3700SOL     OW22732   0.328   0.379   7.837 -0.1444  0.0295  0.2262
 3700SOL    HW122733   0.390   0.326   7.887 -0.1728  0.1012  0.3364
 3700SOL    HW222734   0.302   0.319   7.766  1.3578  1.5517 -1.5969
 3701SOL     OW22735   0.102   3.790   4.799 -0.3871  0.1700 -0.0933
 3701SOL    HW122736   0.047   3.737   4.858  0.2284  0.0518  0.3751
 3701SOL    HW222737   0.042   3.848   4.752 -1.5805 -1.5206 -0.6578
 3702SOL     OW22738   0.631   3.893   2.605 -0.2561  0.0158 -0.4837
 3702SOL    HW122739   0.673   3.978   2.617  1.1636 -0.7417 -0.1696
 3702SOL    HW222740   0.644   3.867   2.514  3.1637 -0.9948  0.3071
 3703SOL     OW22741   2.869   2.156  11.823 -0.4520  0.1091  0.5958
 3703SOL    HW122742   2.959   2.147  11.792 -0.3504  0.4489  0.7922
 3703SOL    HW222743   2.876   2.167  11.917  2.1098  0.1980  0.3832
 3704SOL     OW22744   1.118   3.112   2.590 -0.4882 -0.0740  0.3932
 3704SOL    HW122745   1.178   3.070   2.528  1.1684  1.9781  0.6133
 3704SOL    HW222746   1.059   3.043   2.621 -1.2769  0.9458  1.1678
 3705SOL     OW22747   3.499   4.690   2.609  0.1149  0.4823 -0.3109
 3705SOL    HW122748   3.593   4.696   2.629 -0.0665 -0.1278  0.7715
 3705SOL    HW222749   3.504   4.637   2.530 -0.6342 -0.7331  0.4562
 3706SOL     OW22750   3.643   4.238  11.557  0.7761 -0.0763 -0.4979
 3706SOL    HW122751   3.586   4.191  11.496  0.9891 -0.4343 -0.4177
 3706SOL    HW222752   3.579   4.227  11.627  1.4274 -2.4390 -0.2897
 3707SOL     OW22753   1.045   4.384  10.020 -0.0263 -0.2631 -0.2306
 3707SOL    HW122754   1.085   4.467  10.044 -0.0059  0.0897 -1.4745
 3707SOL    HW222755   1.104   4.334   9.964 -0.3980  0.1097 -0.9717
 3708SOL     OW22756   1.299   1.961   9.180  0.2769 -0.9294  0.3254
 3708SOL    HW122757   1.229   1.963   9.245 -0.0578 -2.2946 -0.0071
 3708SOL    HW222758   1.368   1.918   9.229 -0.3183 -1.7053  0.4781
 3709SOL     OW22759   4.383   4.384   7.354  0.2965 -0.0071  0.4278
 3709SOL    HW122760   4.428   4.301   7.339 -0.0716 -0.3193  1.0574
 3709SOL    HW222761   4.353   4.359   7.442 -0.1576  1.2925  0.6347
 3710SOL     OW22762   0.434   1.484   0.316  0.3801 -0.4102 -0.1252
 3710SOL    HW122763   0.506   1.422   0.306  0.4718 -0.6159  1.8604
 3710SOL    HW222764   0.456   1.525   0.232 -0.3016  0.5722  0.1802
 3711SOL     OW22765   2.880   0.444   2.369  0.6913 -0.5698 -0.0830
 3711SOL    HW122766   2.888   0.401   2.454  0.7975 -0.5973 -0.1064
 3711SOL    HW222767   2.785   0.443   2.358  0.5432 -1.9449  1.2915
 3712SOL     OW22768   2.430   3.544  17.409  0.6620  0.1273 -0.1196
 3712SOL    HW122769   2.388   3.464  17.379 -0.5030  1.9543 -3.4160
 3712SOL    HW222770   2.421   3.608  17.338  0.0024 -2.7742 -2.6585
 3713SOL     OW22771   1.827   3.941  15.025 -0.0733  0.3862  0.5589
 3713SOL    HW122772   1.876   4.022  15.013  0.8747 -0.1781  0.5880
 3713SOL    HW222773   1.902   3.889  14.995 -0.1204 -0.1649  1.4114
 3714SOL     OW22774   1.546   2.345   2.598  0.7066  0.6885 -0.5750
 3714SOL    HW122775   1.563   2.366   2.506  1.2553 -1.2898 -0.9108
 3714SOL    HW222776   1.538   2.434   2.633 -2.4137  0.2681 -0.1439
 3715SOL     OW22777   4.424   0.748   2.953 -0.1873 -0.8346  0.7142
 3715SOL    HW122778   4.360   0.784   2.891  0.3236 -0.8731  0.1602
 3715SOL    HW222779   4.366   0.678   2.983 -0.1778 -1.6592 -1.1739
 3716SOL     OW22780   2.810   2.349   9.893 -0.0710  0.0405  0.2611
 3716SOL    HW122781   2.836   2.330   9.983 -0.6961 -1.5472  0.1027
 3716SOL    HW222782   2.752   2.424   9.907  0.9021  0.7937  0.2670
 3717SOL     OW22783   2.282   2.779  12.289  0.3252  0.0886  0.0804
 3717SOL    HW122784   2.192   2.803  12.308  0.0939  1.0971 -2.2630
 3717SOL    HW222785   2.272   2.696  12.243  2.0237  0.1526 -0.4357
 3718SOL     OW22786   2.544   2.435   9.675  0.0119 -0.1935 -0.4551
 3718SOL    HW122787   2.467   2.389   9.710 -0.4617 -0.1271 -1.4258
 3718SOL    HW222788   2.575   2.474   9.757  1.7734  0.3475 -1.3863
 3719SOL     OW22789   3.035   0.731  14.952  0.4192 -0.4736 -0.0487
 3719SOL    HW122790   2.954   0.705  14.997  0.0650 -0.1931 -0.5245
 3719SOL    HW222791   2.995   0.788  14.886 -2.1412  0.4750  2.3074
 3720SOL     OW22792   1.797   0.108   6.204 -0.2647 -0.3491  0.1962
 3720SOL    HW122793   1.764   0.061   6.127 -0.3680 -0.6458  0.4201
 3720SOL    HW222794   1.759   0.053   6.272  0.2985  0.6726  1.3311
 3721SOL     OW22795   2.799   2.406   6.852 -0.7647  0.2943  0.1956
 3721SOL    HW122796   2.871   2.467   6.838 -1.0769 -0.2841 -4.0168
 3721SOL    HW222797   2.822   2.361   6.934 -2.6815  0.7124  0.9534
 3722SOL     OW22798   3.956   1.859   5.471 -0.6008  0.0745 -0.3198
 3722SOL    HW122799   3.981   1.933   5.526 -1.7024 -1.3176  2.0600
 3722SOL    HW222800   3.908   1.810   5.537 -1.2473  1.2772  0.1058
 3723SOL     OW22801   1.876   1.409   6.386 -0.3369  0.3174  0.6320
 3723SOL    HW122802   1.965   1.392   6.416 -0.5978 -2.1878 -0.0555
 3723SOL    HW222803   1.851   1.482   6.444 -0.7662  2.0621 -1.7362
 3724SOL     OW22804   2.849   1.261   9.807  0.3950 -0.2997 -0.5681
 3724SOL    HW122805   2.852   1.269   9.902 -3.0899 -0.3770 -0.4519
 3724SOL    HW222806   2.892   1.176   9.802  1.1157 -0.0070  0.8261
 3725SOL     OW22807   0.529   1.756   3.692  0.3643  0.0354 -0.1593
 3725SOL    HW122808   0.558   1.802   3.614  0.2849  1.2490  0.5339
 3725SOL    HW222809   0.438   1.730   3.674 -0.0367  1.6625 -0.4867
 3726SOL     OW22810   1.817   2.850   3.616 -0.3721 -0.3053 -0.0362
 3726SOL    HW122811   1.893   2.795   3.632 -1.3765 -2.5673 -2.9262
 3726SOL    HW222812   1.745   2.786   3.610 -0.3079 -0.3723 -0.0943
 3727SOL     OW22813   3.635   3.941   7.625 -0.4162 -0.1390  0.3112
 3727SOL    HW122814   3.550   3.898   7.617  0.3383 -1.4069 -0.8688
 3727SOL    HW222815   3.627   4.014   7.563  4.2216  0.5349  0.4895
 3728SOL     OW22816   4.178   1.444  14.368 -0.9136  0.0830  0.0578
 3728SOL    HW122817   4.223   1.528  14.379 -2.6745  1.0801 -0.3384
 3728SOL    HW222818   4.093   1.462  14.408 -0.1079 -1.7878  2.6089
 3729SOL     OW22819   1.498   1.773   2.161 -0.0085 -0.5212 -0.0143
 3729SOL    HW122820   1.574   1.724   2.193 -1.3902 -1.1972  2.2466
 3729SOL    HW222821   1.457   1.806   2.240 -0.5201  1.1662 -0.9900
 3730SOL     OW22822   1.229   2.387  11.137 -0.2974 -0.3654  0.3549
 3730SOL    HW122823   1.166   2.388  11.065 -0.3405  3.7276  0.4044
 3730SOL    HW222824   1.310   2.413  11.093 -0.1815 -2.0537 -0.3973
 3731SOL     OW22825   0.562   0.278   9.513  0.5367 -0.4018  0.3769
 3731SOL    HW122826   0.485   0.301   9.462 -0.8479 -0.9223  2.2276
 3731SOL    HW222827   0.552   0.336   9.589  1.1053 -0.2546  0.3410
 3732SOL     OW22828   3.282   2.188   9.237 -0.0997 -0.3053  0.0718
 3732SOL    HW122829   3.197   2.220   9.266 -0.1571 -0.4976  0.1163
 3732SOL    HW222830   3.279   2.106   9.286 -0.7119 -0.4564 -0.2211
 3733SOL     OW22831   1.393   2.194   3.390 -0.1481  0.4492  0.1697
 3733SOL    HW122832   1.361   2.131   3.454 -2.7384  2.0127  0.4249
 3733SOL    HW222833   1.440   2.144   3.323 -0.3573  0.1284  0.2641
 3734SOL     OW22834   2.737   4.708   5.610  0.5967  0.0454  0.2794
 3734SOL    HW122835   2.723   4.613   5.613 -1.3555  0.2923 -0.8381
 3734SOL    HW222836   2.665   4.733   5.669  0.5574  2.0945 -0.6568
 3735SOL     OW22837   0.664   1.837  14.930  0.3954  0.6995  0.3176
 3735SOL    HW122838   0.660   1.787  14.848 -3.3845 -2.9303  2.7136
 3735SOL    HW222839   0.759   1.834  14.928  0.4034  1.2103 -0.4113
 3736SOL     OW22840   4.391   3.933   6.730  0.3049 -0.7916 -0.6063
 3736SOL    HW122841   4.326   3.957   6.795  2.2668  0.3378  0.9576
 3736SOL    HW222842   4.381   4.004   6.666  2.3201  0.2454  0.2177
 3737SOL     OW22843   4.357   0.904   9.517  0.3034 -0.1882  0.3485
 3737SOL    HW122844   4.314   0.931   9.599 -0.5061  0.3589 -0.2561
 3737SOL    HW222845   4.448   0.892   9.543  0.9540  2.0826 -0.9188
 3738SOL     OW22846   2.932   1.011   8.064  0.0109 -0.6849 -0.3687
 3738SOL    HW122847   2.909   1.020   8.156  0.7898  0.1432 -0.2516
 3738SOL    HW222848   2.867   1.070   8.027 -0.3959 -0.7434  0.2559
 3739SOL     OW22849   4.518   3.782   2.476  0.0975 -0.5327 -0.5104
 3739SOL    HW122850   4.559   3.775   2.390  0.4084  1.8405 -0.5539
 3739SOL    HW222851   4.583   3.738   2.530 -0.1305  0.3311  0.4816
 3740SOL     OW22852   1.195   1.160   4.760  0.2829  0.0052  0.4527
 3740SOL    HW122853   1.117   1.107   4.741 -0.2190  0.2761  1.7566
 3740SOL    HW222854   1.227   1.121   4.841  0.7130 -0.3774  0.0973
 3741SOL     OW22855   3.821   2.422   2.531  0.3906 -0.0894 -0.3467
 3741SOL    HW122856   3.734   2.419   2.569 -0.4658  4.3252 -1.8987
 3741SOL    HW222857   3.869   2.353   2.577 -0.1280 -0.1495  0.1083
 3742SOL     OW22858   3.638   2.472  15.210 -0.4987  0.2347  0.3556
 3742SOL    HW122859   3.695   2.402  15.180  0.5528  1.6105 -0.8768
 3742SOL    HW222860   3.663   2.550  15.160 -2.2642  0.0907 -0.7635
 3743SOL     OW22861   4.652   0.430  15.546  0.6996 -0.7551  0.3707
 3743SOL    HW122862   4.701   0.508  15.571  1.0251 -0.5881 -0.7780
 3743SOL    HW222863   4.564   0.464  15.562  1.4568  0.5024  1.8736
 3744SOL     OW22864   3.615   2.572   2.672 -0.2203  0.2589  0.1757
 3744SOL    HW122865   3.531   2.533   2.697 -0.9822  0.3490 -2.2080
 3744SOL    HW222866   3.608   2.646   2.733  0.4139  0.2555  0.2489
 3745SOL     OW22867   0.724   1.861   0.258 -0.1386  0.0751 -0.1577
 3745SOL    HW122868   0.765   1.909   0.186 -0.4487  0.0979 -0.3210
 3745SOL    HW222869   0.785   1.787   0.265 -0.3227 -0.0605  0.0219
 3746SOL     OW22870   0.638   3.388   0.718 -0.1590 -0.1994  0.5344
 3746SOL    HW122871   0.700   3.458   0.697  0.2631 -0.6573  0.2520
 3746SOL    HW222872   0.631   3.395   0.813  3.1177  1.4528  0.6814
 3747SOL     OW22873   0.109   0.120   8.121 -0.1100  0.1874 -0.2834
 3747SOL    HW122874   0.091   0.203   8.077  2.0409  1.8107  1.8406
 3747SOL    HW222875   0.202   0.118   8.098 -0.3084 -2.4159 -0.8338
 3748SOL     OW22876   3.060   0.549   3.532 -0.2888 -0.1223  0.0573
 3748SOL    HW122877   3.037   0.521   3.444 -0.0162  1.2221 -0.4422
 3748SOL    HW222878   3.054   0.468   3.582  1.1535 -1.1344 -1.4181
 3749SOL     OW22879   0.817   1.954  14.713 -0.2502 -0.7200  0.4838
 3749SOL    HW122880   0.805   2.036  14.666  0.1428 -0.8044  0.2350
 3749SOL    HW222881   0.912   1.953  14.728 -0.2765 -1.1814  0.6247
 3750SOL     OW22882   2.954   3.285   1.121 -0.6346  0.0568  0.1754
 3750SOL    HW122883   2.958   3.217   1.055 -1.7389 -0.5002  0.6802
 3750SOL    HW222884   2.861   3.291   1.146 -0.0888  1.4682  1.9190
 3751SOL     OW22885   0.958   1.988  14.377  0.2980 -0.8460 -0.6852
 3751SOL    HW122886   0.935   2.038  14.299 -5.6987 -0.5705  1.2740
 3751SOL    HW222887   0.876   1.939  14.385  0.0042 -0.0999  0.9022
 3752SOL     OW22888   1.503   1.909  16.999 -0.2430 -0.6321  0.8949
 3752SOL    HW122889   1.463   1.962  16.930  0.0041 -0.8804  0.5582
 3752SOL    HW222890   1.591   1.931  16.969 -0.0130 -0.7819  1.4574
 3753SOL     OW22891   2.398   4.103   3.717  0.1516 -0.8336  0.1034
 3753SOL    HW122892   2.405   4.019   3.762  1.8863  0.2022  1.7566
 3753SOL    HW222893   2.336   4.154   3.769  0.7066 -1.7066  1.6220
 3754SOL     OW22894   3.665   0.013   3.997  0.0801 -0.3951 -0.7353
 3754SOL    HW122895   3.574   0.013   4.027 -0.6831  2.1347 -3.0789
 3754SOL    HW222896   3.660   4.666   3.948  0.8244 -1.7841  1.5104
 3755SOL     OW22897   1.176   2.966   4.991 -0.6157 -0.1631  0.5052
 3755SOL    HW122898   1.215   3.025   5.055  0.2491 -2.1774  1.8217
 3755SOL    HW222899   1.219   2.883   5.009 -0.1919 -0.2420 -0.8228
 3756SOL     OW22900   2.505   3.859   6.815  0.7248  0.0981 -0.1013
 3756SOL    HW122901   2.508   3.768   6.845 -0.7443  0.4223  1.0728
 3756SOL    HW222902   2.497   3.899   6.902 -1.4331 -0.6823  0.0763
 3757SOL     OW22903   0.944   0.002   3.439 -0.9340 -0.1923  0.0073
 3757SOL    HW122904   0.973   4.655   3.399  1.8829  0.7807  0.0124
 3757SOL    HW222905   1.027   0.039   3.471 -1.0029  1.1861 -1.3721
 3758SOL     OW22906   3.917   3.381   9.580  0.0458  0.0264 -0.6187
 3758SOL    HW122907   3.826   3.365   9.606 -0.0880  0.7930 -0.6068
 3758SOL    HW222908   3.911   3.455   9.519  2.5550  0.8643  0.1518
 3759SOL     OW22909   0.348   2.377   6.835  0.2406 -0.1524 -0.1098
 3759SOL    HW122910   0.367   2.364   6.742  1.1278 -0.8046  0.1607
 3759SOL    HW222911   0.311   2.465   6.828  2.5268  0.9788  2.1187
 3760SOL     OW22912   4.578   2.910   2.496 -0.2810 -0.1696  0.4211
 3760SOL    HW122913   4.523   2.922   2.418 -0.4324 -0.1295  0.5339
 3760SOL    HW222914   4.531   2.948   2.570 -1.9070  3.5020 -2.4917
 3761SOL     OW22915   3.018   2.202   2.626  0.0470 -0.3230  0.0282
 3761SOL    HW122916   2.933   2.167   2.652  1.6324 -1.2951  3.9135
 3761SOL    HW222917   3.068   2.121   2.621 -0.9851 -0.8893 -1.0163
 3762SOL     OW22918   2.222   0.690   9.165  0.6395 -0.7611  0.3036
 3762SOL    HW122919   2.140   0.679   9.117  0.3430 -0.4578  0.7384
 3762SOL    HW222920   2.227   0.786   9.166 -0.8031 -0.7268  2.8883
 3763SOL     OW22921   4.323   1.551   1.706  0.5888  0.0364 -0.1041
 3763SOL    HW122922   4.379   1.611   1.657  1.8971 -1.7978 -0.8841
 3763SOL    HW222923   4.392   1.531   1.770 -1.3612 -0.6193  1.7786
 3764SOL     OW22924   4.266   3.183  11.088  0.3097 -0.1889  0.0421
 3764SOL    HW122925   4.358   3.157  11.079  0.6391  0.0408  2.7224
 3764SOL    HW222926   4.229   3.102  11.122 -0.1484 -0.0516 -0.1357
 3765SOL     OW22927   4.221   4.118   1.086  0.2242  0.0985  0.3487
 3765SOL    HW122928   4.175   4.138   1.168 -1.1426 -4.4868  0.6838
 3765SOL    HW222929   4.226   4.204   1.045  0.2001 -0.0902 -0.0484
 3766SOL     OW22930   1.790   1.670   3.309 -0.4396  0.2922  0.2937
 3766SOL    HW122931   1.714   1.674   3.249  1.1112  1.0016 -1.6269
 3766SOL    HW222932   1.852   1.725   3.262  1.7760 -1.7592  0.8353
 3767SOL     OW22933   2.141   4.642  15.874 -0.2700  0.2103 -0.2877
 3767SOL    HW122934   2.117   4.668  15.963  2.1477 -0.8748  0.7045
 3767SOL    HW222935   2.068   4.679  15.825  0.8469  1.0467 -1.3293
 3768SOL     OW22936   2.801   3.073   6.679 -0.4377  0.2849  0.3909
 3768SOL    HW122937   2.882   3.104   6.719 -0.3897 -0.0490  0.5485
 3768SOL    HW222938   2.758   3.050   6.762 -0.8526 -0.9591 -0.1617
 3769SOL     OW22939   1.357   3.766   4.329 -0.0252 -0.2458 -0.1195
 3769SOL    HW122940   1.303   3.687   4.331 -1.3712  0.6506 -1.2167
 3769SOL    HW222941   1.420   3.732   4.266  1.8757  1.2840  0.9531
 3770SOL     OW22942   1.144   3.296   6.267  0.2101 -0.7396 -0.1223
 3770SOL    HW122943   1.134   3.282   6.173  2.5864  1.4514 -0.6935
 3770SOL    HW222944   1.239   3.286   6.274  0.1370 -0.5842  1.0725
 3771SOL     OW22945   2.864   0.792   1.641 -0.4981  0.2785 -0.2788
 3771SOL    HW122946   2.919   0.860   1.604 -1.0750  0.0784 -1.5053
 3771SOL    HW222947   2.865   0.725   1.572  1.0989 -1.2467  1.2372
 3772SOL     OW22948   4.606   2.711   5.398 -0.4206  0.2284  0.0663
 3772SOL    HW122949   4.618   2.761   5.478  0.0176  1.3689 -0.7100
 3772SOL    HW222950   4.665   2.636   5.399 -1.3225 -0.4883 -0.1546
 3773SOL     OW22951   2.188   0.965  13.560 -0.1836  0.1805 -0.0169
 3773SOL    HW122952   2.215   0.882  13.522 -2.2327 -0.2693 -0.4400
 3773SOL    HW222953   2.261   0.979  13.621 -0.1235  0.9760 -0.2590
 3774SOL     OW22954   1.156   0.195   0.965  0.0368 -0.4834 -0.6457
 3774SOL    HW122955   1.093   0.127   0.987  0.8998 -0.8572  0.6478
 3774SOL    HW222956   1.199   0.166   0.885 -0.8381 -2.2774 -0.4640
 3775SOL     OW22957   0.763   2.451  12.106 -0.0462 -0.0328  0.2703
 3775SOL    HW122958   0.713   2.392  12.049  1.6414  0.7402 -1.9873
 3775SOL    HW222959   0.850   2.427  12.074 -0.2938  0.8335 -1.0679
 3776SOL     OW22960   1.609   1.486   1.994 -0.2350 -0.0696 -0.4358
 3776SOL    HW122961   1.664   1.454   2.065 -0.5486  1.3207  0.4324
 3776SOL    HW222962   1.651   1.571   1.981  0.7566 -0.3103  1.2067
 3777SOL     OW22963   2.423   0.547   3.539 -0.5954 -0.1308 -1.0834
 3777SOL    HW122964   2.480   0.516   3.469  1.0716 -0.4611  0.4276
 3777SOL    HW222965   2.461   0.633   3.558 -1.2464  0.2658 -1.5626
 3778SOL     OW22966   0.338   4.460   5.955  0.0034  0.1627  0.2108
 3778SOL    HW122967   0.400   4.409   5.904  0.0511 -0.1270  0.5623
 3778SOL    HW222968   0.345   4.551   5.925  0.9033 -0.1772 -0.6042
 3779SOL     OW22969   2.703   4.724   9.335 -0.2011  0.0470 -0.1503
 3779SOL    HW122970   2.699   4.647   9.392  0.5174 -0.6283 -1.0097
 3779SOL    HW222971   2.618   0.028   9.358 -0.4443  0.8088 -2.3610
 3780SOL     OW22972   4.710   3.932   8.568 -0.1994 -0.1247  0.3709
 3780SOL    HW122973   0.028   3.895   8.638 -0.0825 -0.9506 -0.1547
 3780SOL    HW222974   0.000   4.024   8.576 -2.0577  0.5813 -2.0106
 3781SOL     OW22975   2.563   2.706   5.047  0.6055  0.0674 -0.0581
 3781SOL    HW122976   2.584   2.616   5.021 -0.3383  0.1152 -1.0156
 3781SOL    HW222977   2.618   2.728   5.122  1.8091 -0.6290 -0.7330
 3782SOL     OW22978   1.910   2.109   2.103  0.4693  0.0522 -0.2264
 3782SOL    HW122979   1.942   2.092   2.014  0.6692 -3.7875  0.5649
 3782SOL    HW222980   1.831   2.055   2.101 -0.0493  0.7942  0.5435
 3783SOL     OW22981   0.658   1.401   4.362 -0.0205 -0.2171  0.4117
 3783SOL    HW122982   0.656   1.386   4.268 -0.1293 -2.4006  0.7487
 3783SOL    HW222983   0.570   1.383   4.395  0.0717  0.8115  1.2047
 3784SOL     OW22984   3.098   2.965   0.310 -0.1606  0.2809  0.0695
 3784SOL    HW122985   3.135   2.916   0.236  0.3232 -0.0639  0.5461
 3784SOL    HW222986   3.170   2.961   0.373 -0.7907  0.1226  0.7726
 3785SOL     OW22987   4.603   1.846   3.073  0.1195  1.0966  0.5423
 3785SOL    HW122988   4.630   1.930   3.111  1.1709  0.3956  1.3496
 3785SOL    HW222989   4.651   1.857   2.991 -0.2412 -0.3361  0.1451
 3786SOL     OW22990   2.560   0.536   8.566 -0.4295  0.2611  0.3038
 3786SOL    HW122991   2.626   0.549   8.633  1.4421  2.1635 -1.8891
 3786SOL    HW222992   2.585   0.447   8.542 -1.0192  0.0688  0.4140
 3787SOL     OW22993   1.166   1.493   3.598  0.1444  0.1743 -0.2763
 3787SOL    HW122994   1.181   1.579   3.558  1.6005 -0.1139 -0.3321
 3787SOL    HW222995   1.245   1.461   3.556  0.6865  1.1134  0.0226
 3788SOL     OW22996   3.755   0.698   0.683 -0.1869 -0.3167  0.5126
 3788SOL    HW122997   3.820   0.723   0.617 -0.4567  0.9263  0.7168
 3788SOL    HW222998   3.678   0.717   0.631 -0.9873 -1.4643  1.2862
 3789SOL     OW22999   2.587   3.930   1.031  1.0102  0.5055  0.3683
 3789SOL    HW123000   2.565   3.886   1.113  1.9067  0.9309  0.8336
 3789SOL    HW223001   2.601   3.862   0.966 -0.6205 -1.3607  1.9674
 3790SOL     OW23002   2.407   0.660   7.082 -0.0037  0.1243 -0.0906
 3790SOL    HW123003   2.429   0.660   7.175 -1.1436  1.6882  0.1780
 3790SOL    HW223004   2.405   0.565   7.068  0.0923 -0.0429  1.0467
 3791SOL     OW23005   3.645   2.648  16.207  0.0002  0.2427  0.0153
 3791SOL    HW123006   3.579   2.656  16.276 -0.3060 -0.2216 -0.2261
 3791SOL    HW223007   3.619   2.568  16.161 -0.7402  0.7349 -0.4183
 3792SOL     OW23008   2.762   0.547   8.772 -0.4934  0.1558  0.6274
 3792SOL    HW123009   2.840   0.527   8.823  0.4967  1.9116 -0.2076
 3792SOL    HW223010   2.701   0.513   8.838  0.1761 -1.3798  0.4569
 3793SOL     OW23011   4.074   1.492   2.590 -0.3960 -0.2431  0.6747
 3793SOL    HW123012   4.080   1.446   2.506 -3.0582 -0.8550  0.8186
 3793SOL    HW223013   3.981   1.514   2.595 -0.4544 -0.3005 -0.1553
 3794SOL     OW23014   4.160   0.456   2.376  0.3169  0.2525  0.3746
 3794SOL    HW123015   4.131   0.537   2.417  0.3138 -0.0248  0.9256
 3794SOL    HW223016   4.147   0.477   2.284 -3.7717 -0.0897  0.8638
 3795SOL     OW23017   0.403   4.358   9.079  0.4047 -0.0205 -0.7945
 3795SOL    HW123018   0.430   4.301   9.151 -1.3964  0.1389  0.0178
 3795SOL    HW223019   0.315   4.390   9.102  1.5585  1.6823  1.2744
 3796SOL     OW23020   2.493   1.421   3.261 -0.2049 -0.7579  0.3238
 3796SOL    HW123021   2.480   1.509   3.296 -0.9339 -0.6538 -0.2196
 3796SOL    HW223022   2.521   1.438   3.171 -2.2704 -2.3170 -0.6340
 3797SOL     OW23023   2.551   4.314   9.250 -0.0604  0.5823 -0.0718
 3797SOL    HW123024   2.606   4.362   9.312 -0.4666  0.2362  0.5616
 3797SOL    HW223025   2.578   4.223   9.262 -3.8484 -0.3017  1.7190
 3798SOL     OW23026   3.168   2.402  12.629  0.3267 -0.1857  0.0948
 3798SOL    HW123027   3.246   2.383  12.680  1.3188 -1.7889 -2.0270
 3798SOL    HW223028   3.186   2.361  12.545 -0.3709 -2.2828  0.9839
 3799SOL     OW23029   1.819   3.358   3.721  0.0370  0.0926  0.3549
 3799SOL    HW123030   1.807   3.292   3.652 -2.4995 -0.2027  1.0958
 3799SOL    HW223031   1.749   3.352   3.786 -1.5316 -0.6157 -1.3883
 3800SOL     OW23032   3.379   1.307   9.147  0.2516  0.1970 -0.2296
 3800SOL    HW123033   3.425   1.380   9.105  1.1475  0.6191  1.4633
 3800SOL    HW223034   3.292   1.348   9.148 -0.3234 -1.0080 -2.1883
 3801SOL     OW23035   2.292   1.016   2.551 -0.1686 -0.0276  0.0275
 3801SOL    HW123036   2.346   0.943   2.522 -0.5922 -0.0729 -0.6528
 3801SOL    HW223037   2.343   1.095   2.533 -1.0994  0.6755  0.4120
 3802SOL     OW23038   2.071   1.513  14.436 -0.1375  0.5101  0.5352
 3802SOL    HW123039   2.024   1.515  14.520 -1.2692  1.4464 -0.1052
 3802SOL    HW223040   2.120   1.432  14.448 -1.5853 -0.2793  1.2049
 3803SOL     OW23041   3.650   0.750   4.210  0.0127  0.0672  0.7186
 3803SOL    HW123042   3.744   0.759   4.201  0.0697 -2.6298 -1.2246
 3803SOL    HW223043   3.638   0.655   4.220 -0.3323 -0.0226 -0.6042
 3804SOL     OW23044   0.433   4.006   9.733 -0.9567 -0.2928  0.4627
 3804SOL    HW123045   0.430   4.095   9.698 -0.5420 -0.9956 -1.3384
 3804SOL    HW223046   0.421   3.953   9.654  1.1575  1.0621 -0.7902
 3805SOL     OW23047   3.605   1.198   8.377  0.4689 -0.3389 -0.2460
 3805SOL    HW123048   3.529   1.166   8.426  0.8345 -1.8761 -0.6818
 3805SOL    HW223049   3.584   1.161   8.291 -2.7190  0.4430  0.1914
 3806SOL     OW23050   1.296   3.244   9.419  0.3653 -0.5833 -0.6039
 3806SOL    HW123051   1.375   3.291   9.392  0.2103  0.5613  0.9748
 3806SOL    HW223052   1.227   3.310   9.419 -0.5864 -1.5284 -3.8597
 3807SOL     OW23053   4.221   4.145   6.628 -0.2345  0.0298  0.4008
 3807SOL    HW123054   4.197   4.196   6.551 -0.6388  0.4487  0.8040
 3807SOL    HW223055   4.262   4.213   6.681 -0.3499  0.1762  0.3031
 3808SOL     OW23056   1.468   1.886  11.007 -0.0608 -0.0179 -0.1219
 3808SOL    HW123057   1.526   1.811  11.021 -0.7774 -0.5873 -0.2551
 3808SOL    HW223058   1.407   1.888  11.081 -1.3360  0.0036 -1.1880
 3809SOL     OW23059   1.797   2.551   2.280  0.1067 -0.0473 -0.4997
 3809SOL    HW123060   1.761   2.511   2.202  1.8691 -0.8259 -0.8981
 3809SOL    HW223061   1.723   2.551   2.341  0.1300 -1.1173 -0.4729
 3810SOL     OW23062   0.821   2.122   0.003 -0.2273  0.1918  0.9206
 3810SOL    HW123063   0.807   2.173   0.083  0.6783  1.2236  0.4168
 3810SOL    HW223064   0.902   2.160  17.710  1.4813 -3.1800  1.2419
 3811SOL     OW23065   2.210   1.585   0.648 -0.2823 -0.0249 -0.3073
 3811SOL    HW123066   2.288   1.628   0.613  0.7028 -1.6473 -0.0882
 3811SOL    HW223067   2.147   1.652   0.620  1.3768  1.7139  0.1330
 3812SOL     OW23068   2.530   4.277   1.170 -0.0469 -0.9560  0.1818
 3812SOL    HW123069   2.625   4.284   1.166 -0.0844  0.3556  1.7495
 3812SOL    HW223070   2.527   4.220   1.093 -1.4448  0.8763 -1.1164
 3813SOL     OW23071   3.640   1.585   1.456 -0.2998  0.0062  0.1619
 3813SOL    HW123072   3.723   1.546   1.484 -1.4616 -1.6422  1.3507
 3813SOL    HW223073   3.596   1.610   1.537 -0.3282 -0.8183  0.4056
 3814SOL     OW23074   3.502   2.690   7.011 -0.0509  0.3862 -0.4202
 3814SOL    HW123075   3.565   2.736   7.066  0.5619 -1.1122  0.1320
 3814SOL    HW223076   3.560   2.671   6.937  0.1952  2.6222 -0.8044
 3815SOL     OW23077   0.269   3.372   5.319  0.0340  0.7767  0.0712
 3815SOL    HW123078   0.292   3.420   5.398  0.2442  1.6837 -0.5409
 3815SOL    HW223079   0.178   3.402   5.312 -0.5716 -1.3149 -1.0440
 3816SOL     OW23080   1.022   3.722   9.480  0.1351  0.8376  0.4552
 3816SOL    HW123081   1.087   3.769   9.532 -0.3464  0.9259  0.9871
 3816SOL    HW223082   1.063   3.701   9.396 -0.0816  0.5512  0.4185
 3817SOL     OW23083   3.618   2.137   8.841 -0.4662  0.8013  0.7988
 3817SOL    HW123084   3.536   2.100   8.808  1.5631 -0.4082 -2.9197
 3817SOL    HW223085   3.630   2.084   8.920 -1.0912 -0.7750 -0.1589
 3818SOL     OW23086   3.187   2.801   0.927  0.4277 -0.0012  0.1785
 3818SOL    HW123087   3.277   2.777   0.947 -0.6249 -3.4182  0.8540
 3818SOL    HW223088   3.158   2.836   1.011 -0.4417 -1.6980  0.5786
 3819SOL     OW23089   2.708   1.599   9.956 -0.0931 -0.2296 -0.1386
 3819SOL    HW123090   2.738   1.626   9.869 -0.8109  2.2762  0.3875
 3819SOL    HW223091   2.756   1.665  10.005  1.1629  0.9339 -2.9225
 3820SOL     OW23092   3.246   2.497   0.297 -0.0705 -0.4473  0.4171
 3820SOL    HW123093   3.266   2.582   0.257 -1.1183 -0.2292  0.3537
 3820SOL    HW223094   3.172   2.515   0.355 -0.2298  2.1317 -0.5804
 3821SOL     OW23095   4.677   2.873   5.602  0.5782  0.1956  0.8797
 3821SOL    HW123096   4.626   2.951   5.624  1.4072  1.7358 -2.6364
 3821SOL    HW223097   4.702   2.857   5.694  1.1244 -0.4716  0.6149
 3822SOL     OW23098   1.524   1.981   4.496 -0.2334 -0.3208  0.4558
 3822SOL    HW123099   1.501   2.073   4.513  1.1250  0.6273 -2.9862
 3822SOL    HW223100   1.612   1.988   4.458 -0.9244  0.3996 -0.9711
 3823SOL     OW23101   0.626   3.123  11.968  0.0609  0.0690 -0.3026
 3823SOL    HW123102   0.571   3.075  12.030  0.4868  0.0677  0.0749
 3823SOL    HW223103   0.678   3.170  12.033 -0.0445 -1.2682  0.7278
 3824SOL     OW23104   4.211   3.031   7.413  0.3302 -0.5216  0.1738
 3824SOL    HW123105   4.267   3.108   7.400  0.9848 -1.0027  0.1617
 3824SOL    HW223106   4.191   3.026   7.319  0.6962 -0.0680  0.0741
 3825SOL     OW23107   4.463   1.317   3.560 -0.1209  0.2589 -0.8027
 3825SOL    HW123108   4.395   1.311   3.492 -0.3585 -1.2433 -0.4222
 3825SOL    HW223109   4.525   1.269   3.505  2.0576  0.6420  1.3312
 3826SOL     OW23110   4.709   0.332  10.705  0.2413 -0.2038 -0.0397
 3826SOL    HW123111   4.619   0.342  10.671  0.2411  1.2571  0.3777
 3826SOL    HW223112   0.003   0.289  10.624 -0.9409  0.0310 -0.5936
 3827SOL     OW23113   1.140   1.683   0.546  0.2146  0.0302  0.8624
 3827SOL    HW123114   1.227   1.678   0.506 -0.0697  0.4076  0.1948
 3827SOL    HW223115   1.150   1.747   0.617  1.3066  0.7534  0.0506
 3828SOL     OW23116   2.567   0.025   7.743 -0.2205  0.1013  0.4854
 3828SOL    HW123117   2.569   4.712   7.826  1.0602  0.7199  0.8108
 3828SOL    HW223118   2.616   0.103   7.767 -1.4047  1.0036 -0.0440
 3829SOL     OW23119   0.315   2.100   8.008 -0.0923 -0.2678 -0.1309
 3829SOL    HW123120   0.402   2.129   7.981 -0.2986  2.2909  1.8654
 3829SOL    HW223121   0.265   2.180   7.990 -0.5523 -0.5865 -0.2781
 3830SOL     OW23122   3.872   4.328   1.900 -0.3199  0.0633 -0.2696
 3830SOL    HW123123   3.875   4.237   1.871  1.4340  0.3072 -0.8460
 3830SOL    HW223124   3.831   4.319   1.986 -1.1631 -1.9814 -0.8778
 3831SOL     OW23125   1.434   2.254  10.122  0.2362 -0.0030  0.1615
 3831SOL    HW123126   1.429   2.248  10.217 -0.8190  0.1409  0.1168
 3831SOL    HW223127   1.340   2.259  10.105 -0.0764 -0.1984  1.8010
 3832SOL     OW23128   1.177   1.040   4.247  0.1163 -0.4030 -0.4585
 3832SOL    HW123129   1.087   1.016   4.223 -0.3615 -0.1311  1.0699
 3832SOL    HW223130   1.159   1.127   4.283  1.4126 -0.4206  0.2336
 3833SOL     OW23131   1.445   3.266   5.576  0.1949 -0.4456  0.2658
 3833SOL    HW123132   1.528   3.241   5.535 -0.0969  0.4128 -0.8217
 3833SOL    HW223133   1.468   3.313   5.656  0.0636 -0.1976  0.1570
 3834SOL     OW23134   3.960   3.853   7.047 -0.5215 -0.2109 -0.0703
 3834SOL    HW123135   4.051   3.830   7.027 -0.5193  0.5069 -0.8743
 3834SOL    HW223136   3.963   3.947   7.064 -0.0674 -0.1232 -0.6316
 3835SOL     OW23137   2.860   2.201   9.017  0.7323  1.1661 -0.7051
 3835SOL    HW123138   2.822   2.116   9.041  1.5489  0.5537 -1.6063
 3835SOL    HW223139   2.954   2.189   9.003  0.5036 -0.9701 -0.4978
 3836SOL     OW23140   1.636   1.926   9.111  0.2382  0.2805 -0.2802
 3836SOL    HW123141   1.611   1.846   9.066 -2.1791 -0.0612  1.6827
 3836SOL    HW223142   1.588   1.994   9.064  1.3487  1.5202  0.3527
 3837SOL     OW23143   2.821   3.669   6.527 -0.0131 -0.4551 -0.1217
 3837SOL    HW123144   2.756   3.704   6.587 -0.3397 -1.1226 -0.0875
 3837SOL    HW223145   2.904   3.685   6.571  0.4793 -1.9081 -0.4949
 3838SOL     OW23146   4.020   3.395   0.083  0.0770  0.7289 -0.0214
 3838SOL    HW123147   4.108   3.432   0.079  0.4307 -0.0409  0.6236
 3838SOL    HW223148   4.023   3.359   0.171 -0.8874  1.4469  0.3025
 3839SOL     OW23149   2.417   2.564   3.518  0.0356  0.8513  0.4421
 3839SOL    HW123150   2.362   2.588   3.592 -0.6067 -2.2158  0.9407
 3839SOL    HW223151   2.464   2.645   3.499  2.3145 -1.1199 -2.4047
 3840SOL     OW23152   0.656   0.032   4.994 -0.2483 -0.1074  0.1355
 3840SOL    HW123153   0.726   0.007   4.934  0.6108  0.9801  0.6857
 3840SOL    HW223154   0.632   0.111   4.947  0.3319 -0.1427 -0.2176
 3841SOL     OW23155   2.993   2.258   8.684 -0.5063  0.0638 -0.2288
 3841SOL    HW123156   2.998   2.261   8.780 -0.0940 -0.7756 -0.2237
 3841SOL    HW223157   3.046   2.334   8.663 -0.2532 -0.2853 -0.8394
 3842SOL     OW23158   2.063   4.340  16.186 -0.1892 -0.1024 -0.5786
 3842SOL    HW123159   1.981   4.292  16.179 -0.2435 -0.2085  0.6615
 3842SOL    HW223160   2.035   4.393  16.260  0.1907  0.9188 -1.1769
 3843SOL     OW23161   0.460   1.313  10.044  0.3202 -0.3332 -0.6178
 3843SOL    HW123162   0.421   1.245   9.988 -1.1463  0.8628 -1.0578
 3843SOL    HW223163   0.511   1.354   9.975  0.7614  0.7351  0.3467
 3844SOL     OW23164   2.992   3.056   6.257 -0.1401  0.7054 -0.0744
 3844SOL    HW123165   2.987   3.108   6.177  0.2976  0.3870 -0.3101
 3844SOL    HW223166   2.913   3.008   6.233  1.4902 -0.5209 -3.0752
 3845SOL     OW23167   4.607   3.716   2.794  0.1290  0.0790 -0.2520
 3845SOL    HW123168   4.687   3.727   2.744  1.6999  0.6652  2.3953
 3845SOL    HW223169   4.608   3.792   2.852 -1.8420 -0.4490  0.4786
 3846SOL     OW23170   2.395   0.070  13.246  0.1573 -0.0889  0.0970
 3846SOL    HW123171   2.472   0.064  13.304 -0.2033  0.3059  0.6222
 3846SOL    HW223172   2.316   0.053  13.296  0.5153  0.6985  0.9467
 3847SOL     OW23173   0.043   2.183   5.716 -0.2968 -0.2369  0.5247
 3847SOL    HW123174   0.056   2.167   5.623  0.8614  1.7835  0.3492
 3847SOL    HW223175   4.687   2.208   5.726  0.8436  3.0807  2.4736
 3848SOL     OW23176   1.447   1.750   1.335  0.0476  0.1223 -0.5055
 3848SOL    HW123177   1.357   1.779   1.320 -0.4388 -0.5889  1.0804
 3848SOL    HW223178   1.498   1.831   1.325 -0.3136  0.5379  1.0927
 3849SOL     OW23179   1.621   4.172  13.314  0.2717 -0.0783  0.1600
 3849SOL    HW123180   1.562   4.113  13.268  0.6503 -0.8120  0.6215
 3849SOL    HW223181   1.689   4.104  13.308  0.4403 -0.0844  2.3419
 3850SOL     OW23182   0.209   1.859  10.473  0.3190 -0.0668 -0.2030
 3850SOL    HW123183   0.132   1.902  10.509 -0.4375 -0.4499 -1.3743
 3850SOL    HW223184   0.238   1.795  10.538  3.4878  0.1504 -1.3658
 3851SOL     OW23185   3.925   0.834   4.216 -0.7047 -0.0062 -0.5171
 3851SOL    HW123186   3.937   0.880   4.299  2.6268 -2.2900  0.2798
 3851SOL    HW223187   4.011   0.791   4.215 -0.4777  0.3971  1.1612
 3852SOL     OW23188   0.371   4.307   8.647  0.7973 -0.0796 -0.7895
 3852SOL    HW123189   0.291   4.272   8.607 -0.9432  1.2943  1.4931
 3852SOL    HW223190   0.381   4.248   8.721  0.7929 -0.3208 -0.9827
 3853SOL     OW23191   4.473   2.163   2.475  0.0386 -0.0877 -0.3658
 3853SOL    HW123192   4.516   2.203   2.399 -0.0043 -0.3719 -0.5426
 3853SOL    HW223193   4.532   2.087   2.479 -1.0287 -0.7429  2.3841
 3854SOL     OW23194   3.482   0.359   8.851  0.4615  0.2430 -0.8917
 3854SOL    HW123195   3.414   0.319   8.797 -1.1633  0.8022  0.7237
 3854SOL    HW223196   3.488   0.451   8.828 -1.3192  1.0682  2.0010
 3855SOL     OW23197   2.821   2.400   9.209 -0.3790 -0.0427 -0.0076
 3855SOL    HW123198   2.878   2.334   9.170 -3.0573 -0.6575 -2.9419
 3855SOL    HW223199   2.750   2.348   9.248 -0.5222  0.0452 -0.1484
 3856SOL     OW23200   3.754   3.673   3.637 -0.3200 -0.2253 -0.7330
 3856SOL    HW123201   3.825   3.728   3.670 -0.3475 -0.4885 -0.2348
 3856SOL    HW223202   3.803   3.629   3.567  0.2003 -2.9433  1.3233
 3857SOL     OW23203   3.679   0.234   5.647 -0.0449  0.3921 -0.3713
 3857SOL    HW123204   3.721   0.313   5.612 -0.2943  0.4116 -0.6291
 3857SOL    HW223205   3.597   0.235   5.597  0.3738  0.2876 -1.0597
 3858SOL     OW23206   4.733   0.314   3.580 -0.7920  0.1137  0.1341
 3858SOL    HW123207   0.074   0.273   3.538  0.9429  3.3377  0.1221
 3858SOL    HW223208   0.036   0.334   3.666 -0.2728  0.0961 -0.0913
 3859SOL     OW23209   2.179   2.289   0.574  0.0653 -0.4540 -0.2474
 3859SOL    HW123210   2.142   2.327   0.495 -1.0158  1.2046  1.0625
 3859SOL    HW223211   2.271   2.308   0.553  0.8154 -2.1181  1.5333
 3860SOL     OW23212   1.334   4.327  14.952  0.4412  0.0478  0.6870
 3860SOL    HW123213   1.293   4.254  14.997  0.5264  1.5691  3.2391
 3860SOL    HW223214   1.337   4.397  15.018  1.9706 -0.3029  0.9867
 3861SOL     OW23215   3.467   0.432   5.193  0.2768  0.1987  0.1487
 3861SOL    HW123216   3.528   0.470   5.129  1.0191  1.5907  1.6815
 3861SOL    HW223217   3.419   0.382   5.127  0.3341  0.2793  0.0442
 3862SOL     OW23218   2.194   0.340   4.039 -0.2052  0.2148 -0.3832
 3862SOL    HW123219   2.259   0.313   3.974 -2.3251  0.3502 -2.5711
 3862SOL    HW223220   2.236   0.316   4.121 -1.1140  1.7752  0.5375
 3863SOL     OW23221   3.290   4.547   8.243 -0.5280 -0.3698  0.5982
 3863SOL    HW123222   3.287   4.636   8.207  1.7700 -1.1034 -1.4446
 3863SOL    HW223223   3.382   4.531   8.223  0.1384  0.9291  2.6989
 3864SOL     OW23224   3.083   1.393   0.435  0.0901 -0.6285  0.1225
 3864SOL    HW123225   3.137   1.453   0.384  0.3207  1.1137  2.4300
 3864SOL    HW223226   3.009   1.380   0.375  1.0457 -0.5786 -1.0796
 3865SOL     OW23227   1.469   1.738   1.658 -0.5998  0.1262 -0.4813
 3865SOL    HW123228   1.540   1.754   1.597 -2.0585  0.1003 -2.1877
 3865SOL    HW223229   1.491   1.788   1.736 -0.3953  1.2561 -1.2776
 3866SOL     OW23230   0.819   4.360   5.593 -0.4813 -0.3610 -0.4878
 3866SOL    HW123231   0.850   4.271   5.609  1.3686  0.2567 -0.7336
 3866SOL    HW223232   0.798   4.359   5.499  0.0903  1.9420 -0.6438
 3867SOL     OW23233   3.446   3.318  17.617 -0.6663  0.0144 -0.3294
 3867SOL    HW123234   3.404   3.402  17.598 -1.2526 -0.1480  0.2706
 3867SOL    HW223235   3.379   3.250  17.617 -1.0701  0.4028 -1.2546
 3868SOL     OW23236   4.369   4.331   6.778 -0.7477  0.2260  0.2070
 3868SOL    HW123237   4.457   4.363   6.759 -0.5666 -1.4552 -1.7106
 3868SOL    HW223238   4.379   4.258   6.840  0.8591 -0.0788 -0.4185
 3869SOL     OW23239   1.980   2.767   4.160 -0.2092  0.3268  0.2519
 3869SOL    HW123240   1.961   2.840   4.218  1.4662  0.9889 -0.0335
 3869SOL    HW223241   2.004   2.705   4.229  2.7464  0.7339 -0.4012
 3870SOL     OW23242   2.090   0.595   5.523  0.1249  0.3413  0.2201
 3870SOL    HW123243   2.002   0.629   5.508  1.1669  1.3129 -3.4839
 3870SOL    HW223244   2.079   0.501   5.509  1.7233  0.2108 -0.2244
 3871SOL     OW23245   3.629   2.791  13.983  0.2169  0.2933  0.5134
 3871SOL    HW123246   3.571   2.865  13.997  0.6879  0.7949 -0.1888
 3871SOL    HW223247   3.631   2.777  13.888  0.1328  1.0248  0.4044
 3872SOL     OW23248   4.406   2.721   5.678 -0.2884  0.2083  0.2051
 3872SOL    HW123249   4.481   2.733   5.737  1.5407 -0.9408 -1.8735
 3872SOL    HW223250   4.385   2.630   5.697  0.8819 -0.3185 -1.0100
 3873SOL     OW23251   0.693   4.646   4.568  0.0988 -0.1516 -0.1388
 3873SOL    HW123252   0.748   4.659   4.491 -0.2126  0.1387 -0.3157
 3873SOL    HW223253   0.606   4.674   4.539  0.3239  4.0619  3.3282
 3874SOL     OW23254   2.178   2.602   7.543  0.2707  0.3282  0.1771
 3874SOL    HW123255   2.272   2.595   7.531  0.3474  1.6012  0.0939
 3874SOL    HW223256   2.158   2.546   7.619 -1.0860 -0.2619 -0.6136
 3875SOL     OW23257   4.276   0.463   1.615  0.0898  0.2293 -0.1545
 3875SOL    HW123258   4.339   0.533   1.635  0.6045 -0.1304 -0.5481
 3875SOL    HW223259   4.192   0.500   1.644 -0.5989 -2.3435  1.0894
 3876SOL     OW23260   0.511   1.059   3.697 -0.1094 -0.4101  0.6018
 3876SOL    HW123261   0.561   1.086   3.620  0.6071  0.4115  1.3623
 3876SOL    HW223262   0.454   0.999   3.648 -3.1003  2.2847  0.8032
 3877SOL     OW23263   1.606   3.259   4.395 -0.4250 -0.0794 -0.0538
 3877SOL    HW123264   1.516   3.287   4.410 -0.3193  1.1001 -1.5991
 3877SOL    HW223265   1.593   3.227   4.306  1.7535 -0.2210 -0.3179
 3878SOL     OW23266   0.878   3.250   6.692 -0.9305  0.0525  0.0037
 3878SOL    HW123267   0.917   3.236   6.606  0.7284 -1.7712  1.0444
 3878SOL    HW223268   0.848   3.339   6.672  0.8447  0.9218  1.1545
 3879SOL     OW23269   4.341   2.086  12.081 -0.2609 -0.0489  0.6073
 3879SOL    HW123270   4.312   2.165  12.035  0.6235  0.1381  0.3803
 3879SOL    HW223271   4.324   2.115  12.171  0.0759 -1.0619  1.0002
 3880SOL     OW23272   0.812   1.171  11.964  0.3325  0.0772 -0.3976
 3880SOL    HW123273   0.858   1.179  12.048  0.1753  1.0592 -0.4022
 3880SOL    HW223274   0.839   1.084  11.936  1.5203  0.5065 -0.6331
 3881SOL     OW23275   4.428   0.498   2.701 -0.1595 -0.7651  0.0618
 3881SOL    HW123276   4.512   0.539   2.682  0.3866 -1.5968  0.6848
 3881SOL    HW223277   4.369   0.565   2.666 -0.8405 -0.6310  1.4530
 3882SOL     OW23278   0.144   0.706  12.441 -0.0639 -0.0731  0.5868
 3882SOL    HW123279   0.084   0.663  12.502 -1.2687  0.5806 -0.1432
 3882SOL    HW223280   0.077   0.742  12.383  1.4994  0.8298 -0.6515
 3883SOL     OW23281   4.172   0.578  10.718 -0.0279  0.3214 -0.0516
 3883SOL    HW123282   4.185   0.624  10.635 -0.2589  0.7578  0.1519
 3883SOL    HW223283   4.097   0.629  10.749 -0.2076  0.0957 -0.1157
 3884SOL     OW23284   0.225   3.030   9.482  0.0502 -0.2868  0.7960
 3884SOL    HW123285   0.297   3.090   9.499  0.3986 -1.0183  1.9500
 3884SOL    HW223286   0.207   3.006   9.573 -0.3764  0.7539  0.9833
 3885SOL     OW23287   2.036   1.687   6.282  0.1240  0.0215  0.5075
 3885SOL    HW123288   2.043   1.593   6.264  1.1610  0.2478 -0.2128
 3885SOL    HW223289   2.112   1.707   6.336 -1.0413  0.4711  1.9835
 3886SOL     OW23290   1.761   1.677  14.745  0.3237 -0.5527  0.0690
 3886SOL    HW123291   1.786   1.741  14.678 -1.4342 -0.8911 -0.8931
 3886SOL    HW223292   1.834   1.615  14.746 -0.5984 -1.6366 -0.1106
 3887SOL     OW23293   2.958   1.336  14.255 -0.1882 -0.5015 -0.5671
 3887SOL    HW123294   3.017   1.409  14.243 -0.1595 -0.5359 -0.6322
 3887SOL    HW223295   3.017   1.263  14.234  2.1209  1.0020  0.7480
 3888SOL     OW23296   3.415   4.431   8.589 -0.3118  0.1234  0.1962
 3888SOL    HW123297   3.446   4.521   8.604 -2.2352  0.6749  0.9412
 3888SOL    HW223298   3.460   4.397   8.667  0.7307 -0.5104 -0.6922
 3889SOL     OW23299   0.757   4.497   3.529 -0.1939 -0.2193  0.3670
 3889SOL    HW123300   0.780   4.452   3.611 -2.2476 -0.7620  0.6421
 3889SOL    HW223301   0.803   4.438   3.469  1.3847  1.0045  0.3934
 3890SOL     OW23302   3.678   2.284   8.423 -0.4503 -0.7467 -0.5743
 3890SOL    HW123303   3.668   2.347   8.495  1.9371 -0.5115 -0.4630
 3890SOL    HW223304   3.754   2.231   8.447 -1.1756 -1.4869  0.1183
 3891SOL     OW23305   2.700   0.288  10.545  0.3038  0.2109 -0.0333
 3891SOL    HW123306   2.752   0.362  10.577 -1.6332  0.8111  1.7646
 3891SOL    HW223307   2.645   0.328  10.478 -0.3948 -0.7443 -0.0300
 3892SOL     OW23308   1.934   3.344   7.428 -0.2363 -0.3140 -0.6129
 3892SOL    HW123309   1.907   3.435   7.414  1.7546  1.0552  4.4969
 3892SOL    HW223310   1.851   3.297   7.420 -0.9048  0.5480  1.3587
 3893SOL     OW23311   0.290   3.759   7.230 -0.6042 -0.1355  0.2663
 3893SOL    HW123312   0.222   3.747   7.164 -1.0474  0.4012  0.6247
 3893SOL    HW223313   0.363   3.751   7.169 -0.3531 -0.9968  0.6710
 3894SOL     OW23314   3.781   1.657   6.852 -0.4832  0.0727  0.3166
 3894SOL    HW123315   3.737   1.593   6.796  2.2947 -1.9269  0.4269
 3894SOL    HW223316   3.792   1.602   6.930  1.6702  0.8875  0.5746
 3895SOL     OW23317   3.021   3.691  17.688 -0.3145 -0.3098 -0.0895
 3895SOL    HW123318   3.022   3.627  17.617 -0.3898 -0.8852  0.4247
 3895SOL    HW223319   2.933   3.729  17.679  1.0181  2.7990  0.0286
 3896SOL     OW23320   3.736   0.710   2.443  0.3354 -0.2016 -0.1866
 3896SOL    HW123321   3.739   0.795   2.399 -1.1212  1.3259  2.6456
 3896SOL    HW223322   3.692   0.650   2.383  3.4243 -0.4507 -2.1516
 3897SOL     OW23323   0.273   2.256   7.108 -0.6429 -0.3398 -0.3889
 3897SOL    HW123324   0.221   2.333   7.130  1.0770  0.4546  0.8718
 3897SOL    HW223325   0.305   2.268   7.019  0.2216 -1.2828 -0.2086
 3898SOL     OW23326   1.496   1.452   0.475 -0.2991  0.0851 -0.3841
 3898SOL    HW123327   1.581   1.457   0.432  0.2376  0.9326  0.7690
 3898SOL    HW223328   1.512   1.470   0.568  0.7371 -1.1890 -0.3162
 3899SOL     OW23329   4.424   0.214  12.566 -0.6816 -0.1767 -0.1943
 3899SOL    HW123330   4.421   0.132  12.516  1.4197 -0.4855  0.1933
 3899SOL    HW223331   4.349   0.258  12.526  2.4541  4.0546 -1.2693
 3900SOL     OW23332   0.670   0.887   9.486 -0.2369 -0.0271  0.1834
 3900SOL    HW123333   0.624   0.842   9.415 -1.2939 -0.1330  0.9366
 3900SOL    HW223334   0.748   0.834   9.470 -0.7439 -0.3048 -1.4190
 3901SOL     OW23335   3.937   4.733  11.925 -0.1328 -0.0321  0.2279
 3901SOL    HW123336   4.032   0.012  11.935 -0.4125  1.9861  0.0833
 3901SOL    HW223337   3.909   0.089  11.931 -0.1641  0.0658 -1.6103
 3902SOL     OW23338   2.389   0.026   4.645 -1.0391  0.1619  0.0326
 3902SOL    HW123339   2.317   0.061   4.592  0.4507 -0.5012 -2.4457
 3902SOL    HW223340   2.338   4.708   4.706 -0.7065 -1.9330 -1.4958
 3903SOL     OW23341   1.649   0.056   5.102  0.1684 -0.0129 -0.5205
 3903SOL    HW123342   1.562   0.074   5.138 -0.1071 -0.2928 -1.0381
 3903SOL    HW223343   1.711   0.061   5.175  0.2583 -1.3762 -0.5124
 3904SOL     OW23344   0.625   4.481  15.681 -0.4882  0.2246 -0.2258
 3904SOL    HW123345   0.686   4.418  15.643 -1.3769 -0.9280  0.2718
 3904SOL    HW223346   0.534   4.461  15.658 -0.3379 -0.6385 -0.0760
 3905SOL     OW23347   4.140   2.674   1.858 -0.0450  0.0380 -0.6257
 3905SOL    HW123348   4.120   2.594   1.907 -1.6529  1.0016  0.2908
 3905SOL    HW223349   4.160   2.736   1.929  0.7514 -1.2912  0.3070
 3906SOL     OW23350   2.769   1.433  11.465  0.2296 -0.4253 -0.5770
 3906SOL    HW123351   2.720   1.371  11.411 -0.3128 -0.7295  0.2748
 3906SOL    HW223352   2.765   1.390  11.550  0.6066 -1.1981 -0.9464
 3907SOL     OW23353   2.057   4.669  16.615 -0.0479  0.2355 -0.0113
 3907SOL    HW123354   2.088   4.651  16.704  1.7289  0.6059 -0.5442
 3907SOL    HW223355   2.016   0.019  16.633 -1.4408 -0.7116  1.3328
 3908SOL     OW23356   2.515   4.506  13.612  0.1203  0.8131 -0.2210
 3908SOL    HW123357   2.587   4.498  13.550  1.0260  2.3493  0.6456
 3908SOL    HW223358   2.517   4.427  13.665 -0.2763  1.0501  0.1582
 3909SOL     OW23359   1.392   2.974  12.126  0.0799 -0.5619  0.7803
 3909SOL    HW123360   1.442   2.992  12.205  1.1590 -3.2660  0.7234
 3909SOL    HW223361   1.302   3.000  12.147 -1.0860 -4.0969  0.2068
 3910SOL     OW23362   0.968   1.205   3.904 -0.2413 -0.0759 -0.3417
 3910SOL    HW123363   0.896   1.267   3.912  0.0266  0.3842 -1.4362
 3910SOL    HW223364   0.953   1.169   3.816 -0.5337 -0.1098 -0.2802
 3911SOL     OW23365   2.364   1.230   5.578 -0.2819 -0.2779  0.1932
 3911SOL    HW123366   2.391   1.228   5.670  1.5092 -1.2699 -0.3481
 3911SOL    HW223367   2.333   1.320   5.579 -0.6531 -0.4037 -0.1187
 3912SOL     OW23368   0.698   4.580   3.244 -0.4612  0.0226 -0.2841
 3912SOL    HW123369   0.730   4.604   3.331  0.8935  1.0089 -1.0522
 3912SOL    HW223370   0.775   4.594   3.189 -1.2996  0.1616 -1.4280
 3913SOL     OW23371   3.362   1.053   6.881  0.5899 -0.3290  0.0733
 3913SOL    HW123372   3.423   1.038   6.953 -2.3601 -1.4446  2.3096
 3913SOL    HW223373   3.350   0.964   6.848 -0.2794  0.0571 -0.6513
 3914SOL     OW23374   1.022   1.668  12.269 -0.1433 -0.6697  0.0946
 3914SOL    HW123375   1.058   1.585  12.238  1.3039 -1.2625  3.3632
 3914SOL    HW223376   1.041   1.715  12.188 -1.8838 -3.7267 -2.0856
 3915SOL     OW23377   4.109   3.509   2.608 -0.5324  0.6610 -0.2245
 3915SOL    HW123378   4.170   3.557   2.663  1.0879  2.0696 -3.2812
 3915SOL    HW223379   4.141   3.533   2.521  1.4892  1.3684  0.7260
 3916SOL     OW23380   2.463   1.410   7.567 -0.2079  0.8942  0.4186
 3916SOL    HW123381   2.415   1.485   7.534 -1.9732 -0.3490  0.1512
 3916SOL    HW223382   2.391   1.390   7.628 -0.9918  2.1590 -0.1072
 3917SOL     OW23383   2.994   3.088  10.863 -0.1625 -0.2760  0.1546
 3917SOL    HW123384   3.013   2.997  10.840  1.4003  0.4562 -1.4728
 3917SOL    HW223385   2.914   3.087  10.916  0.9038 -0.3407  1.7540
 3918SOL     OW23386   2.648   3.320   1.180  0.3029  0.0724 -0.5743
 3918SOL    HW123387   2.682   3.234   1.204 -0.8488 -0.9452 -2.6232
 3918SOL    HW223388   2.627   3.356   1.266 -1.9078 -0.7031 -0.8000
 3919SOL     OW23389   2.054   0.429  14.827  0.2279  0.4092 -0.5717
 3919SOL    HW123390   1.974   0.452  14.780  0.7754  1.6843 -0.8730
 3919SOL    HW223391   2.016   0.360  14.882  0.0863  0.2053 -0.9226
 3920SOL     OW23392   3.484   4.361   3.433  0.6054 -0.2246 -0.4719
 3920SOL    HW123393   3.526   4.285   3.393 -1.0066 -1.1898 -0.3570
 3920SOL    HW223394   3.449   4.405   3.355  0.6238  0.6689  0.0302
 3921SOL     OW23395   1.653   0.030  13.213  0.4825 -0.4563 -0.2017
 3921SOL    HW123396   1.665   0.118  13.177 -3.0405  0.5112  0.9657
 3921SOL    HW223397   1.740   4.731  13.228 -0.0776 -2.3703 -1.3180
 3922SOL     OW23398   0.267   1.204   3.470 -0.4950  0.1174  0.3665
 3922SOL    HW123399   0.247   1.249   3.387 -0.9570  1.3860  1.1652
 3922SOL    HW223400   0.359   1.180   3.457 -0.7933 -0.6187 -0.4334
 3923SOL     OW23401   1.840   4.422   3.622 -0.2675  0.0451  0.5395
 3923SOL    HW123402   1.885   4.488   3.570  1.8317 -1.6133  0.2367
 3923SOL    HW223403   1.871   4.333   3.606  0.9593  0.8838 -1.7804
 3924SOL     OW23404   3.288   4.172   4.920  0.2278 -0.1557  0.3420
 3924SOL    HW123405   3.310   4.079   4.916 -1.6145 -0.5025 -1.2740
 3924SOL    HW223406   3.368   4.204   4.962  0.3208 -0.8104  0.6714
 3925SOL     OW23407   1.224   3.224   4.587 -0.1763  0.2587 -0.2882
 3925SOL    HW123408   1.251   3.134   4.604 -0.7968 -0.1190 -1.3113
 3925SOL    HW223409   1.195   3.258   4.672 -0.8704 -4.7858  1.4623
 3926SOL     OW23410   3.063   1.711   5.280  0.6130  0.4785  0.0902
 3926SOL    HW123411   3.121   1.756   5.218 -0.1660  1.7318  0.2669
 3926SOL    HW223412   2.984   1.766   5.279  0.8379  0.7880 -1.2752
 3927SOL     OW23413   3.831   0.944   2.022 -0.2584  0.2423 -0.2404
 3927SOL    HW123414   3.781   0.878   2.069 -1.2922  0.5811 -0.8589
 3927SOL    HW223415   3.886   0.974   2.094  1.4574 -0.5069 -1.2412
 3928SOL     OW23416   4.373   1.109  17.697  0.0159  0.1896 -0.0209
 3928SOL    HW123417   4.300   1.074  17.647  0.9226 -3.4203  1.1618
 3928SOL    HW223418   4.410   1.180  17.644  1.4635 -0.7653 -0.2956
 3929SOL     OW23419   2.977   0.626   8.642 -0.8787  0.1705 -0.4729
 3929SOL    HW123420   3.045   0.599   8.704 -1.2152 -0.4575 -0.3698
 3929SOL    HW223421   2.894   0.597   8.680  0.1176  0.2937  1.7723
 3930SOL     OW23422   4.303   3.195  17.329  0.7625 -0.7680 -0.0134
 3930SOL    HW123423   4.273   3.105  17.313 -2.4053  0.2189  0.4293
 3930SOL    HW223424   4.384   3.202  17.279 -0.1396  0.2022 -1.3476
 3931SOL     OW23425   1.559   1.064   7.198  0.0414 -0.0268  0.0179
 3931SOL    HW123426   1.599   1.133   7.146  1.0817  0.0350  0.8915
 3931SOL    HW223427   1.591   0.987   7.151 -0.1352  0.4356 -0.8451
 3932SOL     OW23428   1.751   2.939   8.319  0.0366 -0.4135  0.0769
 3932SOL    HW123429   1.747   2.986   8.236 -1.5104  1.5692  1.2793
 3932SOL    HW223430   1.701   2.861   8.298 -1.5297  0.4043  0.7900
 3933SOL     OW23431   4.280   3.689   3.040  0.3395  0.7503 -0.0542
 3933SOL    HW123432   4.293   3.712   3.131  0.5690 -0.0002  0.1019
 3933SOL    HW223433   4.186   3.701   3.027  0.2957  2.3480  1.9683
 3934SOL     OW23434   1.516   4.378  10.058  0.2637  0.6782 -0.1248
 3934SOL    HW123435   1.606   4.411  10.055 -0.2454  2.1407  0.5942
 3934SOL    HW223436   1.496   4.417  10.144 -1.9409 -2.7003  0.9018
 3935SOL     OW23437   3.020   2.544  12.181  0.4140  0.2188 -0.2299
 3935SOL    HW123438   3.100   2.548  12.233  1.9413 -2.3048 -2.3992
 3935SOL    HW223439   3.053   2.551  12.092  0.7410 -2.5642 -0.3399
 3936SOL     OW23440   0.761   0.060   2.931  0.1580 -0.2122 -0.6969
 3936SOL    HW123441   0.714   0.052   2.848 -0.9880  0.8260 -0.1527
 3936SOL    HW223442   0.709   0.125   2.979  2.6827 -0.0053  1.7160
 3937SOL     OW23443   3.043   1.447   5.279  0.5025 -0.2788  0.1644
 3937SOL    HW123444   3.036   1.542   5.274 -0.9807 -0.4034 -0.1110
 3937SOL    HW223445   2.987   1.425   5.205 -0.3425 -0.4091  0.8447
 3938SOL     OW23446   2.514   4.700   6.171  0.1575  0.2269  0.4009
 3938SOL    HW123447   2.433   4.650   6.160 -0.9939  2.4073 -1.3002
 3938SOL    HW223448   2.564   4.661   6.099 -0.4302 -1.6544  1.0215
 3939SOL     OW23449   0.202   0.595   9.959 -0.7779 -0.2922  0.0458
 3939SOL    HW123450   0.129   0.593  10.020 -1.3487 -0.7713 -0.6453
 3939SOL    HW223451   0.261   0.530   9.997 -1.4807  0.1686  1.9171
 3940SOL     OW23452   2.649   2.477   7.164  0.1458  0.3581  0.2649
 3940SOL    HW123453   2.566   2.519   7.186  2.7391  3.9686  3.1656
 3940SOL    HW223454   2.648   2.474   7.068 -1.5222  0.3285  0.2864
 3941SOL     OW23455   0.951   1.472   2.369  1.3152 -0.0570 -0.3141
 3941SOL    HW123456   0.896   1.398   2.345 -0.0969  0.6490  0.7262
 3941SOL    HW223457   1.012   1.435   2.433 -0.6298 -0.1110  1.4907
 3942SOL     OW23458   1.865   0.220   9.664 -1.1423 -0.1084  0.4790
 3942SOL    HW123459   1.950   0.246   9.699 -0.9965 -0.2045  0.1974
 3942SOL    HW223460   1.863   0.286   9.594 -1.4059  1.2588  1.7639
 3943SOL     OW23461   4.498   2.391   5.969 -0.2706  0.3638 -0.3499
 3943SOL    HW123462   4.562   2.457   5.995  0.4132 -0.3796 -0.1396
 3943SOL    HW223463   4.536   2.368   5.885  1.6110  0.5543  0.4476
 3944SOL     OW23464   3.067   2.609  11.920 -0.3550 -0.1391  0.5113
 3944SOL    HW123465   3.013   2.582  11.846 -1.1473 -0.2084  1.1067
 3944SOL    HW223466   3.151   2.575  11.891 -1.2425  0.1449 -2.3484
 3945SOL     OW23467   1.868   1.442  11.006 -0.8746  0.4633 -0.0647
 3945SOL    HW123468   1.841   1.357  11.040 -1.1680  0.5677 -0.0320
 3945SOL    HW223469   1.927   1.414  10.936 -0.8065  0.2300  0.0875
 3946SOL     OW23470   1.766   2.285   8.955  0.7239  0.1489  0.6030
 3946SOL    HW123471   1.674   2.258   8.954  0.4617  1.1412 -1.5101
 3946SOL    HW223472   1.806   2.240   9.030  1.7186  2.9486  1.7427
 3947SOL     OW23473   3.190   2.975   3.128 -0.2361 -0.1339  0.2804
 3947SOL    HW123474   3.163   3.018   3.047  0.2515  1.2095  0.8331
 3947SOL    HW223475   3.197   3.046   3.192 -0.4662  1.1549 -1.1320
 3948SOL     OW23476   2.950   0.618   8.368 -0.9937 -0.1509  0.3526
 3948SOL    HW123477   2.878   0.680   8.357  0.3479  1.3921  0.1599
 3948SOL    HW223478   2.951   0.606   8.463 -1.2667  0.4616  0.4339
 3949SOL     OW23479   0.118   1.066   8.767  0.4625 -0.4339 -0.0378
 3949SOL    HW123480   0.042   1.068   8.825  0.3812  3.1463 -0.2582
 3949SOL    HW223481   0.145   1.156   8.785  0.1421 -0.1685 -0.8972
 3950SOL     OW23482   0.437   3.566  16.988  0.1510  0.0766 -0.3495
 3950SOL    HW123483   0.420   3.471  16.984  1.3311 -0.0704 -2.0035
 3950SOL    HW223484   0.515   3.574  17.044  0.8824  0.1873 -1.3830
 3951SOL     OW23485   4.596   2.785   2.157 -0.0311  0.2291  0.3684
 3951SOL    HW123486   4.525   2.841   2.190  0.1204  1.9211 -2.1591
 3951SOL    HW223487   4.555   2.753   2.077  1.0577 -0.8025  0.2243
 3952SOL     OW23488   3.404   1.409  15.965 -0.9134 -0.2375 -0.2989
 3952SOL    HW123489   3.345   1.363  16.025 -1.6752 -2.0068 -2.3872
 3952SOL    HW223490   3.373   1.499  15.970  1.3313  0.6292 -1.9953
 3953SOL     OW23491   0.268   0.184   5.781  0.2734 -0.5182 -0.0120
 3953SOL    HW123492   0.297   0.257   5.835  1.8522 -0.1871 -1.2918
 3953SOL    HW223493   0.258   0.227   5.695 -0.0237  0.0044  0.2852
 3954SOL     OW23494   3.460   0.610   8.767  0.3365  0.7154 -0.0117
 3954SOL    HW123495   3.379   0.655   8.794 -0.3284 -1.1531  1.0742
 3954SOL    HW223496   3.518   0.683   8.787  0.0453  0.9860 -0.1497
 3955SOL     OW23497   1.297   2.846   3.772 -0.1354  0.7025  0.2949
 3955SOL    HW123498   1.209   2.830   3.808  0.4147 -1.0736  0.8613
 3955SOL    HW223499   1.336   2.893   3.846 -2.5468  1.3696  1.1582
 3956SOL     OW23500   4.611   1.594   5.188  0.5090  0.4330  0.2206
 3956SOL    HW123501   4.656   1.648   5.253  1.8623 -2.4505  1.6794
 3956SOL    HW223502   4.593   1.522   5.249  0.1518  1.3038  1.1321
 3957SOL     OW23503   2.363   4.692   8.067 -0.0447  0.1379  0.7468
 3957SOL    HW123504   2.434   4.629   8.062 -0.9573 -0.7288 -1.1282
 3957SOL    HW223505   2.421   0.032   8.058  1.7784 -1.5226 -1.2392
 3958SOL     OW23506   3.480   1.416   0.994  0.0768  0.3953  0.5613
 3958SOL    HW123507   3.399   1.465   1.012  0.3945  1.0173  0.2877
 3958SOL    HW223508   3.496   1.435   0.902 -0.5816 -0.3239  0.3002
 3959SOL     OW23509   0.281   0.686   9.218 -0.0725  0.4252  0.1580
 3959SOL    HW123510   0.313   0.614   9.163 -2.3313  0.3578 -1.0524
 3959SOL    HW223511   0.187   0.677   9.232 -0.1826 -1.8489 -2.1333
 3960SOL     OW23512   1.092   3.529   8.573 -0.9443  0.0956 -0.0011
 3960SOL    HW123513   1.151   3.552   8.502 -1.9114  1.6651 -0.2744
 3960SOL    HW223514   1.152   3.528   8.648 -0.4370  1.0185 -0.4034
 3961SOL     OW23515   1.396   0.627  10.548  0.4508  0.7027 -0.1062
 3961SOL    HW123516   1.490   0.631  10.565  0.3351  3.4199 -0.1804
 3961SOL    HW223517   1.379   0.718  10.526  1.8942  1.0612  0.2388
 3962SOL     OW23518   4.696   0.717   0.147 -0.3530 -0.5820 -0.1692
 3962SOL    HW123519   0.006   0.782   0.094  0.2754 -1.1972 -0.3969
 3962SOL    HW223520   4.647   0.769   0.210  0.4112  1.0667 -0.9389
 3963SOL     OW23521   3.378   1.515   7.920  0.2618 -0.0530  0.5252
 3963SOL    HW123522   3.341   1.601   7.938  0.3258 -0.6024  3.2283
 3963SOL    HW223523   3.430   1.497   7.998 -1.0946  0.3976  1.5424
 3964SOL     OW23524   2.415   3.421  17.055  0.3941 -0.7127 -0.1582
 3964SOL    HW123525   2.342   3.359  17.052 -0.4554  0.2206  1.2447
 3964SOL    HW223526   2.491   3.365  17.072  0.8433 -0.4863 -1.4264
 3965SOL     OW23527   2.509   1.011   6.763  0.1915  0.4668  0.1784
 3965SOL    HW123528   2.579   1.006   6.699 -1.5860 -2.6056 -1.4781
 3965SOL    HW223529   2.511   1.101   6.797  1.7056 -0.2370  1.9970
 3966SOL     OW23530   0.989   1.159  12.184  0.6002 -0.0108  0.0213
 3966SOL    HW123531   1.057   1.132  12.246 -0.4488 -0.3285  1.0473
 3966SOL    HW223532   0.948   1.072  12.189 -1.7891  1.0981 -0.1196
 3967SOL     OW23533   0.068   2.283  12.794  0.4672  0.3670  0.1993
 3967SOL    HW123534   0.091   2.197  12.760 -1.0662 -1.1533  2.9774
 3967SOL    HW223535   0.131   2.298  12.864  2.1879  0.6949 -1.4212
 3968SOL     OW23536   0.560   4.169  11.667 -0.2608 -0.4009 -0.0574
 3968SOL    HW123537   0.495   4.234  11.641 -0.1770 -0.5932 -0.7381
 3968SOL    HW223538   0.634   4.230  11.666  0.4578 -1.2657 -0.0299
 3969SOL     OW23539   1.479   0.899   3.902 -0.0464 -0.6057  0.6212
 3969SOL    HW123540   1.388   0.867   3.897 -0.1241 -0.5547  1.7488
 3969SOL    HW223541   1.466   0.992   3.920  1.5682 -0.6006  1.7467
 3970SOL     OW23542   4.586   0.226   3.148 -0.1435 -0.7354 -0.2368
 3970SOL    HW123543   4.568   0.141   3.188  1.0636 -0.4728  0.8575
 3970SOL    HW223544   4.584   0.283   3.225 -0.1203  0.0247 -0.7974
 3971SOL     OW23545   2.889   0.212   6.720  0.3651  0.3920 -0.0988
 3971SOL    HW123546   2.819   0.258   6.674  2.2013  2.1507 -1.1634
 3971SOL    HW223547   2.871   0.232   6.812  0.8887  4.0063 -0.7751
 3972SOL     OW23548   0.943   3.882   3.303  0.3601  0.5764  0.1370
 3972SOL    HW123549   0.955   3.938   3.380  1.5844  0.1416  0.2671
 3972SOL    HW223550   0.968   3.798   3.342  0.1457  0.4815  0.0680
 3973SOL     OW23551   3.472   1.695   1.653 -0.4720 -0.2788 -0.1329
 3973SOL    HW123552   3.384   1.658   1.666 -0.5196  0.2520  1.1327
 3973SOL    HW223553   3.452   1.788   1.669  3.2280  0.6907 -1.1450
 3974SOL     OW23554   2.975   2.309  16.018  0.0648 -0.4655 -0.2241
 3974SOL    HW123555   2.976   2.289  16.112 -1.4553  0.4117 -0.0204
 3974SOL    HW223556   2.889   2.350  16.009  0.2148  0.0339  0.5965
 3975SOL     OW23557   3.532   0.931   1.026  0.0391 -0.4763 -0.2307
 3975SOL    HW123558   3.465   0.943   0.958  1.4768  0.7842 -1.4114
 3975SOL    HW223559   3.553   0.839   1.012 -0.7630 -0.5673 -0.8532
 3976SOL     OW23560   3.185   1.315  17.243  0.3611 -0.5646  0.0064
 3976SOL    HW123561   3.277   1.330  17.221 -0.3436  2.2656 -1.0740
 3976SOL    HW223562   3.156   1.405  17.260  0.0843 -0.6508 -0.0168
 3977SOL     OW23563   2.232   4.366   7.612  0.4713 -0.5434  0.6126
 3977SOL    HW123564   2.303   4.341   7.671 -1.5218 -0.8025  2.9001
 3977SOL    HW223565   2.179   4.286   7.613  1.3606 -1.1815 -2.5711
 3978SOL     OW23566   3.866   1.673   3.945 -0.1755 -0.6881  0.0211
 3978SOL    HW123567   3.827   1.684   4.032 -1.2591 -0.6104 -0.4757
 3978SOL    HW223568   3.814   1.731   3.889  2.6782  1.9642  0.1100
 3979SOL     OW23569   2.391   3.698   0.761  0.3339  0.1446  0.7128
 3979SOL    HW123570   2.439   3.641   0.701  1.4608 -0.2872  2.0201
 3979SOL    HW223571   2.459   3.763   0.777 -1.8500  2.5309  0.4653
 3980SOL     OW23572   0.066   2.920   4.868 -0.2955 -0.0090  0.3470
 3980SOL    HW123573   0.086   2.991   4.929  1.9776  2.0455 -2.7942
 3980SOL    HW223574   4.731   2.949   4.810  0.2862 -0.5450 -0.6208
 3981SOL     OW23575   1.403   3.656   6.838  0.4595 -0.3606  0.5809
 3981SOL    HW123576   1.351   3.578   6.855 -0.2302 -0.5276 -2.2639
 3981SOL    HW223577   1.370   3.700   6.916  1.7911  1.1945  0.2725
 3982SOL     OW23578   0.317   0.808   4.057  0.2266 -0.1167  0.1088
 3982SOL    HW123579   0.398   0.774   4.019 -0.0516  0.2065 -0.7858
 3982SOL    HW223580   0.351   0.889   4.096  1.0602 -1.3782  1.9922
 3983SOL     OW23581   1.122   1.393   2.564 -0.2358  0.4944  0.5196
 3983SOL    HW123582   1.182   1.450   2.613 -0.6696  0.0696  1.5360
 3983SOL    HW223583   1.147   1.307   2.596 -0.0463  0.6984  0.9202
 3984SOL     OW23584   1.713   0.381   2.348  0.3081 -0.1058 -0.2862
 3984SOL    HW123585   1.735   0.356   2.259 -0.3858 -0.6229 -0.3176
 3984SOL    HW223586   1.729   0.300   2.397 -1.1437  0.4598  1.1004
 3985SOL     OW23587   4.356   0.874  11.549  0.4271  0.4382 -0.1027
 3985SOL    HW123588   4.321   0.795  11.590 -0.3374  0.8618  0.0654
 3985SOL    HW223589   4.315   0.872  11.462 -0.7921  0.1893  0.4762
 3986SOL     OW23590   3.968   2.465  12.615 -0.1618 -0.0573 -0.1011
 3986SOL    HW123591   3.991   2.375  12.641  0.1162  0.4683  1.4418
 3986SOL    HW223592   3.919   2.450  12.534  3.2620  0.6169 -2.2780
 3987SOL     OW23593   3.638   2.259   5.674  0.4014 -0.4328  0.5700
 3987SOL    HW123594   3.594   2.344   5.682 -0.8589 -0.9949 -0.3903
 3987SOL    HW223595   3.726   2.278   5.708  0.4974 -1.3480  0.8306
 3988SOL     OW23596   4.601   1.257  14.883  0.3389 -0.1191  0.4674
 3988SOL    HW123597   4.533   1.291  14.825  0.6483  0.2001  0.2911
 3988SOL    HW223598   4.605   1.165  14.856  2.3752  0.6841 -1.9271
 3989SOL     OW23599   2.667   0.871   7.762  0.0064  0.1310  0.0540
 3989SOL    HW123600   2.703   0.905   7.680 -3.3665 -0.8177 -1.8336
 3989SOL    HW223601   2.602   0.809   7.730 -0.3212  0.9634 -0.8898
 3990SOL     OW23602   2.347   2.471   7.210  0.1766  0.3888 -0.0666
 3990SOL    HW123603   2.380   2.481   7.299  2.2352 -2.6550 -0.4975
 3990SOL    HW223604   2.288   2.546   7.196 -1.4052 -1.2497 -2.1403
 3991SOL     OW23605   3.546   2.506  11.964  0.6754  0.2325 -0.2387
 3991SOL    HW123606   3.459   2.510  11.925  0.4926 -0.5070  0.0857
 3991SOL    HW223607   3.561   2.600  11.975  0.5543  0.0837  1.2065
 3992SOL     OW23608   1.798   2.310   5.707  0.5553 -0.1169  0.2226
 3992SOL    HW123609   1.829   2.334   5.795  0.9763  1.0823 -0.2545
 3992SOL    HW223610   1.790   2.217   5.728  2.3975 -0.2440  0.3414
 3993SOL     OW23611   2.627   3.741   2.802  0.1503  0.1206 -0.0646
 3993SOL    HW123612   2.698   3.765   2.742 -0.0973 -3.6815 -1.9251
 3993SOL    HW223613   2.608   3.819   2.854 -0.1665  0.7068 -1.0630
 3994SOL     OW23614   1.671   4.273   7.774  0.2452  0.7503 -0.1246
 3994SOL    HW123615   1.762   4.247   7.795  0.2763  0.4194 -0.6746
 3994SOL    HW223616   1.631   4.287   7.860  2.0110  0.1679  0.8187
 3995SOL     OW23617   3.509   3.762   3.740  0.2743 -0.1706 -0.4339
 3995SOL    HW123618   3.437   3.717   3.696  0.8480 -0.5670 -0.9674
 3995SOL    HW223619   3.586   3.715   3.709  1.8596  0.3170  2.7774
 3996SOL     OW23620   4.239   0.168   6.105  0.0000  0.3238  0.2941
 3996SOL    HW123621   4.289   0.242   6.140  0.9698  0.2198 -0.8936
 3996SOL    HW223622   4.298   0.094   6.113 -1.0776 -0.5415  0.2516
 3997SOL     OW23623   0.850   1.538   6.473  0.0051 -0.2892 -0.4774
 3997SOL    HW123624   0.885   1.468   6.418 -0.0827 -1.8771  1.4781
 3997SOL    HW223625   0.923   1.593   6.502  1.1338 -1.0672 -1.8517
 3998SOL     OW23626   1.259   0.134  15.150  0.1695  0.5793  0.4108
 3998SOL    HW123627   1.254   0.185  15.231  0.5628 -0.9819  1.4055
 3998SOL    HW223628   1.324   0.184  15.101  2.1082 -0.8849  1.5206
 3999SOL     OW23629   2.876   3.884   9.175  0.1875 -0.2246 -0.1202
 3999SOL    HW123630   2.916   3.797   9.184 -0.4040 -0.7303 -2.2515
 3999SOL    HW223631   2.923   3.929   9.104 -0.2522  0.2393 -0.1092
 4000SOL     OW23632   1.535   1.002   2.804  0.4827  0.2669  0.3130
 4000SOL    HW123633   1.576   0.936   2.861 -1.4181 -2.4474 -1.4747
 4000SOL    HW223634   1.446   1.014   2.838  0.3590 -0.2466  0.1649
 4001SOL     OW23635   2.981   1.025   3.456  0.1442  0.9349 -0.2830
 4001SOL    HW123636   3.062   0.973   3.452 -1.2079 -0.9697 -3.4687
 4001SOL    HW223637   2.973   1.036   3.550  0.4297 -0.1334 -0.1346
 4002SOL     OW23638   0.980   4.287   7.816 -0.7261 -0.0455  0.2962
 4002SOL    HW123639   1.003   4.370   7.856  0.6008  1.5170 -3.7587
 4002SOL    HW223640   0.893   4.270   7.854 -1.2830 -0.7008 -1.3015
 4003SOL     OW23641   1.714   3.043   9.578  0.0002 -0.1985  0.1120
 4003SOL    HW123642   1.666   2.962   9.594 -0.1855 -0.4692 -1.7844
 4003SOL    HW223643   1.668   3.091   9.647 -0.2190 -0.6090  0.2509
 4004SOL     OW23644   3.744   1.766   2.357  0.4855  0.4331  0.5965
 4004SOL    HW123645   3.670   1.764   2.296  1.3296  0.4140 -0.4339
 4004SOL    HW223646   3.779   1.852   2.331  1.7793 -0.1174  0.4813
 4005SOL     OW23647   2.690   4.359  10.267 -0.0829 -0.4745  0.9144
 4005SOL    HW123648   2.630   4.292  10.235  1.4705 -0.3192 -2.2782
 4005SOL    HW223649   2.677   4.343  10.361  1.3873 -1.8959  0.8672
 4006SOL     OW23650   2.691   4.413   5.473  0.3795 -0.0592  0.2582
 4006SOL    HW123651   2.719   4.452   5.390  1.3363  1.5413  1.3601
 4006SOL    HW223652   2.770   4.365   5.494 -0.1783 -1.5592 -1.0299
 4007SOL     OW23653   1.396   1.152   4.015 -0.6000 -1.2229  0.0828
 4007SOL    HW123654   1.324   1.184   4.069 -1.4609 -0.2050 -1.6660
 4007SOL    HW223655   1.464   1.216   4.032 -1.7842 -0.2422  1.1442
 4008SOL     OW23656   0.961   1.320   3.529 -0.0771  0.2889 -0.1740
 4008SOL    HW123657   0.890   1.383   3.516  0.7696  0.8735 -2.0811
 4008SOL    HW223658   1.034   1.382   3.534  0.5313 -0.4926  0.5307
 4009SOL     OW23659   4.453   0.243   2.786 -0.1176 -0.3315 -0.2356
 4009SOL    HW123660   4.438   0.332   2.754 -2.2943 -0.3262  0.8080
 4009SOL    HW223661   4.362   0.239   2.816  0.1927 -0.6079  0.6512
 4010SOL     OW23662   4.344   3.969   3.016 -0.0361 -0.0493  0.1081
 4010SOL    HW123663   4.329   3.881   3.050 -0.5642 -0.4176 -1.0856
 4010SOL    HW223664   4.436   3.982   3.039 -0.3715  0.6901  0.9963
 4011SOL     OW23665   3.916   0.185   8.267  0.0249  0.3623 -0.4286
 4011SOL    HW123666   3.985   0.203   8.203  0.3072 -1.9069 -0.7412
 4011SOL    HW223667   3.955   0.143   8.344 -1.1122  0.2316  0.0702
 4012SOL     OW23668   1.905   1.973   8.075  0.0237 -0.0327  0.3105
 4012SOL    HW123669   1.901   1.881   8.047  0.3647 -0.0930  0.4627
 4012SOL    HW223670   1.833   1.974   8.138 -0.5903  1.0483 -0.4246
 4013SOL     OW23671   3.564   3.446  15.432  0.0591  0.2034  0.4090
 4013SOL    HW123672   3.470   3.463  15.433 -0.2892 -1.5391 -2.4405
 4013SOL    HW223673   3.590   3.498  15.357 -0.3120  1.1220  0.9122
 4014SOL     OW23674   1.363   2.518  11.846  0.3444  0.5793  0.6495
 4014SOL    HW123675   1.324   2.579  11.909 -3.0788 -0.8762 -0.0468
 4014SOL    HW223676   1.439   2.574  11.835 -0.3980  1.9792  2.6507
 4015SOL     OW23677   2.583   3.690   7.219 -0.3561  0.2208 -0.1473
 4015SOL    HW123678   2.587   3.595   7.219  0.6217  0.2550 -2.3494
 4015SOL    HW223679   2.587   3.720   7.310  2.5707  1.6885 -0.7677
 4016SOL     OW23680   3.239   3.473   1.332  0.2078  0.0103 -0.9570
 4016SOL    HW123681   3.214   3.554   1.377  1.4700 -0.4894  0.6610
 4016SOL    HW223682   3.264   3.503   1.245  1.3449 -3.5396 -1.8176
 4017SOL     OW23683   3.528   1.762   4.318 -0.0498 -0.2885  0.2255
 4017SOL    HW123684   3.514   1.732   4.228  0.8895 -0.8500  0.2667
 4017SOL    HW223685   3.456   1.825   4.325 -1.9097 -2.6363  2.3609
 4018SOL     OW23686   4.252   2.853   2.071  0.2834 -0.2697 -0.0949
 4018SOL    HW123687   4.292   2.881   1.989  1.8120  1.6879  1.3210
 4018SOL    HW223688   4.183   2.920   2.078 -1.6745 -2.0040 -2.8665
 4019SOL     OW23689   2.306   0.183   7.294 -0.2286  0.2407 -0.3491
 4019SOL    HW123690   2.311   0.278   7.294  1.0359  0.1765 -0.3655
 4019SOL    HW223691   2.303   0.169   7.389  0.2831  1.9065 -0.0912
 4020SOL     OW23692   0.243   2.364  15.809 -0.4028  0.1846  0.3865
 4020SOL    HW123693   0.215   2.280  15.774  1.1591 -0.5145  0.8183
 4020SOL    HW223694   0.290   2.327  15.884 -1.1623 -2.5146 -0.4831
 4021SOL     OW23695   3.251   3.811   6.443 -0.2662  0.5322 -0.6537
 4021SOL    HW123696   3.241   3.816   6.348 -0.9421 -1.1518 -0.6649
 4021SOL    HW223697   3.222   3.899   6.470 -1.9534 -0.4571  0.7479
 4022SOL     OW23698   4.216   2.126   6.868  0.0065 -0.5695 -0.0966
 4022SOL    HW123699   4.131   2.111   6.828 -0.8419  0.1439  1.4364
 4022SOL    HW223700   4.271   2.114   6.791  1.0982  3.3770  0.0326
 4023SOL     OW23701   2.440   4.050   6.309  0.5433 -0.9124  0.3801
 4023SOL    HW123702   2.445   4.076   6.401  1.3625  0.3810 -0.0340
 4023SOL    HW223703   2.497   4.118   6.274  1.9743 -2.1915  0.2410
 4024SOL     OW23704   0.371   1.631   0.542  0.0829  0.5112  0.6609
 4024SOL    HW123705   0.454   1.674   0.561 -0.8916  2.8448 -0.3884
 4024SOL    HW223706   0.400   1.576   0.469  0.0219 -0.4890  1.3833
 4025SOL     OW23707   4.238   2.424   8.916 -0.1929 -0.1783 -0.6244
 4025SOL    HW123708   4.331   2.432   8.939 -0.3957  0.8427 -0.1641
 4025SOL    HW223709   4.203   2.380   8.993  1.9700  1.6766  1.4388
 4026SOL     OW23710   0.070   3.356   3.391  0.0516  0.1988 -0.5739
 4026SOL    HW123711   0.033   3.430   3.439 -2.7005 -0.5730 -1.4815
 4026SOL    HW223712   0.053   3.396   3.305 -0.8009  0.1473 -0.4330
 4027SOL     OW23713   3.585   1.830  15.742  0.3466 -0.0268 -0.3081
 4027SOL    HW123714   3.648   1.850  15.673  0.8935  1.4355  0.6184
 4027SOL    HW223715   3.637   1.787  15.810 -1.4437  1.1983  1.8522
 4028SOL     OW23716   0.046   3.281   8.807 -0.3168  0.1740 -0.4528
 4028SOL    HW123717   0.077   3.271   8.898  1.0867 -1.7338 -1.1344
 4028SOL    HW223718   4.705   3.338   8.812 -0.1543  0.4422 -1.0865
 4029SOL     OW23719   2.520   3.540   3.792 -0.5227  0.3203 -0.3472
 4029SOL    HW123720   2.436   3.546   3.748 -0.5855 -0.6082 -0.3508
 4029SOL    HW223721   2.498   3.485   3.867  0.0535  0.8062  0.1856
 4030SOL     OW23722   4.731   1.551   6.533  0.3685 -0.2440  0.0324
 4030SOL    HW123723   0.011   1.592   6.619  0.7713  1.1949 -0.7163
 4030SOL    HW223724   0.078   1.506   6.514  0.9661  0.3005  1.3055
 4031SOL     OW23725   4.564   3.256   9.695  0.1135 -0.1510 -0.8317
 4031SOL    HW123726   4.619   3.194   9.648 -0.8676 -1.8882  0.2841
 4031SOL    HW223727   4.596   3.344   9.678 -2.2897  0.9517  0.3244
 4032SOL     OW23728   0.218   0.231   3.404  0.2002  0.3180  0.1167
 4032SOL    HW123729   0.232   0.204   3.313 -2.1035  1.6749 -0.6527
 4032SOL    HW223730   0.286   0.175   3.439  0.2294 -0.3413 -0.9967
 4033SOL     OW23731   1.064   1.277   8.910 -0.1059  0.1430 -0.3581
 4033SOL    HW123732   1.158   1.283   8.892  0.2704  1.1780  1.9104
 4033SOL    HW223733   1.033   1.230   8.833  0.7165  1.1504 -1.3016
 4034SOL     OW23734   2.242   3.236   6.462 -0.2148 -0.0690 -0.0353
 4034SOL    HW123735   2.308   3.209   6.399 -1.0588  0.8577 -1.3124
 4034SOL    HW223736   2.222   3.147   6.491  0.4455  0.0930  0.9326
 4035SOL     OW23737   1.592   3.822   4.834  0.2383  0.2775 -0.0402
 4035SOL    HW123738   1.605   3.874   4.913 -1.5101  0.7458 -0.0715
 4035SOL    HW223739   1.599   3.733   4.869  1.1984  0.0492 -0.8102
 4036SOL     OW23740   2.682   3.228   1.746  0.5424 -0.1206 -0.0530
 4036SOL    HW123741   2.662   3.314   1.782  0.7323  0.0701 -0.4033
 4036SOL    HW223742   2.686   3.178   1.828 -0.9219 -1.2354 -0.6732
 4037SOL     OW23743   0.263   4.499   5.587 -0.7496  0.1917  0.8474
 4037SOL    HW123744   0.246   4.410   5.555 -0.7642  1.0281 -1.4729
 4037SOL    HW223745   0.345   4.521   5.542 -0.7066 -0.0185  0.8211
 4038SOL     OW23746   2.646   2.196   4.017  0.0227  0.0074  0.0077
 4038SOL    HW123747   2.700   2.231   4.087  0.3933 -0.2843 -0.1289
 4038SOL    HW223748   2.619   2.115   4.060  4.2329 -1.9781 -1.0341
 4039SOL     OW23749   3.582   0.432   6.092 -0.3552 -0.2017  0.0771
 4039SOL    HW123750   3.557   0.523   6.104 -1.1470 -0.2616 -1.1797
 4039SOL    HW223751   3.549   0.404   6.178  2.2249 -0.2390  1.0660
 4040SOL     OW23752   0.750   2.189   7.286 -0.1954  0.4453 -0.7309
 4040SOL    HW123753   0.787   2.274   7.260  1.2261 -0.4820 -1.7587
 4040SOL    HW223754   0.722   2.154   7.201  0.0182 -1.7222  0.1183
 4041SOL     OW23755   0.100   0.329   2.421  0.3554 -0.3351 -0.1985
 4041SOL    HW123756   0.022   0.315   2.368 -1.2709  0.8104  1.9032
 4041SOL    HW223757   0.088   0.422   2.442  0.7071 -0.9096  2.5663
 4042SOL     OW23758   2.430   1.492   9.108  0.1836 -0.7161 -0.5705
 4042SOL    HW123759   2.452   1.489   9.015 -0.1060 -0.8436 -0.6345
 4042SOL    HW223760   2.399   1.403   9.121 -1.2116 -0.4671 -2.1341
 4043SOL     OW23761   1.238   4.263  10.223  0.1471  0.1622 -0.6652
 4043SOL    HW123762   1.329   4.283  10.202  0.6337  0.7837  2.0661
 4043SOL    HW223763   1.194   4.335  10.180  2.0864  1.0852 -1.1104
 4044SOL     OW23764   1.727   1.888   5.029  0.1312  0.0946  0.5715
 4044SOL    HW123765   1.813   1.908   5.067 -0.1025  0.3684  0.9566
 4044SOL    HW223766   1.749   1.877   4.936 -1.4442 -0.8342  0.3121
 4045SOL     OW23767   0.661   1.868   7.051  0.2537  0.2613  0.3594
 4045SOL    HW123768   0.649   1.775   7.072  1.5942  0.1836  0.7879
 4045SOL    HW223769   0.578   1.909   7.073  0.6075  0.1960  1.8199
 4046SOL     OW23770   2.344   1.301   4.079 -0.3503  0.3096 -0.2425
 4046SOL    HW123771   2.273   1.237   4.074 -0.2989  0.2714 -0.4833
 4046SOL    HW223772   2.294   1.353   4.016  0.2651  0.7686 -0.3475
 4047SOL     OW23773   2.911   2.461   1.703  0.4587  0.5939 -0.4233
 4047SOL    HW123774   3.001   2.431   1.691  0.0425 -0.9098  0.1827
 4047SOL    HW223775   2.874   2.384   1.660 -2.5642  0.9733  1.4471
 4048SOL     OW23776   4.352   2.603  12.082  0.5969  0.0453 -0.1066
 4048SOL    HW123777   4.302   2.569  12.157  0.6435  1.5510  0.6191
 4048SOL    HW223778   4.363   2.694  12.110 -1.2805  0.0647  0.5283
 4049SOL     OW23779   2.573   0.047   5.804 -0.4362  0.1773  0.1588
 4049SOL    HW123780   2.480   0.028   5.813 -0.2678 -0.6685  0.1522
 4049SOL    HW223781   2.582   0.120   5.865 -1.5877 -0.5032  1.1445
 4050SOL     OW23782   0.245   3.626   9.238 -0.9294 -0.8676 -0.2325
 4050SOL    HW123783   0.310   3.608   9.170 -1.1475 -0.9810 -0.4160
 4050SOL    HW223784   0.286   3.591   9.317 -1.0562 -2.2795 -0.7955
 4051SOL     OW23785   0.795   2.987   7.320 -0.0899  0.2671 -0.2744
 4051SOL    HW123786   0.811   2.990   7.226 -2.4297 -0.3181 -0.7081
 4051SOL    HW223787   0.713   2.937   7.320 -0.6129  1.0713  3.0253
 4052SOL     OW23788   4.191   4.487   3.146  0.1411  0.1581  0.3138
 4052SOL    HW123789   4.100   4.484   3.177  0.9133  2.1182  2.8245
 4052SOL    HW223790   4.235   4.484   3.231  1.2836 -2.3507 -0.3565
 4053SOL     OW23791   3.108   0.201   6.531 -0.0478  0.3944 -0.0532
 4053SOL    HW123792   3.088   0.110   6.510  0.5540 -0.1050  1.5244
 4053SOL    HW223793   3.050   0.225   6.603 -0.0914  1.8217 -0.5626
 4054SOL     OW23794   0.030   3.011   6.591 -0.6794 -0.5100  0.1435
 4054SOL    HW123795   0.084   2.985   6.517  1.0277  1.9908  0.4913
 4054SOL    HW223796   4.730   2.926   6.619 -0.3501 -0.9709 -0.8495
 4055SOL     OW23797   2.073   0.164   5.000  0.1616  0.2398  0.0298
 4055SOL    HW123798   2.008   0.198   4.938  1.8398 -2.7973 -3.3488
 4055SOL    HW223799   2.037   0.185   5.086 -0.9580 -0.8064 -0.1840
 4056SOL     OW23800   2.527   1.967   9.303  0.5985  0.0156  0.4308
 4056SOL    HW123801   2.489   1.881   9.284  0.3220  0.1327  0.4652
 4056SOL    HW223802   2.620   1.945   9.301  0.8198  1.1870 -1.6778
 4057SOL     OW23803   0.751   0.564   3.809  0.5610 -0.6332  0.3907
 4057SOL    HW123804   0.772   0.591   3.719 -2.5454 -0.3250 -0.2277
 4057SOL    HW223805   0.668   0.610   3.815  1.1770  0.5964 -0.6896
 4058SOL     OW23806   3.183   2.983   3.991 -0.5130 -0.3124  0.5373
 4058SOL    HW123807   3.149   3.026   3.912 -1.6827  1.5226  2.0558
 4058SOL    HW223808   3.104   2.942   4.025 -1.0070 -0.4678 -0.8024
 4059SOL     OW23809   0.553   2.353   8.867  0.1321  0.6441 -0.2593
 4059SOL    HW123810   0.643   2.355   8.835  0.5590  1.3055  0.9960
 4059SOL    HW223811   0.505   2.379   8.788 -0.8522  0.2060  0.2000
 4060SOL     OW23812   3.156   1.854   2.751  0.0966  0.3866 -0.3191
 4060SOL    HW123813   3.070   1.882   2.719 -0.0287 -0.8710 -1.0646
 4060SOL    HW223814   3.144   1.759   2.756 -1.1741  0.6832  2.3029
 4061SOL     OW23815   1.922   2.941   5.271 -0.1256  0.0817 -0.5584
 4061SOL    HW123816   1.877   3.023   5.293  0.9198  0.5998 -0.3744
 4061SOL    HW223817   1.992   2.975   5.215 -0.2075  1.2100  0.0279
 4062SOL     OW23818   3.967   4.192  10.829 -0.0239 -1.1087  0.1910
 4062SOL    HW123819   3.890   4.199  10.772  0.1565  1.1815  0.2325
 4062SOL    HW223820   3.923   4.219  10.910  1.6931  1.4070  0.2579
 4063SOL     OW23821   1.291   2.401   5.579  0.3049  0.6355  0.2941
 4063SOL    HW123822   1.368   2.374   5.629 -1.0057 -1.3427  1.2246
 4063SOL    HW223823   1.312   2.382   5.488 -0.5257  0.7373  0.0747
 4064SOL     OW23824   1.344   2.575   3.908  0.1300 -0.0542  0.1471
 4064SOL    HW123825   1.278   2.520   3.949  0.6557 -0.0306  1.0259
 4064SOL    HW223826   1.290   2.613   3.839 -1.5352 -1.1273  0.8773
 4065SOL     OW23827   4.500   3.209  16.111  0.3411 -0.5709 -0.2541
 4065SOL    HW123828   4.528   3.297  16.136 -1.9776  0.0323  0.1812
 4065SOL    HW223829   4.579   3.173  16.069  0.4475  1.3721 -1.6671
 4066SOL     OW23830   3.170   0.908  17.736  0.2942  0.0147  0.5647
 4066SOL    HW123831   3.260   0.904  17.704  0.3186  1.0612  0.5009
 4066SOL    HW223832   3.177   0.996   0.034  0.5448 -0.5454  1.8861
 4067SOL     OW23833   3.412   0.814   4.695 -0.5618  0.4453 -0.2829
 4067SOL    HW123834   3.469   0.865   4.637 -2.1500  2.4930 -0.0500
 4067SOL    HW223835   3.427   0.845   4.785 -0.1825  1.0034 -0.5368
 4068SOL     OW23836   2.418   3.148   5.581 -0.3503  0.2104  0.1117
 4068SOL    HW123837   2.494   3.193   5.617 -0.4471  0.6125 -0.1800
 4068SOL    HW223838   2.437   3.058   5.607  4.6691  1.6422  1.3884
 4069SOL     OW23839   3.510   0.337   6.339 -0.0717  0.1169  0.1832
 4069SOL    HW123840   3.490   0.339   6.432  5.0262 -1.3947  1.3244
 4069SOL    HW223841   3.422   0.326   6.305 -0.2387  0.1721  0.6077
 4070SOL     OW23842   2.658   2.095   6.963 -0.1661 -0.4258  0.0766
 4070SOL    HW123843   2.582   2.145   6.992  1.6194  2.0872  0.4464
 4070SOL    HW223844   2.723   2.140   7.016  0.7682  1.8066 -2.9797
 4071SOL     OW23845   3.092   4.637  14.890  0.0780 -0.4391  0.3872
 4071SOL    HW123846   3.001   4.606  14.896  0.5226 -1.7772  0.2565
 4071SOL    HW223847   3.133   4.560  14.850 -0.9274 -1.8847  2.1424
 4072SOL     OW23848   3.117   3.207  13.575 -0.3341  0.0955 -0.7720
 4072SOL    HW123849   3.078   3.292  13.555  1.3012  0.7248 -1.1950
 4072SOL    HW223850   3.109   3.171  13.487 -0.9777 -1.1495 -0.2207
 4073SOL     OW23851   1.597   1.624  16.315  0.4907  0.0403  0.0782
 4073SOL    HW123852   1.658   1.578  16.257 -0.5783 -2.0749  0.6366
 4073SOL    HW223853   1.600   1.705  16.264 -2.4713  1.2507  1.8595
 4074SOL     OW23854   1.999   2.380   6.922 -0.0358 -0.6482  0.0998
 4074SOL    HW123855   2.023   2.343   7.007  0.9331  0.1038  0.1462
 4074SOL    HW223856   1.905   2.394   6.936  0.1880  0.4585  0.4942
 4075SOL     OW23857   3.463   4.264  11.337  0.4763  0.1497  0.5047
 4075SOL    HW123858   3.397   4.205  11.300  2.1483 -1.1896 -0.3454
 4075SOL    HW223859   3.418   4.301  11.414 -1.0140 -2.4527  0.9202
 4076SOL     OW23860   3.858   3.362   9.076  0.4155  0.5080 -0.2928
 4076SOL    HW123861   3.871   3.430   9.010  2.7290 -0.2190 -0.5748
 4076SOL    HW223862   3.814   3.286   9.037  0.3598  1.1091 -1.4001
 4077SOL     OW23863   3.908   2.707  13.944  0.1889  0.5897  0.4899
 4077SOL    HW123864   3.833   2.766  13.941 -1.4437 -1.3241  3.1537
 4077SOL    HW223865   3.899   2.686  14.037  1.1918  2.4707  1.0110
 4078SOL     OW23866   4.405   2.386   5.151 -0.5521  0.2814 -0.8631
 4078SOL    HW123867   4.391   2.402   5.058  0.2452 -0.9529 -1.1949
 4078SOL    HW223868   4.463   2.310   5.150 -0.9894 -0.1519  3.4587
 4079SOL     OW23869   2.436   4.161   5.630  0.3274  0.4104  0.0251
 4079SOL    HW123870   2.500   4.144   5.699  0.2335 -1.5340 -0.3573
 4079SOL    HW223871   2.399   4.074   5.613  0.8247  0.4759 -1.3969
 4080SOL     OW23872   3.479   0.753   1.556  0.7275  0.5836  0.4091
 4080SOL    HW123873   3.407   0.698   1.524  1.6747 -1.4048  1.7397
 4080SOL    HW223874   3.451   0.842   1.534  1.1602  1.1961  2.3181
 4081SOL     OW23875   1.670   2.874   1.357 -0.3103  0.2174 -0.5249
 4081SOL    HW123876   1.761   2.870   1.388 -1.0220 -2.6649  1.1063
 4081SOL    HW223877   1.666   2.969   1.372 -1.5259  0.1722 -0.6106
 4082SOL     OW23878   4.348   1.446   4.333 -0.4477  0.4363 -0.6659
 4082SOL    HW123879   4.359   1.364   4.284 -0.0429 -1.4004  2.5027
 4082SOL    HW223880   4.295   1.420   4.408  3.0234 -1.5080  1.1133
 4083SOL     OW23881   1.916   2.627   7.390 -0.5592 -0.5486  0.1068
 4083SOL    HW123882   1.880   2.690   7.453 -1.2986 -1.1088  0.2379
 4083SOL    HW223883   2.001   2.608   7.429 -1.4467 -0.6303  2.0181
 4084SOL     OW23884   2.866   2.595   7.625  0.2793  0.2904 -0.1264
 4084SOL    HW123885   2.941   2.651   7.606  1.3295 -1.4964 -1.2705
 4084SOL    HW223886   2.857   2.542   7.546 -0.2183  0.1375  0.0325
 4085SOL     OW23887   0.693   0.681  15.539  0.4518  0.5676  0.4888
 4085SOL    HW123888   0.651   0.607  15.495  0.8757  1.1478 -0.9120
 4085SOL    HW223889   0.670   0.743  15.469 -0.8910 -1.4619 -0.8723
 4086SOL     OW23890   1.704   3.595   6.296  0.2327 -0.3189  0.2012
 4086SOL    HW123891   1.767   3.611   6.366 -0.4705 -1.5584  1.1029
 4086SOL    HW223892   1.693   3.501   6.306 -2.4091  0.1207  1.3909
 4087SOL     OW23893   2.273   0.197   6.158 -0.3416 -0.1502 -0.2080
 4087SOL    HW123894   2.237   0.138   6.224 -0.5695  0.5707  0.3086
 4087SOL    HW223895   2.279   0.277   6.209  1.5573 -0.6519  0.3508
 4088SOL     OW23896   1.179   3.082   8.159  0.1154 -0.0748  0.1509
 4088SOL    HW123897   1.268   3.115   8.160 -0.0947  0.4831  0.1239
 4088SOL    HW223898   1.142   3.135   8.089  1.2962  1.0979  0.4377
 4089SOL     OW23899   3.804   1.794   8.386 -0.1302 -0.6089  0.3276
 4089SOL    HW123900   3.806   1.741   8.465 -1.7849  1.1164  1.5045
 4089SOL    HW223901   3.780   1.869   8.440  0.2579  0.4619 -0.9744
 4090SOL     OW23902   2.268   0.431  15.369 -0.5620  0.0912  0.6392
 4090SOL    HW123903   2.217   0.495  15.318  2.1331  1.4485 -0.3625
 4090SOL    HW223904   2.339   0.419  15.306  0.4477  1.3979  1.5213
 4091SOL     OW23905   1.157   0.036   1.349 -0.2005 -0.2638  0.3530
 4091SOL    HW123906   1.155   4.694   1.406  1.2175 -0.8185 -0.3553
 4091SOL    HW223907   1.206   0.097   1.404 -0.7969  1.5355 -1.1180
 4092SOL     OW23908   1.188   2.506  13.130  0.3184 -0.3776 -0.3103
 4092SOL    HW123909   1.247   2.431  13.134 -1.0306 -1.5166 -2.1034
 4092SOL    HW223910   1.245   2.578  13.102  3.7147 -2.0015  2.4168
 4093SOL     OW23911   1.050   0.936  12.605 -0.1424  0.3677 -0.0542
 4093SOL    HW123912   0.971   0.926  12.552  1.5453 -3.2271 -1.9276
 4093SOL    HW223913   1.077   1.026  12.592 -0.2678  0.4776  0.4133
 4094SOL     OW23914   4.495   0.159  10.447 -0.4041 -0.2184 -0.4082
 4094SOL    HW123915   4.419   0.217  10.447 -1.0547 -1.0646 -0.2176
 4094SOL    HW223916   4.499   0.120  10.534 -0.1536  1.8653  0.5125
 4095SOL     OW23917   3.337   0.572  14.304 -0.0014 -0.3028 -0.2936
 4095SOL    HW123918   3.403   0.503  14.302 -0.4973 -0.7565 -0.8732
 4095SOL    HW223919   3.297   0.558  14.390  3.6593 -1.8919  1.1653
 4096SOL     OW23920   3.070   3.745  10.549  0.2016 -0.0246  0.8602
 4096SOL    HW123921   3.161   3.743  10.579  0.1417  0.9000  1.1007
 4096SOL    HW223922   3.026   3.807  10.607 -0.5440  0.7620 -0.5371
 4097SOL     OW23923   1.195   3.875   5.983 -0.4116  0.5209 -0.3268
 4097SOL    HW123924   1.203   3.811   5.912  0.7565  0.8420 -0.4945
 4097SOL    HW223925   1.225   3.825   6.059  0.1075  1.8495  0.3435
 4098SOL     OW23926   2.920   3.939  10.741 -0.2099 -0.0611 -0.0111
 4098SOL    HW123927   2.980   3.998  10.786  0.5790  0.1855 -1.3885
 4098SOL    HW223928   2.866   3.914  10.816  0.4815 -1.2123  0.0968
 4099SOL     OW23929   2.225   2.574  17.455  0.2466  0.3707  0.4117
 4099SOL    HW123930   2.242   2.530  17.538  1.0180  1.1367  0.6593
 4099SOL    HW223931   2.278   2.523  17.394 -0.0533  1.2286 -0.5567
 4100SOL     OW23932   4.707   3.656   8.341 -0.2979  0.0679 -0.5813
 4100SOL    HW123933   4.641   3.594   8.310  0.1784 -0.5617 -0.3402
 4100SOL    HW223934   4.665   3.742   8.340 -0.8474 -0.1957 -0.3424
 4101SOL     OW23935   4.540   2.222   0.707  0.5123 -0.6041 -0.2074
 4101SOL    HW123936   4.564   2.191   0.619  1.8890  3.6783 -1.3209
 4101SOL    HW223937   4.627   2.231   0.747  1.0970 -0.5835 -1.4838
 4102SOL     OW23938   3.254   0.435   2.133  0.4932 -0.0495 -0.3318
 4102SOL    HW123939   3.325   0.371   2.130  0.6338  0.0329  1.1516
 4102SOL    HW223940   3.210   0.414   2.215 -0.7406  1.9525 -0.4649
 4103SOL     OW23941   3.202   2.500   8.962 -0.5038 -0.1865  0.1218
 4103SOL    HW123942   3.183   2.590   8.936  0.1105  0.2655  1.2252
 4103SOL    HW223943   3.110   2.479   8.983 -0.3056 -0.1084  1.0721
 4104SOL     OW23944   4.183   0.710  10.488  0.6262 -1.2041  0.2063
 4104SOL    HW123945   4.109   0.730  10.431  0.1017 -0.8112  1.0263
 4104SOL    HW223946   4.244   0.676  10.423 -0.3757 -3.7256  0.5629
 4105SOL     OW23947   1.704   0.217   2.629 -0.3117 -0.0250  0.3588
 4105SOL    HW123948   1.660   0.186   2.708 -2.1136 -1.6209 -1.2673
 4105SOL    HW223949   1.648   0.291   2.606 -1.5340 -1.9450 -2.7429
 4106SOL     OW23950   3.056   3.633   4.575 -0.0767 -0.2724  0.8893
 4106SOL    HW123951   2.970   3.645   4.615 -1.1634 -4.3505 -0.1629
 4106SOL    HW223952   3.037   3.613   4.483 -1.6652 -1.3572  1.4496
 4107SOL     OW23953   3.806   1.845   0.836 -0.1059 -0.0856 -0.2667
 4107SOL    HW123954   3.814   1.781   0.906 -2.3308 -0.7130 -0.5828
 4107SOL    HW223955   3.714   1.824   0.822 -0.9915  1.7637  2.5865
 4108SOL     OW23956   3.660   3.096   5.949 -0.1958 -0.4014  0.4980
 4108SOL    HW123957   3.674   3.190   5.933  4.5543 -0.8176  1.9752
 4108SOL    HW223958   3.709   3.049   5.882  0.8640  0.8070  0.4169
 4109SOL     OW23959   4.348   1.963   7.052  0.4791 -0.3249  0.3630
 4109SOL    HW123960   4.307   2.011   6.980 -0.3405 -1.7198 -0.1054
 4109SOL    HW223961   4.346   2.023   7.127  0.2568  3.4710 -2.6996
 4110SOL     OW23962   2.845   2.773   5.814 -0.2181  0.2962 -0.0436
 4110SOL    HW123963   2.793   2.845   5.777  0.4353  0.9117  0.2402
 4110SOL    HW223964   2.797   2.765   5.896 -1.4056  3.1338 -0.4473
 4111SOL     OW23965   0.036   1.995   2.896  0.0267 -0.2398  0.7015
 4111SOL    HW123966   4.731   2.058   2.836 -0.9943 -1.3913  0.1695
 4111SOL    HW223967   0.019   2.041   2.978 -1.8307 -1.6446  1.1117
 4112SOL     OW23968   4.436   0.398  13.072  0.6667  0.1947 -0.0139
 4112SOL    HW123969   4.506   0.354  13.024 -0.7134  0.4204 -2.2075
 4112SOL    HW223970   4.489   0.461  13.122  0.1432 -0.9376  1.9942
 4113SOL     OW23971   1.017   0.657   2.301  0.1202 -0.4049 -0.6603
 4113SOL    HW123972   0.994   0.604   2.225 -1.0118  2.3976 -2.2796
 4113SOL    HW223973   1.040   0.743   2.265 -1.6403  0.4827  0.3396
 4114SOL     OW23974   4.388   0.270  13.325 -0.2555  0.2982  0.1694
 4114SOL    HW123975   4.364   0.308  13.241  1.6887  0.4289 -0.3220
 4114SOL    HW223976   4.416   0.352  13.365 -1.3467 -0.2350  1.9860
 4115SOL     OW23977   4.704   2.745   9.565  0.3151  0.1463 -0.2265
 4115SOL    HW123978   0.044   2.705   9.520 -0.2340 -2.3301  1.0762
 4115SOL    HW223979   0.013   2.803   9.628  2.0055  0.5033 -1.7158
 4116SOL     OW23980   1.753   0.365   5.007 -0.4563 -0.4741 -0.0663
 4116SOL    HW123981   1.717   0.287   4.966 -0.8822 -0.5422  0.4413
 4116SOL    HW223982   1.676   0.417   5.030 -1.4764 -0.3610 -3.6041
 4117SOL     OW23983   4.323   3.235  13.435  0.4948  0.0777  0.0193
 4117SOL    HW123984   4.363   3.195  13.358 -2.0533 -0.3984 -1.0691
 4117SOL    HW223985   4.231   3.207  13.428  0.4831 -0.5610  3.0555
 4118SOL     OW23986   2.740   4.133   5.047 -0.2591  0.1759  0.3058
 4118SOL    HW123987   2.714   4.224   5.057 -1.5334 -0.2494  0.8874
 4118SOL    HW223988   2.825   4.140   5.003  0.5160  0.7771  1.9039
 4119SOL     OW23989   4.416   4.662   6.634  0.2998 -0.2214 -0.7167
 4119SOL    HW123990   4.509   4.678   6.654  0.6070  1.3700 -3.4768
 4119SOL    HW223991   4.412   4.597   6.564  1.2417 -4.4294  3.1173
 4120SOL     OW23992   4.671   0.409   7.610  0.1576  0.2258  0.1481
 4120SOL    HW123993   4.621   0.458   7.675 -0.4901  0.2250 -0.3483
 4120SOL    HW223994   4.629   0.324   7.613  1.2922 -0.3455 -0.0213
 4121SOL     OW23995   0.674   2.118   5.268  0.1690 -0.3861  0.3001
 4121SOL    HW123996   0.725   2.195   5.242 -2.7959  0.6337 -2.4228
 4121SOL    HW223997   0.670   2.139   5.362 -1.1774 -0.0228  0.1633
 4122SOL     OW23998   0.875   1.571   8.362 -0.6031 -1.3626  0.3411
 4122SOL    HW123999   0.955   1.588   8.312 -1.2229  1.2611  0.2530
 4122SOL    HW224000   0.809   1.538   8.300 -1.8453  0.8851  0.4653
 4123SOL     OW24001   3.110   4.317   3.769  0.5804 -0.1359  0.2738
 4123SOL    HW124002   3.070   4.272   3.695 -1.5316  1.4414  0.4541
 4123SOL    HW224003   3.052   4.294   3.842  1.6793  1.0461  1.5193
 4124SOL     OW24004   2.788   2.817   6.529  0.4718  0.1874 -0.0768
 4124SOL    HW124005   2.827   2.787   6.611 -1.6863 -0.8538  0.5796
 4124SOL    HW224006   2.762   2.905   6.556  1.1239  0.5216 -0.5604
 4125SOL     OW24007   3.577   0.855  11.005 -0.3794 -0.6578 -0.2093
 4125SOL    HW124008   3.630   0.932  10.984 -0.5550 -0.5983 -0.4445
 4125SOL    HW224009   3.563   0.868  11.099 -3.8173  1.0108 -0.9382
 4126SOL     OW24010   1.747   3.181   9.921 -0.2110 -0.0631  0.2810
 4126SOL    HW124011   1.807   3.176   9.995  1.3522  1.4390 -0.8973
 4126SOL    HW224012   1.715   3.092   9.905  0.0716 -0.0707 -0.2144
 4127SOL     OW24013   3.842   3.480   8.831 -0.0147  0.0984 -0.1046
 4127SOL    HW124014   3.866   3.468   8.739 -1.7129  0.7733 -0.6201
 4127SOL    HW224015   3.747   3.485   8.827 -0.1703 -0.9713  2.5139
 4128SOL     OW24016   1.611   4.301  14.900 -0.6437  0.1243 -0.6253
 4128SOL    HW124017   1.527   4.335  14.868 -1.5139  0.6667  2.2046
 4128SOL    HW224018   1.591   4.275  14.990 -2.2484 -2.2334 -1.6700
 4129SOL     OW24019   4.073   1.787   6.432 -0.5260 -0.7987 -0.3053
 4129SOL    HW124020   4.008   1.762   6.499 -0.6121 -2.1997 -0.9227
 4129SOL    HW224021   4.065   1.718   6.367 -3.7108 -0.2625 -0.5098
 4130SOL     OW24022   2.034   2.580   2.889  0.0042  0.2561 -0.1866
 4130SOL    HW124023   2.032   2.658   2.835  3.0732  0.1763 -0.4066
 4130SOL    HW224024   1.994   2.609   2.971  0.8801 -0.7038  0.5916
 4131SOL     OW24025   2.658   1.537   8.564  0.4678  0.3086 -0.1195
 4131SOL    HW124026   2.712   1.488   8.502 -0.3440  1.7486 -1.9945
 4131SOL    HW224027   2.686   1.487   8.641  3.2371  1.3388 -0.4592
 4132SOL     OW24028   0.513   0.155   7.534 -0.4943  0.3869 -0.3700
 4132SOL    HW124029   0.445   0.187   7.474 -2.8298 -1.5093  1.2916
 4132SOL    HW224030   0.536   0.239   7.573  0.7663  0.0870 -0.4692
 4133SOL     OW24031   2.304   3.826   8.405 -0.0711 -0.2474 -0.2804
 4133SOL    HW124032   2.275   3.764   8.338  1.4249  0.2906 -1.4207
 4133SOL    HW224033   2.220   3.841   8.448  1.7907  0.6344  3.0267
 4134SOL     OW24034   0.724   3.497   0.019 -0.6299  0.4940 -0.1843
 4134SOL    HW124035   0.810   3.537   0.024 -0.2198 -0.7140  2.3301
 4134SOL    HW224036   0.741   3.408  17.726  0.7695  1.7735 -2.9851
 4135SOL     OW24037   0.397   4.687   5.854 -0.3398  0.0289  0.0605
 4135SOL    HW124038   0.486   4.700   5.821 -0.8393 -1.6637 -1.9358
 4135SOL    HW224039   0.354   0.037   5.841  0.4507  0.6379  1.4560
 4136SOL     OW24040   0.181   2.490   0.053 -0.1764 -0.0142  0.8714
 4136SOL    HW124041   0.145   2.506  17.705 -0.4624  2.5479  1.4632
 4136SOL    HW224042   0.194   2.578   0.089  0.6899  0.3986 -0.4507
 4137SOL     OW24043   4.246   1.841   0.606 -0.5713  0.5930  0.3312
 4137SOL    HW124044   4.239   1.902   0.533 -0.5164 -1.2621 -1.2053
 4137SOL    HW224045   4.324   1.879   0.647  0.2101  1.8477 -2.3022
 4138SOL     OW24046   4.344   1.208   7.187  0.3273 -1.2002  0.2364
 4138SOL    HW124047   4.284   1.245   7.251  0.2179 -1.7976  0.4847
 4138SOL    HW224048   4.293   1.167   7.118  0.0887 -0.0306 -0.2703
 4139SOL     OW24049   4.485   0.815  12.889  0.5651  0.0249  0.4465
 4139SOL    HW124050   4.549   0.752  12.924 -0.7092 -1.5185  0.0054
 4139SOL    HW224051   4.493   0.883  12.955 -1.3241 -0.3488  1.0594
 4140SOL     OW24052   3.027   2.731   6.796 -0.3512  0.5166  0.2465
 4140SOL    HW124053   2.962   2.755   6.862 -2.5654  1.8715 -2.4192
 4140SOL    HW224054   3.097   2.791   6.822 -0.1977  0.5879 -0.3191
 4141SOL     OW24055   1.523   0.533  10.964 -0.1072  0.0473 -0.3272
 4141SOL    HW124056   1.432   0.560  10.951 -0.6382 -1.9649 -0.6860
 4141SOL    HW224057   1.530   0.473  10.890  0.5333  0.6359 -0.7437
 4142SOL     OW24058   0.324   3.235  15.598 -0.2027 -0.3411 -0.2071
 4142SOL    HW124059   0.244   3.276  15.629 -0.1058 -0.4151  0.1413
 4142SOL    HW224060   0.384   3.305  15.571 -1.1143  1.2653  1.9216
 4143SOL     OW24061   2.956   3.102   7.526  0.1847  0.2225  0.4347
 4143SOL    HW124062   2.874   3.136   7.562 -0.5337 -0.5284 -0.4726
 4143SOL    HW224063   3.000   3.067   7.603  0.3948  1.5860  0.9358
 4144SOL     OW24064   2.489   4.625   4.392 -0.3490  0.2002  0.5207
 4144SOL    HW124065   2.516   4.544   4.348 -2.7186 -0.7000  0.7260
 4144SOL    HW224066   2.505   4.593   4.481  0.3237 -0.3335  0.2082
 4145SOL     OW24067   4.013   1.908   0.240  0.1106 -0.2136 -0.1677
 4145SOL    HW124068   3.971   1.872   0.161  1.9443 -0.2880 -1.1068
 4145SOL    HW224069   4.078   1.846   0.273 -1.4346 -0.0506  3.1948
 4146SOL     OW24070   4.072   1.343   4.819 -0.1004  0.1799  0.1533
 4146SOL    HW124071   4.055   1.387   4.736  0.7370  1.1559  0.5081
 4146SOL    HW224072   3.993   1.367   4.867 -1.4029  0.4247 -2.0872
 4147SOL     OW24073   1.897   3.276   8.613 -0.0361  0.3592  0.1862
 4147SOL    HW124074   1.868   3.265   8.523  2.9038  0.3717 -0.7605
 4147SOL    HW224075   1.845   3.212   8.661 -1.3899  0.0298 -1.7244
 4148SOL     OW24076   0.237   2.980   6.801 -0.2821 -0.1555 -0.3775
 4148SOL    HW124077   0.253   3.019   6.887  0.2863 -0.0166 -0.5423
 4148SOL    HW224078   0.144   2.992   6.785 -0.8916 -2.0921  1.7292
 4149SOL     OW24079   2.149   2.412   3.949  0.1508  0.0547 -0.4246
 4149SOL    HW124080   2.214   2.346   3.926 -0.7517 -0.6047 -1.0781
 4149SOL    HW224081   2.129   2.395   4.041  1.3664  1.9535  0.2085
 4150SOL     OW24082   1.444   2.772   9.175  0.5932 -0.1973 -0.7288
 4150SOL    HW124083   1.493   2.690   9.179  2.9834  1.3055  0.5737
 4150SOL    HW224084   1.496   2.840   9.216  0.8732  0.6496 -2.4812
 4151SOL     OW24085   2.141   0.620  15.237  0.5198 -0.6280  0.6885
 4151SOL    HW124086   2.125   0.701  15.189  0.5618 -0.9907  0.0461
 4151SOL    HW224087   2.056   0.575  15.234 -0.8646  2.0662 -0.8276
 4152SOL     OW24088   1.405   3.204   3.454  0.0464 -0.0001  0.2221
 4152SOL    HW124089   1.339   3.153   3.501 -3.3767  2.0325 -2.4248
 4152SOL    HW224090   1.375   3.194   3.364  0.2925 -3.5072  0.5377
 4153SOL     OW24091   2.888   1.365   0.253 -0.0798  0.1537  0.1797
 4153SOL    HW124092   2.807   1.324   0.282 -0.3581  1.1995  0.8867
 4153SOL    HW224093   2.905   1.329   0.166 -1.1733 -0.3942  0.1872
 4154SOL     OW24094   1.348   2.755   8.337 -0.0914 -0.1721 -0.2466
 4154SOL    HW124095   1.349   2.716   8.250  0.0322  0.9131 -0.7263
 4154SOL    HW224096   1.266   2.802   8.326 -1.3870 -1.9495  1.7259
 4155SOL     OW24097   0.046   3.174   8.293 -0.1612  0.2190 -1.1894
 4155SOL    HW124098   0.131   3.192   8.334 -0.5718 -0.5348 -0.0380
 4155SOL    HW224099   4.721   3.189   8.366  0.4723 -2.2149 -0.1894
 4156SOL     OW24100   3.747   2.025   3.597  0.1709 -0.3928 -0.5539
 4156SOL    HW124101   3.827   2.039   3.546  0.8444  1.9376  1.1409
 4156SOL    HW224102   3.685   1.989   3.534 -1.0755 -0.9421  0.9977
 4157SOL     OW24103   1.637   2.843   5.245  0.6545 -0.1638  0.0934
 4157SOL    HW124104   1.731   2.824   5.238  0.3634 -1.0583 -1.2762
 4157SOL    HW224105   1.594   2.801   5.319  1.2751 -3.5050 -1.4517
 4158SOL     OW24106   2.224   3.572   6.837 -0.0689  0.6549 -0.0409
 4158SOL    HW124107   2.214   3.643   6.901  1.2638  0.8409 -0.0371
 4158SOL    HW224108   2.319   3.562   6.829 -0.3353 -2.4131  0.5428
 4159SOL     OW24109   1.636   1.460   5.263  0.1899  0.4726 -0.6011
 4159SOL    HW124110   1.632   1.535   5.203  2.8943  0.9360 -0.1877
 4159SOL    HW224111   1.681   1.503   5.335 -1.6563  1.5179 -0.0645
 4160SOL     OW24112   3.458   3.578   2.083 -0.0052 -0.1974  0.0845
 4160SOL    HW124113   3.452   3.583   1.988  0.9894 -2.6009 -0.1038
 4160SOL    HW224114   3.533   3.634   2.102 -0.9759  0.8725  0.8413
 4161SOL     OW24115   0.809   0.608   9.444  0.0616 -0.3801 -0.1869
 4161SOL    HW124116   0.816   0.531   9.388  0.2204 -3.3057  3.8964
 4161SOL    HW224117   0.718   0.636   9.434 -0.2592 -1.0762  0.8505
 4162SOL     OW24118   1.577   2.682  11.760  0.4641  0.0962 -0.3521
 4162SOL    HW124119   1.562   2.768  11.799 -0.3000 -1.2086  2.2715
 4162SOL    HW224120   1.566   2.702  11.667 -0.9999 -2.5266 -0.7435
 4163SOL     OW24121   0.370   3.751   3.869  0.4876  0.6094 -0.0765
 4163SOL    HW124122   0.464   3.770   3.877  0.8043  0.3959 -3.5693
 4163SOL    HW224123   0.365   3.681   3.934  0.2601  1.6524  1.0429
 4164SOL     OW24124   2.721   2.967   5.535  0.2432 -0.2191  0.2307
 4164SOL    HW124125   2.700   3.009   5.452 -2.4849 -1.7488  0.1323
 4164SOL    HW224126   2.730   3.039   5.597 -2.0829  2.5050 -2.6525
 4165SOL     OW24127   1.944   3.074   4.071  0.3564 -0.5509 -0.0906
 4165SOL    HW124128   1.974   3.111   3.988 -3.8294  1.3111 -0.7636
 4165SOL    HW224129   2.022   3.092   4.124 -0.3732 -1.0320  1.1524
 4166SOL     OW24130   4.653   4.643   7.034  0.5962  0.1503 -0.1658
 4166SOL    HW124131   4.578   4.602   7.076  0.4230  0.7960  0.1522
 4166SOL    HW224132   4.702   4.661   7.114  1.3529  1.7093 -0.9716
 4167SOL     OW24133   0.897   0.638   0.265  0.2909  0.0972  0.1309
 4167SOL    HW124134   0.852   0.589   0.335  0.2617 -1.2356 -0.8246
 4167SOL    HW224135   0.844   0.617   0.188  2.0242  0.3685 -1.1339
 4168SOL     OW24136   0.539   2.897  12.855 -0.1115 -0.2738  1.2550
 4168SOL    HW124137   0.623   2.929  12.888  0.4587 -1.5481  1.0310
 4168SOL    HW224138   0.481   2.915  12.929  1.3141  0.9748  2.0817
 4169SOL     OW24139   2.232   0.951   5.881  0.4270 -0.5556  0.0243
 4169SOL    HW124140   2.234   0.904   5.797  1.4555 -0.5258  0.0380
 4169SOL    HW224141   2.148   0.997   5.873  0.3906 -0.3918  1.3332
 4170SOL     OW24142   0.791   3.412   5.489  0.8520  0.1585 -0.6995
 4170SOL    HW124143   0.723   3.439   5.427  1.9219 -0.3497 -2.0884
 4170SOL    HW224144   0.775   3.480   5.555 -2.1418 -0.9458 -0.2543
 4171SOL     OW24145   2.577   2.062   0.449 -0.0474  0.2179 -0.7547
 4171SOL    HW124146   2.595   2.126   0.381 -1.4855  1.8316  0.3808
 4171SOL    HW224147   2.628   1.990   0.413  1.0676 -0.3638  1.9497
 4172SOL     OW24148   2.194   2.124  16.856 -0.4838  0.7476 -0.6819
 4172SOL    HW124149   2.227   2.049  16.806 -1.8221 -0.1557 -0.2146
 4172SOL    HW224150   2.100   2.113  16.845 -0.2879 -0.3850 -1.2599
 4173SOL     OW24151   3.109   4.468   7.116 -0.2094 -0.2588 -0.2234
 4173SOL    HW124152   3.020   4.445   7.089 -0.6270  1.8242 -0.6176
 4173SOL    HW224153   3.116   4.415   7.195  0.1790  0.0756 -0.0357
 4174SOL     OW24154   2.488   2.124   5.480 -0.2437 -0.0225 -0.2155
 4174SOL    HW124155   2.403   2.143   5.442  0.2788 -0.5394 -1.6588
 4174SOL    HW224156   2.495   2.200   5.538  1.1095 -1.5635  1.6484
 4175SOL     OW24157   1.591   3.988   7.866 -0.2270 -0.5648 -0.2925
 4175SOL    HW124158   1.659   4.026   7.811  1.5860 -1.2560  1.4879
 4175SOL    HW224159   1.627   3.900   7.876  1.3734  0.5371  3.3188
 4176SOL     OW24160   3.206   0.690  11.090  0.2390 -0.3763 -0.3341
 4176SOL    HW124161   3.192   0.783  11.108 -1.9461 -0.7091 -0.3407
 4176SOL    HW224162   3.161   0.668  11.009  2.1078 -1.2485 -1.1357
 4177SOL     OW24163   2.460   1.980   6.428 -0.1152 -0.7061 -0.3311
 4177SOL    HW124164   2.387   2.029   6.467 -0.2076  0.1395 -1.5574
 4177SOL    HW224165   2.515   1.966   6.505 -1.5186 -1.2501  0.5768
 4178SOL     OW24166   0.477   1.480   8.697  0.0884 -0.3154  0.6437
 4178SOL    HW124167   0.498   1.455   8.787 -0.2997  0.2042  0.8797
 4178SOL    HW224168   0.558   1.447   8.657 -1.3804 -2.8716 -0.2496
 4179SOL     OW24169   0.091   0.564   5.946 -0.0281  0.2710 -0.3444
 4179SOL    HW124170   0.055   0.550   5.859  1.8336  3.0566 -1.5423
 4179SOL    HW224171   0.131   0.648   5.925 -0.1710  0.3904 -0.1358
 4180SOL     OW24172   3.633   4.249   5.238 -0.0086 -0.3755 -0.0763
 4180SOL    HW124173   3.647   4.154   5.232  1.6871 -0.1788  0.8225
 4180SOL    HW224174   3.621   4.242   5.333  0.4161  0.0381  0.0021
 4181SOL     OW24175   2.529   1.247   7.194 -0.0238  0.6010 -0.1171
 4181SOL    HW124176   2.437   1.273   7.184 -0.6636 -1.5322  0.2933
 4181SOL    HW224177   2.526   1.242   7.289  0.4166 -2.0747 -0.2590
 4182SOL     OW24178   0.835   2.831   8.259 -0.1808 -0.2153 -0.4849
 4182SOL    HW124179   0.771   2.892   8.224  1.7914  1.5014 -1.0816
 4182SOL    HW224180   0.802   2.838   8.349  1.2199 -1.6115  0.1491
 4183SOL     OW24181   4.183   4.378   8.694 -0.4112 -0.0726 -0.1525
 4183SOL    HW124182   4.103   4.343   8.733 -1.3127  1.6316 -0.4877
 4183SOL    HW224183   4.165   4.471   8.703 -0.0145 -0.1160  0.9805
 4184SOL     OW24184   0.979   1.966   1.879 -0.1723  0.3011 -0.2169
 4184SOL    HW124185   0.994   1.917   1.798  0.6386 -1.6864  1.1387
 4184SOL    HW224186   1.027   2.048   1.869 -0.0827  0.2075 -0.5587
 4185SOL     OW24187   0.428   3.518  13.583 -0.4005 -0.3772 -0.2787
 4185SOL    HW124188   0.494   3.586  13.587 -0.3295 -0.4038 -0.9479
 4185SOL    HW224189   0.435   3.493  13.491 -0.1641  2.3240 -0.9643
 4186SOL     OW24190   1.052   1.687   5.782 -0.5992  0.0884  0.6067
 4186SOL    HW124191   1.033   1.657   5.693 -0.3050 -0.9649  0.9048
 4186SOL    HW224192   0.966   1.719   5.810  0.5395  3.1485  0.6011
 4187SOL     OW24193   1.474   2.544   4.174 -0.1781 -0.8044 -0.3348
 4187SOL    HW124194   1.418   2.615   4.205 -1.5281 -1.2844 -1.6584
 4187SOL    HW224195   1.444   2.548   4.083 -0.7337  1.2391 -0.0636
 4188SOL     OW24196   3.707   0.306   8.145  0.3740 -0.1243 -0.1540
 4188SOL    HW124197   3.701   0.393   8.186  0.6184 -0.2803  0.2169
 4188SOL    HW224198   3.761   0.266   8.213 -0.8203 -0.3706  0.6597
 4189SOL     OW24199   3.840   2.182   8.658  0.2130 -0.2036 -0.3029
 4189SOL    HW124200   3.764   2.166   8.714 -0.6890  1.7355 -0.9646
 4189SOL    HW224201   3.885   2.252   8.706 -0.7960  1.0117 -1.1140
 4190SOL     OW24202   1.291   1.050   9.685  0.2416 -0.3791 -0.0090
 4190SOL    HW124203   1.254   1.133   9.657 -1.5382 -0.9603  0.5876
 4190SOL    HW224204   1.382   1.054   9.655  0.1433  1.0369 -0.0953
 4191SOL     OW24205   4.005   0.412  15.952 -0.1582  0.0686 -0.4063
 4191SOL    HW124206   3.914   0.385  15.961 -0.1409 -0.3780 -1.5974
 4191SOL    HW224207   4.007   0.471  15.876 -0.5444 -0.7786 -1.0704
 4192SOL     OW24208   4.718   1.908   9.362  0.3413 -0.2886  0.3548
 4192SOL    HW124209   4.627   1.922   9.389  0.1151 -2.4384  0.6987
 4192SOL    HW224210   4.713   1.839   9.296  0.6518 -0.9373  1.0011
 4193SOL     OW24211   1.289   0.591  14.987  0.8973  0.2461 -0.4454
 4193SOL    HW124212   1.267   0.524  14.922 -1.4236 -1.0669  1.6848
 4193SOL    HW224213   1.321   0.547  15.066  0.0020 -0.6041 -0.5666
 4194SOL     OW24214   1.123   3.734   9.241 -0.0624  0.5224 -0.0371
 4194SOL    HW124215   1.130   3.683   9.160  1.2805  0.1951  0.2973
 4194SOL    HW224216   1.202   3.782   9.217  0.1370  0.9149  1.4259
 4195SOL     OW24217   2.414   4.087  11.402  0.6939  0.2242 -0.4761
 4195SOL    HW124218   2.441   4.003  11.439  1.1272  1.0773  1.1491
 4195SOL    HW224219   2.412   4.138  11.482  1.0773  0.0132 -0.3298
 4196SOL     OW24220   4.004   1.817  14.038  0.6934  0.6570  0.2761
 4196SOL    HW124221   4.004   1.722  14.050  1.5095  0.6988  0.6011
 4196SOL    HW224222   4.087   1.850  14.071  1.5107 -0.1411 -0.9829
 4197SOL     OW24223   2.120   0.816   2.571 -0.1943 -0.0200 -0.2343
 4197SOL    HW124224   2.179   0.890   2.588 -1.4471  1.1076 -0.8229
 4197SOL    HW224225   2.042   0.855   2.610 -0.6693  0.5636 -1.7695
 4198SOL     OW24226   1.164   3.057   4.146  0.0532 -0.3480  0.0035
 4198SOL    HW124227   1.196   3.147   4.132 -0.0842 -0.5913 -1.8709
 4198SOL    HW224228   1.106   3.053   4.069  0.0617 -0.9112  0.0300
 4199SOL     OW24229   2.206   1.344   7.673 -0.3257  0.3057  0.1253
 4199SOL    HW124230   2.186   1.290   7.597 -1.7007 -0.5783  1.1076
 4199SOL    HW224231   2.178   1.288   7.745 -0.5622 -0.2941 -0.4339
 4200SOL     OW24232   2.681   4.440   4.983  0.3034 -0.0462 -0.2585
 4200SOL    HW124233   2.599   4.433   4.935  0.2437 -0.6664 -0.0639
 4200SOL    HW224234   2.679   4.533   5.007 -0.2861  0.1145 -0.9337
 4201SOL     OW24235   3.150   0.345   9.063  0.2494  0.0807  0.4520
 4201SOL    HW124236   3.178   0.259   9.032  1.8529  0.9193 -0.4803
 4201SOL    HW224237   3.132   0.331   9.156  0.1150 -2.0262  0.1094
 4202SOL     OW24238   4.614   4.231   5.594  0.4997  0.4875  0.3980
 4202SOL    HW124239   4.580   4.154   5.640  0.9096 -0.0890 -0.2683
 4202SOL    HW224240   4.659   4.278   5.664  2.9858  0.9622 -1.5125
 4203SOL     OW24241   1.157   2.558   3.101 -1.1918 -0.2837  0.0083
 4203SOL    HW124242   1.091   2.496   3.070  0.0061 -1.5771  0.0234
 4203SOL    HW224243   1.223   2.501   3.140 -1.5753 -0.4354  0.4306
 4204SOL     OW24244   3.973   3.028   2.785  0.2004  0.0646  0.0423
 4204SOL    HW124245   3.884   3.064   2.778 -0.0489 -0.9742 -2.4456
 4204SOL    HW224246   4.011   3.111   2.813  1.2442 -0.8469  1.3022
 4205SOL     OW24247   2.669   0.180   6.314 -0.0326  0.2390  0.0916
 4205SOL    HW124248   2.603   0.187   6.383 -0.9242  0.0138 -0.7591
 4205SOL    HW224249   2.619   0.161   6.235 -1.3852 -0.0635  1.0165
 4206SOL     OW24250   0.800   4.328   3.773  0.8147  0.2907  0.0032
 4206SOL    HW124251   0.891   4.312   3.750  0.4059 -0.6100 -0.9348
 4206SOL    HW224252   0.790   4.272   3.850  2.8048  0.6491  0.5238
 4207SOL     OW24253   0.561   1.165  13.415 -0.2158 -0.2872  0.4898
 4207SOL    HW124254   0.621   1.101  13.379  0.1313  0.7036 -0.6948
 4207SOL    HW224255   0.620   1.222  13.464 -2.9497  0.8691  2.4936
 4208SOL     OW24256   2.335   1.672  11.691 -0.3822  0.1493  0.0770
 4208SOL    HW124257   2.431   1.667  11.692 -0.3225  1.6070  3.3713
 4208SOL    HW224258   2.320   1.692  11.599 -0.5490 -0.2292  0.0232
 4209SOL     OW24259   0.903   0.164   9.082 -0.0703 -0.1689  0.1463
 4209SOL    HW124260   0.824   0.186   9.131 -1.1180 -0.0059 -1.6455
 4209SOL    HW224261   0.872   0.150   8.993  3.3637 -0.9177 -0.9360
 4210SOL     OW24262   0.531   3.251   3.399 -0.2888  0.7589 -0.0188
 4210SOL    HW124263   0.512   3.285   3.312 -0.2967 -1.7263 -0.9875
 4210SOL    HW224264   0.457   3.282   3.450  0.8647  0.7790  1.6574
 4211SOL     OW24265   4.244   3.049  12.549 -1.0952 -0.5242 -0.0500
 4211SOL    HW124266   4.176   3.112  12.524 -1.5629 -0.6438  0.9236
 4211SOL    HW224267   4.198   2.990  12.609 -1.0609  0.1446  0.6381
 4212SOL     OW24268   2.431   1.150   6.451  0.5617  0.1154  0.1238
 4212SOL    HW124269   2.515   1.114   6.477  0.1828 -2.3411 -2.1271
 4212SOL    HW224270   2.461   1.211   6.384  0.6072 -0.7891 -0.6669
 4213SOL     OW24271   2.938   0.714   3.865  0.3076 -0.2521  0.7244
 4213SOL    HW124272   2.894   0.767   3.931  0.6181  2.2409 -1.0650
 4213SOL    HW224273   2.862   0.686   3.814 -0.5635  1.1337  1.2417
 4214SOL     OW24274   3.709   3.594  10.865  0.7403 -0.1776  0.3851
 4214SOL    HW124275   3.756   3.590  10.948  0.6373 -1.4473  0.3843
 4214SOL    HW224276   3.776   3.556  10.807 -1.1258 -0.7551 -1.4276
 4215SOL     OW24277   2.116   1.300  17.502 -0.6339  0.4922 -0.7014
 4215SOL    HW124278   2.071   1.254  17.573  1.4242 -1.2895 -0.5579
 4215SOL    HW224279   2.049   1.292  17.434 -0.4220  3.5051 -1.2593
 4216SOL     OW24280   3.015   4.220  17.026  0.1619 -0.5277  0.1806
 4216SOL    HW124281   3.086   4.165  16.993 -0.2201 -0.7818 -0.2071
 4216SOL    HW224282   2.959   4.148  17.057 -1.6832  1.0244  0.4756
 4217SOL     OW24283   3.158   1.833   0.837  0.2763  0.2194 -0.6099
 4217SOL    HW124284   3.217   1.784   0.780 -1.4084  0.6874 -2.7639
 4217SOL    HW224285   3.156   1.772   0.910 -0.0288  0.5749 -0.3205
 4218SOL     OW24286   0.040   2.203   6.722 -0.5272 -0.1370 -0.5577
 4218SOL    HW124287   0.091   2.279   6.694 -0.6494 -0.0713 -0.6019
 4218SOL    HW224288   0.085   2.161   6.796  2.9692  0.0681 -2.5954
 4219SOL     OW24289   2.515   0.199   7.043  0.5526 -0.1971  0.2966
 4219SOL    HW124290   2.482   0.288   7.030  1.2282 -0.4218 -2.9603
 4219SOL    HW224291   2.449   0.163   7.101 -0.3740  0.4483 -0.3518
 4220SOL     OW24292   0.502   0.480   0.726  0.1472  0.2945  0.5593
 4220SOL    HW124293   0.517   0.553   0.666 -1.0248 -0.1993 -0.3429
 4220SOL    HW224294   0.580   0.425   0.724 -0.3012 -0.3406  0.6171
 4221SOL     OW24295   2.096   4.489   2.840 -0.6789 -0.2853 -0.1738
 4221SOL    HW124296   2.132   4.404   2.863 -0.5010 -0.3629 -0.7225
 4221SOL    HW224297   2.163   4.552   2.866 -0.7386 -0.1859 -0.2582
 4222SOL     OW24298   2.924   2.490   7.949  0.7066  0.1938  0.1240
 4222SOL    HW124299   2.985   2.420   7.925  0.9056  0.5650 -0.4566
 4222SOL    HW224300   2.983   2.563   7.968 -0.0665  0.7738  0.3096
 4223SOL     OW24301   4.511   0.723   1.059  0.1156 -0.0324  0.1328
 4223SOL    HW124302   4.555   0.806   1.081  1.3624 -0.4028 -0.9665
 4223SOL    HW224303   4.448   0.731   1.131  2.1582  0.5806  1.8546
 4224SOL     OW24304   2.217   1.818   9.154  0.5127  0.0743  0.3700
 4224SOL    HW124305   2.288   1.865   9.110 -0.3304  1.9710  1.0528
 4224SOL    HW224306   2.209   1.863   9.238 -1.9360 -0.6154  0.5117
 4225SOL     OW24307   3.260   2.126  12.940 -0.3201 -0.0961  0.1669
 4225SOL    HW124308   3.316   2.182  12.886 -0.1542 -1.0631 -0.6708
 4225SOL    HW224309   3.247   2.188  13.012 -0.8373 -0.9990  0.8496
 4226SOL     OW24310   0.495   1.373  14.634  0.7898 -0.0421 -0.1444
 4226SOL    HW124311   0.405   1.395  14.657 -0.2672 -1.8426 -2.5031
 4226SOL    HW224312   0.546   1.440  14.679  1.1570  0.3133 -1.0685
 4227SOL     OW24313   3.594   2.790   8.026 -0.3418  0.2848  0.5875
 4227SOL    HW124314   3.653   2.730   8.072  2.3580  1.2529 -1.6082
 4227SOL    HW224315   3.633   2.869   8.063 -0.5184 -0.2264  1.8812
 4228SOL     OW24316   1.775   2.152   4.808 -0.0599 -0.3731  0.2758
 4228SOL    HW124317   1.798   2.140   4.901 -2.0082  0.1442  0.8121
 4228SOL    HW224318   1.842   2.099   4.763 -0.4583  0.2014 -0.9835
 4229SOL     OW24319   2.639   2.838   4.076 -0.1608  0.0456  0.0391
 4229SOL    HW124320   2.650   2.746   4.052 -2.8064 -0.1318 -0.5714
 4229SOL    HW224321   2.597   2.867   3.995  1.3550  1.1111 -0.3431
 4230SOL     OW24322   0.845   3.580   8.671  0.1077 -0.4075  0.4222
 4230SOL    HW124323   0.823   3.650   8.608  1.4235 -2.3770 -2.2286
 4230SOL    HW224324   0.932   3.561   8.636 -0.8386  1.0378 -2.7536
 4231SOL     OW24325   2.064   1.774   0.440 -0.3870  0.1312 -0.6581
 4231SOL    HW124326   1.997   1.838   0.416 -0.3083 -0.4800 -2.4951
 4231SOL    HW224327   2.147   1.820   0.428  0.5308 -1.8193 -1.7101
 4232SOL     OW24328   1.297   2.715   5.736 -0.5494 -0.1992  0.2708
 4232SOL    HW124329   1.363   2.768   5.780  0.1620 -1.2324  0.4624
 4232SOL    HW224330   1.322   2.631   5.775 -0.8406 -0.6439 -0.5147
 4233SOL     OW24331   3.568   0.166   7.882  0.7926 -0.1794  0.1425
 4233SOL    HW124332   3.639   0.149   7.945  0.4493 -1.1275  0.2731
 4233SOL    HW224333   3.550   0.078   7.848  0.7230 -0.2950  0.4735
 4234SOL     OW24334   3.899   0.609   8.370  0.1871  0.6048 -0.0224
 4234SOL    HW124335   3.950   0.578   8.295  2.2133  1.7335  0.9150
 4234SOL    HW224336   3.845   0.681   8.337  0.6529  0.0032 -2.0812
 4235SOL     OW24337   1.505   2.923   5.785 -0.1994  0.0280 -0.7463
 4235SOL    HW124338   1.583   2.904   5.732  0.2617  0.9331 -0.3835
 4235SOL    HW224339   1.530   2.904   5.876 -0.6073  0.7623 -0.4883
 4236SOL     OW24340   1.674   4.201   4.205  0.3137  0.2193  0.4653
 4236SOL    HW124341   1.686   4.293   4.227  0.4112  0.1458  0.7195
 4236SOL    HW224342   1.685   4.157   4.290  1.0956 -0.1783  0.1580
 4237SOL     OW24343   0.410   2.400   9.094  0.3291  0.0993 -0.0148
 4237SOL    HW124344   0.456   2.393   9.011  1.6090 -0.5152  0.7523
 4237SOL    HW224345   0.449   2.328   9.143 -1.6909 -1.9121 -1.3609
 4238SOL     OW24346   0.323   3.505   4.797 -0.2479 -0.4159 -0.2012
 4238SOL    HW124347   0.399   3.479   4.745  0.2049  0.4706  0.0171
 4238SOL    HW224348   0.262   3.466   4.734  0.4863  1.2096 -1.9152
 4239SOL     OW24349   0.393   1.931   1.213 -0.3414  0.2204  0.8412
 4239SOL    HW124350   0.373   1.843   1.247  1.0029 -1.1476 -1.9456
 4239SOL    HW224351   0.485   1.931   1.239 -1.1055 -0.1377  3.5516
 4240SOL     OW24352   2.436   4.318  16.726  0.0484  0.5366  0.0445
 4240SOL    HW124353   2.526   4.294  16.707 -0.6774 -1.1990 -1.1403
 4240SOL    HW224354   2.394   4.233  16.740  1.4499  0.2638  2.6037
 4241SOL     OW24355   0.306   3.332   6.247  0.0984 -0.0858  0.3397
 4241SOL    HW124356   0.258   3.329   6.329  0.9057 -1.5271  0.7614
 4241SOL    HW224357   0.299   3.241   6.217  0.6908  0.5028 -1.5734
 4242SOL     OW24358   2.985   4.608   8.734 -0.7343  0.2317  0.2547
 4242SOL    HW124359   2.917   4.610   8.666 -1.1020 -0.2479  0.6017
 4242SOL    HW224360   2.944   4.634   8.817  0.4598 -2.6699  1.7638
 4243SOL     OW24361   2.274   2.898   8.222 -0.9932  0.8280 -0.1208
 4243SOL    HW124362   2.318   2.937   8.298 -0.6651  0.0828  0.0722
 4243SOL    HW224363   2.186   2.903   8.259 -1.1709  1.2398 -0.5941
 4244SOL     OW24364   0.908   3.704   0.949 -1.2540  0.1273  0.4304
 4244SOL    HW124365   0.916   3.629   0.890  1.6352  0.6421  0.1586
 4244SOL    HW224366   0.999   3.721   0.972 -1.3002  0.9440 -0.0194
 4245SOL     OW24367   1.850   2.102   9.167 -0.2795 -0.2166 -0.2125
 4245SOL    HW124368   1.778   2.051   9.129 -1.5730  1.1486  0.4368
 4245SOL    HW224369   1.867   2.062   9.252 -0.0269 -0.0971 -0.2080
 4246SOL     OW24370   2.266   4.186   6.788 -0.1489 -0.1049  0.1516
 4246SOL    HW124371   2.269   4.261   6.729 -1.5125 -0.1965 -0.0276
 4246SOL    HW224372   2.264   4.224   6.875  1.0234  1.1466 -0.3696
 4247SOL     OW24373   0.562   0.189   4.083 -0.0017  0.3393 -0.0767
 4247SOL    HW124374   0.503   0.120   4.114  1.5035 -0.1053  1.7752
 4247SOL    HW224375   0.634   0.132   4.056  0.0794  0.6751 -0.5626
 4248SOL     OW24376   1.531   0.974   1.666 -0.0360  0.4229  0.0217
 4248SOL    HW124377   1.604   0.963   1.727 -0.6572  0.8534  0.8474
 4248SOL    HW224378   1.512   1.067   1.681 -2.0051 -0.2116  1.6295
 4249SOL     OW24379   3.506   3.825   6.572  0.0930  0.1825 -0.7146
 4249SOL    HW124380   3.418   3.809   6.538  0.4130  0.7125 -1.8085
 4249SOL    HW224381   3.535   3.735   6.585 -0.5251  0.1728  0.5737
 4250SOL     OW24382   3.317   2.658   6.594  0.1739 -0.3406 -0.5734
 4250SOL    HW124383   3.248   2.680   6.532  0.3640 -3.6075 -1.9588
 4250SOL    HW224384   3.296   2.710   6.672 -0.1900 -1.6883  0.2291
 4251SOL     OW24385   2.546   4.031  14.024  0.3349  0.2263 -0.2215
 4251SOL    HW124386   2.578   4.118  14.047  1.1703 -0.8104  2.4721
 4251SOL    HW224387   2.483   4.054  13.955  0.6853  3.2255  0.4450
 4252SOL     OW24388   0.558   0.881  13.506  0.2672 -0.0877 -0.0441
 4252SOL    HW124389   0.574   0.872  13.412 -1.7037  0.1701 -0.4111
 4252SOL    HW224390   0.499   0.807  13.522  1.7638 -0.9770  1.2908
 4253SOL     OW24391   1.287   4.414   5.800 -0.4444 -0.2310  0.1249
 4253SOL    HW124392   1.258   4.331   5.765 -1.4578  0.7732 -1.4208
 4253SOL    HW224393   1.370   4.430   5.753  0.7158  0.3922  2.3956
 4254SOL     OW24394   2.913   3.134   5.992 -0.5388  0.0086 -0.4286
 4254SOL    HW124395   2.866   3.208   5.954  1.1483  1.3282  0.0717
 4254SOL    HW224396   2.986   3.125   5.930  0.2878 -0.2549  0.5835
 4255SOL     OW24397   2.492   4.302   9.832 -0.2746  0.2250 -0.0484
 4255SOL    HW124398   2.404   4.322   9.801  0.8794  1.4749 -2.5260
 4255SOL    HW224399   2.548   4.314   9.756  0.1279  1.4302  0.4424
 4256SOL     OW24400   3.615   0.748   3.398 -0.1355 -0.1931 -0.0671
 4256SOL    HW124401   3.520   0.744   3.391 -0.1131  0.4632 -0.7426
 4256SOL    HW224402   3.641   0.658   3.375 -0.2183 -0.0772 -0.6151
 4257SOL     OW24403   2.688   1.751   1.085 -0.5748  0.4011  0.1800
 4257SOL    HW124404   2.716   1.837   1.052 -0.7520 -0.1700 -1.4328
 4257SOL    HW224405   2.704   1.691   1.012 -1.5748 -0.8435  0.9964
 4258SOL     OW24406   2.348   2.847   4.995 -0.4410  0.6432  0.9743
 4258SOL    HW124407   2.421   2.788   5.017 -2.2229 -1.6603  0.6800
 4258SOL    HW224408   2.398   2.923   4.965  1.2000 -0.9200 -0.2945
 4259SOL     OW24409   2.402   3.625   4.831  0.1988  0.1086 -0.0527
 4259SOL    HW124410   2.460   3.549   4.842 -0.6323 -0.3123  1.4804
 4259SOL    HW224411   2.319   3.602   4.872  1.1064 -0.6835  1.3517
 4260SOL     OW24412   0.419   1.017   9.241 -0.2548 -0.1178  0.1023
 4260SOL    HW124413   0.478   1.037   9.314 -3.0353  0.9115  2.0365
 4260SOL    HW224414   0.334   1.028   9.283 -0.9739 -0.4396 -1.2510
 4261SOL     OW24415   3.443   4.488   2.457 -0.4138  0.1663  0.1014
 4261SOL    HW124416   3.465   4.395   2.470  1.7163  0.6735  0.0856
 4261SOL    HW224417   3.389   4.484   2.378 -0.4198  0.2823  0.0995
 4262SOL     OW24418   3.287   2.021   7.261 -0.1996 -0.1364  0.2694
 4262SOL    HW124419   3.269   2.048   7.351  0.3474  0.4479  0.1960
 4262SOL    HW224420   3.382   2.016   7.257 -0.0508  1.3551  2.5132
 4263SOL     OW24421   3.660   2.359  17.448  0.1511 -0.5528 -0.0025
 4263SOL    HW124422   3.641   2.400  17.532  2.0056 -0.5516  0.4087
 4263SOL    HW224423   3.751   2.385  17.438 -0.4871  2.0959  1.0610
 4264SOL     OW24424   4.152   4.671  13.336 -0.6869 -0.1575  0.4035
 4264SOL    HW124425   4.063   4.657  13.368 -1.3490  1.8983 -0.5917
 4264SOL    HW224426   4.143   4.699  13.245 -1.8360 -2.6406 -0.2363
 4265SOL     OW24427   4.025   3.246  12.581  0.3206 -0.2073 -0.0922
 4265SOL    HW124428   4.063   3.319  12.533 -2.3267  1.1888 -0.0780
 4265SOL    HW224429   3.995   3.297  12.656  1.1935 -0.6079  0.5335
 4266SOL     OW24430   1.197   4.647   9.939  0.4595  0.0418  0.2160
 4266SOL    HW124431   1.231   4.716   9.881  1.1600 -1.0147 -0.6252
 4266SOL    HW224432   1.257   4.574   9.926  0.5423  0.0781  0.3947
 4267SOL     OW24433   1.815   0.885   2.509  0.3224  0.1840 -0.0126
 4267SOL    HW124434   1.720   0.894   2.504  0.3306 -0.4217 -1.1918
 4267SOL    HW224435   1.822   0.807   2.565  0.7341  0.7803  0.7684
 4268SOL     OW24436   1.928   2.632   1.273 -0.0457 -0.2136  0.7511
 4268SOL    HW124437   1.908   2.602   1.361 -2.5133  2.5412  1.1127
 4268SOL    HW224438   1.871   2.708   1.265  0.3988 -0.0735 -1.2556
 4269SOL     OW24439   3.789   2.599  10.324  0.6053  0.1475  0.3729
 4269SOL    HW124440   3.836   2.629  10.402  0.6024 -0.1701  0.4994
 4269SOL    HW224441   3.837   2.646  10.256  0.1190  1.9148  1.2615
 4270SOL     OW24442   1.607   2.406   3.902 -0.0454  0.2228 -0.2296
 4270SOL    HW124443   1.653   2.480   3.942 -0.1786  0.4595 -0.5087
 4270SOL    HW224444   1.520   2.445   3.890 -0.7075 -1.0084  0.6761
 4271SOL     OW24445   2.624   4.635   3.966  0.2338  1.0684  0.4604
 4271SOL    HW124446   2.635   4.568   4.034 -0.6272  0.8782  0.4158
 4271SOL    HW224447   2.582   4.577   3.903 -1.2097  0.8144  1.6481
 4272SOL     OW24448   1.837   0.231   8.558  0.6739 -0.1218 -0.1095
 4272SOL    HW124449   1.820   0.322   8.584 -0.6096 -0.5302  0.4970
 4272SOL    HW224450   1.803   0.226   8.469 -2.9855 -1.2571  1.3561
 4273SOL     OW24451   2.350   2.320  13.813 -0.5423  0.4063  0.1862
 4273SOL    HW124452   2.334   2.298  13.905  2.0600 -1.0592  0.2853
 4273SOL    HW224453   2.304   2.403  13.799  0.0806  0.8653  0.8889
 4274SOL     OW24454   1.143   1.751   4.800  0.1065  0.6993  0.0892
 4274SOL    HW124455   1.065   1.735   4.853 -1.0573  0.3634 -1.7095
 4274SOL    HW224456   1.095   1.752   4.717 -0.5754 -3.0904  0.4461
 4275SOL     OW24457   1.618   1.377   7.441 -0.1553  0.7482  0.4165
 4275SOL    HW124458   1.640   1.416   7.357 -1.3087  0.2157 -0.1402
 4275SOL    HW224459   1.528   1.410   7.450  0.2153  1.0760  3.0835
 4276SOL     OW24460   0.122   0.604   5.100  0.3749 -0.1289  0.5681
 4276SOL    HW124461   0.181   0.641   5.034  0.8890 -0.6588  0.7354
 4276SOL    HW224462   0.029   0.610   5.079  0.7014 -1.1621 -1.1600
 4277SOL     OW24463   2.676   1.347  10.983 -0.2648 -0.3229 -0.0269
 4277SOL    HW124464   2.616   1.410  11.023 -0.3761  0.5086 -1.4913
 4277SOL    HW224465   2.662   1.276  11.046  2.2583  0.0489  0.9493
 4278SOL     OW24466   3.266   4.003  10.787  0.1763 -1.0630  0.8323
 4278SOL    HW124467   3.210   4.045  10.722  2.2839 -1.6576 -1.3682
 4278SOL    HW224468   3.206   3.989  10.860 -0.7503  1.9161  0.6513
 4279SOL     OW24469   3.406   0.414  15.160 -0.8134 -0.5339 -0.3743
 4279SOL    HW124470   3.402   0.471  15.083  3.0093  1.0178  0.5982
 4279SOL    HW224471   3.411   0.468  15.239  0.0170  0.3951 -1.0632
 4280SOL     OW24472   4.145   3.204   3.801 -0.1525 -0.2177  0.3857
 4280SOL    HW124473   4.096   3.127   3.830 -1.2327 -0.5514 -2.3138
 4280SOL    HW224474   4.217   3.150   3.771 -1.2734 -0.7276 -1.3594
 4281SOL     OW24475   3.223   2.515   1.208 -0.4596 -0.4857 -0.1488
 4281SOL    HW124476   3.157   2.513   1.138  0.3485 -2.6952 -0.8312
 4281SOL    HW224477   3.167   2.547   1.279  2.1260  1.1082  1.1564
 4282SOL     OW24478   4.578   1.597   1.886  0.1455 -0.6177  0.4730
 4282SOL    HW124479   4.560   1.626   1.976 -1.3107 -1.1238  0.3391
 4282SOL    HW224480   4.666   1.560   1.895  0.6729  1.0744  2.2842
 4283SOL     OW24481   4.463   1.369  11.796 -0.1810 -0.5718 -0.0225
 4283SOL    HW124482   4.522   1.361  11.720  0.5993 -0.2709  0.5474
 4283SOL    HW224483   4.426   1.456  11.785 -1.2323 -1.2898 -2.0779
 4284SOL     OW24484   4.604   1.748  11.486  0.2318  0.0533  0.7295
 4284SOL    HW124485   4.680   1.694  11.466  0.3786 -0.5289  2.8528
 4284SOL    HW224486   4.561   1.748  11.400 -2.2326 -0.7851  1.9522
 4285SOL     OW24487   2.731   4.232   6.360  0.8146 -0.2022 -0.8222
 4285SOL    HW124488   2.823   4.243   6.381  0.1691  1.4876  1.0253
 4285SOL    HW224489   2.681   4.238   6.441  2.5098  0.9551  0.1186
 4286SOL     OW24490   2.424   2.969  12.439  0.0333  0.3475  0.3926
 4286SOL    HW124491   2.377   2.927  12.367 -2.2694 -0.5958  2.4266
 4286SOL    HW224492   2.435   2.889  12.491  0.1563 -0.9905 -1.6603
 4287SOL     OW24493   1.154   0.390   7.006 -0.4601  0.7742 -0.3553
 4287SOL    HW124494   1.143   0.470   6.953 -1.8678 -0.3453 -1.7299
 4287SOL    HW224495   1.070   0.381   7.049 -0.1086 -0.1347  0.1214
 4288SOL     OW24496   1.358   1.390  10.233  0.4198 -0.2466 -0.4234
 4288SOL    HW124497   1.295   1.446  10.276 -0.9704 -1.9421 -0.2663
 4288SOL    HW224498   1.310   1.348  10.161  1.5754 -0.3879 -1.1202
 4289SOL     OW24499   3.061   3.547   5.123  0.5239  0.1232 -0.0162
 4289SOL    HW124500   3.013   3.552   5.041  0.1146  1.1710  0.2941
 4289SOL    HW224501   2.997   3.570   5.191  0.9339 -0.3727  0.5400
 4290SOL     OW24502   2.501   2.056  14.197  0.0862  0.0777  0.5475
 4290SOL    HW124503   2.582   2.088  14.156 -1.7861  1.0712 -2.3345
 4290SOL    HW224504   2.434   2.112  14.158  0.1546 -1.3601 -1.6728
 4291SOL     OW24505   1.573   2.672   6.871 -0.1609 -0.4980  0.0905
 4291SOL    HW124506   1.666   2.693   6.878 -0.2753 -0.6227  2.0526
 4291SOL    HW224507   1.579   2.580   6.897  0.9738 -0.4447  0.0482
 4292SOL     OW24508   1.743   0.832  15.909 -0.1885  0.4575  0.1371
 4292SOL    HW124509   1.709   0.910  15.953 -3.3994  0.4634 -2.3298
 4292SOL    HW224510   1.687   0.830  15.831 -0.8174 -0.2169  0.6168
 4293SOL     OW24511   2.026   0.383   9.023  1.0172 -0.3269  0.3495
 4293SOL    HW124512   1.984   0.344   8.946 -0.0432  1.7274 -0.1151
 4293SOL    HW224513   2.031   0.303   9.074 -0.3013 -0.1636  0.7295
 4294SOL     OW24514   3.494   3.165  13.039  0.1679  0.2987 -0.5108
 4294SOL    HW124515   3.559   3.220  13.082 -0.1501 -0.4539  0.9354
 4294SOL    HW224516   3.511   3.076  13.070 -1.4517  0.5763  1.1487
 4295SOL     OW24517   0.838   3.366  15.712 -0.6979  0.2171  0.0322
 4295SOL    HW124518   0.904   3.421  15.671  1.6386 -2.4876  0.2240
 4295SOL    HW224519   0.870   3.368  15.802 -2.3313  1.6726  0.5877
 4296SOL     OW24520   2.031   0.185   9.230  0.0042 -0.0471 -0.2735
 4296SOL    HW124521   2.011   0.103   9.275  0.5161 -2.1100 -3.7762
 4296SOL    HW224522   2.126   0.185   9.241 -0.2460 -1.0177  1.8000
 4297SOL     OW24523   2.673   1.855   2.572  0.4568 -0.0869  0.3265
 4297SOL    HW124524   2.604   1.866   2.507 -0.6969  0.3735  1.6331
 4297SOL    HW224525   2.621   1.841   2.651  0.8535  0.0713  0.6175
 4298SOL     OW24526   0.081   4.585   5.956  0.0065  0.0215  0.4298
 4298SOL    HW124527   0.151   4.521   5.957  0.7329  0.8046 -0.5351
 4298SOL    HW224528   0.042   4.579   5.869 -2.3513  1.5448  1.3543
 4299SOL     OW24529   3.732   2.243  12.014  0.1612 -0.2310 -0.0387
 4299SOL    HW124530   3.751   2.197  11.932  1.8681 -2.5237  1.6571
 4299SOL    HW224531   3.688   2.321  11.981  0.7928  0.3698  0.5367
 4300SOL     OW24532   0.820   0.761  12.748  0.2060 -0.3338 -0.2693
 4300SOL    HW124533   0.768   0.683  12.766 -0.8651  0.1502 -1.2971
 4300SOL    HW224534   0.910   0.734  12.764  0.0185 -0.0128  1.3227
 4301SOL     OW24535   2.955   2.105   4.015  0.0550  0.7439  0.3057
 4301SOL    HW124536   2.980   2.146   4.097  0.6617  0.1306  0.4301
 4301SOL    HW224537   2.997   2.162   3.951 -0.2338 -0.4161 -0.9162
 4302SOL     OW24538   2.761   1.938   9.066 -0.5344  0.5415 -0.3744
 4302SOL    HW124539   2.673   1.904   9.053 -0.4095  0.1353 -0.1383
 4302SOL    HW224540   2.768   1.921   9.160  2.4746 -1.2395 -0.9230
 4303SOL     OW24541   3.391   2.178  11.943 -0.3112  0.3754 -0.0539
 4303SOL    HW124542   3.472   2.166  11.993 -1.3604  2.1664  2.1106
 4303SOL    HW224543   3.322   2.149  12.003 -0.9338 -0.2816 -1.0904
 4304SOL     OW24544   0.938   2.044   8.057  0.3841 -0.1681  0.2807
 4304SOL    HW124545   0.935   2.118   7.997 -3.2740 -0.1048  0.5382
 4304SOL    HW224546   0.848   2.047   8.091  0.9818  0.3397  1.8515
 4305SOL     OW24547   1.651   1.214   2.144  0.0944  0.1620  0.6946
 4305SOL    HW124548   1.566   1.191   2.107  1.2664 -0.0552 -1.8287
 4305SOL    HW224549   1.712   1.166   2.089 -1.6467 -0.4140 -0.7478
 4306SOL     OW24550   1.157   3.560   4.366  0.3120  0.1285 -0.5249
 4306SOL    HW124551   1.123   3.648   4.348  1.8057  0.9517  0.6134
 4306SOL    HW224552   1.109   3.548   4.448 -0.9590 -0.6462 -1.3939
 4307SOL     OW24553   3.021   2.459   4.318 -0.0163  0.1055  0.5477
 4307SOL    HW124554   3.098   2.452   4.373  0.8869  0.5726 -0.6532
 4307SOL    HW224555   2.990   2.369   4.310 -0.2248  0.2869 -0.7072
 4308SOL     OW24556   2.565   3.075  16.910 -0.1777 -0.5883 -0.5961
 4308SOL    HW124557   2.545   3.024  16.831 -0.0069 -0.3716 -0.7808
 4308SOL    HW224558   2.485   3.069  16.961  0.3267 -0.4735  0.1978
 4309SOL     OW24559   4.683   1.219   8.539 -0.1840 -0.1444 -0.1693
 4309SOL    HW124560   4.648   1.139   8.500 -1.7226  0.7111 -0.5707
 4309SOL    HW224561   4.682   1.196   8.632 -1.7269  2.5433  0.4888
 4310SOL     OW24562   3.745   2.578   7.424  0.4169  0.5166  1.2178
 4310SOL    HW124563   3.797   2.517   7.475  0.9956  0.6961  0.8443
 4310SOL    HW224564   3.731   2.521   7.348  0.0928  0.2801  1.4539
 4311SOL     OW24565   3.109   0.007  11.581  0.0936 -0.0291 -0.3063
 4311SOL    HW124566   3.179   0.010  11.516  0.3645  1.6154  0.0614
 4311SOL    HW224567   3.115   0.097  11.613  0.3918 -1.0992  2.6623
 4312SOL     OW24568   1.350   2.131   5.195 -0.2900 -0.3289 -0.1455
 4312SOL    HW124569   1.378   2.083   5.117 -1.1142 -1.6645  0.3832
 4312SOL    HW224570   1.294   2.069   5.242  1.1614  0.3663  2.5056
 4313SOL     OW24571   0.124   4.639   6.373  0.6461  0.3597  0.3682
 4313SOL    HW124572   0.068   4.674   6.303 -0.9322 -0.2294  1.3471
 4313SOL    HW224573   0.208   4.647   6.327  0.5796  0.7853  0.3287
 4314SOL     OW24574   0.743   0.512  15.739  0.1850 -0.0981  0.1930
 4314SOL    HW124575   0.735   0.563  15.658 -0.3650  1.2345  1.0782
 4314SOL    HW224576   0.719   0.428  15.701 -0.0583  0.1708 -0.2433
 4315SOL     OW24577   2.789   0.435   3.618  0.0181 -0.7930 -0.0515
 4315SOL    HW124578   2.863   0.375   3.617  0.0986 -0.6768 -1.4241
 4315SOL    HW224579   2.745   0.432   3.703 -2.3647 -2.7650 -1.3226
 4316SOL     OW24580   1.972   1.853   5.122 -0.7286 -0.0756  0.0897
 4316SOL    HW124581   2.007   1.805   5.196 -2.4018  0.3662  1.1704
 4316SOL    HW224582   2.050   1.894   5.084  0.7227 -3.8864 -0.9867
 4317SOL     OW24583   2.937   2.165   1.610  0.3483 -0.0248  0.3685
 4317SOL    HW124584   2.977   2.199   1.530 -1.6775 -0.8134 -0.9736
 4317SOL    HW224585   2.870   2.113   1.566  0.0150  0.2969  0.4952
 4318SOL     OW24586   4.382   2.560   7.099 -0.0513  0.4051 -0.4865
 4318SOL    HW124587   4.345   2.472   7.105  2.1317 -0.4584  0.0229
 4318SOL    HW224588   4.366   2.574   7.006  0.6112  1.5576 -0.4293
 4319SOL     OW24589   0.184   0.838   5.957 -0.2066  0.3218 -0.2651
 4319SOL    HW124590   0.213   0.865   5.870 -1.3453  0.6346 -0.5423
 4319SOL    HW224591   0.259   0.871   6.007  0.2864 -1.2553  0.0409
 4320SOL     OW24592   0.932   0.032  11.212  0.4086 -0.1051 -0.1526
 4320SOL    HW124593   0.911   0.070  11.126  0.1473 -0.7789 -0.3847
 4320SOL    HW224594   1.000   0.095  11.235 -0.1817  0.1589  0.9036
 4321SOL     OW24595   2.750   3.866  16.736  0.2985  0.3928 -0.4766
 4321SOL    HW124596   2.660   3.899  16.746 -0.5650 -1.8459 -0.9483
 4321SOL    HW224597   2.734   3.817  16.656  1.3737 -0.5252 -0.1246
 4322SOL     OW24598   2.345   4.570  16.585 -0.1339  0.1743 -0.4079
 4322SOL    HW124599   2.346   4.479  16.616  0.3459 -0.9551 -3.7157
 4322SOL    HW224600   2.261   4.596  16.622 -0.2880  0.0566 -0.6764
 4323SOL     OW24601   4.279   2.514   9.178  0.1489  0.2029  0.6993
 4323SOL    HW124602   4.227   2.577   9.127  2.5429  2.5078  1.0897
 4323SOL    HW224603   4.288   2.564   9.259 -0.5416 -1.2103  1.6483
 4324SOL     OW24604   3.254   2.817  12.197  0.0618  0.0044  0.0842
 4324SOL    HW124605   3.243   2.723  12.211  1.2121  0.2963  2.8791
 4324SOL    HW224606   3.230   2.827  12.105 -1.3287 -1.7139  0.2621
 4325SOL     OW24607   0.235   2.591   5.564 -0.0070  0.1933  0.1970
 4325SOL    HW124608   0.264   2.681   5.550  2.1487 -0.5229 -0.0665
 4325SOL    HW224609   0.319   2.544   5.563 -0.4688 -0.6411  0.4820
 4326SOL     OW24610   2.159   1.075  14.231  0.2566  0.3524 -0.0336
 4326SOL    HW124611   2.242   1.052  14.273  1.1736  2.0169 -0.9454
 4326SOL    HW224612   2.128   1.147  14.285 -0.5816 -0.1895  0.2067
 4327SOL     OW24613   2.213   2.002  10.498 -0.3414 -0.1751 -0.2131
 4327SOL    HW124614   2.158   1.943  10.446  1.2638 -1.3395 -0.5763
 4327SOL    HW224615   2.267   1.940  10.547 -0.9457 -0.4917  0.0606
 4328SOL     OW24616   4.525   1.747   8.417 -0.1455 -0.3442  0.2264
 4328SOL    HW124617   4.460   1.813   8.388  1.2944  0.7594 -0.4900
 4328SOL    HW224618   4.485   1.707   8.494 -1.0955  1.8243  0.8660
 4329SOL     OW24619   4.341   3.427  14.639 -0.0560  0.0417  0.3146
 4329SOL    HW124620   4.327   3.450  14.547 -1.4216  2.1486  1.0416
 4329SOL    HW224621   4.260   3.453  14.683 -0.0659  0.1626  0.2258
 4330SOL     OW24622   0.918   0.546   7.719  0.0482  0.7081  0.0242
 4330SOL    HW124623   0.937   0.551   7.812  0.0374  0.9256  0.0148
 4330SOL    HW224624   0.883   0.459   7.703  1.2516  0.0615  0.9779
 4331SOL     OW24625   3.269   2.583   9.584 -0.0038 -0.4893  0.4037
 4331SOL    HW124626   3.290   2.675   9.595  0.4734 -0.4936 -0.4416
 4331SOL    HW224627   3.235   2.587   9.673 -0.0693 -2.9570  0.5042
 4332SOL     OW24628   0.851   0.342   3.936  0.0370 -0.6955  0.2281
 4332SOL    HW124629   0.818   0.423   3.897  1.1329 -0.2051  0.3187
 4332SOL    HW224630   0.831   0.279   3.866  0.6715  0.1759 -0.7347
 4333SOL     OW24631   3.454   0.997  13.633 -0.3590 -0.6685 -0.0415
 4333SOL    HW124632   3.424   1.009  13.723 -0.0577 -0.0858 -0.0165
 4333SOL    HW224633   3.366   1.007  13.597 -0.6832  0.6347  1.1007
 4334SOL     OW24634   4.620   1.495   0.618  0.1668 -0.2400  0.2000
 4334SOL    HW124635   4.529   1.467   0.611  0.6059 -1.0730 -2.3055
 4334SOL    HW224636   4.662   1.414   0.590  2.1050  0.4183  1.2555
 4335SOL     OW24637   2.048   3.488   9.770  0.3601  0.5362  0.7112
 4335SOL    HW124638   2.090   3.525   9.847 -1.3491  0.5696  1.6208
 4335SOL    HW224639   2.116   3.511   9.706 -1.6470  0.8367 -1.2929
 4336SOL     OW24640   3.130   4.027   6.517  0.1501  0.3944  0.4805
 4336SOL    HW124641   3.055   3.991   6.566 -0.8245  1.7186 -0.0381
 4336SOL    HW224642   3.155   4.100   6.574  0.5620  0.1637  0.5896
 4337SOL     OW24643   2.296   4.487  16.205 -0.1721  0.0693  0.0807
 4337SOL    HW124644   2.289   4.574  16.245 -3.0720 -0.4948  0.8214
 4337SOL    HW224645   2.210   4.445  16.211 -1.1820  1.9139 -1.6694
 4338SOL     OW24646   1.850   3.225   1.020  0.0586 -0.1974  0.1831
 4338SOL    HW124647   1.870   3.306   0.974  0.2647 -1.3692 -1.7649
 4338SOL    HW224648   1.777   3.252   1.075  1.1246 -0.0211  1.5112
 4339SOL     OW24649   0.939   3.682  17.404 -0.2172  0.3688 -0.2788
 4339SOL    HW124650   1.009   3.713  17.347 -0.6146  3.9344  1.1992
 4339SOL    HW224651   0.977   3.712  17.487 -2.8915  2.6407  0.1312
 4340SOL     OW24652   1.283   3.744   7.436 -0.4991 -0.1619  0.0962
 4340SOL    HW124653   1.313   3.691   7.510  0.3935 -1.2567 -1.0467
 4340SOL    HW224654   1.368   3.755   7.393 -0.1265 -0.7955  0.6815
 4341SOL     OW24655   3.454   4.090  16.166 -0.2791  0.3633 -0.3167
 4341SOL    HW124656   3.457   4.150  16.240 -1.1789  0.5452 -0.4299
 4341SOL    HW224657   3.414   4.147  16.101  0.1130 -0.5343 -1.3491
 4342SOL     OW24658   4.357   4.421  11.042 -0.2637 -0.1021 -0.3556
 4342SOL    HW124659   4.285   4.358  11.034 -0.5190  0.0142  1.0386
 4342SOL    HW224660   4.421   4.369  11.092  1.2550  1.3429 -0.8023
 4343SOL     OW24661   2.882   3.570   7.455 -0.0695  0.3114  0.2106
 4343SOL    HW124662   2.857   3.541   7.367 -1.1106  0.0818  0.5922
 4343SOL    HW224663   2.971   3.533   7.453 -1.2278 -2.4772  0.8078
 4344SOL     OW24664   0.062   0.001  17.037 -0.4789 -0.3733 -0.3910
 4344SOL    HW124665   0.072   0.034  16.948 -0.8962 -1.4787 -0.8531
 4344SOL    HW224666   0.042   4.643  17.029 -0.0407 -0.4789 -0.2913
 4345SOL     OW24667   4.447   0.062   4.108  0.3513  0.2318  0.2471
 4345SOL    HW124668   4.486   4.714   4.135  3.1731 -0.0169 -4.4659
 4345SOL    HW224669   4.356   0.048   4.133  0.0741  2.0023  0.2353
 4346SOL     OW24670   1.496   1.739   8.553 -0.4501  0.3266  0.3151
 4346SOL    HW124671   1.459   1.752   8.640 -0.8205  0.3006  0.1646
 4346SOL    HW224672   1.586   1.764   8.572 -0.4334  0.2935  0.2804
 4347SOL     OW24673   0.600   4.258   0.733 -0.3156 -0.3207  0.3272
 4347SOL    HW124674   0.618   4.339   0.781  0.8021  1.2395 -2.7024
 4347SOL    HW224675   0.680   4.258   0.680 -1.1408  0.1996 -0.8995
 4348SOL     OW24676   4.391   3.787   4.168  0.2575 -0.2596  0.4418
 4348SOL    HW124677   4.320   3.846   4.195  1.3124  1.4768 -0.5601
 4348SOL    HW224678   4.471   3.840   4.177  0.1012  0.3452 -1.7447
 4349SOL     OW24679   3.310   3.661   7.892  0.1356 -0.0877 -0.1785
 4349SOL    HW124680   3.381   3.600   7.913 -0.3264 -0.3218  0.6993
 4349SOL    HW224681   3.319   3.725   7.962  0.4999 -0.7033  0.3400
 4350SOL     OW24682   4.347   1.933  17.319 -0.5018  0.4400  0.0509
 4350SOL    HW124683   4.349   1.843  17.350 -1.9068  0.7061  0.9428
 4350SOL    HW224684   4.440   1.953  17.329 -0.6207  1.2717 -0.4603
 4351SOL     OW24685   0.759   4.605   2.408 -0.1323  0.2443  0.9643
 4351SOL    HW124686   0.679   4.554   2.419 -0.0328 -0.3417 -0.8949
 4351SOL    HW224687   0.831   4.544   2.388 -0.3841  0.9082 -2.0136
 4352SOL     OW24688   3.405   2.405   9.432 -0.3630  0.3130  0.3461
 4352SOL    HW124689   3.354   2.341   9.483  1.6911  1.6658  4.0534
 4352SOL    HW224690   3.366   2.484   9.468 -0.5242 -0.3889  1.7289
 4353SOL     OW24691   1.737   1.457   0.320 -1.0723 -0.9466  0.3201
 4353SOL    HW124692   1.743   1.432   0.228 -0.3926 -1.2817  0.4553
 4353SOL    HW224693   1.760   1.370   0.354  0.4375 -2.1113 -3.7439
 4354SOL     OW24694   2.581   2.965  15.938  0.5071  0.3222 -0.5214
 4354SOL    HW124695   2.641   2.957  15.863 -1.5340  2.2580 -2.3657
 4354SOL    HW224696   2.527   3.039  15.911 -1.1864 -1.0819 -0.9782
 4355SOL     OW24697   2.687   2.645   4.765  0.1562  0.1972 -0.1527
 4355SOL    HW124698   2.737   2.702   4.823  0.0412  3.0412 -2.8757
 4355SOL    HW224699   2.644   2.580   4.821 -2.5979  2.6824  0.6587
 4356SOL     OW24700   3.168   1.672   8.789 -0.1746 -0.5746 -0.2058
 4356SOL    HW124701   3.104   1.740   8.811 -1.2348 -1.6778  0.0777
 4356SOL    HW224702   3.168   1.676   8.693 -1.0993  1.3352 -0.1328
 4357SOL     OW24703   1.236   4.055   7.342 -0.0654 -0.1474  0.1334
 4357SOL    HW124704   1.205   3.966   7.356 -3.5296  0.9255 -0.6471
 4357SOL    HW224705   1.211   4.093   7.427  1.5006  0.2262  0.4178
 4358SOL     OW24706   3.635   0.595  14.152 -0.1208  0.2789  0.1111
 4358SOL    HW124707   3.720   0.622  14.118  0.1725 -0.9100 -0.1094
 4358SOL    HW224708   3.614   0.517  14.101  1.3722 -1.2685  1.8467
 4359SOL     OW24709   4.195   2.631   2.797  0.0250  0.2446 -0.2541
 4359SOL    HW124710   4.172   2.563   2.861 -0.9023  1.1414  0.3671
 4359SOL    HW224711   4.263   2.589   2.744 -0.9685 -0.2155 -1.1586
 4360SOL     OW24712   1.506   1.688   7.195  0.0425 -0.4463 -0.1298
 4360SOL    HW124713   1.563   1.616   7.169  2.8766  0.9536  2.0915
 4360SOL    HW224714   1.480   1.648   7.278  2.6445  0.4593  1.1156
 4361SOL     OW24715   4.664   0.880   9.363 -0.3596 -0.2325  0.3850
 4361SOL    HW124716   4.630   0.919   9.282 -0.7422  2.1243  1.6760
 4361SOL    HW224717   4.644   0.787   9.355 -1.3356  0.0881 -0.8214
 4362SOL     OW24718   3.951   4.445  11.273 -0.6296 -0.2298  0.1604
 4362SOL    HW124719   4.032   4.395  11.280 -0.2558  0.2422 -0.8260
 4362SOL    HW224720   3.986   4.532  11.254 -1.2705  0.2388  1.0922
 4363SOL     OW24721   1.910   3.866   4.361 -0.3074 -0.2575  0.1560
 4363SOL    HW124722   1.969   3.792   4.347  1.7629  1.2869  0.7705
 4363SOL    HW224723   1.909   3.866   4.456 -0.0740 -0.7583  0.1583
 4364SOL     OW24724   1.891   2.722   8.109 -0.1633  0.0727 -0.1031
 4364SOL    HW124725   1.887   2.726   8.205 -1.0350 -1.0958 -0.0958
 4364SOL    HW224726   1.951   2.648   8.096 -1.1811 -0.7094 -0.2992
 4365SOL     OW24727   2.334   1.677   6.237 -0.1579  0.2724 -0.0945
 4365SOL    HW124728   2.332   1.637   6.324  0.4023  2.4686  0.9241
 4365SOL    HW224729   2.346   1.609   6.171 -1.6532  0.6361 -0.7250
 4366SOL     OW24730   0.162   4.326   2.710 -0.4258  0.3286  0.6304
 4366SOL    HW124731   0.151   4.415   2.744 -0.3380  2.2355 -4.3011
 4366SOL    HW224732   0.113   4.332   2.628  1.5355 -1.0687 -0.6342
 4367SOL     OW24733   3.986   3.512   6.404  0.3617 -0.3959  0.4064
 4367SOL    HW124734   3.891   3.501   6.399  0.1559  0.7908  1.6011
 4367SOL    HW224735   4.003   3.523   6.311 -1.2494 -1.0465  0.0337
 4368SOL     OW24736   1.048   3.148   3.230  0.0629  0.4885 -0.5377
 4368SOL    HW124737   1.102   3.144   3.151  0.7758  3.2158 -0.2046
 4368SOL    HW224738   0.998   3.228   3.218  0.8647  0.4547 -3.9946
 4369SOL     OW24739   1.277   1.013   2.884  0.1104  0.4501 -0.2786
 4369SOL    HW124740   1.210   0.947   2.894  1.8252 -1.4761 -1.4167
 4369SOL    HW224741   1.276   1.061   2.967  0.3991  0.7461 -0.4416
 4370SOL     OW24742   3.008   1.976  17.003 -0.0577  0.0429 -0.0393
 4370SOL    HW124743   3.014   2.017  17.089 -1.5080 -0.8755  0.5056
 4370SOL    HW224744   3.074   2.019  16.949 -1.4219  2.2711  0.0827
 4371SOL     OW24745   1.865   0.889   5.006  0.2240  0.1605  0.2509
 4371SOL    HW124746   1.860   0.830   5.082 -0.8512  0.0787  0.1177
 4371SOL    HW224747   1.791   0.949   5.012  1.9323  2.2890  0.0240
 4372SOL     OW24748   3.256   0.316  17.267  0.4581  0.2437 -0.1944
 4372SOL    HW124749   3.162   0.307  17.284  0.6082 -2.3339 -0.7767
 4372SOL    HW224750   3.263   0.412  17.264 -0.4058  0.2462 -2.3429
 4373SOL     OW24751   3.741   0.354   6.665  0.1161 -0.2870 -0.1231
 4373SOL    HW124752   3.712   0.271   6.627 -2.9216  0.5322  0.3687
 4373SOL    HW224753   3.655   0.397   6.662  0.6872  0.8601 -0.0610
 4374SOL     OW24754   3.825   1.643   1.014  0.2523  0.2467 -0.3514
 4374SOL    HW124755   3.736   1.673   1.032  0.3447  1.0963 -1.2873
 4374SOL    HW224756   3.812   1.550   0.993  1.1891  0.0226  0.0717
 4375SOL     OW24757   0.452   0.945   4.273 -0.0655 -0.1448 -0.4119
 4375SOL    HW124758   0.402   0.991   4.340  2.6499 -0.3026  1.7383
 4375SOL    HW224759   0.536   0.990   4.262  0.1078 -0.5843 -0.9031
 4376SOL     OW24760   1.117   0.523   8.250 -0.1439 -0.4017 -0.5044
 4376SOL    HW124761   1.099   0.438   8.289  0.5709 -1.0699 -1.6378
 4376SOL    HW224762   1.090   0.588   8.315  2.6176 -0.8482  1.0532
 4377SOL     OW24763   4.065   3.048  13.093 -0.4005 -0.2558  0.0277
 4377SOL    HW124764   4.007   3.002  13.154  1.0717 -1.9362  0.1773
 4377SOL    HW224765   4.152   3.040  13.134 -0.0613  2.3601 -0.1862
 4378SOL     OW24766   2.250   4.619   2.395  0.1703 -0.4483  0.4666
 4378SOL    HW124767   2.163   4.610   2.433 -0.8390  1.3530 -1.4423
 4378SOL    HW224768   2.232   4.693   2.337 -0.1396 -1.0444 -0.2113
 4379SOL     OW24769   3.631   4.206   6.771 -0.6592  0.1040 -0.0206
 4379SOL    HW124770   3.580   4.133   6.805  0.8058 -0.9323 -0.0456
 4379SOL    HW224771   3.619   4.184   6.679 -0.4048  2.6070 -0.6500
 4380SOL     OW24772   4.620   4.367   4.577 -0.5781 -0.1231 -0.2033
 4380SOL    HW124773   4.566   4.442   4.556 -0.1791  0.4383  0.7692
 4380SOL    HW224774   4.700   4.408   4.544  0.6580 -1.1664  1.4999
 4381SOL     OW24775   3.889   2.603   3.337  0.0258  0.2118 -0.2695
 4381SOL    HW124776   3.859   2.543   3.269  1.4525 -1.0361  0.1859
 4381SOL    HW224777   3.884   2.545   3.413  0.8600  2.6307  1.6104
 4382SOL     OW24778   2.528   0.717   8.911  0.1994 -0.2187  0.3943
 4382SOL    HW124779   2.441   0.699   8.875 -0.3703  3.4234 -0.0906
 4382SOL    HW224780   2.560   0.627   8.910 -0.9144 -0.6147 -0.0886
 4383SOL     OW24781   1.432   1.340   9.438  0.0946 -0.3592 -0.0613
 4383SOL    HW124782   1.393   1.268   9.388 -0.4890  0.2829 -0.5327
 4383SOL    HW224783   1.382   1.339   9.520 -1.2169  0.0429 -0.8499
 4384SOL     OW24784   3.614   4.611   5.590  0.5103  0.0910  0.0288
 4384SOL    HW124785   3.576   4.697   5.574 -0.1222 -0.1333  0.3242
 4384SOL    HW224786   3.531   4.563   5.589  0.3297  0.3660  1.0290
 4385SOL     OW24787   4.309   0.690   4.919  0.6394 -0.2155  0.4991
 4385SOL    HW124788   4.275   0.630   4.986 -0.0271 -0.6827 -0.2615
 4385SOL    HW224789   4.236   0.752   4.914  0.5007 -0.2121  2.3469
 4386SOL     OW24790   1.155   1.977   5.388 -0.0472  0.9196  0.0848
 4386SOL    HW124791   1.217   2.004   5.455 -0.3570 -0.0055  0.7436
 4386SOL    HW224792   1.118   1.894   5.417 -0.7416  0.9030 -0.8198
 4387SOL     OW24793   2.900   0.686   4.713 -0.0390 -0.2221 -0.9119
 4387SOL    HW124794   2.991   0.666   4.694 -0.1481 -1.6204  0.0063
 4387SOL    HW224795   2.907   0.709   4.806 -3.6404 -0.4015 -0.5765
 4388SOL     OW24796   4.611   4.553   9.933  0.5754 -0.6320 -0.5645
 4388SOL    HW124797   4.634   4.592  10.017 -1.3143  0.0986 -0.3789
 4388SOL    HW224798   4.654   4.468   9.928 -0.0747 -1.2078  3.5266
 4389SOL     OW24799   1.731   2.393   6.952 -0.1758 -0.3246  0.1704
 4389SOL    HW124800   1.697   2.321   7.005  1.1074 -1.1813 -0.1767
 4389SOL    HW224801   1.723   2.462   7.018  0.9852 -1.4178  1.4613
 4390SOL     OW24802   0.570   2.063   0.622  0.2612  0.0527 -0.6598
 4390SOL    HW124803   0.541   2.095   0.707  1.0697  0.9930 -0.7401
 4390SOL    HW224804   0.503   2.114   0.576  0.9640  1.5849  0.0033
 4391SOL     OW24805   4.603   0.737  11.545 -0.0052 -0.4911  0.1591
 4391SOL    HW124806   4.508   0.745  11.553  0.1282  0.0792  1.1222
 4391SOL    HW224807   4.630   0.732  11.636  1.7617  0.7301 -0.3182
 4392SOL     OW24808   1.943   1.869   6.508  0.0592  0.3790 -0.4870
 4392SOL    HW124809   1.964   1.777   6.492  2.3477  0.5594  1.4303
 4392SOL    HW224810   1.864   1.856   6.561  1.6256 -0.5720  1.6115
 4393SOL     OW24811   1.701   1.084   8.671  0.1978 -0.0821  0.2825
 4393SOL    HW124812   1.682   1.176   8.685  0.1657 -0.0679  0.1498
 4393SOL    HW224813   1.792   1.092   8.644  0.3376  0.8191  1.0447
 4394SOL     OW24814   0.830   3.736   6.319 -0.2103 -0.4889  0.3169
 4394SOL    HW124815   0.841   3.641   6.308 -0.6779 -0.2307 -2.3946
 4394SOL    HW224816   0.874   3.769   6.242 -2.4306  1.2730 -0.1963
 4395SOL     OW24817   2.006   4.199  12.240 -0.5360  0.2526  0.0802
 4395SOL    HW124818   2.059   4.120  12.252 -0.3346  0.1108 -1.7257
 4395SOL    HW224819   2.040   4.233  12.158  0.5767 -0.7469  0.1197
 4396SOL     OW24820   4.477   3.972   4.859 -0.6101 -0.3013 -0.5376
 4396SOL    HW124821   4.381   3.978   4.860 -0.5650 -0.0275  1.3992
 4396SOL    HW224822   4.498   3.904   4.795 -0.5402 -0.0790 -0.7488
 4397SOL     OW24823   1.389   0.714   3.596  0.4671  0.6511  0.1983
 4397SOL    HW124824   1.357   0.788   3.546  0.4675  0.5559  0.0555
 4397SOL    HW224825   1.484   0.722   3.585  0.6286  1.1152  1.9322
 4398SOL     OW24826   3.146   0.011   7.595 -0.1704  0.2577 -0.2823
 4398SOL    HW124827   3.142   0.068   7.517  1.3042  2.2372  1.0768
 4398SOL    HW224828   3.174   0.067   7.667  0.3617  1.1060 -1.1353
 4399SOL     OW24829   4.068   3.844   9.183  0.1193  0.1961 -0.0659
 4399SOL    HW124830   3.978   3.854   9.214  0.2595 -0.3108  0.5038
 4399SOL    HW224831   4.070   3.749   9.170  0.7098  0.0843  0.8693
 4400SOL     OW24832   3.875   2.504   2.867  0.0564  0.6246  0.5507
 4400SOL    HW124833   3.939   2.442   2.830 -1.0714 -0.1520 -0.0878
 4400SOL    HW224834   3.798   2.448   2.862  0.7443 -0.1190 -2.0111
 4401SOL     OW24835   1.712   0.453   9.005  0.4405  1.1511 -0.1216
 4401SOL    HW124836   1.768   0.407   8.942 -1.8994 -0.7864 -0.7630
 4401SOL    HW224837   1.691   0.377   9.059  0.3742 -0.3084 -2.2268
 4402SOL     OW24838   2.589   3.806   1.903 -0.1046 -0.8294 -0.2667
 4402SOL    HW124839   2.596   3.785   1.996 -3.4409 -0.8108  0.0207
 4402SOL    HW224840   2.679   3.821   1.875  0.6326  0.8286  2.9963
 4403SOL     OW24841   4.513   4.633  12.754  0.3210  0.2751  0.8663
 4403SOL    HW124842   4.579   4.657  12.688 -0.3750  1.2284  0.5310
 4403SOL    HW224843   4.503   4.540  12.730 -0.0757  1.1399 -2.3880
 4404SOL     OW24844   0.282   3.183   7.546 -0.4572 -0.4321  0.0840
 4404SOL    HW124845   0.204   3.209   7.498 -0.8140  1.3205  1.6215
 4404SOL    HW224846   0.312   3.268   7.579  2.4684 -1.6670  0.5953
 4405SOL     OW24847   4.250   2.219  16.653 -0.2126 -0.2146  0.0312
 4405SOL    HW124848   4.309   2.237  16.579  0.1281  1.6107  0.7594
 4405SOL    HW224849   4.203   2.140  16.625  0.5223  0.1133 -2.1373
 4406SOL     OW24850   1.030   1.317   2.881  0.5323 -0.0986 -0.2305
 4406SOL    HW124851   0.958   1.361   2.835  0.6077 -0.2995 -0.5427
 4406SOL    HW224852   1.001   1.227   2.868 -1.0004  0.1638  1.3759
 4407SOL     OW24853   1.501   3.277   9.053  0.1953 -0.5283  0.2778
 4407SOL    HW124854   1.440   3.214   9.091 -1.1624 -1.2388 -3.0786
 4407SOL    HW224855   1.585   3.241   9.080  0.3116 -0.6924 -0.2936
 4408SOL     OW24856   2.988   3.650  15.314  0.1319 -0.6305  0.7018
 4408SOL    HW124857   2.994   3.598  15.394 -1.1826 -1.8140  0.0218
 4408SOL    HW224858   3.080   3.678  15.323  0.3624 -1.1148 -0.1385
 4409SOL     OW24859   0.192   4.596   8.458  0.5801  0.2227  0.0676
 4409SOL    HW124860   0.146   4.569   8.538  0.7011  1.1409  0.4451
 4409SOL    HW224861   0.122   4.630   8.403  1.0965  0.1549 -0.6299
 4410SOL     OW24862   3.559   4.091   6.521 -0.4596  0.2590 -0.4364
 4410SOL    HW124863   3.532   3.999   6.526  2.4018 -0.6613 -1.6744
 4410SOL    HW224864   3.513   4.108   6.439 -0.0729  0.8187 -0.5375
 4411SOL     OW24865   0.841   3.829   8.539 -0.5308  0.2893 -0.1259
 4411SOL    HW124866   0.929   3.864   8.528 -0.4760 -0.2692 -1.4457
 4411SOL    HW224867   0.825   3.784   8.456  2.1862 -1.8556  0.5080
 4412SOL     OW24868   1.175   3.431   1.323  0.0099 -0.0533 -0.5102
 4412SOL    HW124869   1.246   3.489   1.353 -0.9683  0.5284  0.6858
 4412SOL    HW224870   1.095   3.482   1.338 -3.0489 -3.7342 -4.4416
 4413SOL     OW24871   3.304   2.828   9.662 -0.4474 -0.0754 -0.4718
 4413SOL    HW124872   3.259   2.905   9.698 -0.0938  0.9428 -2.1929
 4413SOL    HW224873   3.395   2.857   9.664 -0.4993  0.2509 -2.8852
 4414SOL     OW24874   4.227   2.144  16.345  0.1481 -0.0553 -0.1228
 4414SOL    HW124875   4.191   2.081  16.407 -2.5422  0.9815 -0.6669
 4414SOL    HW224876   4.309   2.163  16.390 -0.7844 -0.4813  1.7318
 4415SOL     OW24877   4.673   0.750   8.485  0.5816  0.2851  0.5382
 4415SOL    HW124878   4.651   0.741   8.577 -2.1655 -1.7378 -0.2916
 4415SOL    HW224879   0.033   0.747   8.475  0.7619  0.6228  2.2738
 4416SOL     OW24880   3.388   2.280  12.721 -0.4819 -0.2715 -0.1457
 4416SOL    HW124881   3.458   2.256  12.659 -1.5523  0.7883 -1.7692
 4416SOL    HW224882   3.441   2.342  12.771 -2.5734  1.4447 -0.0649
 4417SOL     OW24883   2.244   3.060   4.809  0.1169 -0.1929  0.3358
 4417SOL    HW124884   2.257   3.150   4.778  0.6000  0.2965  1.9416
 4417SOL    HW224885   2.338   3.050   4.825  0.2784 -0.3494 -0.7343
 4418SOL     OW24886   3.092   1.622   1.089  1.0347  0.3895 -0.3969
 4418SOL    HW124887   3.156   1.589   1.026  1.9444  2.5138 -0.5983
 4418SOL    HW224888   3.022   1.557   1.090  0.6959  0.7852  1.1776
 4419SOL     OW24889   4.479   1.501   3.972  0.3690 -0.3500  0.1344
 4419SOL    HW124890   4.411   1.461   3.918  0.5769 -0.3859 -0.0989
 4419SOL    HW224891   4.563   1.457   3.958 -0.1840 -1.0025 -1.1484
 4420SOL     OW24892   1.332   3.149  10.756  0.1383 -0.6557 -0.1992
 4420SOL    HW124893   1.240   3.121  10.756 -0.7188  2.1185 -1.7010
 4420SOL    HW224894   1.323   3.244  10.741  0.4307 -0.9051 -1.9232
 4421SOL     OW24895   3.213   0.581  13.204  0.3113  0.1441 -0.7352
 4421SOL    HW124896   3.212   0.598  13.109  0.5596  2.0814 -0.3916
 4421SOL    HW224897   3.195   0.669  13.237 -1.2242  0.7831 -3.2765
 4422SOL     OW24898   3.779   1.797  16.961  0.9029  0.3730 -0.6250
 4422SOL    HW124899   3.713   1.779  16.894 -1.4423  1.9329  1.2859
 4422SOL    HW224900   3.856   1.758  16.920  1.3889  0.1542  0.4961
 4423SOL     OW24901   1.794   0.649   8.378  0.3830  0.1288  0.0307
 4423SOL    HW124902   1.817   0.641   8.285  0.9407  0.3317  0.1553
 4423SOL    HW224903   1.715   0.596   8.369  0.8918 -0.7792  0.9578
 4424SOL     OW24904   0.547   1.916   9.437 -0.5989  0.1145  0.4321
 4424SOL    HW124905   0.454   1.935   9.447 -1.1970 -3.3557  1.4366
 4424SOL    HW224906   0.534   1.846   9.373 -1.3020  1.3156 -0.7339
 4425SOL     OW24907   1.102   1.187  12.869 -0.2218 -0.2282  0.3170
 4425SOL    HW124908   1.057   1.187  12.785 -1.4625  0.5325  0.9878
 4425SOL    HW224909   1.195   1.193  12.848  0.3648 -2.3418  2.3162
 4426SOL     OW24910   0.450   0.354   6.849 -0.3122  0.3817 -0.1721
 4426SOL    HW124911   0.378   0.418   6.850 -0.1395  0.5603  2.0857
 4426SOL    HW224912   0.501   0.372   6.770 -0.7987  0.6232 -0.4309
 4427SOL     OW24913   2.395   0.780   7.388 -0.4912  0.0158 -0.1137
 4427SOL    HW124914   2.310   0.766   7.430 -1.3372  1.8425 -1.1972
 4427SOL    HW224915   2.375   0.854   7.330 -2.8520 -0.4768  0.0704
 4428SOL     OW24916   1.397   3.533   9.104  0.2480  0.0097  0.6599
 4428SOL    HW124917   1.452   3.457   9.085  0.1067 -0.3518  1.7388
 4428SOL    HW224918   1.329   3.526   9.037  0.2097 -1.5059  0.8647
 4429SOL     OW24919   3.018   0.453   3.282 -0.2246 -0.2893 -0.3461
 4429SOL    HW124920   3.046   0.397   3.209 -1.7236 -0.2074 -0.9930
 4429SOL    HW224921   2.936   0.409   3.305  0.1571 -0.4065  0.7562
 4430SOL     OW24922   3.678   4.586   8.445  0.3309 -0.2341 -0.2582
 4430SOL    HW124923   3.621   4.548   8.378 -0.0594 -1.2889  0.6675
 4430SOL    HW224924   3.660   4.680   8.440  1.1134 -0.0733 -0.0099
 4431SOL     OW24925   1.904   0.859   6.518 -0.0314  0.3277 -0.2158
 4431SOL    HW124926   1.813   0.855   6.547 -0.0950 -0.4916 -0.5296
 4431SOL    HW224927   1.909   0.801   6.442 -2.1441 -0.3765  0.1819
 4432SOL     OW24928   1.730   2.856  11.120  0.0584 -0.6590 -0.3749
 4432SOL    HW124929   1.802   2.794  11.124 -0.1125 -0.6413  2.8494
 4432SOL    HW224930   1.770   2.921  11.178  0.4501 -0.6761 -0.6291
 4433SOL     OW24931   2.190   0.446   2.196  0.2903 -0.1236  0.1178
 4433SOL    HW124932   2.151   0.478   2.277 -0.7882 -0.6182 -0.2019
 4433SOL    HW224933   2.206   0.528   2.148  0.6417  0.3038  0.9656
 4434SOL     OW24934   1.255   4.143  15.126  0.0165 -0.3201 -0.4664
 4434SOL    HW124935   1.173   4.145  15.176 -1.5704 -3.2862 -2.9435
 4434SOL    HW224936   1.272   4.052  15.101  1.1523 -0.1639 -0.2814
 4435SOL     OW24937   0.265   4.338   3.051  0.3009 -0.4398 -0.5548
 4435SOL    HW124938   0.301   4.414   3.006  2.1639 -0.0579  1.5931
 4435SOL    HW224939   0.172   4.360   3.060  0.5681  1.3424 -2.1992
 4436SOL     OW24940   1.898   0.850  10.227 -0.0448 -0.1509  0.1749
 4436SOL    HW124941   1.924   0.879  10.315  0.0343  1.1874 -0.3059
 4436SOL    HW224942   1.821   0.803  10.260  0.3262  0.0095  1.2864
 4437SOL     OW24943   1.598   0.762   2.936  0.4578  0.3983  0.0014
 4437SOL    HW124944   1.678   0.709   2.932  1.3269  1.6221  1.1073
 4437SOL    HW224945   1.586   0.758   3.030  1.4396  0.8944  0.1459
 4438SOL     OW24946   1.088   2.843   2.311 -0.0328 -0.0131  0.2587
 4438SOL    HW124947   1.074   2.907   2.242  0.2295 -0.6427 -0.3727
 4438SOL    HW224948   1.152   2.892   2.364 -0.7191  3.0444 -1.7591
 4439SOL     OW24949   2.829   1.521   7.520  0.1311  0.3951 -0.5604
 4439SOL    HW124950   2.748   1.551   7.479  1.8851  2.6211 -2.3734
 4439SOL    HW224951   2.814   1.573   7.599 -2.7730  0.3498 -1.1019
 4440SOL     OW24952   3.759   0.699  12.627 -0.3151 -0.0551  0.5123
 4440SOL    HW124953   3.835   0.668  12.577 -0.7826 -1.3091  0.5772
 4440SOL    HW224954   3.708   0.724  12.550 -0.1939 -0.6095  0.2478
 4441SOL     OW24955   4.572   1.248  12.980  0.5636 -0.9004  0.1178
 4441SOL    HW124956   4.653   1.211  12.944  1.1137  0.2453  0.1893
 4441SOL    HW224957   4.535   1.276  12.896  1.3959 -1.4695 -0.4406
 4442SOL     OW24958   2.183   1.105   4.089 -0.2055  0.2439 -0.1161
 4442SOL    HW124959   2.087   1.114   4.085 -0.0476  2.2659  0.7251
 4442SOL    HW224960   2.194   1.075   3.999 -3.4995  0.3439 -0.5566
 4443SOL     OW24961   0.649   0.708  13.215 -0.0045  0.3950 -0.1043
 4443SOL    HW124962   0.570   0.672  13.176 -1.8768  1.8705  2.3670
 4443SOL    HW224963   0.713   0.664  13.159  1.5575  0.9245  1.2553
 4444SOL     OW24964   0.637   2.335  15.144  0.4274 -0.0702  0.0561
 4444SOL    HW124965   0.656   2.241  15.146  0.2382 -0.0995  0.5023
 4444SOL    HW224966   0.724   2.369  15.165  0.0996 -0.1943  1.5861
 4445SOL     OW24967   0.314   1.008   2.998 -0.0242  0.1927 -0.2776
 4445SOL    HW124968   0.376   0.935   3.000  1.6205  1.5796 -0.8228
 4445SOL    HW224969   0.249   0.977   3.062  1.4492  0.7956  1.5154
 4446SOL     OW24970   2.810   3.604   6.091  0.1003 -0.0547  0.1661
 4446SOL    HW124971   2.901   3.626   6.110  0.2896 -0.0098 -0.7954
 4446SOL    HW224972   2.787   3.644   6.008  0.9412 -1.2138 -0.6211
 4447SOL     OW24973   1.256   3.128   5.465 -0.3216  0.1928 -0.1851
 4447SOL    HW124974   1.180   3.153   5.517  0.0861  1.6344 -0.2907
 4447SOL    HW224975   1.324   3.178   5.511  1.0015 -0.5795 -1.3123
 4448SOL     OW24976   4.587   0.125   8.523  0.4464  0.4828  0.1892
 4448SOL    HW124977   4.643   0.063   8.475  1.7779  0.5772  1.6512
 4448SOL    HW224978   4.601   0.086   8.609 -0.0010 -1.9236 -0.8189
 4449SOL     OW24979   0.784   0.619  13.431 -0.0089  0.2977 -0.1481
 4449SOL    HW124980   0.726   0.649  13.361 -0.2041  0.9609  0.2914
 4449SOL    HW224981   0.812   0.697  13.479 -0.4430  0.6578 -0.4779
 4450SOL     OW24982   2.544   4.393   6.099  0.1304  0.5074 -0.5083
 4450SOL    HW124983   2.619   4.444   6.129 -0.0732 -0.7556  2.1832
 4450SOL    HW224984   2.593   4.312   6.089 -1.3987 -0.3771 -0.8374
 4451SOL     OW24985   1.610   0.001   9.584  0.5965  0.3522  0.0082
 4451SOL    HW124986   1.676   0.007   9.653 -0.6180 -1.0699  1.2941
 4451SOL    HW224987   1.661   4.713   9.507  0.0348  2.4201 -0.9980
 4452SOL     OW24988   2.078   1.048   8.192  0.9768 -0.2208 -0.2990
 4452SOL    HW124989   2.088   1.138   8.162 -2.0191 -0.4473 -1.9527
 4452SOL    HW224990   2.050   1.018   8.106  0.7131 -1.1213  0.1011
 4453SOL     OW24991   0.739   2.716   8.758 -0.4846 -0.2727 -0.1081
 4453SOL    HW124992   0.711   2.670   8.837  0.8809  0.2833  0.6950
 4453SOL    HW224993   0.812   2.773   8.784  0.0122 -1.7211  1.6223
 4454SOL     OW24994   0.391   1.137   0.438  0.3628  0.5833  0.4085
 4454SOL    HW124995   0.344   1.167   0.516  1.0833  0.9876  0.6804
 4454SOL    HW224996   0.338   1.073   0.390 -1.2861  1.1901  1.3871
 4455SOL     OW24997   3.612   1.040  12.772 -0.4320  0.3225 -0.7804
 4455SOL    HW124998   3.658   1.123  12.783 -1.3256  0.7314 -0.1331
 4455SOL    HW224999   3.665   0.992  12.708 -0.3922  0.3116 -0.7392
 4456SOL     OW25000   0.595   3.021   1.509  0.8858 -0.1387  0.2672
 4456SOL    HW125001   0.529   2.953   1.495  0.5358  0.3671 -0.5794
 4456SOL    HW225002   0.671   2.966   1.527  1.1692  0.4351  0.8294
 4457SOL     OW25003   3.675   1.396   3.423 -0.6419 -0.0117  0.4617
 4457SOL    HW125004   3.635   1.440   3.498  2.6616  1.3604  1.4217
 4457SOL    HW225005   3.606   1.392   3.357 -0.4537  0.3942  0.2374
 4458SOL     OW25006   4.353   2.825   3.595 -0.5211  0.0826 -0.1043
 4458SOL    HW125007   4.414   2.841   3.522 -0.2927 -0.9873 -0.1490
 4458SOL    HW225008   4.284   2.780   3.545  1.1720 -2.8247  0.1556
 4459SOL     OW25009   2.627   3.012  11.208 -0.1987 -0.1088 -0.0399
 4459SOL    HW125010   2.596   2.941  11.265 -0.6396  1.1920  1.3380
 4459SOL    HW225011   2.708   3.044  11.249 -0.7338  1.0683  0.0990
 4460SOL     OW25012   1.189   2.942   6.369 -0.3333 -0.3964  0.0606
 4460SOL    HW125013   1.271   2.960   6.323 -0.6555 -0.4301 -0.5371
 4460SOL    HW225014   1.121   2.959   6.303 -0.2534  2.1319  0.6532
 4461SOL     OW25015   0.658   3.724   6.735  0.4400 -0.0710 -0.2576
 4461SOL    HW125016   0.565   3.721   6.713  0.2470  0.6361  0.4523
 4461SOL    HW225017   0.659   3.683   6.821 -0.9752  2.0798  0.7834
 4462SOL     OW25018   2.401   4.391   5.486 -0.1388  0.1618  0.5210
 4462SOL    HW125019   2.495   4.409   5.498 -0.1014 -0.8271  1.6826
 4462SOL    HW225020   2.401   4.311   5.539  2.1912  0.4098  0.9005
 4463SOL     OW25021   1.438   1.148  10.370  0.0567 -0.3253 -0.0199
 4463SOL    HW125022   1.416   1.203  10.294 -0.3179 -0.6891 -0.1749
 4463SOL    HW225023   1.509   1.186  10.421 -0.0081 -0.3208  0.0661
 4464SOL     OW25024   3.144   4.477   3.463 -0.3540  0.5286 -0.0415
 4464SOL    HW125025   3.053   4.504   3.475 -0.5301 -0.3869  0.7213
 4464SOL    HW225026   3.122   4.384   3.453 -0.0301  0.4408  0.0594
 4465SOL     OW25027   3.370   1.280   6.735 -0.2602  0.5787  0.4883
 4465SOL    HW125028   3.381   1.278   6.640 -1.2552  0.1662  0.3773
 4465SOL    HW225029   3.378   1.191   6.770  2.2731 -0.6930 -3.2412
 4466SOL     OW25030   4.616   1.169   0.371  0.2319 -0.8134  0.3394
 4466SOL    HW125031   4.587   1.226   0.300 -1.2885  0.3959  1.9450
 4466SOL    HW225032   4.662   1.232   0.427 -0.4436 -0.4142  0.4466
 4467SOL     OW25033   3.373   0.166   4.329  0.1517  0.4235  0.5161
 4467SOL    HW125034   3.305   0.201   4.385  0.4626 -0.8230  1.6721
 4467SOL    HW225035   3.436   0.175   4.401  1.4367  3.3177 -0.9496
 4468SOL     OW25036   3.925   1.424   6.074  0.1999 -0.4624 -0.0590
 4468SOL    HW125037   4.002   1.444   6.022  0.8932 -2.2363  0.3098
 4468SOL    HW225038   3.913   1.332   6.053 -1.6271 -0.8667  2.7329
 4469SOL     OW25039   4.414   0.456   5.627  0.1314 -0.6404  1.0559
 4469SOL    HW125040   4.404   0.370   5.668 -0.3819 -2.0322 -2.0001
 4469SOL    HW225041   4.418   0.431   5.534 -0.9966 -0.9286  1.0937
 4470SOL     OW25042   2.616   0.420   4.313  0.3601 -0.1834  0.0326
 4470SOL    HW125043   2.622   0.325   4.305  2.8290 -0.3285  3.2872
 4470SOL    HW225044   2.554   0.426   4.386 -2.1890  0.1277 -2.1730
 4471SOL     OW25045   0.658   1.727   8.875  0.2193 -0.0059  0.2588
 4471SOL    HW125046   0.669   1.820   8.893 -0.6819  0.3108 -0.8628
 4471SOL    HW225047   0.576   1.713   8.922  1.1058 -2.3460  1.1457
 4472SOL     OW25048   3.740   1.409   2.302  0.0617 -0.1321  0.6131
 4472SOL    HW125049   3.675   1.479   2.302  0.5749  0.3560  1.5691
 4472SOL    HW225050   3.814   1.464   2.275 -1.1847  0.9866 -0.4690
 4473SOL     OW25051   1.915   0.060  11.695 -0.8723  0.3169 -0.2133
 4473SOL    HW125052   1.872   0.117  11.759 -1.1327 -0.2716  0.1356
 4473SOL    HW225053   1.850   4.725  11.701  0.0390 -0.5272 -0.1252
 4474SOL     OW25054   2.950   1.658   0.550  0.0914 -0.3447 -0.1726
 4474SOL    HW125055   2.891   1.649   0.475  0.1574  1.2205 -0.3978
 4474SOL    HW225056   2.998   1.575   0.543  0.5107 -0.1379  0.2999
 4475SOL     OW25057   0.970   3.149   3.494 -0.5942 -0.2316  0.1102
 4475SOL    HW125058   1.001   3.163   3.405  0.7757 -0.6749  0.5124
 4475SOL    HW225059   0.962   3.054   3.495 -1.0066 -0.2095 -1.0787
 4476SOL     OW25060   3.689   2.110  17.133 -0.0184  0.0050 -0.2303
 4476SOL    HW125061   3.597   2.131  17.149  0.2628  0.4708  0.7800
 4476SOL    HW225062   3.704   2.136  17.042  0.3304  2.3553  0.5093
 4477SOL     OW25063   0.305   2.950   3.233  1.0069 -0.0906 -0.1361
 4477SOL    HW125064   0.346   2.909   3.157  0.9145 -3.1607  1.5030
 4477SOL    HW225065   0.270   3.032   3.197  1.2019 -0.4872 -1.2157
 4478SOL     OW25066   0.873   1.517   7.822  0.0298  0.1760 -0.6988
 4478SOL    HW125067   0.872   1.421   7.823 -1.8515  0.1795 -2.4619
 4478SOL    HW225068   0.798   1.540   7.768  1.0438  0.4607 -1.9776
 4479SOL     OW25069   4.084   4.032   2.400  0.1374 -0.2446  0.2078
 4479SOL    HW125070   4.128   3.949   2.417  0.8670 -0.1287 -1.1646
 4479SOL    HW225071   4.025   4.036   2.476  0.9009  0.3861  0.7676
 4480SOL     OW25072   1.367   2.956   4.557  0.1171  0.3166 -0.7016
 4480SOL    HW125073   1.428   2.904   4.504  0.5469  0.6666 -0.5451
 4480SOL    HW225074   1.288   2.948   4.505 -0.6982 -0.9482  0.7101
 4481SOL     OW25075   3.232   3.400   2.864 -0.3845 -0.1344 -0.3305
 4481SOL    HW125076   3.153   3.444   2.897  0.0245  0.6784 -0.4343
 4481SOL    HW225077   3.192   3.317   2.839  0.5778 -1.4133  2.3421
 4482SOL     OW25078   1.586   0.206   9.091 -0.6931  0.3285 -0.2989
 4482SOL    HW125079   1.641   0.163   9.156 -1.0470  2.6695  1.5715
 4482SOL    HW225080   1.500   0.184   9.128 -0.1563  0.0838  0.7875
 4483SOL     OW25081   3.498   4.015   5.692 -0.7312 -0.0742  0.0515
 4483SOL    HW125082   3.470   4.074   5.762 -0.7893 -0.3555  0.2637
 4483SOL    HW225083   3.456   3.935   5.724 -1.0611  0.7800  1.7707
 4484SOL     OW25084   2.910   1.363  15.049 -0.1414 -0.0795 -0.7183
 4484SOL    HW125085   2.866   1.283  15.022 -0.9642  0.3575 -0.6733
 4484SOL    HW225086   2.845   1.413  15.097 -2.2319 -2.9283 -0.5749
 4485SOL     OW25087   4.065   2.668   8.799  0.0637  0.3847  0.4459
 4485SOL    HW125088   4.133   2.624   8.851  1.2094  0.7354 -0.7562
 4485SOL    HW225089   4.086   2.757   8.828 -3.8422  1.1238  1.0076
 4486SOL     OW25090   3.218   2.463   7.625  0.4011 -0.1772 -0.0453
 4486SOL    HW125091   3.260   2.438   7.543 -0.7898 -1.0094 -0.4147
 4486SOL    HW225092   3.157   2.534   7.608  1.4794  0.1295 -2.6629
 4487SOL     OW25093   0.116   1.285   2.543 -0.2297 -0.0232  0.2522
 4487SOL    HW125094   0.079   1.277   2.631  1.3681 -0.1546  0.9111
 4487SOL    HW225095   0.070   1.218   2.492 -0.4492 -1.0804  1.8474
 4488SOL     OW25096   3.098   0.705   6.458 -0.0409 -0.0691  0.4274
 4488SOL    HW125097   3.186   0.699   6.495 -0.9589 -0.8490  2.4838
 4488SOL    HW225098   3.080   0.613   6.441 -0.8969  0.5830 -2.1867
 4489SOL     OW25099   1.769   0.937   0.841 -0.7329 -0.3686  0.4768
 4489SOL    HW125100   1.836   0.870   0.834  0.8765  1.2650  0.3838
 4489SOL    HW225101   1.764   0.949   0.936 -1.7543 -0.2470  0.4154
 4490SOL     OW25102   3.510   4.602   3.233 -0.4032 -0.1196  0.2021
 4490SOL    HW125103   3.433   4.553   3.206 -0.7039 -1.1704  2.9698
 4490SOL    HW225104   3.570   4.575   3.164  0.2508 -2.5336  1.7110
 4491SOL     OW25105   0.911   0.096  17.041  0.0619 -0.3600 -0.6264
 4491SOL    HW125106   0.821   0.097  17.073  0.2593 -1.0872 -0.0361
 4491SOL    HW225107   0.926   0.176  17.092  1.0432 -0.1216 -1.2737
 4492SOL     OW25108   2.539   4.278   8.759  0.1242 -0.0896  0.7547
 4492SOL    HW125109   2.504   4.248   8.676 -0.6874 -0.7482  1.3376
 4492SOL    HW225110   2.504   4.367   8.761 -0.4247 -0.2864 -0.2475
 4493SOL     OW25111   1.354   0.652   5.915 -0.1741  0.2339 -0.3799
 4493SOL    HW125112   1.270   0.678   5.877 -0.5066 -0.1549  0.0832
 4493SOL    HW225113   1.396   0.600   5.846  1.3712  0.2765  0.5275
 4494SOL     OW25114   2.426   2.448  17.321  0.4432 -0.0693 -0.1088
 4494SOL    HW125115   2.463   2.442  17.233 -1.0965 -4.5986 -0.4516
 4494SOL    HW225116   2.460   2.367  17.360  1.1072 -0.2978 -1.1618
 4495SOL     OW25117   2.664   4.460   9.489 -0.3717 -0.1183  0.0451
 4495SOL    HW125118   2.697   4.514   9.561  1.4111 -0.7473 -0.3135
 4495SOL    HW225119   2.683   4.371   9.518 -1.7831 -0.4312 -0.0055
 4496SOL     OW25120   2.480   2.034  15.347  0.0094 -0.3637 -0.1672
 4496SOL    HW125121   2.436   1.978  15.411 -0.8038  0.7800  0.2678
 4496SOL    HW225122   2.559   1.980  15.356  0.2611 -0.0546 -0.5449
 4497SOL     OW25123   3.740   4.598  11.218  0.5235  0.1143 -0.0813
 4497SOL    HW125124   3.759   4.603  11.124  0.3213 -2.7282 -0.2642
 4497SOL    HW225125   3.798   4.532  11.256  2.6642  1.5192 -0.8775
 4498SOL     OW25126   3.751   0.973   0.417  0.0599  0.7909 -0.3837
 4498SOL    HW125127   3.803   0.893   0.418  1.2605  1.5820  1.0818
 4498SOL    HW225128   3.738   0.981   0.511  1.0088 -1.5331 -0.0733
 4499SOL     OW25129   2.222   1.925   6.821 -0.7781 -0.2778 -0.1512
 4499SOL    HW125130   2.175   1.989   6.874 -1.7218  0.5495 -1.9500
 4499SOL    HW225131   2.275   1.874   6.881  0.3878  0.0023 -0.9515
 4500SOL     OW25132   4.240   3.771   2.398  0.0937 -0.2472  0.0557
 4500SOL    HW125133   4.204   3.694   2.354 -1.5269 -0.9127  2.5415
 4500SOL    HW225134   4.334   3.755   2.408  0.1193  2.0441  3.6523
 4501SOL     OW25135   2.815   4.441   0.778 -0.0736 -0.1218  0.4009
 4501SOL    HW125136   2.766   4.381   0.833  1.9552 -0.2181  2.0919
 4501SOL    HW225137   2.905   4.410   0.773 -0.4070 -0.5661 -2.9312
 4502SOL     OW25138   1.487   2.374   5.833 -0.1360  0.3640 -0.2874
 4502SOL    HW125139   1.487   2.372   5.929 -2.6398  2.2135 -0.2543
 4502SOL    HW225140   1.575   2.407   5.817 -0.8458  1.6157 -1.5366
 4503SOL     OW25141   0.409   4.199   9.555 -0.0365 -0.0749 -0.5139
 4503SOL    HW125142   0.472   4.227   9.488  1.4045 -0.3364  0.7406
 4503SOL    HW225143   0.325   4.202   9.509  0.6746  0.7454 -1.7675
 4504SOL     OW25144   2.387   4.392   5.828 -0.4470  0.5150 -0.5273
 4504SOL    HW125145   2.433   4.426   5.905  0.9120 -0.7657 -0.7750
 4504SOL    HW225146   2.438   4.318   5.795 -0.9653  0.2513 -0.7229
 4505SOL     OW25147   3.752   0.652   3.082  0.1282 -0.4858 -0.2408
 4505SOL    HW125148   3.659   0.640   3.062  0.3584 -1.4724 -0.7507
 4505SOL    HW225149   3.803   0.637   3.002  0.0752 -0.2580 -0.3201
 4506SOL     OW25150   3.292   4.659  11.840 -0.4194  0.3978  0.7169
 4506SOL    HW125151   3.260   0.004  11.797 -0.1295  0.5614  0.8039
 4506SOL    HW225152   3.219   4.633  11.896 -1.2996  1.0518 -0.1088
 4507SOL     OW25153   2.278   4.217   7.863  0.2336 -0.4781  0.4068
 4507SOL    HW125154   2.203   4.219   7.921 -0.1817 -2.3362 -0.0612
 4507SOL    HW225155   2.324   4.159   7.924  0.0776  1.0824  1.9996
 4508SOL     OW25156   0.884   2.328   9.160 -0.2131  0.4120  0.5282
 4508SOL    HW125157   0.902   2.421   9.176  0.1519  0.9048 -2.6456
 4508SOL    HW225158   0.830   2.308   9.236  1.9414 -3.6347  0.9875
 4509SOL     OW25159   2.440   3.891   7.090  0.6588  0.3038 -0.3469
 4509SOL    HW125160   2.511   3.839   7.128  1.2085  1.3276  0.0360
 4509SOL    HW225161   2.436   3.973   7.141  0.5520  2.3669 -3.6873
 4510SOL     OW25162   2.734   2.316   8.297  0.3579  0.1566  0.1674
 4510SOL    HW125163   2.692   2.301   8.212  2.0688 -1.1608 -0.4421
 4510SOL    HW225164   2.784   2.234   8.302 -1.1244 -0.9020 -2.2166
 4511SOL     OW25165   1.332   3.035  11.833  0.4948 -0.1136  0.4667
 4511SOL    HW125166   1.419   2.997  11.833  0.6351  0.1855 -3.2661
 4511SOL    HW225167   1.317   3.033  11.928  0.4973 -2.3093  0.4144
 4512SOL     OW25168   1.031   3.489   7.902  0.5519 -0.0414  0.0522
 4512SOL    HW125169   1.067   3.401   7.891 -1.1737 -0.2404 -4.0576
 4512SOL    HW225170   0.970   3.478   7.975  0.1813 -1.7371 -0.5144
 4513SOL     OW25171   1.051   0.502   4.512 -0.6826  0.3904 -0.3285
 4513SOL    HW125172   1.075   0.594   4.499  1.6048  0.1358  2.1481
 4513SOL    HW225173   0.958   0.506   4.491 -0.2522 -1.9844 -2.7411
 4514SOL     OW25174   0.185   0.952   9.422  0.7076  0.1217 -0.8353
 4514SOL    HW125175   0.224   0.879   9.471 -0.2927  0.2081  0.0876
 4514SOL    HW225176   0.096   0.920   9.406  0.5798  0.0124  0.1181
 4515SOL     OW25177   3.525   3.352   7.058  0.3311 -0.2573  0.4761
 4515SOL    HW125178   3.534   3.372   6.965 -3.4537  1.0357  0.3757
 4515SOL    HW225179   3.481   3.435   7.080 -2.0437 -1.8313  1.6731
 4516SOL     OW25180   1.507   0.324   9.747 -0.0337 -0.2195 -0.2426
 4516SOL    HW125181   1.498   0.340   9.841  0.2306 -1.5665  0.0078
 4516SOL    HW225182   1.459   0.401   9.715 -1.3801 -0.0908  2.0610
 4517SOL     OW25183   1.775   4.542   6.173 -0.2519  0.4507 -0.3785
 4517SOL    HW125184   1.826   4.469   6.208 -0.0769 -0.0803 -1.7137
 4517SOL    HW225185   1.827   4.550   6.093  1.9171  2.4542  1.2254
 4518SOL     OW25186   1.928   2.641  11.092  0.0513  0.6054  0.2086
 4518SOL    HW125187   1.993   2.711  11.088  0.2880  0.3437 -0.7469
 4518SOL    HW225188   1.987   2.572  11.122  0.3363  1.1660  0.9264
 4519SOL     OW25189   0.980   2.841   3.479  0.2899 -0.0282 -0.4012
 4519SOL    HW125190   0.941   2.775   3.537 -0.6487 -0.4881 -1.5705
 4519SOL    HW225191   1.023   2.793   3.409 -1.6627 -1.6943 -0.4623
 4520SOL     OW25192   2.883   0.984   5.137  0.5051  0.2285 -0.8031
 4520SOL    HW125193   2.789   0.998   5.133  0.0848 -2.5624 -0.3015
 4520SOL    HW225194   2.893   0.934   5.217 -4.8842  0.7387  0.1643
 4521SOL     OW25195   3.438   3.283   2.090 -0.4337 -0.8172 -0.2531
 4521SOL    HW125196   3.354   3.251   2.058 -1.4963  1.1285  0.6010
 4521SOL    HW225197   3.424   3.374   2.117 -2.0194 -0.8800 -0.8858
 4522SOL     OW25198   0.923   1.259   9.874  0.3529 -0.3307  0.5354
 4522SOL    HW125199   0.888   1.264   9.785 -0.2253  1.4331  0.8706
 4522SOL    HW225200   0.844   1.241   9.925 -0.9321  2.9677 -0.2585
 4523SOL     OW25201   3.514   3.187  17.230  0.2040 -0.0838  0.0537
 4523SOL    HW125202   3.608   3.192  17.214 -0.1559 -1.2955 -2.2903
 4523SOL    HW225203   3.515   3.127  17.305 -0.2787 -0.4684 -0.2488
 4524SOL     OW25204   0.266   3.523   7.365  0.7912 -0.0329  0.1234
 4524SOL    HW125205   0.325   3.473   7.308  0.1495  1.0401 -1.4747
 4524SOL    HW225206   0.262   3.607   7.320 -0.0508 -1.2017 -1.9648
 4525SOL     OW25207   0.615   0.379   6.638  0.3415 -0.5867  0.0056
 4525SOL    HW125208   0.605   0.367   6.543  0.8749 -1.1510  0.0169
 4525SOL    HW225209   0.695   0.330   6.656  0.5260  0.1241  1.1012
 4526SOL     OW25210   4.478   3.687   6.618 -0.2888  0.0474 -0.2380
 4526SOL    HW125211   4.459   3.770   6.663  1.6198  0.5986 -0.4702
 4526SOL    HW225212   4.389   3.657   6.598 -0.2156 -0.3488  0.0128
 4527SOL     OW25213   3.166   3.094  16.359  0.4151 -0.1945 -0.8064
 4527SOL    HW125214   3.108   3.130  16.292  1.1187 -0.1384 -1.3886
 4527SOL    HW225215   3.186   3.175  16.407  1.4347 -1.0328  0.1850
 4528SOL     OW25216   0.161   3.897   2.996  0.7275  1.0822  0.3366
 4528SOL    HW125217   0.205   3.955   3.057 -0.8200  0.4982  2.0108
 4528SOL    HW225218   0.236   3.895   2.937  0.4798  1.8658 -0.0125
 4529SOL     OW25219   4.306   3.631   5.005  0.4099  0.1243 -0.2571
 4529SOL    HW125220   4.326   3.583   4.924  1.5130 -0.2239  0.2257
 4529SOL    HW225221   4.211   3.624   5.006  0.3334  0.8862 -1.6389
 4530SOL     OW25222   4.130   0.649   4.116 -1.1962 -0.1950  0.3646
 4530SOL    HW125223   4.145   0.558   4.143  1.1855 -0.3008 -1.2255
 4530SOL    HW225224   4.145   0.637   4.022  1.6793 -0.4140  0.8401
 4531SOL     OW25225   2.863   1.950   6.849  0.4939  0.3469  0.1172
 4531SOL    HW125226   2.831   1.982   6.934 -0.8895  1.0656 -0.6783
 4531SOL    HW225227   2.833   2.019   6.790 -1.3387  1.7305  2.6661
 4532SOL     OW25228   3.343   4.046   7.762 -0.2119  0.5638 -0.6876
 4532SOL    HW125229   3.339   4.057   7.857  2.4016  0.6176 -0.5968
 4532SOL    HW225230   3.331   4.134   7.728 -0.9436  0.6394 -0.2441
 4533SOL     OW25231   0.698   1.712   4.957 -0.5194  0.6048 -0.3739
 4533SOL    HW125232   0.721   1.757   5.038 -1.5575 -2.1125  1.4368
 4533SOL    HW225233   0.605   1.692   4.973  0.2066 -1.1891  1.5380
 4534SOL     OW25234   0.264   3.330   3.850  0.1350  0.3131 -0.7108
 4534SOL    HW125235   0.345   3.288   3.822 -0.2218 -0.1064 -1.1031
 4534SOL    HW225236   0.220   3.328   3.765  1.8955 -4.0218 -1.5024
 4535SOL     OW25237   1.805   1.022   9.792 -0.4325 -0.0529  0.4635
 4535SOL    HW125238   1.754   0.942   9.806  0.0485 -0.8064 -2.1447
 4535SOL    HW225239   1.863   1.013   9.868  1.3057  2.0792 -0.6024
 4536SOL     OW25240   2.764   4.315  11.651 -0.5152 -0.9528 -0.0361
 4536SOL    HW125241   2.746   4.301  11.744  0.0063  1.6511  0.4589
 4536SOL    HW225242   2.825   4.389  11.652 -1.0369 -0.5095 -1.2089
 4537SOL     OW25243   1.719   1.035   6.303  0.0537  0.2870 -0.4324
 4537SOL    HW125244   1.812   1.050   6.288  0.7351 -1.4524  1.9121
 4537SOL    HW225245   1.712   1.048   6.398 -0.6775  1.3234 -0.6289
 4538SOL     OW25246   2.689   3.576   4.072  0.1862 -0.1879 -0.0497
 4538SOL    HW125247   2.721   3.639   4.007 -2.2274  2.3801  1.2235
 4538SOL    HW225248   2.753   3.571   4.143 -1.4538 -0.9716  1.3719
 4539SOL     OW25249   2.211   4.715  13.615 -0.1247 -0.3571  0.3256
 4539SOL    HW125250   2.231   4.649  13.549 -0.8070 -0.1731 -0.0620
 4539SOL    HW225251   2.116   4.723  13.621 -0.3416 -2.0411 -1.0760
 4540SOL     OW25252   1.432   3.178   8.026 -0.0792  0.2466  0.4884
 4540SOL    HW125253   1.438   3.267   7.992  1.9193 -0.1160 -0.0530
 4540SOL    HW225254   1.525   3.157   8.034  0.0548  1.5557  2.4067
 4541SOL     OW25255   1.091   3.183  11.686 -0.2249  0.3809  0.3455
 4541SOL    HW125256   1.129   3.259  11.641  2.5118 -2.0483 -1.4959
 4541SOL    HW225257   1.174   3.138  11.705 -1.7090 -1.4788  2.4019
 4542SOL     OW25258   1.751   1.613   8.749  0.1131  0.2462 -0.4901
 4542SOL    HW125259   1.721   1.688   8.698  0.0926 -0.4023 -1.4292
 4542SOL    HW225260   1.843   1.637   8.760 -0.0485  0.3319  0.7358
 4543SOL     OW25261   0.091   0.785   0.412  0.7643 -0.1476 -1.0247
 4543SOL    HW125262   0.006   0.827   0.400  0.7437  0.2243  0.3914
 4543SOL    HW225263   0.145   0.821   0.341  1.2107  1.8459  0.3242
 4544SOL     OW25264   1.115   1.614   1.823  0.1549 -0.2199 -0.1931
 4544SOL    HW125265   1.031   1.578   1.854 -0.6298  0.0170 -2.0842
 4544SOL    HW225266   1.098   1.665   1.745  0.2171 -2.1534 -1.4726
 4545SOL     OW25267   3.809   3.636   7.078 -0.2383 -0.3112  0.3784
 4545SOL    HW125268   3.782   3.644   7.169  1.0135  0.3687  0.6987
 4545SOL    HW225269   3.855   3.718   7.057 -0.4113 -0.3469 -0.1357
 4546SOL     OW25270   1.204   0.276   4.700  0.3079  0.1268  0.0799
 4546SOL    HW125271   1.173   0.279   4.790 -0.5249  0.5384 -0.2134
 4546SOL    HW225272   1.132   0.324   4.657  0.2951 -0.9245 -1.0614
 4547SOL     OW25273   4.728   1.971   6.157  0.0950 -0.5686 -0.6459
 4547SOL    HW125274   4.717   1.917   6.235  3.6734  0.2669  0.4335
 4547SOL    HW225275   4.671   2.046   6.175 -0.7888 -1.2370 -0.6508
 4548SOL     OW25276   0.944   3.061  11.890  0.4440 -0.1336  0.6924
 4548SOL    HW125277   0.862   3.082  11.844  0.9616 -0.8061 -0.5457
 4548SOL    HW225278   1.005   3.093  11.823 -0.0626  1.0820  0.7986
 4549SOL     OW25279   3.161   1.552  11.716 -0.7041 -0.1174 -0.1721
 4549SOL    HW125280   3.191   1.524  11.802 -0.6926  0.9840  0.1937
 4549SOL    HW225281   3.067   1.558  11.735 -0.7068 -1.0678  0.0625
 4550SOL     OW25282   3.287   2.314   2.557  0.3785  0.3948 -0.2578
 4550SOL    HW125283   3.206   2.271   2.530 -0.8446  1.0769  2.3314
 4550SOL    HW225284   3.348   2.241   2.545  1.7289  1.1481  2.1184
 4551SOL     OW25285   2.159   1.910   8.738 -0.2913  0.2210 -0.8060
 4551SOL    HW125286   2.244   1.953   8.747 -1.3505  2.0903  0.3255
 4551SOL    HW225287   2.097   1.981   8.720 -0.1331  0.9886  1.6059
 4552SOL     OW25288   3.768   0.599   7.525  0.3436  0.1839 -0.2695
 4552SOL    HW125289   3.830   0.639   7.465 -0.3403  0.8347 -0.5307
 4552SOL    HW225290   3.723   0.674   7.564  0.9345  0.1514  0.4789
 4553SOL     OW25291   0.033   3.904   5.774  0.3546  0.6843  0.2677
 4553SOL    HW125292   0.068   3.939   5.692 -0.6741 -1.4159 -1.0741
 4553SOL    HW225293   4.711   3.973   5.808  0.4737  1.2350 -0.6651
 4554SOL     OW25294   1.909   1.848   5.849 -0.1014 -0.6921 -0.2234
 4554SOL    HW125295   1.931   1.886   5.934 -1.2908 -0.0373 -0.2124
 4554SOL    HW225296   1.995   1.827   5.811 -0.0442  0.5207 -0.7698
 4555SOL     OW25297   1.118   2.431   5.955 -0.2807  0.2649  0.0475
 4555SOL    HW125298   1.200   2.384   5.939  0.0322  0.0776  2.1209
 4555SOL    HW225299   1.062   2.390   5.889  1.6572  0.4774 -1.7492
 4556SOL     OW25300   3.544   1.743   1.009  0.1189  0.2110 -0.4436
 4556SOL    HW125301   3.508   1.831   1.018  1.6041  0.7535  0.1793
 4556SOL    HW225302   3.510   1.709   1.092  0.9824  0.6740  0.0898
 4557SOL     OW25303   2.933   1.308  15.846 -0.2619 -0.3152  0.3346
 4557SOL    HW125304   2.971   1.364  15.914  0.6657  0.7713 -1.0991
 4557SOL    HW225305   2.842   1.304  15.875  0.5283 -0.8177  2.7721
 4558SOL     OW25306   0.427   1.662   9.014 -0.7235 -0.1921  0.0326
 4558SOL    HW125307   0.464   1.597   9.074  1.5976  0.5684 -0.5562
 4558SOL    HW225308   0.437   1.734   9.075 -1.8689  0.0184 -0.0444
 4559SOL     OW25309   1.454   4.517   4.564  0.0075  0.1683  0.2764
 4559SOL    HW125310   1.381   4.579   4.562 -1.0071 -1.0891 -1.0402
 4559SOL    HW225311   1.515   4.539   4.494  0.6000  1.1245  1.0775
 4560SOL     OW25312   2.925   0.019   2.408 -0.0715 -0.0121  0.2214
 4560SOL    HW125313   2.956   4.666   2.427  1.0218  0.3814  0.2631
 4560SOL    HW225314   3.001   0.077   2.421 -0.4960  0.1011  2.1162
 4561SOL     OW25315   3.073   3.098   8.459 -0.2534 -0.6504  0.0607
 4561SOL    HW125316   3.065   3.065   8.369  0.7577 -2.1918  0.5283
 4561SOL    HW225317   3.161   3.068   8.483  0.1598  0.5705  0.0609
 4562SOL     OW25318   4.073   4.721  11.644 -0.3248 -0.7242 -0.1224
 4562SOL    HW125319   4.090   0.077  11.623 -2.2157  0.2559  2.6180
 4562SOL    HW225320   4.161   4.682  11.637 -0.5136 -1.0888 -0.4296
 4563SOL     OW25321   4.474   0.939  16.668 -0.8011  0.2789 -0.4180
 4563SOL    HW125322   4.441   0.976  16.586 -0.7655 -0.2557 -0.6770
 4563SOL    HW225323   4.537   0.878  16.629 -2.3312 -0.9846 -0.9079
 4564SOL     OW25324   4.081   1.801   3.112  0.0691 -0.2397 -0.0086
 4564SOL    HW125325   4.095   1.742   3.186 -0.7803 -2.7125 -1.8160
 4564SOL    HW225326   4.130   1.762   3.039  0.2415  0.6603 -0.3837
 4565SOL     OW25327   2.841   2.093  16.161 -0.1486  0.1929  0.2356
 4565SOL    HW125328   2.793   2.102  16.078 -0.3754 -1.2305  0.2047
 4565SOL    HW225329   2.918   2.039  16.144 -1.0327 -1.1956  0.6412
 4566SOL     OW25330   0.621   1.856   9.148 -0.0528  0.2180 -0.1319
 4566SOL    HW125331   0.691   1.920   9.135  0.2413 -0.3759 -1.4797
 4566SOL    HW225332   0.670   1.781   9.182 -0.3619  1.3595  2.8310
 4567SOL     OW25333   3.759   3.235  12.774  0.1203 -0.7491  0.0541
 4567SOL    HW125334   3.739   3.242  12.680  0.7341 -0.5588 -0.0707
 4567SOL    HW225335   3.688   3.293  12.800  2.0158  0.9080  1.5905
 4568SOL     OW25336   3.729   2.130   0.690 -0.4864 -0.0005 -0.2628
 4568SOL    HW125337   3.801   2.071   0.667  2.1817  3.4068 -0.7296
 4568SOL    HW225338   3.789   2.205   0.698 -1.1617  0.4367  0.6824
 4569SOL     OW25339   1.385   2.023   4.105  0.1653 -0.3174  0.2091
 4569SOL    HW125340   1.478   2.000   4.105  0.2499  0.0136  0.3335
 4569SOL    HW225341   1.394   2.112   4.141  0.8726  0.1343 -1.1078
 4570SOL     OW25342   0.428   0.694  11.567  0.6034  0.7708 -0.3892
 4570SOL    HW125343   0.474   0.610  11.564  0.1401  0.4779  1.0566
 4570SOL    HW225344   0.346   0.671  11.609  0.5380  2.5603  0.4761
 4571SOL     OW25345   3.588   3.352  11.910 -0.8041  0.1744 -0.2568
 4571SOL    HW125346   3.530   3.387  11.841 -0.8688  0.2440 -0.1678
 4571SOL    HW225347   3.575   3.414  11.982 -3.9652 -0.9433  0.1372
 4572SOL     OW25348   1.023   1.643  14.664 -0.7305 -0.3825  0.0621
 4572SOL    HW125349   0.933   1.647  14.632 -0.9284  1.3317  0.8603
 4572SOL    HW225350   1.032   1.548  14.662 -2.2022 -0.4937 -1.1437
 4573SOL     OW25351   4.100   0.798  14.736 -0.1156 -0.0823 -0.1933
 4573SOL    HW125352   4.150   0.876  14.714  0.9838 -0.7318  0.0427
 4573SOL    HW225353   4.027   0.810  14.675  0.2538  0.0830 -0.6032
 4574SOL     OW25354   1.819   0.495   5.717  0.2956 -0.2702 -0.4235
 4574SOL    HW125355   1.769   0.547   5.780  1.3235 -1.0820  1.0962
 4574SOL    HW225356   1.837   0.560   5.650 -1.1916  0.6238  0.0409
 4575SOL     OW25357   2.050   2.972  10.523 -0.3584 -0.4151 -0.1883
 4575SOL    HW125358   1.957   2.953  10.536  0.3099 -1.6135  2.9396
 4575SOL    HW225359   2.071   3.015  10.606  1.7371 -1.4055 -0.2046
 4576SOL     OW25360   0.282   3.822   9.983  0.4797  0.1613  0.2851
 4576SOL    HW125361   0.366   3.803  10.025  0.5061  2.5555  1.3865
 4576SOL    HW225362   0.280   3.770   9.903  1.1301  1.9560 -0.8992
 4577SOL     OW25363   2.396   0.875   1.983  0.2964  0.1883 -0.0657
 4577SOL    HW125364   2.471   0.850   2.038 -0.1447 -1.9094 -0.4100
 4577SOL    HW225365   2.427   0.962   1.959  1.9109 -0.2109  0.5721
 4578SOL     OW25366   2.044   3.704   9.354  0.5609 -0.3528 -0.1017
 4578SOL    HW125367   1.950   3.688   9.357  0.6412 -1.3212 -2.8918
 4578SOL    HW225368   2.059   3.700   9.260  0.8256  1.1278 -0.1110
 4579SOL     OW25369   2.466   0.982   9.009 -0.3091 -0.2771 -0.1674
 4579SOL    HW125370   2.410   0.984   8.932 -0.1612  2.0957 -0.2053
 4579SOL    HW225371   2.501   0.893   9.005  1.1245  0.3106 -0.7340
 4580SOL     OW25372   0.408   3.204   5.895 -0.4481 -0.5990 -0.6706
 4580SOL    HW125373   0.477   3.199   5.830  0.4701  0.2806  0.2377
 4580SOL    HW225374   0.457   3.208   5.977  1.2842 -0.1398 -1.7480
 4581SOL     OW25375   4.509   1.715   1.627 -0.6469  0.1408 -0.4924
 4581SOL    HW125376   4.517   1.811   1.627  0.7156  0.0223  0.8290
 4581SOL    HW225377   4.541   1.688   1.713 -0.7336 -1.1510 -0.8771
 4582SOL     OW25378   4.220   3.061   4.855  0.7669  0.1175 -0.0430
 4582SOL    HW125379   4.139   3.075   4.903 -0.0046  0.9239 -1.5618
 4582SOL    HW225380   4.193   2.999   4.787 -0.3500  1.0051 -0.4088
 4583SOL     OW25381   3.252   1.027   6.516  0.0548  0.3330 -0.1852
 4583SOL    HW125382   3.227   0.974   6.441 -1.7015 -1.0866  1.3731
 4583SOL    HW225383   3.338   0.988   6.530  0.4209  1.3603  0.4226
 4584SOL     OW25384   1.986   0.718   9.977 -0.1888  0.3803 -0.1277
 4584SOL    HW125385   1.954   0.761  10.057 -1.0116  0.3425 -0.4450
 4584SOL    HW225386   1.957   0.630  10.001 -1.3876  0.1177 -2.6139
 4585SOL     OW25387   3.100   3.515  10.416 -0.0064  0.5574 -0.0413
 4585SOL    HW125388   3.085   3.602  10.453 -1.1697  0.8523 -1.2194
 4585SOL    HW225389   3.053   3.466  10.483 -1.0125 -1.3647 -2.1581
 4586SOL     OW25390   3.435   4.106   9.191  0.3112  0.6266 -0.4085
 4586SOL    HW125391   3.440   4.201   9.175 -0.9799  0.9763  1.1864
 4586SOL    HW225392   3.457   4.107   9.285  0.7971 -0.7004 -0.5194
 4587SOL     OW25393   3.651   2.862   7.179 -0.1410 -0.4333  0.5584
 4587SOL    HW125394   3.603   2.930   7.130  0.0178  0.3317  1.4726
 4587SOL    HW225395   3.741   2.863   7.147  0.7360  0.0655  3.0514
 4588SOL     OW25396   2.545   2.817  16.781 -0.7775 -0.0920 -0.6638
 4588SOL    HW125397   2.548   2.770  16.864  0.4736  1.9071  0.4472
 4588SOL    HW225398   2.608   2.772  16.724  1.6595  1.2815  0.9620
 4589SOL     OW25399   3.980   0.167  14.191  0.5405  0.0533  0.1777
 4589SOL    HW125400   3.968   0.186  14.098  3.8820 -0.6121 -0.3961
 4589SOL    HW225401   3.897   0.200  14.226  1.2623  2.2587 -0.1305
 4590SOL     OW25402   2.206   1.564   0.315 -0.5461 -0.3660 -0.5274
 4590SOL    HW125403   2.176   1.605   0.397 -1.2578 -0.3581 -0.7895
 4590SOL    HW225404   2.298   1.550   0.336 -0.7877 -0.8765  0.1925
 4591SOL     OW25405   2.231   1.002   3.350 -0.1399  0.3800  0.2067
 4591SOL    HW125406   2.228   1.077   3.292  1.6007  1.4545  1.4732
 4591SOL    HW225407   2.261   1.042   3.432 -2.8127  0.2566  1.2347
 4592SOL     OW25408   1.099   4.309   5.416 -0.4433  0.3695  0.3868
 4592SOL    HW125409   1.042   4.365   5.363  0.6638 -0.7830 -2.0579
 4592SOL    HW225410   1.134   4.250   5.349 -1.6332  1.2049 -0.9807
 4593SOL     OW25411   2.013   0.507   4.582 -0.0653 -0.0505 -0.0700
 4593SOL    HW125412   2.078   0.574   4.565  1.2185 -0.9864  1.2211
 4593SOL    HW225413   1.938   0.566   4.571  0.2471  0.3492 -0.0186
 4594SOL     OW25414   2.433   3.864   5.232 -0.2366  0.3463 -0.1890
 4594SOL    HW125415   2.409   3.957   5.231  1.7656  0.8836  0.1799
 4594SOL    HW225416   2.524   3.862   5.200 -0.6089 -1.6160 -1.1136
 4595SOL     OW25417   3.472   3.043   3.068  0.2149  0.0766  0.5076
 4595SOL    HW125418   3.456   3.072   3.158  1.1516 -3.3356  1.7734
 4595SOL    HW225419   3.383   3.033   3.034  0.6213  1.0894 -0.8573
 4596SOL     OW25420   2.457   1.447   0.100 -0.1588 -0.3411  0.3967
 4596SOL    HW125421   2.389   1.380   0.098 -1.2048  0.6927  1.3074
 4596SOL    HW225422   2.477   1.451   0.193 -0.6243  0.8337  0.4411
 4597SOL     OW25423   3.867   0.304  17.302  0.7963  0.5575  0.5233
 4597SOL    HW125424   3.863   0.263  17.216 -0.4844 -1.2802  1.4542
 4597SOL    HW225425   3.855   0.234  17.366  1.2902  0.7878  0.8666
 4598SOL     OW25426   2.870   2.216   2.316 -0.0231  0.9689  0.2588
 4598SOL    HW125427   2.955   2.247   2.346  0.4500 -0.4206  0.3942
 4598SOL    HW225428   2.823   2.292   2.282  0.4750  1.1637  0.0055
 4599SOL     OW25429   4.506   2.899   4.058 -0.4282 -0.3607  0.0323
 4599SOL    HW125430   4.542   2.891   4.146  0.0428 -0.6225 -0.1842
 4599SOL    HW225431   4.567   2.854   4.000  1.2132  1.6723  0.1788
 4600SOL     OW25432   0.813   1.454   6.748 -0.2599  0.2718 -0.4186
 4600SOL    HW125433   0.802   1.485   6.658  0.9535  1.1352 -0.2633
 4600SOL    HW225434   0.724   1.468   6.779  0.4422 -1.7482  2.4904
 4601SOL     OW25435   1.802   2.727  17.160  0.0508 -0.3316 -0.1908
 4601SOL    HW125436   1.831   2.757  17.074 -0.0280  1.1580  0.2866
 4601SOL    HW225437   1.884   2.688  17.189  0.6905  0.1392 -1.3766
 4602SOL     OW25438   3.449   3.508   6.842  0.6730 -0.3561  0.3231
 4602SOL    HW125439   3.484   3.562   6.913  1.2425 -1.3916  0.8348
 4602SOL    HW225440   3.500   3.544   6.769  1.0140 -1.2934  0.0972
 4603SOL     OW25441   2.111   3.102   6.765 -0.3462  0.5056 -0.5046
 4603SOL    HW125442   2.149   3.034   6.711 -1.4471  2.5037 -3.7792
 4603SOL    HW225443   2.020   3.112   6.737  0.3409  0.6877 -2.6801
 4604SOL     OW25444   0.129   4.593  11.337 -0.0583 -0.4327  0.1830
 4604SOL    HW125445   0.139   4.659  11.405  0.1709 -1.8140  1.5013
 4604SOL    HW225446   0.215   4.550  11.343 -0.1090 -0.2975  1.7264
 4605SOL     OW25447   3.103   0.302   4.178  0.2037 -0.0764 -0.5124
 4605SOL    HW125448   3.024   0.336   4.220  0.6883  1.4956 -0.8493
 4605SOL    HW225449   3.163   0.307   4.253  0.6170  0.9763 -0.9065
 4606SOL     OW25450   4.646   1.410   3.102  0.1729 -0.7373  0.6613
 4606SOL    HW125451   4.604   1.400   3.017  2.4663  2.5051 -0.8799
 4606SOL    HW225452   4.600   1.492   3.119  1.1543 -0.6216  2.7893
 4607SOL     OW25453   1.541   0.788  16.280  0.3869 -0.1864 -0.1935
 4607SOL    HW125454   1.478   0.835  16.335  0.0734 -1.2927  0.3806
 4607SOL    HW225455   1.526   0.703  16.322  3.2426 -1.2256 -1.3389
 4608SOL     OW25456   2.783   0.706   6.768 -0.1527 -0.1934 -0.2715
 4608SOL    HW125457   2.704   0.759   6.757 -0.7540 -0.7127  1.5282
 4608SOL    HW225458   2.757   0.656   6.844  0.2792  0.6176  0.4119
 4609SOL     OW25459   3.537   1.469  16.665 -1.2146  0.4881 -0.0339
 4609SOL    HW125460   3.458   1.502  16.622  0.7194  0.5394 -3.5030
 4609SOL    HW225461   3.582   1.433  16.589  0.8015  3.8851 -0.4444
 4610SOL     OW25462   3.704   3.191   6.366 -0.2860  0.1813 -0.4982
 4610SOL    HW125463   3.646   3.120   6.340  0.1539 -0.7704  1.1175
 4610SOL    HW225464   3.708   3.181   6.461  2.7482 -1.1651 -0.7628
 4611SOL     OW25465   2.217   2.237  12.883 -0.3715 -0.0912 -0.3163
 4611SOL    HW125466   2.272   2.166  12.916  0.9049  1.8391  1.7529
 4611SOL    HW225467   2.280   2.309  12.882 -0.8848  0.3714  1.1248
 4612SOL     OW25468   3.509   4.513   7.562 -0.7634 -0.2433  0.3015
 4612SOL    HW125469   3.556   4.551   7.636  0.3884 -0.4576 -0.3309
 4612SOL    HW225470   3.510   4.586   7.500 -1.6306 -0.7166 -0.2661
 4613SOL     OW25471   1.310   3.145   8.854 -0.2905  0.5015 -0.1236
 4613SOL    HW125472   1.296   3.073   8.916 -1.5596  0.3920 -0.5434
 4613SOL    HW225473   1.276   3.219   8.904 -0.1771 -0.4370  1.3394
 4614SOL     OW25474   4.309   0.799   8.355 -0.7194  0.3479 -0.1989
 4614SOL    HW125475   4.258   0.757   8.424 -0.2448 -0.3149 -0.2478
 4614SOL    HW225476   4.372   0.730   8.333 -0.4280  0.6061 -0.1604
 4615SOL     OW25477   3.330   1.862   5.310  0.0749 -1.0104  0.3919
 4615SOL    HW125478   3.419   1.883   5.281  0.2939  0.0698  1.8085
 4615SOL    HW225479   3.361   1.798   5.374 -2.6575 -0.8366  1.9034
 4616SOL     OW25480   4.678   2.992   6.873  0.6912 -0.0700  0.0433
 4616SOL    HW125481   4.601   2.970   6.926 -0.0017 -1.5381 -1.5827
 4616SOL    HW225482   0.002   3.040   6.931 -0.5750 -0.0107  1.2904
 4617SOL     OW25483   0.918   2.642   2.271 -0.2660 -0.4247  0.4666
 4617SOL    HW125484   0.904   2.655   2.177  0.7069  0.8955  0.4947
 4617SOL    HW225485   0.982   2.711   2.291 -0.6998 -0.9999  3.8403
 4618SOL     OW25486   1.070   2.641  12.588  0.0618  0.6638 -0.0143
 4618SOL    HW125487   1.152   2.663  12.631 -0.4090  0.6377  0.8796
 4618SOL    HW225488   1.077   2.690  12.505  0.7026  0.6169  0.0144
 4619SOL     OW25489   3.673   2.445   1.766 -1.0190  0.2860 -0.7120
 4619SOL    HW125490   3.650   2.358   1.733  1.7037 -0.3780 -0.8976
 4619SOL    HW225491   3.754   2.453   1.715  0.4672 -0.4423  1.4913
 4620SOL     OW25492   2.508   2.633   3.016 -0.1432  0.3999  0.2230
 4620SOL    HW125493   2.574   2.609   2.951 -0.8487  0.9938 -0.7293
 4620SOL    HW225494   2.507   2.561   3.078 -3.5268 -1.0642 -1.5031
 4621SOL     OW25495   0.782   1.014   6.006 -0.8297 -0.1374 -0.0451
 4621SOL    HW125496   0.736   1.013   5.922 -1.5734 -1.2108  0.3818
 4621SOL    HW225497   0.857   0.958   5.986 -1.2045 -0.2377 -1.1482
 4622SOL     OW25498   2.616   4.530   3.352 -0.5972 -0.2071  0.2238
 4622SOL    HW125499   2.532   4.576   3.341 -1.9463 -2.7496 -0.1383
 4622SOL    HW225500   2.625   4.516   3.258 -1.8366 -1.0034  0.2283
 4623SOL     OW25501   2.245   0.177   3.150 -0.1495 -0.0001  0.1240
 4623SOL    HW125502   2.333   0.215   3.155 -0.8407  1.7509 -0.8978
 4623SOL    HW225503   2.195   0.230   3.213 -0.0903 -0.4899  0.5815
 4624SOL     OW25504   3.777   1.703   5.608 -0.3287  0.6367 -0.1768
 4624SOL    HW125505   3.741   1.630   5.558 -1.0860  2.2059 -1.9128
 4624SOL    HW225506   3.747   1.686   5.698  1.0238  1.9483  0.5238
 4625SOL     OW25507   0.748   0.343   0.680 -0.0080  0.3258  0.5744
 4625SOL    HW125508   0.791   0.426   0.704  2.3064 -0.6801 -0.0330
 4625SOL    HW225509   0.828   0.295   0.659  1.7614  2.4833  2.3207
 4626SOL     OW25510   2.512   3.396   5.202  0.5261 -0.0513 -0.2426
 4626SOL    HW125511   2.477   3.324   5.255 -1.1202  2.2687  1.8209
 4626SOL    HW225512   2.509   3.467   5.266  1.9872 -0.6157  0.4351
 4627SOL     OW25513   3.576   4.444   6.938  0.1582 -0.4429  0.4700
 4627SOL    HW125514   3.531   4.410   7.016 -0.2867 -1.1130 -0.0816
 4627SOL    HW225515   3.620   4.367   6.903  0.1413 -0.0671 -0.3571
 4628SOL     OW25516   3.374   0.187   2.776  0.1053 -0.0775 -0.2791
 4628SOL    HW125517   3.416   0.136   2.707 -1.5050 -2.0624  0.2373
 4628SOL    HW225518   3.360   0.272   2.734 -2.8134 -0.1538  0.5353
 4629SOL     OW25519   2.723   1.887   8.418 -0.3823 -0.3368  0.4816
 4629SOL    HW125520   2.725   1.817   8.353 -0.0376  1.1960 -1.1236
 4629SOL    HW225521   2.779   1.953   8.378  2.3956 -2.5014  0.7173
 4630SOL     OW25522   1.737   0.099   4.341 -0.4101 -0.1043 -0.3379
 4630SOL    HW125523   1.745   0.194   4.341 -1.4804 -0.0168 -0.3353
 4630SOL    HW225524   1.831   0.081   4.337 -0.3015 -0.1706  2.4389
 4631SOL     OW25525   2.898   3.563   9.231 -0.4019  0.6145 -0.0893
 4631SOL    HW125526   2.829   3.514   9.276 -0.9732 -0.7044 -2.3814
 4631SOL    HW225527   2.935   3.496   9.173  0.2659  0.9497 -0.0522
 4632SOL     OW25528   2.435   3.997   8.212 -0.3859  0.5849 -0.3928
 4632SOL    HW125529   2.468   3.940   8.142 -0.8792  1.1146 -1.0511
 4632SOL    HW225530   2.390   3.931   8.265  0.3179  2.2614  2.3048
 4633SOL     OW25531   3.331   1.403  13.369 -0.1344 -0.0786  0.3995
 4633SOL    HW125532   3.361   1.461  13.299  1.8972  0.4886  1.7266
 4633SOL    HW225533   3.387   1.437  13.439 -0.0421 -2.7153  1.5910
 4634SOL     OW25534   1.802   3.504   5.565  0.2739  0.0778  0.1100
 4634SOL    HW125535   1.814   3.570   5.633  1.5339 -0.4859  0.4379
 4634SOL    HW225536   1.784   3.560   5.490 -0.7371 -1.9744 -1.1889
 4635SOL     OW25537   3.782   4.451  10.517  0.0757 -0.2099  0.2203
 4635SOL    HW125538   3.742   4.519  10.570  2.0566  1.6705 -0.7021
 4635SOL    HW225539   3.773   4.381  10.582  1.0041 -1.0928 -0.6023
 4636SOL     OW25540   2.667   4.076   9.193 -0.6703  0.4542  1.1307
 4636SOL    HW125541   2.596   4.061   9.131  0.4332  0.8196 -0.2224
 4636SOL    HW225542   2.719   3.996   9.191  1.3590  1.7854 -0.9130
 4637SOL     OW25543   0.876   0.858  13.491 -0.1319  0.1870 -0.1719
 4637SOL    HW125544   0.951   0.902  13.450  0.4393 -0.4882  0.1554
 4637SOL    HW225545   0.858   0.912  13.568  0.9458 -1.0834  0.9712
 4638SOL     OW25546   3.389   2.186   7.670  0.5511  0.3049 -0.7596
 4638SOL    HW125547   3.404   2.272   7.707  0.8405 -0.1397  0.1351
 4638SOL    HW225548   3.449   2.187   7.595  2.4732  1.3576  0.7990
 4639SOL     OW25549   4.495   0.033   5.836 -0.1214  0.4397  0.1150
 4639SOL    HW125550   4.511   0.020   5.930 -1.9577  0.1443  0.3732
 4639SOL    HW225551   4.429   0.102   5.836 -0.6349 -0.0508  2.0621
 4640SOL     OW25552   2.660   2.950   1.539  0.5752 -0.0878 -0.2274
 4640SOL    HW125553   2.756   2.957   1.544  0.5813  0.2033 -0.7111
 4640SOL    HW225554   2.649   2.874   1.482  1.2444 -0.3195 -0.0502
 4641SOL     OW25555   1.484   1.671   6.377 -0.0947  0.1042  0.2078
 4641SOL    HW125556   1.519   1.655   6.465 -2.5977  2.9808  1.7418
 4641SOL    HW225557   1.554   1.636   6.323 -0.8167  1.4598 -1.5982
 4642SOL     OW25558   0.158   0.995  10.994  0.4424 -0.5076  0.1421
 4642SOL    HW125559   0.177   0.994  11.088 -0.9441 -1.8266  0.4093
 4642SOL    HW225560   0.153   0.900  10.986 -1.9422 -0.3454 -0.2442
 4643SOL     OW25561   3.158   4.631  17.526 -0.7462  0.0793 -0.1299
 4643SOL    HW125562   3.200   4.711  17.557 -3.8291  1.5141  0.3780
 4643SOL    HW225563   3.066   4.655  17.542 -0.2460  1.3717  0.7970
 4644SOL     OW25564   1.714   4.128   4.480 -0.7495  0.5774 -0.5921
 4644SOL    HW125565   1.805   4.099   4.490 -0.7082  0.8752 -0.0972
 4644SOL    HW225566   1.704   4.186   4.556 -0.8492 -1.0952  0.6586
 4645SOL     OW25567   0.502   0.525   5.378 -0.3924  0.1614  0.3443
 4645SOL    HW125568   0.426   0.471   5.399 -1.6539  0.9286 -2.2042
 4645SOL    HW225569   0.545   0.459   5.323 -0.6836 -0.5246  0.9398
 4646SOL     OW25570   2.299   0.902   0.622 -0.0576  0.0849 -0.0409
 4646SOL    HW125571   2.390   0.912   0.596  0.1560 -0.0253  0.6676
 4646SOL    HW225572   2.304   0.818   0.668  0.3945 -0.2050 -0.6242
 4647SOL     OW25573   0.167   1.394   7.187 -0.1736 -0.0801  0.7570
 4647SOL    HW125574   0.117   1.313   7.179 -1.4735  0.5989  1.9403
 4647SOL    HW225575   0.169   1.416   7.094  1.5238  0.4041  0.9022
 4648SOL     OW25576   1.689   0.203   0.303 -0.1201 -0.0104 -0.1227
 4648SOL    HW125577   1.681   0.239   0.391 -2.5403  0.9276 -0.7436
 4648SOL    HW225578   1.778   0.172   0.320 -0.6119  0.7183  3.6485
 4649SOL     OW25579   1.714   2.530   6.517  0.2613  0.2253  0.0436
 4649SOL    HW125580   1.705   2.481   6.598 -0.1163  0.5765  0.2106
 4649SOL    HW225581   1.803   2.518   6.482 -0.9492  0.6911 -3.2530
 4650SOL     OW25582   4.279   3.988  10.494 -0.0489  0.1605  0.3044
 4650SOL    HW125583   4.295   3.911  10.440  2.5820 -0.0675  1.4671
 4650SOL    HW225584   4.204   4.025  10.446 -1.1118 -1.1759  0.9371
 4651SOL     OW25585   2.824   4.424  17.414  0.5898  0.0961 -0.0391
 4651SOL    HW125586   2.847   4.495  17.475  0.5024  0.8524 -0.8926
 4651SOL    HW225587   2.894   4.443  17.352 -0.7023 -0.5229 -1.6725
 4652SOL     OW25588   2.878   1.653   4.917  0.1470  0.1211 -0.0092
 4652SOL    HW125589   2.841   1.615   4.997 -2.5048 -0.8283 -1.6967
 4652SOL    HW225590   2.843   1.595   4.849  1.7117  0.2682 -0.9414
 4653SOL     OW25591   0.911   3.229   7.199 -0.0110 -0.1293 -0.5234
 4653SOL    HW125592   0.909   3.137   7.225 -1.4945  0.1497  0.3577
 4653SOL    HW225593   0.823   3.259   7.221  0.0575 -0.8085  0.6813
 4654SOL     OW25594   2.859   1.574   2.959 -0.4265  0.0658  0.0118
 4654SOL    HW125595   2.855   1.568   3.055 -1.5901 -0.2659 -0.0491
 4654SOL    HW225596   2.828   1.484   2.944  0.9456 -0.4834  0.5504
 4655SOL     OW25597   2.075   3.745   5.699 -0.6303  0.1294  0.4244
 4655SOL    HW125598   1.985   3.712   5.696 -1.4932  2.4777  1.0759
 4655SOL    HW225599   2.112   3.690   5.629  0.1147 -0.2344  1.1014
 4656SOL     OW25600   1.846   3.011  11.314 -0.1490 -0.3013  0.1486
 4656SOL    HW125601   1.938   3.032  11.329 -0.3605  0.4924  0.3541
 4656SOL    HW225602   1.801   3.036  11.394  1.9444  0.5994  1.0464
 4657SOL     OW25603   1.986   0.822  16.979 -0.0142  0.0561  0.3684
 4657SOL    HW125604   2.005   0.892  17.041 -1.4169 -0.7741  1.7230
 4657SOL    HW225605   1.969   0.749  17.038  1.3557 -0.8900 -0.3817
 4658SOL     OW25606   0.765   0.170   7.438  0.4651  0.2392 -0.4168
 4658SOL    HW125607   0.784   0.246   7.493 -2.1729  1.0216 -0.5892
 4658SOL    HW225608   0.680   0.138   7.468  0.7296  1.0470  1.1764
 4659SOL     OW25609   3.427   1.378   5.784 -0.4920  0.3829 -0.0440
 4659SOL    HW125610   3.364   1.397   5.714 -1.5118 -2.8206 -0.0078
 4659SOL    HW225611   3.363   1.357   5.852  0.1056 -0.7123  0.1780
 4660SOL     OW25612   0.808   0.736   4.843  0.6225 -0.4716 -0.0234
 4660SOL    HW125613   0.807   0.716   4.936 -0.9423  3.6541  0.8477
 4660SOL    HW225614   0.896   0.703   4.823  0.5141 -1.5919  1.3931
 4661SOL     OW25615   1.276   4.257   3.970  0.1088 -0.1767  0.4970
 4661SOL    HW125616   1.296   4.349   3.952  1.8646 -0.9839 -1.8096
 4661SOL    HW225617   1.359   4.210   3.954 -0.1100 -0.1099 -0.8381
 4662SOL     OW25618   2.916   1.674   4.490 -0.1180 -0.3479  0.1568
 4662SOL    HW125619   2.885   1.685   4.400  0.6421 -0.0093 -0.0600
 4662SOL    HW225620   2.995   1.621   4.480  0.0060 -0.2926  0.8915
 4663SOL     OW25621   2.606   1.004   5.137 -0.1883  0.0314 -0.2956
 4663SOL    HW125622   2.623   0.919   5.098 -1.9819 -0.1692 -0.6040
 4663SOL    HW225623   2.582   0.968   5.223  0.9225 -1.9731 -0.8145
 4664SOL     OW25624   1.776   1.925   1.868 -0.2453 -0.0139 -0.3542
 4664SOL    HW125625   1.756   1.854   1.930  2.5475 -0.7042 -0.2633
 4664SOL    HW225626   1.706   1.916   1.803 -1.6469  0.3950  1.1037
 4665SOL     OW25627   3.182   0.643   4.655  0.0304 -0.0705  0.4355
 4665SOL    HW125628   3.264   0.693   4.656 -0.2928  0.5233 -1.6613
 4665SOL    HW225629   3.210   0.555   4.630  1.0586  0.0163  1.3221
 4666SOL     OW25630   1.855   1.343  12.914 -0.5521  0.0926  0.5142
 4666SOL    HW125631   1.811   1.399  12.851 -0.4295  0.1377  0.4677
 4666SOL    HW225632   1.923   1.402  12.948  0.1738  1.1007 -2.7263
 4667SOL     OW25633   1.798   2.043   8.485 -0.2177 -0.4191 -0.2851
 4667SOL    HW125634   1.810   2.131   8.450  1.1204 -0.6304 -0.3238
 4667SOL    HW225635   1.785   2.004   8.399 -0.7513  1.2679 -0.9813
 4668SOL     OW25636   3.101   4.671   8.444  0.1377 -0.4754 -0.0595
 4668SOL    HW125637   3.160   4.643   8.373 -0.0466 -0.0616 -0.3774
 4668SOL    HW225638   3.016   4.628   8.436 -0.2060 -0.0888  1.4808
 4669SOL     OW25639   2.455   1.249   5.825  0.4132  0.0969 -0.2288
 4669SOL    HW125640   2.534   1.303   5.837  0.7956 -0.5414  0.1044
 4669SOL    HW225641   2.461   1.186   5.897  0.9010 -0.0658 -0.4094
 4670SOL     OW25642   2.045   0.896   8.418  0.1615  0.2893  0.2087
 4670SOL    HW125643   2.003   0.830   8.364 -1.7787  1.9332 -0.2854
 4670SOL    HW225644   2.067   0.960   8.350 -1.8988 -0.1858 -0.8774
 4671SOL     OW25645   0.857   2.224   2.819 -0.1065  0.1153 -0.2805
 4671SOL    HW125646   0.826   2.138   2.849 -1.0807  1.2914  2.0512
 4671SOL    HW225647   0.815   2.290   2.874  0.4419  0.0912  0.1722
 4672SOL     OW25648   2.221   2.561  13.814  0.1006 -0.1081 -0.1564
 4672SOL    HW125649   2.129   2.580  13.800  0.2627  0.1630 -0.8301
 4672SOL    HW225650   2.260   2.648  13.808  1.2397 -0.7860 -2.6528
 4673SOL     OW25651   4.267   0.862  11.293 -0.4383  0.3878 -0.3727
 4673SOL    HW125652   4.218   0.826  11.219 -0.6233  1.3353 -0.7104
 4673SOL    HW225653   4.328   0.929  11.262 -0.7307  0.9300  0.2231
 4674SOL     OW25654   3.494   4.055  12.754  0.1529  0.0178  0.1456
 4674SOL    HW125655   3.404   4.083  12.769  0.2681  0.3104  0.2945
 4674SOL    HW225656   3.527   4.058  12.844 -0.8813  0.4086  0.5007
 4675SOL     OW25657   0.276   0.589   4.600 -0.2066 -0.3584 -0.2731
 4675SOL    HW125658   0.320   0.573   4.517 -1.4518 -0.6193 -0.8817
 4675SOL    HW225659   0.310   0.678   4.614 -0.1360 -0.1392 -1.9402
 4676SOL     OW25660   4.093   0.016   9.361  0.1709 -0.1211  0.4325
 4676SOL    HW125661   4.148   4.675   9.381 -0.1013 -0.5836 -0.5469
 4676SOL    HW225662   4.010   4.705   9.347  0.4438 -0.2842 -0.6187
 4677SOL     OW25663   2.238   0.927   2.862 -0.5104 -0.5864 -0.2074
 4677SOL    HW125664   2.279   0.859   2.809  1.1710 -0.9916  1.5965
 4677SOL    HW225665   2.289   0.912   2.942 -0.3310 -1.3230 -0.4574
 4678SOL     OW25666   0.773   3.046   0.068 -1.0234  0.4990  0.1565
 4678SOL    HW125667   0.678   3.041   0.076 -1.0543 -0.3748 -0.8606
 4678SOL    HW225668   0.813   3.014   0.150 -1.8720  1.7322  1.0486
 4679SOL     OW25669   0.224   1.422   4.364 -0.1278 -0.0696  0.6602
 4679SOL    HW125670   0.151   1.378   4.319  0.0595  0.2232  0.0680
 4679SOL    HW225671   0.177   1.459   4.439  0.4444  0.1035  0.9335
 4680SOL     OW25672   1.009   0.153   7.325  0.1114 -0.5356  0.2891
 4680SOL    HW125673   1.021   0.061   7.349 -1.5947 -0.7377  0.3455
 4680SOL    HW225674   0.920   0.169   7.354  0.1991 -1.1132  0.8604
 4681SOL     OW25675   1.391   3.962   8.744 -0.1139 -0.0411 -0.3122
 4681SOL    HW125676   1.434   4.034   8.697  0.4744 -0.8875 -1.0687
 4681SOL    HW225677   1.303   4.000   8.747 -0.5539 -0.9674 -1.5296
 4682SOL     OW25678   3.070   1.936  16.099  0.1576 -0.2964  0.2161
 4682SOL    HW125679   3.164   1.933  16.081 -0.8184  0.1471 -4.9695
 4682SOL    HW225680   3.046   1.843  16.106  0.0897 -0.3378 -0.5496
 4683SOL     OW25681   1.436   2.511   7.418 -0.0022  0.1571  0.3190
 4683SOL    HW125682   1.378   2.510   7.494  0.0982 -1.0073  0.3804
 4683SOL    HW225683   1.506   2.456   7.453  0.7392  1.5021  0.9849
 4684SOL     OW25684   1.085   3.601   6.754 -0.1416 -0.0140 -0.3218
 4684SOL    HW125685   0.997   3.563   6.763 -0.2039 -0.1812 -1.5652
 4684SOL    HW225686   1.070   3.678   6.700  1.6655  1.2369  0.9692
 4685SOL     OW25687   0.353   0.384   8.235 -0.2694 -1.1005 -0.5805
 4685SOL    HW125688   0.404   0.441   8.178  0.2462 -1.6330 -0.6532
 4685SOL    HW225689   0.355   0.436   8.316 -1.3656 -1.8345 -0.0815
 4686SOL     OW25690   3.050   4.586  11.956  0.0100  0.3774 -0.3574
 4686SOL    HW125691   3.051   4.549  12.045  2.3339  2.6159  0.5743
 4686SOL    HW225692   2.991   4.659  11.975  0.4358  0.0528  2.2794
 4687SOL     OW25693   4.287   1.351   8.152 -0.3286  0.5815  0.2702
 4687SOL    HW125694   4.304   1.348   8.246 -2.6447 -0.3460  0.6575
 4687SOL    HW225695   4.350   1.413   8.117 -1.2960  2.3091  1.5772
 4688SOL     OW25696   0.073   0.469   4.706 -0.3528  0.4576 -0.4057
 4688SOL    HW125697   0.160   0.487   4.669  0.1955 -1.4956 -0.0737
 4688SOL    HW225698   0.037   0.557   4.706 -0.4125  0.4326  0.8790
 4689SOL     OW25699   2.602   0.374   2.350  0.2699 -0.1135 -0.5651
 4689SOL    HW125700   2.594   0.322   2.270 -0.3663 -2.3025  0.9155
 4689SOL    HW225701   2.579   0.311   2.418  1.7775  0.8789  0.8684
 4690SOL     OW25702   3.767   1.136   7.959  0.3492 -0.3448  0.3034
 4690SOL    HW125703   3.831   1.193   8.002  0.6143  0.8029 -1.6268
 4690SOL    HW225704   3.802   1.055   7.996  0.4319 -0.4848 -0.0781
 4691SOL     OW25705   1.573   4.375   7.999  0.1300  0.1790  0.0792
 4691SOL    HW125706   1.656   4.381   8.047 -0.3329 -0.9149  0.9953
 4691SOL    HW225707   1.506   4.341   8.058  1.3801  0.1808  1.5131
 4692SOL     OW25708   3.319   4.020   3.706 -0.0904  1.0306 -0.2365
 4692SOL    HW125709   3.412   4.040   3.702 -0.6647  3.9374  1.2326
 4692SOL    HW225710   3.300   4.070   3.785  0.3244  0.2714  0.3487
 4693SOL     OW25711   3.722   2.463   4.220  0.1625  0.2145  0.5500
 4693SOL    HW125712   3.636   2.423   4.211  1.4842 -2.7322  0.7508
 4693SOL    HW225713   3.753   2.423   4.138 -3.5846 -1.2188 -0.1819
 4694SOL     OW25714   0.621   1.868  15.931  0.1128  0.0798 -0.4898
 4694SOL    HW125715   0.649   1.832  15.847  1.7256  0.5085 -0.1341
 4694SOL    HW225716   0.536   1.906  15.907  0.5232  0.9680 -0.5222
 4695SOL     OW25717   1.397   0.268   3.979 -0.0719  0.0606 -0.4330
 4695SOL    HW125718   1.379   0.355   3.944  0.3890  0.0068 -0.8044
 4695SOL    HW225719   1.312   0.241   4.013  0.3401  1.1330  1.4592
 4696SOL     OW25720   4.295   3.624   2.774 -0.0865  0.8753 -0.2917
 4696SOL    HW125721   4.378   3.657   2.742  0.5260 -0.0309  0.3612
 4696SOL    HW225722   4.296   3.640   2.869  0.8880  0.2318 -0.1998
 4697SOL     OW25723   2.710   4.256   3.916 -0.5092  0.0118 -0.0434
 4697SOL    HW125724   2.706   4.219   3.828  3.8198 -0.7938  0.0962
 4697SOL    HW225725   2.803   4.274   3.929 -1.0655  3.7075 -1.2050
 4698SOL     OW25726   0.514   2.254   2.650 -0.4311 -0.2437  0.0217
 4698SOL    HW125727   0.478   2.173   2.611  0.7604 -0.1381 -1.3137
 4698SOL    HW225728   0.580   2.277   2.584 -1.3369 -1.1138 -1.2042
 4699SOL     OW25729   3.277   0.570   6.080  0.4097  0.4028  0.7448
 4699SOL    HW125730   3.286   0.559   5.985  2.6024  0.2201  0.9791
 4699SOL    HW225731   3.322   0.655   6.086  0.3477  0.4508  0.5218
 4700SOL     OW25732   1.408   2.192   3.766  0.9313  0.2431  0.9477
 4700SOL    HW125733   1.337   2.129   3.781  0.7926 -0.0614 -1.0337
 4700SOL    HW225734   1.475   2.134   3.803  2.2980  2.2571  1.6143
 4701SOL     OW25735   0.358   4.289   6.155 -0.3656  0.0590 -0.6592
 4701SOL    HW125736   0.401   4.351   6.215 -0.7282 -1.0925  0.7647
 4701SOL    HW225737   0.330   4.344   6.081 -1.0582 -0.5338 -0.8327
 4702SOL     OW25738   4.570   4.517   8.188  0.5608 -0.2110  0.3615
 4702SOL    HW125739   4.622   4.508   8.108  0.4130  1.5439  0.0593
 4702SOL    HW225740   4.496   4.569   8.158  0.3993 -0.6880 -0.0662
 4703SOL     OW25741   2.008   3.897   2.777 -0.4058 -0.2409 -0.0321
 4703SOL    HW125742   2.024   3.970   2.837 -2.4166  0.0775  0.1083
 4703SOL    HW225743   1.920   3.911   2.741 -1.2595 -0.7378  1.8521
 4704SOL     OW25744   2.568   1.657   2.265 -0.4400  0.2615 -0.7127
 4704SOL    HW125745   2.544   1.650   2.358  0.4791 -2.5512 -0.6784
 4704SOL    HW225746   2.487   1.633   2.219 -0.9350 -0.0585  0.3118
 4705SOL     OW25747   3.374   4.307  14.025 -0.2336  0.0048  0.2071
 4705SOL    HW125748   3.404   4.370  13.959 -0.9834 -1.8675 -1.9113
 4705SOL    HW225749   3.287   4.275  14.000 -0.1370  0.8598 -1.2547
 4706SOL     OW25750   4.483   1.186   9.713  0.1922 -0.7979  0.3047
 4706SOL    HW125751   4.399   1.151   9.742  0.8899 -2.0603  0.8100
 4706SOL    HW225752   4.492   1.265   9.767  0.2874 -0.7944  0.2853
 4707SOL     OW25753   4.432   1.306   2.002 -0.5300 -0.3316  0.4384
 4707SOL    HW125754   4.388   1.388   2.023 -1.3467 -0.9207  1.0027
 4707SOL    HW225755   4.369   1.255   1.950 -1.1466  1.4077 -0.5203
 4708SOL     OW25756   4.086   2.805   3.212  0.3335 -0.0027  0.4951
 4708SOL    HW125757   4.161   2.752   3.183 -1.3246 -2.8710  1.3803
 4708SOL    HW225758   4.025   2.739   3.245 -0.2164  1.1240  1.7366
 4709SOL     OW25759   1.871   3.648   0.248  0.0609  0.3476 -0.0417
 4709SOL    HW125760   1.783   3.655   0.285 -0.7753 -0.4522 -1.8753
 4709SOL    HW225761   1.854   3.703   0.171  0.8161  0.1199 -0.3611
 4710SOL     OW25762   3.899   3.660   4.633 -0.5409 -0.1194 -0.4728
 4710SOL    HW125763   3.972   3.694   4.582 -0.2136 -1.0225 -0.6000
 4710SOL    HW225764   3.896   3.724   4.704 -0.7004  0.3827 -0.9392
 4711SOL     OW25765   1.459   3.763  10.051 -0.1752 -0.4108 -0.4228
 4711SOL    HW125766   1.412   3.687  10.087 -0.9568  0.8973  1.2929
 4711SOL    HW225767   1.439   3.762   9.958 -2.8836  0.4321  0.1601
 4712SOL     OW25768   2.750   2.029   5.862 -0.2633  0.1812  0.2324
 4712SOL    HW125769   2.775   2.105   5.914  1.1544  0.0490 -0.2611
 4712SOL    HW225770   2.716   1.967   5.928 -0.2582 -1.3851 -1.2303
 4713SOL     OW25771   2.003   1.803   4.404 -0.0379  0.0795  0.1825
 4713SOL    HW125772   1.986   1.821   4.497  1.6236  0.9520  0.3137
 4713SOL    HW225773   1.943   1.733   4.381 -0.0828 -0.4743  2.0051
 4714SOL     OW25774   4.523   0.050   6.116  0.3684 -0.0861 -0.5080
 4714SOL    HW125775   4.616   0.041   6.135 -0.0827 -0.3406  1.5949
 4714SOL    HW225776   4.507   0.132   6.162 -1.6342  0.3745 -2.0120
 4715SOL     OW25777   4.235   0.689  11.997  0.2847 -0.2418  0.4240
 4715SOL    HW125778   4.313   0.706  12.050  1.6201 -2.8347 -0.7350
 4715SOL    HW225779   4.180   0.635  12.054 -1.0050  1.9395  1.2505
 4716SOL     OW25780   2.496   2.645   2.272 -0.2259  0.3318 -0.0470
 4716SOL    HW125781   2.432   2.648   2.201 -0.5143 -2.8134  0.0882
 4716SOL    HW225782   2.466   2.566   2.315  0.7405  0.9313  1.7347
 4717SOL     OW25783   4.517   0.942   6.494  0.4897 -1.2981 -0.0417
 4717SOL    HW125784   4.567   0.875   6.539  0.7555 -1.2583 -0.2778
 4717SOL    HW225785   4.587   0.999   6.461 -0.7728 -0.1108 -0.7124
 4718SOL     OW25786   1.497   3.700   9.283  0.1635  0.4867  0.3259
 4718SOL    HW125787   1.472   3.659   9.201  3.5780  1.0936 -1.0096
 4718SOL    HW225788   1.501   3.794   9.266  4.2995  0.5776  1.6342
 4719SOL     OW25789   0.226   1.819   2.378  0.3033  0.0288 -0.4805
 4719SOL    HW125790   0.140   1.851   2.406  0.8453  0.2180  0.9302
 4719SOL    HW225791   0.226   1.734   2.423  0.1740 -0.0532 -0.6322
 4720SOL     OW25792   1.224   1.803  10.126  0.6798 -0.2661 -0.0238
 4720SOL    HW125793   1.220   1.854  10.045  1.2483 -0.7169 -0.3386
 4720SOL    HW225794   1.307   1.756  10.111 -0.3924 -2.5246  1.0836
 4721SOL     OW25795   3.345   0.516   1.882 -0.1415  0.2367 -0.7403
 4721SOL    HW125796   3.394   0.596   1.902  0.8451 -0.7128  0.5931
 4721SOL    HW225797   3.314   0.496   1.970 -1.0180  0.9186 -0.8862
 4722SOL     OW25798   1.556   1.630   6.677 -0.0241  0.0091  0.3957
 4722SOL    HW125799   1.570   1.537   6.662 -3.0807 -0.3225 -0.5491
 4722SOL    HW225800   1.548   1.632   6.772  2.3507 -1.8790  0.6117
 4723SOL     OW25801   4.333   1.251   6.382  0.3663 -0.1281  0.2482
 4723SOL    HW125802   4.397   1.277   6.447 -0.1970  2.1385 -0.1267
 4723SOL    HW225803   4.295   1.332   6.349  1.1259  0.7958  1.6574
 4724SOL     OW25804   3.447   3.296   3.246 -0.1060 -0.5654 -0.2105
 4724SOL    HW125805   3.536   3.302   3.280  0.2728  1.4867 -1.5173
 4724SOL    HW225806   3.459   3.306   3.151 -0.0557 -2.0743 -0.3542
 4725SOL     OW25807   0.448   3.894   8.090  0.0037 -0.1902  0.7176
 4725SOL    HW125808   0.372   3.837   8.088  1.5739 -2.2619 -0.9061
 4725SOL    HW225809   0.413   3.981   8.105  0.7121 -0.3531  3.4078
 4726SOL     OW25810   4.176   0.723   6.651 -0.3201  0.0215  0.1977
 4726SOL    HW125811   4.222   0.649   6.612  0.5531  0.7294 -0.1107
 4726SOL    HW225812   4.248   0.763   6.699  0.9980 -3.9261  1.5188
 4727SOL     OW25813   4.125   0.610   7.491 -0.3603  0.3970 -0.3437
 4727SOL    HW125814   4.211   0.569   7.501 -0.4599  0.1081 -0.6851
 4727SOL    HW225815   4.142   0.654   7.407 -0.1530 -1.0726 -1.0731
 4728SOL     OW25816   2.285   0.314  14.698  0.6908  0.8633  0.4161
 4728SOL    HW125817   2.278   0.351  14.610  0.8306 -1.7296 -0.7094
 4728SOL    HW225818   2.202   0.340  14.736  1.5073 -0.3111  3.0170
 4729SOL     OW25819   3.026   4.522  15.183  0.3473  0.5384 -0.4700
 4729SOL    HW125820   2.970   4.486  15.115  1.0050 -0.3842 -0.5293
 4729SOL    HW225821   3.107   4.532  15.132  0.9377 -0.2694  0.3143
 4730SOL     OW25822   1.244   3.460   2.909 -0.4594 -0.5437 -0.2626
 4730SOL    HW125823   1.201   3.525   2.964 -0.4857  2.0026 -3.2962
 4730SOL    HW225824   1.173   3.426   2.855  0.9684 -1.8415 -1.3457
 4731SOL     OW25825   4.308   0.753   3.643  0.2470 -0.0394 -0.1746
 4731SOL    HW125826   4.362   0.692   3.594 -0.4799 -0.2712 -0.6794
 4731SOL    HW225827   4.360   0.829   3.617  2.6755 -2.0200 -1.0614
 4732SOL     OW25828   1.323   0.099  15.545  0.5586  0.1683 -0.2178
 4732SOL    HW125829   1.401   0.151  15.530  0.9440 -0.7023 -1.2598
 4732SOL    HW225830   1.252   0.150  15.505  0.8755  1.0301  0.3427
 4733SOL     OW25831   2.473   0.410  11.474 -0.1999  0.2295  0.0578
 4733SOL    HW125832   2.472   0.350  11.399  0.3543  2.4626 -1.7675
 4733SOL    HW225833   2.549   0.460  11.443  0.7881  0.3124  2.6525
 4734SOL     OW25834   4.673   3.278   6.472 -0.5697  0.0590 -0.1294
 4734SOL    HW125835   0.033   3.278   6.484 -0.8656  3.6390  2.1301
 4734SOL    HW225836   4.658   3.371   6.460  3.2904  0.7667  0.5711
 4735SOL     OW25837   1.749   1.150   3.074  0.0104 -0.2843 -0.3254
 4735SOL    HW125838   1.786   1.062   3.079  0.8401  0.1124  0.5004
 4735SOL    HW225839   1.691   1.139   3.150 -0.4951 -0.1348 -0.6848
 4736SOL     OW25840   0.036   3.517   3.154  0.2405 -0.7432 -0.1004
 4736SOL    HW125841   0.077   3.531   3.068  4.3260 -1.8465  1.6938
 4736SOL    HW225842   4.677   3.531   3.141  0.9205  3.1813 -0.6799
 4737SOL     OW25843   1.697   2.561   4.933 -0.4486  0.2106 -0.0870
 4737SOL    HW125844   1.646   2.480   4.930  0.1200 -0.0622 -3.4692
 4737SOL    HW225845   1.711   2.572   4.839  0.9941  0.7457  0.1953
 4738SOL     OW25846   0.302   0.643   9.603 -0.1599 -0.2948  0.2748
 4738SOL    HW125847   0.383   0.593   9.610 -0.4872 -1.1861 -2.3166
 4738SOL    HW225848   0.229   0.581   9.612  0.0905 -0.6698 -0.3064
 4739SOL     OW25849   1.660   3.740  13.422 -0.0745 -0.2890 -0.1482
 4739SOL    HW125850   1.630   3.746  13.513 -1.0824  1.0989 -0.5729
 4739SOL    HW225851   1.750   3.772  13.421  0.0397 -0.6764 -2.6457
 4740SOL     OW25852   3.421   2.284   5.106 -0.2716 -0.5974 -0.5364
 4740SOL    HW125853   3.498   2.274   5.161 -0.0528 -0.3627 -0.8030
 4740SOL    HW225854   3.465   2.297   5.022  0.1464  0.5697 -0.1331
 4741SOL     OW25855   4.629   1.708   7.455 -0.2156 -0.2287 -0.1206
 4741SOL    HW125856   4.713   1.685   7.416 -0.0327  0.4820 -0.1549
 4741SOL    HW225857   4.581   1.642   7.405  1.1844 -0.6463 -0.9030
 4742SOL     OW25858   2.740   0.582   7.004 -0.3337  0.0179  0.1875
 4742SOL    HW125859   2.672   0.522   7.036 -0.3215 -0.6523 -1.0500
 4742SOL    HW225860   2.802   0.593   7.076 -1.2961 -0.6418  1.1276
 4743SOL     OW25861   0.865   2.232   6.217 -0.0550 -0.2367 -0.0496
 4743SOL    HW125862   0.939   2.203   6.163  0.4640 -0.7562  0.9378
 4743SOL    HW225863   0.788   2.227   6.161  0.0464  1.1372 -0.3073
 4744SOL     OW25864   1.556   1.043   7.601  0.6302 -0.3286 -0.0504
 4744SOL    HW125865   1.521   0.995   7.676  0.5770 -0.7007 -0.3128
 4744SOL    HW225866   1.490   1.009   7.540  3.8626 -0.2174 -3.6587
 4745SOL     OW25867   0.252   1.224   3.929 -0.1597  0.2069 -0.6310
 4745SOL    HW125868   0.259   1.186   3.841 -0.4679  0.5742 -0.8153
 4745SOL    HW225869   0.312   1.298   3.915 -1.7722  1.5175 -0.6316
 4746SOL     OW25870   3.545   1.344   1.637  0.0325  0.1006 -0.0900
 4746SOL    HW125871   3.600   1.419   1.613  0.5550  0.1144  1.1694
 4746SOL    HW225872   3.584   1.325   1.722 -1.5199 -0.1063  0.5714
 4747SOL     OW25873   1.994   0.262   3.299 -0.5804  0.3243  0.3277
 4747SOL    HW125874   1.910   0.294   3.264 -1.5057 -2.2822  0.1650
 4747SOL    HW225875   2.009   0.317   3.375  1.7790  0.3829 -0.1909
 4748SOL     OW25876   4.451   2.543   2.714 -0.2757  0.1841  0.3582
 4748SOL    HW125877   4.517   2.525   2.781  0.5478 -1.0910 -0.7893
 4748SOL    HW225878   4.494   2.582   2.637 -2.0898 -0.5689 -1.0296
 4749SOL     OW25879   3.731   0.170  15.660 -0.0338  0.0620 -0.0952
 4749SOL    HW125880   3.711   0.081  15.688  1.6622 -0.4306 -0.4607
 4749SOL    HW225881   3.826   0.162  15.663  0.2382  2.9809 -0.9797
 4750SOL     OW25882   2.145   3.064  10.793 -0.1475  0.2018  0.3392
 4750SOL    HW125883   2.078   3.070  10.861 -0.8774  2.6264 -0.5882
 4750SOL    HW225884   2.229   3.070  10.839  0.4501  0.9574 -0.8401
 4751SOL     OW25885   1.094   0.047   9.229 -0.1263 -0.3608  0.2591
 4751SOL    HW125886   1.006   0.074   9.201 -0.8963 -0.6220  2.3963
 4751SOL    HW225887   1.083   4.696   9.190 -2.1120  0.4059 -0.8682
 4752SOL     OW25888   1.186   2.272   8.548 -0.0889 -0.1783  0.2994
 4752SOL    HW125889   1.257   2.336   8.552 -0.4571  0.3323 -1.4159
 4752SOL    HW225890   1.156   2.289   8.459 -2.6970  0.0002  1.2319
 4753SOL     OW25891   0.689   2.687   1.408  0.1242 -0.7001  0.1374
 4753SOL    HW125892   0.719   2.709   1.320 -1.8788 -1.7619 -0.8207
 4753SOL    HW225893   0.733   2.751   1.463  1.7323 -1.3343 -0.4088
 4754SOL     OW25894   0.488   1.330   7.789 -0.0118  0.5052  0.1271
 4754SOL    HW125895   0.475   1.247   7.834  0.9099  0.3532  0.1012
 4754SOL    HW225896   0.417   1.388   7.818 -1.8157 -1.1699 -0.9832
 4755SOL     OW25897   3.524   4.232  16.938 -0.6179  0.3160  0.0061
 4755SOL    HW125898   3.550   4.292  16.869  1.6234 -2.4386 -1.5485
 4755SOL    HW225899   3.524   4.144  16.901  0.3671  1.0364 -1.6775
 4756SOL     OW25900   1.149   1.728   3.811 -0.1075  0.1424  0.4971
 4756SOL    HW125901   1.237   1.699   3.833 -0.1296 -1.3274 -1.3684
 4756SOL    HW225902   1.103   1.650   3.843 -0.1278  0.9272  2.4074
 4757SOL     OW25903   3.279   1.187  16.142  0.2170 -0.1250 -0.6091
 4757SOL    HW125904   3.284   1.221  16.231  0.1241 -0.0043 -0.6504
 4757SOL    HW225905   3.341   1.114  16.145  1.6440  1.0700 -1.3063
 4758SOL     OW25906   4.604   2.458  13.601 -0.1455 -0.1446 -0.1185
 4758SOL    HW125907   4.679   2.513  13.578  0.5131 -2.4157 -3.4362
 4758SOL    HW225908   4.540   2.526  13.621  1.0578  0.3516  1.9846
 4759SOL     OW25909   1.405   1.923   3.338  0.3194  0.2587  0.2416
 4759SOL    HW125910   1.321   1.879   3.323 -0.5137  1.2578  2.0620
 4759SOL    HW225911   1.428   1.897   3.427  2.6988  3.2978  0.4984
 4760SOL     OW25912   3.608   2.067  10.837  0.1128 -0.6150  0.1619
 4760SOL    HW125913   3.546   2.028  10.775 -1.0250 -0.9724  1.5423
 4760SOL    HW225914   3.641   2.146  10.794 -2.1184 -0.4415 -1.2272
 4761SOL     OW25915   0.104   4.207   9.430 -0.1600 -0.1345 -0.8026
 4761SOL    HW125916   0.145   4.278   9.380  2.7656  0.0683  1.8884
 4761SOL    HW225917   0.080   4.145   9.361 -1.3105 -0.0797 -0.4353
 4762SOL     OW25918   2.787   1.892   0.391 -0.1144 -0.2333 -0.8445
 4762SOL    HW125919   2.859   1.911   0.452 -2.2528  2.0737  0.9502
 4762SOL    HW225920   2.814   1.808   0.352 -1.5643 -0.9685 -0.2525
 4763SOL     OW25921   1.929   0.241  14.995  0.4456 -0.2709 -0.2197
 4763SOL    HW125922   1.992   0.171  14.977  2.3251  1.3332  0.1787
 4763SOL    HW225923   1.853   0.197  14.956  1.1938 -0.7198 -1.1829
 4764SOL     OW25924   4.266   1.721  14.378  0.4125 -0.2465 -0.2366
 4764SOL    HW125925   4.253   1.797  14.323  1.5718  0.5219  0.5393
 4764SOL    HW225926   4.362   1.712  14.384  0.3793  0.0183  0.7068
 4765SOL     OW25927   1.065   0.486   4.087  0.0581  0.0863 -0.3669
 4765SOL    HW125928   1.093   0.497   3.996  0.1295  1.6351 -0.1527
 4765SOL    HW225929   1.033   0.573   4.112 -0.1122  0.0621 -0.5005
 4766SOL     OW25930   1.041   3.761  11.037 -0.5389 -0.2547  0.8609
 4766SOL    HW125931   1.031   3.728  10.948 -0.9435  1.9613  0.0788
 4766SOL    HW225932   0.984   3.698  11.080 -1.2560 -0.7201 -0.7813
 4767SOL     OW25933   2.430   1.852  17.465  0.2904 -0.0297  0.2935
 4767SOL    HW125934   2.499   1.919  17.465 -1.1639  1.4642  1.4351
 4767SOL    HW225935   2.418   1.825  17.374 -1.3725 -0.9608  0.7976
 4768SOL     OW25936   0.320   3.618   3.626 -0.3175 -0.0481 -0.3613
 4768SOL    HW125937   0.401   3.659   3.598  0.3254  0.2219  1.8911
 4768SOL    HW225938   0.336   3.618   3.721 -2.1084 -0.4053 -0.0392
 4769SOL     OW25939   4.547   1.019   9.084 -0.0062 -0.4700  0.1984
 4769SOL    HW125940   4.628   1.070   9.096  0.0090 -0.3355 -0.5032
 4769SOL    HW225941   4.509   1.068   9.011  0.1676  0.7898  0.9360
 4770SOL     OW25942   4.084   1.743  16.928 -0.0484  0.1842 -0.0303
 4770SOL    HW125943   4.106   1.664  16.977 -2.5721 -0.4982  0.0187
 4770SOL    HW225944   4.096   1.813  16.992 -1.5100  0.2420  0.1697
 4771SOL     OW25945   0.492   0.409  14.086  0.5789 -0.2293  0.3513
 4771SOL    HW125946   0.499   0.429  14.180  2.7403  1.5196 -0.1758
 4771SOL    HW225947   0.460   0.494  14.054  1.8739  0.1294  0.0053
 4772SOL     OW25948   2.982   3.892   9.884  0.0465  0.0201 -0.2764
 4772SOL    HW125949   2.953   3.841   9.960 -0.2693  0.1245 -0.3303
 4772SOL    HW225950   2.912   3.956   9.872 -0.4463 -0.4380  0.1624
 4773SOL     OW25951   0.680   1.066   4.272 -0.1477 -0.2946  0.1078
 4773SOL    HW125952   0.753   1.040   4.215 -0.0574  0.8655 -0.2945
 4773SOL    HW225953   0.672   1.159   4.249 -0.3383 -0.0232  1.2788
 4774SOL     OW25954   3.257   0.855  10.235 -0.0190  0.2471 -0.6525
 4774SOL    HW125955   3.302   0.818  10.311 -1.6332 -0.4574 -0.0407
 4774SOL    HW225956   3.180   0.883  10.284 -0.4976  1.9931 -2.3903
 4775SOL     OW25957   1.184   1.984   9.609 -0.7977  0.0737  0.6374
 4775SOL    HW125958   1.214   1.895   9.590 -1.1302 -0.0460  0.6705
 4775SOL    HW225959   1.189   1.973   9.704 -0.3116  0.6520  0.6748
 4776SOL     OW25960   4.289   0.584   5.928  0.7373 -0.0195 -0.2987
 4776SOL    HW125961   4.372   0.629   5.943 -0.3433  1.1567  2.1175
 4776SOL    HW225962   4.284   0.540   6.013  0.4068  0.6645  0.0320
 4777SOL     OW25963   1.374   1.338   3.224  0.2723  0.1828 -0.4011
 4777SOL    HW125964   1.298   1.287   3.196  1.5319 -2.2824  0.6789
 4777SOL    HW225965   1.355   1.427   3.193  2.2148  0.7148 -0.0469
 4778SOL     OW25966   2.437   3.686   9.455 -0.4236 -1.1408 -0.4544
 4778SOL    HW125967   2.515   3.691   9.400 -0.0537  0.4892  0.2074
 4778SOL    HW225968   2.411   3.595   9.439 -1.0880 -0.7701 -1.4336
 4779SOL     OW25969   3.073   3.036   3.554 -0.3589  0.1668 -0.0951
 4779SOL    HW125970   3.156   3.082   3.542  0.6844 -1.3759  1.2386
 4779SOL    HW225971   3.081   2.957   3.501  1.3093 -0.4809  1.1158
 4780SOL     OW25972   0.097   4.502   9.006  0.4019 -0.6758  0.4394
 4780SOL    HW125973   0.153   4.579   8.996 -0.8719 -0.3104 -3.8519
 4780SOL    HW225974   0.039   4.533   9.076 -0.4196 -1.5635  0.1546
 4781SOL     OW25975   2.604   1.928   7.365 -0.0742 -0.6630 -0.2863
 4781SOL    HW125976   2.529   1.874   7.340  1.5801 -1.7374 -2.9246
 4781SOL    HW225977   2.573   1.955   7.451 -1.5726  1.2060 -1.4300
 4782SOL     OW25978   3.794   4.457  11.922  0.3592 -0.0945 -0.2284
 4782SOL    HW125979   3.789   4.534  11.980  0.2238 -0.2043 -0.0929
 4782SOL    HW225980   3.834   4.404  11.991  2.7094 -0.3476 -1.8011
 4783SOL     OW25981   4.300   4.144   3.784 -0.0951 -0.2308  0.2148
 4783SOL    HW125982   4.276   4.167   3.874 -2.1299 -0.0314 -0.3984
 4783SOL    HW225983   4.392   4.172   3.785  0.0892 -0.8601  0.8237
 4784SOL     OW25984   4.296   0.494  10.937 -0.2017  0.0552  0.4768
 4784SOL    HW125985   4.258   0.517  10.852 -1.8003 -0.1866  1.1283
 4784SOL    HW225986   4.318   0.407  10.903  1.6437 -0.0583  1.9879
 4785SOL     OW25987   3.020   3.145   9.991  0.2133  0.3951 -0.0448
 4785SOL    HW125988   3.057   3.126  10.077  1.1611  2.0340 -0.0973
 4785SOL    HW225989   2.959   3.072   9.981  0.6512  0.3784 -2.4599
 4786SOL     OW25990   1.022   3.863   7.758  0.4621  0.1292 -0.2176
 4786SOL    HW125991   1.096   3.895   7.706 -0.4351  1.9866 -0.3530
 4786SOL    HW225992   1.012   3.780   7.711  0.6219 -0.5672  0.9863
 4787SOL     OW25993   3.753   4.493   5.999  0.7791 -0.7169 -0.1617
 4787SOL    HW125994   3.774   4.490   5.906 -0.8057 -1.4625 -0.4978
 4787SOL    HW225995   3.829   4.446   6.035 -0.0906  0.4324  3.1930
 4788SOL     OW25996   4.392   1.602  10.183 -0.3698 -0.3414 -0.2670
 4788SOL    HW125997   4.400   1.697  10.174 -0.9497 -0.4469 -1.8573
 4788SOL    HW225998   4.365   1.581  10.094  0.9083 -0.9076 -0.5181
 4789SOL     OW25999   1.317   3.541  10.083  0.4549 -0.0576  0.4400
 4789SOL    HW126000   1.302   3.511   9.993 -3.7083  0.1275  1.0613
 4789SOL    HW226001   1.345   3.461  10.129 -1.3431 -0.6542  0.5048
 4790SOL     OW26002   0.435   1.316   4.492 -0.5627 -0.1444  0.3938
 4790SOL    HW126003   0.417   1.222   4.499 -0.9657 -0.2369 -2.0090
 4790SOL    HW226004   0.368   1.349   4.431  1.6346  1.6227 -1.0645
 4791SOL     OW26005   3.957   2.068  15.020 -0.2103  0.1694 -0.3635
 4791SOL    HW126006   4.051   2.060  15.004  0.1662 -0.4356  2.1412
 4791SOL    HW226007   3.934   2.013  15.095 -0.7854  1.4185  0.3821
 4792SOL     OW26008   1.200   0.938   3.431  0.0261 -0.8827 -0.1639
 4792SOL    HW126009   1.263   0.966   3.365 -0.6091  0.2396 -0.2990
 4792SOL    HW226010   1.170   0.856   3.391  0.4927 -0.4400 -1.4159
 4793SOL     OW26011   1.819   2.237   3.866  0.6359 -0.1649 -0.6464
 4793SOL    HW126012   1.745   2.294   3.888  1.6060  0.2550  1.5129
 4793SOL    HW226013   1.861   2.227   3.951 -0.7410 -1.3396 -0.1128
 4794SOL     OW26014   2.836   0.862   4.082  0.0210  0.1811  0.0735
 4794SOL    HW126015   2.766   0.907   4.128 -0.9952  0.5094 -1.7957
 4794SOL    HW226016   2.879   0.821   4.157 -2.1126 -2.1142  0.0620
 4795SOL     OW26017   3.148   2.228   8.984 -0.2679 -0.0765  0.1677
 4795SOL    HW126018   3.197   2.310   8.973  2.1185 -1.5467 -0.2587
 4795SOL    HW226019   3.194   2.186   9.057  0.2928  0.8062  0.3233
 4796SOL     OW26020   1.255   0.885  16.788 -0.4436  0.7954  0.1496
 4796SOL    HW126021   1.259   0.833  16.868  1.0650  2.2468  1.0248
 4796SOL    HW226022   1.342   0.922  16.804  0.0005 -0.4035  0.5275
 4797SOL     OW26023   0.151   3.166   7.948 -0.6745 -0.0002  0.4271
 4797SOL    HW126024   0.165   3.086   7.998 -1.3703  0.0400  0.6903
 4797SOL    HW226025   0.161   3.141   7.857 -2.6318  0.1299  0.1716
 4798SOL     OW26026   2.250   1.579   4.368  0.1871  0.8009  0.3041
 4798SOL    HW126027   2.175   1.602   4.313  0.7531  0.9458 -0.4084
 4798SOL    HW226028   2.215   1.541   4.448  2.5685 -0.9929  0.4576
 4799SOL     OW26029   1.381   3.791   2.750 -0.0004 -0.0056 -0.2327
 4799SOL    HW126030   1.406   3.699   2.748  2.7327  0.7568 -0.3490
 4799SOL    HW226031   1.365   3.796   2.844  0.9436  2.3557 -0.1944
 4800SOL     OW26032   3.344   1.063  15.191 -0.2318 -0.1294  0.8757
 4800SOL    HW126033   3.429   1.055  15.233  0.1418  0.6483  0.2732
 4800SOL    HW226034   3.357   1.049  15.097  1.7220 -0.1830  1.1614
 4801SOL     OW26035   0.294   1.368   2.905 -0.3224  0.4896 -0.4195
 4801SOL    HW126036   0.282   1.313   2.982 -0.4101  0.0595 -0.7411
 4801SOL    HW226037   0.210   1.404   2.878 -1.5471 -1.4751  0.7544
 4802SOL     OW26038   0.786   2.180   3.517  0.4662 -0.9346 -0.2250
 4802SOL    HW126039   0.724   2.194   3.588  0.1371 -0.5473 -0.5905
 4802SOL    HW226040   0.731   2.164   3.440 -0.9887  0.6615  0.4966
 4803SOL     OW26041   3.316   3.909   4.959 -0.1106  0.6478  0.4049
 4803SOL    HW126042   3.269   3.865   4.889  1.0804 -0.5642  0.3651
 4803SOL    HW226043   3.270   3.900   5.043 -0.7837  1.6336  0.1478
 4804SOL     OW26044   0.627   3.597   8.428  0.0651 -0.1691  0.1799
 4804SOL    HW126045   0.626   3.676   8.374 -0.1467 -0.1069  0.2767
 4804SOL    HW226046   0.704   3.550   8.395  0.7902 -0.0948  1.7803
 4805SOL     OW26047   1.947   1.708   7.966  0.4625 -0.4778 -0.9166
 4805SOL    HW126048   1.885   1.742   7.901  1.0142  1.9961 -0.1219
 4805SOL    HW226049   1.910   1.622   7.987 -0.3620 -0.0017 -0.4280
 4806SOL     OW26050   4.233   1.012   8.991  0.5000 -0.5598  0.2130
 4806SOL    HW126051   4.176   1.070   9.041 -1.4784 -0.0258 -2.6317
 4806SOL    HW226052   4.277   0.971   9.065  1.0083 -1.8420 -0.7911
 4807SOL     OW26053   3.524   3.059   2.254  0.4217  0.3792 -0.7492
 4807SOL    HW126054   3.450   2.998   2.257  1.6309 -1.0848 -0.8089
 4807SOL    HW226055   3.477   3.134   2.217 -0.4615 -0.6539 -1.7044
 4808SOL     OW26056   4.156   1.956   3.846  1.2630 -0.4172 -0.7308
 4808SOL    HW126057   4.178   1.870   3.881  0.3793  0.4318  1.9484
 4808SOL    HW226058   4.115   1.988   3.926  1.6333 -1.9062  0.0555
 4809SOL     OW26059   2.863   3.225   8.620 -0.0801 -0.0658 -0.3859
 4809SOL    HW126060   2.959   3.231   8.621 -0.0814  0.3129 -1.9525
 4809SOL    HW226061   2.844   3.157   8.555 -0.0967 -0.3648 -0.0636
 4810SOL     OW26062   1.343   3.858   8.151 -0.1269 -0.4124  0.6186
 4810SOL    HW126063   1.269   3.825   8.099 -0.3008 -0.0422  0.6287
 4810SOL    HW226064   1.415   3.821   8.101  1.0278  2.7676 -0.0970
 4811SOL     OW26065   4.208   1.677   8.422 -0.3623  0.5581 -0.7910
 4811SOL    HW126066   4.155   1.733   8.365  1.4000  2.3806 -0.6553
 4811SOL    HW226067   4.158   1.665   8.503 -1.1145 -2.7591 -1.7593
 4812SOL     OW26068   1.595   1.227   3.329  0.0071 -0.1661 -0.5870
 4812SOL    HW126069   1.516   1.273   3.302  0.8654  1.0991 -0.9328
 4812SOL    HW226070   1.660   1.297   3.326  0.9169 -1.0836 -2.0336
 4813SOL     OW26071   3.273   0.138   7.821  0.2946 -0.2919  0.1500
 4813SOL    HW126072   3.355   0.184   7.837  0.1505 -0.2502  0.7781
 4813SOL    HW226073   3.215   0.203   7.861 -0.5598 -0.9420 -0.0377
 4814SOL     OW26074   3.851   0.573  13.604  0.4770 -0.0256  0.1067
 4814SOL    HW126075   3.846   0.568  13.509 -0.4629 -1.6222  0.2270
 4814SOL    HW226076   3.907   0.649  13.615  0.5158  0.1351 -1.1895
 4815SOL     OW26077   4.307   0.193   5.673  0.6084 -0.1393 -0.7401
 4815SOL    HW126078   4.239   0.144   5.720 -2.4200  4.6015 -0.2024
 4815SOL    HW226079   4.271   0.176   5.586  1.4986 -0.5569 -1.0219
 4816SOL     OW26080   2.013   3.799  10.076 -0.6236  0.0407 -0.0994
 4816SOL    HW126081   1.980   3.885  10.101  0.8482  0.3873  0.6078
 4816SOL    HW226082   2.047   3.811   9.987 -0.2322  0.3471  0.0993
 4817SOL     OW26083   4.499   3.711   9.245  0.1755 -0.4376 -0.1046
 4817SOL    HW126084   4.549   3.788   9.220  2.4519 -0.7843  3.3530
 4817SOL    HW226085   4.540   3.648   9.185  0.6784 -0.0379 -0.1778
 4818SOL     OW26086   4.111   1.904  14.820  0.2943  0.3729  0.5925
 4818SOL    HW126087   4.017   1.898  14.802  0.4933  0.0697 -0.3288
 4818SOL    HW226088   4.126   1.817  14.859 -1.9758  0.1186  0.8816
 4819SOL     OW26089   2.765   1.873  12.047  0.1470 -0.1162  0.2238
 4819SOL    HW126090   2.680   1.830  12.040  0.4543 -0.5198 -0.9607
 4819SOL    HW226091   2.804   1.820  12.116  0.1734  0.4178  0.6184
 4820SOL     OW26092   0.140   2.983   9.722 -0.1029  0.1618 -0.1343
 4820SOL    HW126093   0.132   3.004   9.815 -0.6015  2.0038 -0.6138
 4820SOL    HW226094   0.058   3.017   9.687 -0.1609 -0.0642 -0.2224
 4821SOL     OW26095   2.808   0.335   3.000  0.6902 -0.5382 -0.4504
 4821SOL    HW126096   2.858   0.351   3.080  0.2167  0.3413 -0.3365
 4821SOL    HW226097   2.778   0.247   3.026  0.4107 -0.0981  0.7090
 4822SOL     OW26098   0.488   2.725   9.696  0.0177 -0.7090  0.3991
 4822SOL    HW126099   0.561   2.786   9.685  0.6504 -1.8296 -1.7098
 4822SOL    HW226100   0.435   2.772   9.760  1.6260  1.4083  0.1627
 4823SOL     OW26101   1.156   1.826   3.348  0.0616  0.6324 -0.6611
 4823SOL    HW126102   1.076   1.795   3.307 -1.7614  0.5959  2.9886
 4823SOL    HW226103   1.123   1.854   3.433 -1.1171 -1.2323 -0.5225
 4824SOL     OW26104   4.056   4.277   4.250  0.0639  0.2152  0.1431
 4824SOL    HW126105   3.961   4.284   4.234  0.3469 -0.2815 -1.7181
 4824SOL    HW226106   4.061   4.211   4.319  0.3056  1.1026  0.9794
 4825SOL     OW26107   0.948   3.268   3.742 -0.7133  0.1175  0.0588
 4825SOL    HW126108   0.936   3.227   3.657 -0.7164 -0.4372  0.3292
 4825SOL    HW226109   0.858   3.274   3.776 -0.7000 -0.5892  0.2193
 4826SOL     OW26110   1.528   1.454   9.707  0.0388  0.0011  0.1913
 4826SOL    HW126111   1.570   1.369   9.719 -1.1902 -0.5142  0.8258
 4826SOL    HW226112   1.488   1.458   9.794  0.5408 -0.4311  0.4401
 4827SOL     OW26113   4.455   1.155   5.353  0.3710  0.3429  0.1720
 4827SOL    HW126114   4.385   1.097   5.382 -0.4973  0.2444 -2.0853
 4827SOL    HW226115   4.409   1.180   5.273  0.2459 -1.9168 -0.4692
 4828SOL     OW26116   1.715   2.654   2.985  0.3518 -0.5220  0.1236
 4828SOL    HW126117   1.620   2.663   2.997  0.5229 -0.9990  1.7711
 4828SOL    HW226118   1.746   2.642   3.074  0.1202  2.7765  0.6661
 4829SOL     OW26119   4.100   3.386   5.835 -0.0830 -0.0033 -0.2692
 4829SOL    HW126120   4.034   3.444   5.797  1.6723  1.8974 -0.3683
 4829SOL    HW226121   4.136   3.339   5.761  3.0081  1.6374  0.2022
 4830SOL     OW26122   2.808   2.696   7.008 -0.0150  0.1643 -0.4756
 4830SOL    HW126123   2.900   2.689   7.033 -0.1011  0.2543 -0.1352
 4830SOL    HW226124   2.767   2.717   7.092 -4.5306 -2.2904 -2.0286
 4831SOL     OW26125   0.090   0.964   7.334  0.6799 -0.2467  0.3904
 4831SOL    HW126126   0.041   0.925   7.406 -0.4601 -1.7533 -1.2198
 4831SOL    HW226127   0.023   0.966   7.265  0.4887  2.2543  0.6439
 4832SOL     OW26128   3.002   0.995  14.209  0.3317  0.5730  0.5311
 4832SOL    HW126129   3.050   0.930  14.158 -0.2898  0.0142  0.6533
 4832SOL    HW226130   3.071   1.061  14.204 -0.4746  1.5375  2.2763
 4833SOL     OW26131   2.024   4.289  16.698  0.2806 -0.1623  0.1227
 4833SOL    HW126132   2.058   4.324  16.780 -1.4506  1.3169  0.1872
 4833SOL    HW226133   2.076   4.208  16.697  1.1777  0.3943  1.6026
 4834SOL     OW26134   3.908   3.817   4.847 -0.1297 -0.2128  0.2353
 4834SOL    HW126135   3.935   3.785   4.933  0.3926 -0.5700 -0.0552
 4834SOL    HW226136   3.888   3.908   4.868  0.2811 -0.4027  1.4195
 4835SOL     OW26137   2.678   3.925   3.491  0.0478 -0.3240  0.0956
 4835SOL    HW126138   2.667   4.012   3.530 -1.7784  1.2792 -4.0482
 4835SOL    HW226139   2.772   3.913   3.502 -0.2291  0.0511  2.8070
 4836SOL     OW26140   4.167   3.610   4.439 -0.7756 -0.7076  0.0101
 4836SOL    HW126141   4.237   3.597   4.375  0.4860 -0.3363  1.3143
 4836SOL    HW226142   4.129   3.523   4.446 -1.8600 -0.0874  1.9073
 4837SOL     OW26143   0.957   0.163  12.950 -0.5991 -0.5920 -0.1961
 4837SOL    HW126144   0.967   0.068  12.947  0.2549 -0.5251  0.5445
 4837SOL    HW226145   1.041   0.181  12.908 -1.2064 -1.4462 -1.7451
 4838SOL     OW26146   0.693   0.911  11.626  0.7569  0.3897  0.0872
 4838SOL    HW126147   0.725   0.924  11.537  1.1107 -0.7927  0.0417
 4838SOL    HW226148   0.603   0.944  11.615  1.2053  1.1225 -1.3204
 4839SOL     OW26149   4.157   1.336   4.493 -0.1594 -0.0389  0.1897
 4839SOL    HW126150   4.084   1.385   4.531 -0.5492 -1.8491  1.7703
 4839SOL    HW226151   4.104   1.284   4.432  0.7862  0.7543 -1.2929
 4840SOL     OW26152   1.860   2.831   7.860  0.7983 -0.3779 -0.3465
 4840SOL    HW126153   1.777   2.863   7.824  0.0265 -1.3955  0.5383
 4840SOL    HW226154   1.835   2.782   7.938 -2.7791  2.1268  0.0515
 4841SOL     OW26155   0.087   2.203   9.256 -0.1520 -0.2729 -0.4493
 4841SOL    HW126156   0.026   2.152   9.202 -1.1459 -1.8724  2.1638
 4841SOL    HW226157   0.113   2.273   9.196  0.2848 -0.9810 -1.0892
 4842SOL     OW26158   4.703   4.295   8.669 -0.1023 -0.1607 -0.6494
 4842SOL    HW126159   4.702   4.381   8.627 -0.7839 -0.6122 -1.5824
 4842SOL    HW226160   4.614   4.292   8.704 -0.3733 -0.8315 -1.3925
 4843SOL     OW26161   3.095   0.790   3.549 -0.1192 -0.1415  0.1675
 4843SOL    HW126162   3.073   0.697   3.552 -1.9352  0.2800 -0.4666
 4843SOL    HW226163   3.105   0.815   3.641 -0.0192  0.6757 -0.0604
 4844SOL     OW26164   3.657   4.382   9.468  0.1852 -0.0147  0.3357
 4844SOL    HW126165   3.598   4.439   9.518 -0.4218 -2.6374  2.5978
 4844SOL    HW226166   3.656   4.433   9.387 -0.5947  1.1505  1.0780
 4845SOL     OW26167   1.121   3.323   0.674 -0.4804 -0.6820 -0.2054
 4845SOL    HW126168   1.068   3.288   0.745  1.1868  0.2244  1.4780
 4845SOL    HW226169   1.057   3.317   0.603 -1.6942  0.8715  0.7548
 4846SOL     OW26170   3.422   3.244   3.858  0.0676 -0.2782  0.3694
 4846SOL    HW126171   3.408   3.334   3.829  1.9601  0.1703  0.8868
 4846SOL    HW226172   3.347   3.248   3.917  0.3999  0.6752  0.7261
 4847SOL     OW26173   0.054   0.628   1.165 -0.3516  0.5246 -0.1184
 4847SOL    HW126174   0.067   0.536   1.142  0.1228 -0.1791  3.0672
 4847SOL    HW226175   4.725   0.656   1.099 -0.4902 -0.6157 -0.4700
 4848SOL     OW26176   3.493   0.892   6.545  0.1316  0.2108 -0.1428
 4848SOL    HW126177   3.534   0.964   6.498  0.0837  1.0780  1.1532
 4848SOL    HW226178   3.563   0.826   6.542 -1.6343 -1.6535 -0.7153
 4849SOL     OW26179   4.513   0.021   9.011  0.0965 -0.0332 -0.3142
 4849SOL    HW126180   4.567   0.037   9.089 -0.9501  0.8210  0.2277
 4849SOL    HW226181   4.422   0.029   9.039  0.6957 -0.2907  1.7452
 4850SOL     OW26182   2.015   0.461   6.329 -0.1225 -0.2918 -0.0527
 4850SOL    HW126183   2.035   0.474   6.422 -2.1140  2.7008 -0.0323
 4850SOL    HW226184   2.105   0.447   6.300 -0.1487 -0.5015 -0.0323
 4851SOL     OW26185   0.664   3.785   7.355 -0.9917  0.4559  0.2174
 4851SOL    HW126186   0.728   3.852   7.331 -1.4449  1.1083  0.8245
 4851SOL    HW226187   0.690   3.698   7.325  0.1937  0.2497  1.7931
 4852SOL     OW26188   1.343   0.521   9.679 -0.0494 -0.1940 -0.0530
 4852SOL    HW126189   1.262   0.561   9.713 -1.5798 -2.1259 -1.4407
 4852SOL    HW226190   1.330   0.528   9.585 -0.6671 -0.1670  0.0304
 4853SOL     OW26191   1.046   4.607   7.274 -0.4558  0.4445 -0.2952
 4853SOL    HW126192   1.018   4.626   7.184  0.0927 -1.2292 -0.8171
 4853SOL    HW226193   1.087   4.521   7.262  1.2966  1.5306 -2.0254
 4854SOL     OW26194   4.671   2.215   8.750  0.3039 -0.1990 -0.3256
 4854SOL    HW126195   0.030   2.197   8.757  0.3090  0.1522  0.5139
 4854SOL    HW226196   4.647   2.189   8.839  1.5176  0.0650  0.0893
 4855SOL     OW26197   0.872   0.437   9.984 -0.1264 -0.0653  0.9170
 4855SOL    HW126198   0.816   0.392   9.920  1.1971 -0.2048 -0.1354
 4855SOL    HW226199   0.822   0.427  10.065 -0.9289  1.9458  0.6740
 4856SOL     OW26200   3.662   2.648   0.161 -0.1468  0.3380  0.0976
 4856SOL    HW126201   3.652   2.742   0.180 -0.3957  0.2959  0.1695
 4856SOL    HW226202   3.704   2.605   0.236  0.3964 -1.0161 -0.9805
 4857SOL     OW26203   0.713   1.585   6.069 -0.5890 -0.1787  0.1253
 4857SOL    HW126204   0.760   1.637   6.134  1.1652 -1.6599  0.0231
 4857SOL    HW226205   0.733   1.493   6.089 -0.4028  0.7627  4.1749
 4858SOL     OW26206   2.273   1.151  13.986  0.0800  0.1978  0.5258
 4858SOL    HW126207   2.350   1.093  13.989  1.0488  1.4964  0.6056
 4858SOL    HW226208   2.240   1.136  14.075 -1.1762  1.4992  0.2678
 4859SOL     OW26209   3.686   2.474   6.141  0.7491 -0.3795  0.3874
 4859SOL    HW126210   3.724   2.477   6.228  0.0168 -1.3758  0.7363
 4859SOL    HW226211   3.685   2.380   6.126  0.9055 -0.3675  0.3036
 4860SOL     OW26212   4.227   3.260   9.513  0.1564 -0.1146 -0.0642
 4860SOL    HW126213   4.179   3.320   9.457 -0.4636  0.2078  0.8005
 4860SOL    HW226214   4.303   3.315   9.532 -0.1685  1.1003 -2.3138
 4861SOL     OW26215   1.880   1.142   6.631 -0.4335  0.2665 -0.3679
 4861SOL    HW126216   1.920   1.057   6.613 -0.4492 -0.1243  1.4739
 4861SOL    HW226217   1.793   1.124   6.594 -0.8113 -0.1085  0.6968
 4862SOL     OW26218   3.112   2.733   7.579  0.0095  0.2188  0.3939
 4862SOL    HW126219   3.106   2.791   7.503  1.3201 -0.3732 -0.1664
 4862SOL    HW226220   3.098   2.784   7.659 -0.7913  0.5365  0.0444
 4863SOL     OW26221   1.380   3.924   5.055 -0.1524  0.3924 -0.3709
 4863SOL    HW126222   1.427   3.878   5.124 -0.2111  0.4362 -0.3009
 4863SOL    HW226223   1.298   3.879   5.035 -1.3757  1.3901  2.3199
 4864SOL     OW26224   3.519   1.322   2.158  0.1971 -0.1449  0.7732
 4864SOL    HW126225   3.489   1.231   2.164 -1.3504  0.5765  3.8020
 4864SOL    HW226226   3.603   1.320   2.204  1.1595  0.3017 -0.9350
 4865SOL     OW26227   0.843   4.137   8.432  0.3244 -0.0122  0.5346
 4865SOL    HW126228   0.798   4.112   8.513  1.2072 -0.5666  0.8507
 4865SOL    HW226229   0.927   4.104   8.462  0.6638  0.8803  0.5799
 4866SOL     OW26230   0.066   2.595   0.737 -0.0674 -0.7354  0.2106
 4866SOL    HW126231   0.072   2.501   0.722 -2.5464 -0.9130  0.3871
 4866SOL    HW226232   4.729   2.627   0.682 -0.9882  0.6707  2.2301
 4867SOL     OW26233   1.774   1.525   3.711  1.0240 -0.1480 -0.1284
 4867SOL    HW126234   1.857   1.524   3.663  0.4048  0.6189 -1.1935
 4867SOL    HW226235   1.717   1.572   3.650 -1.4557 -0.4234  1.9655
 4868SOL     OW26236   3.105   1.693  16.745  0.4500 -1.0238  0.0011
 4868SOL    HW126237   3.162   1.681  16.821 -0.3818 -1.1670  0.5973
 4868SOL    HW226238   3.040   1.627  16.769 -1.0190  0.4413 -0.0076
 4869SOL     OW26239   1.851   3.414   9.068  0.1684 -0.2015 -0.0213
 4869SOL    HW126240   1.834   3.497   9.114  0.2262  0.9499 -2.0958
 4869SOL    HW226241   1.806   3.421   8.984 -0.9075 -1.8432  0.4371
 4870SOL     OW26242   1.020   2.780   3.816 -0.7387 -0.3312 -0.0500
 4870SOL    HW126243   1.044   2.719   3.746  1.5703 -0.7431  1.1019
 4870SOL    HW226244   0.925   2.778   3.819 -0.7870 -0.5528 -1.7104
 4871SOL     OW26245   3.564   2.803   1.286 -0.1931  0.4906 -0.2066
 4871SOL    HW126246   3.610   2.781   1.367  1.0853  0.6344 -0.8994
 4871SOL    HW226247   3.561   2.899   1.289 -0.4336  0.4435  1.1592
 4872SOL     OW26248   3.134   0.430   7.651 -0.4900  0.1050  0.3183
 4872SOL    HW126249   3.226   0.421   7.626 -0.4716  2.9256 -0.6929
 4872SOL    HW226250   3.132   0.523   7.627  1.9941 -0.0255 -0.4103
 4873SOL     OW26251   3.423   3.663   9.367 -0.2046 -0.1737 -0.1164
 4873SOL    HW126252   3.448   3.671   9.459  0.9072  0.1307 -0.4395
 4873SOL    HW226253   3.328   3.665   9.379 -0.0636 -0.8493  1.0943
 4874SOL     OW26254   1.560   1.256  16.241 -0.4342 -0.2295 -0.1181
 4874SOL    HW126255   1.546   1.312  16.164  1.2292 -0.9852 -0.9732
 4874SOL    HW226256   1.586   1.178  16.192  2.0835  1.2958 -1.2282
 4875SOL     OW26257   2.942   2.195  11.479  0.3375  0.0916 -0.7324
 4875SOL    HW126258   2.861   2.224  11.521 -0.4433  0.9525 -2.8011
 4875SOL    HW226259   3.001   2.258  11.519  0.9630 -0.9495 -0.0427
 4876SOL     OW26260   2.765   3.665   6.815  0.4258 -0.5388 -0.2298
 4876SOL    HW126261   2.833   3.601   6.831  2.8879  2.1558  0.0609
 4876SOL    HW226262   2.683   3.618   6.830 -1.4728  2.4215 -1.0701
 4877SOL     OW26263   1.241   0.744   5.068  0.1001  0.6032 -0.2010
 4877SOL    HW126264   1.259   0.650   5.061  0.9480  0.6776  0.9885
 4877SOL    HW226265   1.328   0.780   5.050 -0.2739  1.0112 -1.2166
 4878SOL     OW26266   2.218   0.221  15.593 -0.2562 -0.1889 -0.7755
 4878SOL    HW126267   2.253   0.290  15.536  1.4489  0.3465  0.9368
 4878SOL    HW226268   2.297   0.169  15.606  0.2979  0.9203  0.1719
 4879SOL     OW26269   2.218   1.444   3.897 -0.1123  0.0388 -0.2053
 4879SOL    HW126270   2.216   1.500   3.820 -0.6434  0.5025  0.1426
 4879SOL    HW226271   2.128   1.452   3.927  0.1555 -0.6461  0.7908
 4880SOL     OW26272   3.591   0.451   7.379 -0.4945  0.4024 -0.2119
 4880SOL    HW126273   3.657   0.464   7.447 -0.5303 -0.2158 -0.0670
 4880SOL    HW226274   3.586   0.546   7.365 -1.0272  0.3415 -0.4561
 4881SOL     OW26275   2.182   0.121   0.296 -0.0955 -0.8236 -0.3550
 4881SOL    HW126276   2.272   0.093   0.278 -1.1022 -3.0928 -1.8756
 4881SOL    HW226277   2.170   0.210   0.263 -1.0374 -0.1034  1.9821
 4882SOL     OW26278   4.673   1.010  14.008  0.0668  0.2123 -0.6351
 4882SOL    HW126279   4.612   1.026  14.080  1.1758 -0.5333  0.4695
 4882SOL    HW226280   4.649   1.078  13.945  0.4039  1.4398  0.5543
 4883SOL     OW26281   1.827   3.701   6.712  0.8989 -0.0561 -0.1179
 4883SOL    HW126282   1.869   3.768   6.657 -0.9971  1.8760  0.7773
 4883SOL    HW226283   1.784   3.656   6.640 -1.4060  1.0089  0.5832
 4884SOL     OW26284   3.545   0.354   4.876 -0.6961 -0.0146 -0.8775
 4884SOL    HW126285   3.628   0.398   4.859 -1.4013  1.3185 -0.8403
 4884SOL    HW226286   3.569   0.276   4.928  1.3538 -0.2781 -2.2355
 4885SOL     OW26287   1.429   2.330  10.705  0.2498  0.3052  0.3687
 4885SOL    HW126288   1.435   2.367  10.793  2.6272 -0.7038  0.6292
 4885SOL    HW226289   1.423   2.242  10.743 -0.5814  1.4847  2.9389
 4886SOL     OW26290   4.518   1.256   2.348  0.3499  0.2138  0.2512
 4886SOL    HW126291   4.563   1.214   2.275 -2.1365  0.4639 -1.4373
 4886SOL    HW226292   4.458   1.188   2.378  1.6008 -0.0148  2.1757
 4887SOL     OW26293   1.959   1.036  10.051 -0.0168 -0.4580  0.0126
 4887SOL    HW126294   1.912   0.979  10.112  1.0951  0.1002  1.4071
 4887SOL    HW226295   2.051   1.027  10.074  0.3741  1.2502 -0.8432
 4888SOL     OW26296   4.593   0.156  17.391 -0.1712  0.1845  0.3588
 4888SOL    HW126297   4.669   0.100  17.407  0.6565  0.8540 -1.2929
 4888SOL    HW226298   4.539   0.084  17.360  0.9917  0.1478 -1.5816
 4889SOL     OW26299   2.768   1.241   4.715 -0.1826 -0.3824 -0.3459
 4889SOL    HW126300   2.775   1.240   4.620 -0.4616  0.9970 -0.3773
 4889SOL    HW226301   2.751   1.150   4.738  1.0568 -0.3135  0.8362
 4890SOL     OW26302   0.655   4.516   4.115  0.3789  0.1519  0.1617
 4890SOL    HW126303   0.721   4.456   4.081  1.0461 -0.4684  2.5674
 4890SOL    HW226304   0.576   4.466   4.095  0.2918 -0.3433  1.8007
 4891SOL     OW26305   0.251   0.422   4.242 -0.1244  0.4773  0.0988
 4891SOL    HW126306   0.242   0.514   4.267 -0.9332  1.2409 -2.9344
 4891SOL    HW226307   0.165   0.387   4.217  0.0672 -0.0243  0.1553
 4892SOL     OW26308   3.627   1.592   5.838  0.4881  0.1858  0.3251
 4892SOL    HW126309   3.569   1.581   5.913 -0.5952  2.7814 -0.1366
 4892SOL    HW226310   3.665   1.505   5.825 -1.5051 -0.4277 -1.3804
 4893SOL     OW26311   1.521   4.238  15.168  0.3138 -0.5259 -0.2333
 4893SOL    HW126312   1.494   4.278  15.251  1.1321  1.0657 -0.7324
 4893SOL    HW226313   1.435   4.224  15.128 -0.1103 -1.0599  0.8715
 4894SOL     OW26314   2.070   0.005   6.285 -0.1991 -0.4396 -0.2082
 4894SOL    HW126315   1.994   0.039   6.239  0.7580  2.7563  0.5527
 4894SOL    HW226316   2.067   0.044   6.373  3.1783 -0.9408  0.1329
 4895SOL     OW26317   2.559   4.254  13.723  0.5526  0.2608 -0.2642
 4895SOL    HW126318   2.496   4.192  13.760  0.5280 -0.4694 -1.5246
 4895SOL    HW226319   2.626   4.194  13.690  1.4688  0.4501  1.2608
 4896SOL     OW26320   2.736   0.660   6.038  0.1292 -1.0782 -0.2966
 4896SOL    HW126321   2.770   0.573   6.057  0.5439 -0.1955  3.0850
 4896SOL    HW226322   2.658   0.641   5.986 -2.0824  0.7637  2.3028
 4897SOL     OW26323   4.032   3.953   6.719 -0.5150  0.0697  0.0057
 4897SOL    HW126324   3.991   4.002   6.790  2.4077  1.7820  0.4711
 4897SOL    HW226325   4.091   4.016   6.677  1.2795 -1.5502  0.1094
 4898SOL     OW26326   0.413   2.335  16.808  0.4341  0.2797  0.1643
 4898SOL    HW126327   0.479   2.334  16.877 -0.8351 -1.5452  1.3612
 4898SOL    HW226328   0.338   2.356  16.863  0.9824  1.9789  0.2476
 4899SOL     OW26329   4.735   4.710  12.573 -0.6654  0.3310  0.2379
 4899SOL    HW126330   0.071   4.715  12.510 -2.8979 -0.9937 -2.4077
 4899SOL    HW226331   0.038   4.693  12.659  0.4786  3.0542  0.2591
 4900SOL     OW26332   3.675   4.646   6.733 -0.1738  0.1823 -0.2719
 4900SOL    HW126333   3.691   4.586   6.805 -0.4299 -0.4772 -0.7668
 4900SOL    HW226334   3.585   4.669   6.759 -0.5551 -1.0523 -0.4854
 4901SOL     OW26335   0.111   1.494   2.043  0.0391 -0.2217 -0.1200
 4901SOL    HW126336   0.084   1.406   2.018 -1.8946 -0.3927  2.5609
 4901SOL    HW226337   0.206   1.503   2.038  0.4250 -3.1584  1.7449
 4902SOL     OW26338   4.071   3.843   5.511  0.3797 -0.1104 -0.2720
 4902SOL    HW126339   4.074   3.759   5.466 -0.3110 -0.2210 -0.1133
 4902SOL    HW226340   3.996   3.885   5.470  0.5358  1.0592  0.6203
 4903SOL     OW26341   2.732   2.141   9.751  0.3909 -0.2831 -0.3719
 4903SOL    HW126342   2.748   2.215   9.810  0.1164  1.4877 -2.5663
 4903SOL    HW226343   2.645   2.162   9.718  0.2038 -2.2635 -1.1742
 4904SOL     OW26344   3.964   0.383  12.823  0.6043  0.2780 -0.0117
 4904SOL    HW126345   3.913   0.368  12.903  0.4693  2.1933  0.2714
 4904SOL    HW226346   4.052   0.368  12.857  0.9262  0.0089 -0.9668
 4905SOL     OW26347   2.987   2.385   0.691  0.1833  0.9797 -0.2227
 4905SOL    HW126348   3.005   2.329   0.766  1.1025 -0.5235 -1.5709
 4905SOL    HW226349   3.017   2.472   0.716 -1.5156  1.2143  0.9611
 4906SOL     OW26350   0.737   1.409   1.173 -0.0366 -0.3679  0.4418
 4906SOL    HW126351   0.710   1.424   1.083 -1.5071 -1.0646  0.7772
 4906SOL    HW226352   0.832   1.420   1.163  0.0737  0.2471  2.0644
 4907SOL     OW26353   3.005   4.223  14.786  0.0000  0.1143 -0.4988
 4907SOL    HW126354   3.057   4.303  14.782 -1.4598  1.0087 -1.5223
 4907SOL    HW226355   3.049   4.171  14.718  0.1146  2.5474 -2.3088
 4908SOL     OW26356   2.331   0.068   4.233  0.7751  0.4182  0.1191
 4908SOL    HW126357   2.244   0.041   4.260 -0.1006  2.1673 -0.9469
 4908SOL    HW226358   2.381   0.004   4.283  2.0008  1.3526  0.0998
 4909SOL     OW26359   3.147   0.510   5.122 -0.7951  0.0251  0.2898
 4909SOL    HW126360   3.076   0.470   5.072 -0.0711  0.3023 -0.9672
 4909SOL    HW226361   3.206   0.538   5.052 -1.7876  2.0237  0.2555
 4910SOL     OW26362   0.378   2.540   5.111 -0.2535  0.2381 -0.3579
 4910SOL    HW126363   0.416   2.475   5.169  0.3731  0.5382 -0.4359
 4910SOL    HW226364   0.458   2.565   5.067 -0.9950  3.1775 -0.0415
 4911SOL     OW26365   2.279   3.028   3.250  0.3381 -0.1827  0.1652
 4911SOL    HW126366   2.255   3.006   3.160  3.1602 -0.3550 -0.5401
 4911SOL    HW226367   2.370   2.999   3.254  0.9407  1.2588 -3.4292
 4912SOL     OW26368   1.538   1.862  16.152  0.3459 -0.9001 -0.2169
 4912SOL    HW126369   1.529   1.947  16.109 -0.3045 -0.5677  0.5591
 4912SOL    HW226370   1.445   1.838  16.158  0.1210 -0.1243 -0.6966
 4913SOL     OW26371   2.218   2.611  14.819 -0.4205  0.2610  0.2497
 4913SOL    HW126372   2.226   2.547  14.890  0.1010  0.3204  0.2453
 4913SOL    HW226373   2.247   2.687  14.870  0.3298  0.6918 -0.8319
 4914SOL     OW26374   3.343   1.459   7.099 -0.1458  0.0414  0.1972
 4914SOL    HW126375   3.308   1.512   7.171  0.4042  1.4947 -0.6009
 4914SOL    HW226376   3.372   1.379   7.142  1.3102  0.1505 -0.5825
 4915SOL     OW26377   2.779   0.206   1.667 -0.2572  0.0695 -0.0760
 4915SOL    HW126378   2.862   0.240   1.634 -0.3368  1.2669  0.9380
 4915SOL    HW226379   2.757   0.285   1.716  1.8745  0.0479  0.9182
 4916SOL     OW26380   0.203   3.510  13.379 -0.1255 -0.1522  0.5597
 4916SOL    HW126381   0.153   3.434  13.349 -0.3587 -1.0459  3.1943
 4916SOL    HW226382   0.202   3.507  13.475 -1.7024 -0.3236  0.5321
 4917SOL     OW26383   0.762   2.230   2.556 -0.1896 -0.4630  0.3108
 4917SOL    HW126384   0.822   2.225   2.631  0.7647 -0.7832 -0.4690
 4917SOL    HW226385   0.763   2.325   2.541 -2.9551 -0.5288 -0.2743
 4918SOL     OW26386   0.710   0.452  12.235  0.8546 -0.0154 -0.2880
 4918SOL    HW126387   0.645   0.388  12.207  0.1308  0.4247  0.4174
 4918SOL    HW226388   0.785   0.435  12.177  1.1306 -0.5507  0.2329
 4919SOL     OW26389   2.588   0.907   2.787  0.4724  0.2157  0.3207
 4919SOL    HW126390   2.680   0.892   2.810  0.4830  1.6777  1.2163
 4919SOL    HW226391   2.546   0.919   2.872 -0.2211 -0.2647  0.0457
 4920SOL     OW26392   1.264   0.768   1.666  0.0285 -0.1722  0.4635
 4920SOL    HW126393   1.317   0.756   1.745  2.5499 -1.4221 -1.4038
 4920SOL    HW226394   1.195   0.815   1.712 -0.8230 -0.8176 -0.1444
 4921SOL     OW26395   0.602   2.165   3.952 -0.2917 -0.7485  0.5690
 4921SOL    HW126396   0.676   2.223   3.972 -0.6729 -0.5718  1.4605
 4921SOL    HW226397   0.628   2.098   4.014  0.9246 -0.3029  0.5297
 4922SOL     OW26398   0.466   4.285   5.782  0.3739  0.2729 -0.0183
 4922SOL    HW126399   0.496   4.285   5.691  0.8025 -0.8000  0.1242
 4922SOL    HW226400   0.383   4.237   5.773  2.2993 -2.7433 -1.7962
 4923SOL     OW26401   2.890   2.044   9.537  0.0088  1.0136 -0.3375
 4923SOL    HW126402   2.836   2.092   9.600  0.6218  1.2979 -0.0284
 4923SOL    HW226403   2.974   2.035   9.581 -0.4171  0.4820  0.3567
 4924SOL     OW26404   0.704   3.678  14.365 -0.3860 -0.0520  0.4216
 4924SOL    HW126405   0.705   3.588  14.396  2.2300  0.3944  1.6606
 4924SOL    HW226406   0.640   3.721  14.421  0.2888  0.9345  0.4542
 4925SOL     OW26407   1.163   1.585   8.851  0.2153 -0.0348 -0.6442
 4925SOL    HW126408   1.109   1.578   8.772 -1.0391 -1.7774  0.3762
 4925SOL    HW226409   1.091   1.593   8.913 -0.2620 -3.6875 -0.7049
 4926SOL     OW26410   1.006   1.428   9.410 -0.2448  0.3821 -0.2505
 4926SOL    HW126411   1.013   1.524   9.404 -0.1546  0.6130  3.7637
 4926SOL    HW226412   1.036   1.404   9.322 -0.1555 -0.6825  0.0714
 4927SOL     OW26413   2.881   0.025   4.714 -0.1502 -0.2907  0.1846
 4927SOL    HW126414   2.895   0.027   4.619  0.8098 -1.1710  0.3018
 4927SOL    HW226415   2.811   0.089   4.726 -0.9387 -1.4694  1.7892
 4928SOL     OW26416   1.896   0.954   9.297 -0.2864 -0.6905  0.5199
 4928SOL    HW126417   1.877   0.941   9.389 -0.8956 -0.1230  0.4715
 4928SOL    HW226418   1.820   0.913   9.254  0.4244  0.7403 -2.1277
 4929SOL     OW26419   3.904   2.096   9.489  0.3157 -0.4480  0.2197
 4929SOL    HW126420   3.934   2.011   9.520  2.0106  0.0170 -0.1463
 4929SOL    HW226421   3.886   2.062   9.401 -3.4790  0.5336  0.6204
 4930SOL     OW26422   3.671   3.311   4.468  0.3175 -0.1325 -0.0967
 4930SOL    HW126423   3.588   3.291   4.511 -0.0998 -2.3133 -1.9315
 4930SOL    HW226424   3.721   3.229   4.467  1.4288  0.5389  0.2305
 4931SOL     OW26425   1.374   0.043   5.840 -0.2606  0.1344 -0.9542
 4931SOL    HW126426   1.385   4.726   5.919 -3.2774  1.0620  0.0524
 4931SOL    HW226427   1.435   0.000   5.780 -0.4652 -1.3712 -0.0814
 4932SOL     OW26428   0.601   1.029   1.747 -0.5245  0.2116  0.3294
 4932SOL    HW126429   0.534   1.091   1.776 -0.0213 -1.3874  4.8837
 4932SOL    HW226430   0.591   0.960   1.813 -0.0532  1.0152  1.2410
 4933SOL     OW26431   3.490   2.063  13.544  0.5991 -0.6325 -0.2101
 4933SOL    HW126432   3.516   2.003  13.614  2.1189  0.3526  0.0864
 4933SOL    HW226433   3.576   2.102  13.529  0.8575 -0.6026  1.2951
 4934SOL     OW26434   2.632   3.602  16.944 -0.3143  0.5234 -0.2074
 4934SOL    HW126435   2.597   3.674  16.891  0.5078 -1.1594 -3.0671
 4934SOL    HW226436   2.573   3.535  16.909  1.0930 -0.0055 -1.5861
 4935SOL     OW26437   1.482   4.556  11.493 -0.1032  0.4672  0.2138
 4935SOL    HW126438   1.536   4.546  11.414  2.5494 -1.0857  2.2203
 4935SOL    HW226439   1.510   4.637  11.535 -1.3281  0.5256  0.9313
 4936SOL     OW26440   1.958   3.312   3.077 -0.3001  0.2814 -0.8119
 4936SOL    HW126441   2.010   3.383   3.040 -1.3182  1.1999 -0.4948
 4936SOL    HW226442   1.987   3.318   3.168  2.4273  2.0318 -1.7940
 4937SOL     OW26443   1.541   3.582   4.245  0.4520 -0.5121 -0.2604
 4937SOL    HW126444   1.617   3.585   4.187 -0.1238 -1.7612 -1.0640
 4937SOL    HW226445   1.578   3.569   4.332  1.9119  3.0921 -0.3221
 4938SOL     OW26446   1.497   2.453   0.664 -0.1649 -0.4238 -0.3335
 4938SOL    HW126447   1.468   2.365   0.640  1.7371 -1.2997  0.5469
 4938SOL    HW226448   1.521   2.489   0.579  1.4260 -0.2406  0.2036
 4939SOL     OW26449   1.867   2.797   2.159  0.3055 -0.2151  0.0407
 4939SOL    HW126450   1.874   2.722   2.218  2.2706  0.5395  0.7383
 4939SOL    HW226451   1.953   2.835   2.146 -0.2633  0.5919 -1.3816
 4940SOL     OW26452   1.612   1.830  11.356  0.1142  0.3966  0.0094
 4940SOL    HW126453   1.670   1.876  11.418 -0.0554 -2.2324  2.1413
 4940SOL    HW226454   1.591   1.748  11.402 -0.9634  0.7548  0.1565
 4941SOL     OW26455   0.881   0.438  12.516  0.3389  0.2422  0.2551
 4941SOL    HW126456   0.878   0.509  12.452 -0.9208 -1.4008 -1.5102
 4941SOL    HW226457   0.818   0.372  12.486  0.2132  0.6583 -0.3829
 4942SOL     OW26458   4.592   2.592   3.891 -0.9300  0.4723  0.4577
 4942SOL    HW126459   4.637   2.597   3.975 -0.9010  3.2685  0.2980
 4942SOL    HW226460   4.556   2.504   3.893  0.7485 -0.2440 -1.7372
 4943SOL     OW26461   3.622   2.663  13.720 -0.1204 -0.7221 -0.6137
 4943SOL    HW126462   3.632   2.584  13.773  2.1102  0.8065  1.2432
 4943SOL    HW226463   3.535   2.656  13.680 -1.4379  0.6804  2.0255
 4944SOL     OW26464   1.760   3.928   0.417  0.5290  0.5572  0.1382
 4944SOL    HW126465   1.789   3.844   0.453  0.3250 -0.6935 -2.6205
 4944SOL    HW226466   1.791   3.997   0.476 -2.0961  1.4799  0.4270
 4945SOL     OW26467   0.081   0.967   6.866  0.0027  0.5473  0.1313
 4945SOL    HW126468   0.009   0.917   6.830 -0.4127  2.0137 -1.0789
 4945SOL    HW226469   0.136   0.990   6.790  1.1736 -2.7202 -0.0158
 4946SOL     OW26470   1.540   2.429  16.653 -0.1141  0.7260 -0.3652
 4946SOL    HW126471   1.456   2.403  16.691  0.7118 -0.0098  0.9402
 4946SOL    HW226472   1.516   2.426  16.560  0.4879 -0.9308 -0.4593
 4947SOL     OW26473   4.314   1.147   3.011 -0.4290 -0.6355 -0.1253
 4947SOL    HW126474   4.264   1.228   2.997  2.5350  1.0726 -0.8889
 4947SOL    HW226475   4.264   1.081   2.964 -0.8594 -0.9221  0.7335
 4948SOL     OW26476   3.173   1.749   6.907 -0.4987 -0.2923  0.0065
 4948SOL    HW126477   3.204   1.659   6.904 -1.0827 -0.4639 -0.9434
 4948SOL    HW226478   3.160   1.761   7.001 -1.9459  2.0664 -0.4877
 4949SOL     OW26479   4.136   2.809   6.633  0.2482  0.4250  0.1223
 4949SOL    HW126480   4.111   2.738   6.573  0.5793 -0.5969  1.1881
 4949SOL    HW226481   4.215   2.836   6.586  0.8823 -1.5410  0.0403
 4950SOL     OW26482   3.677   2.076  17.736 -0.7833 -0.4293  0.0382
 4950SOL    HW126483   3.701   2.141   0.063 -0.6843 -0.3818 -0.0460
 4950SOL    HW226484   3.692   1.993   0.044 -0.2815 -0.0375  0.5636
 4951SOL     OW26485   2.482   3.983   2.950 -0.1517 -0.6547 -0.0249
 4951SOL    HW126486   2.518   4.015   3.033 -0.7215 -0.0992  0.0090
 4951SOL    HW226487   2.531   4.044   2.894  0.2193 -0.1790  0.8264
 4952SOL     OW26488   3.152   3.278   8.730 -0.0278  0.2493  0.5682
 4952SOL    HW126489   3.242   3.298   8.706  0.1953  1.3764  2.3649
 4952SOL    HW226490   3.115   3.366   8.725 -0.8247 -0.0682  0.8268
 4953SOL     OW26491   3.205   3.576   4.030 -0.1035 -0.0062  0.3949
 4953SOL    HW126492   3.209   3.481   4.022 -2.2564  0.0823 -1.9955
 4953SOL    HW226493   3.152   3.595   3.952  0.7252  1.4522  0.1909
 4954SOL     OW26494   0.216   0.439   5.290 -0.2150 -0.9896 -0.4044
 4954SOL    HW126495   0.180   0.468   5.206  1.6477 -2.4509 -1.6933
 4954SOL    HW226496   0.203   0.522   5.335 -0.8340 -1.5854  0.5302
 4955SOL     OW26497   0.952   4.018  17.511 -0.3807  0.0984  0.6126
 4955SOL    HW126498   0.876   4.019  17.568  0.9433  1.2436  2.3647
 4955SOL    HW226499   1.002   4.092  17.547 -1.0146  0.7316  0.1857
 4956SOL     OW26500   3.898   3.569   3.161  0.1237 -0.3084 -0.1758
 4956SOL    HW126501   3.891   3.488   3.111  0.5005 -1.1122  1.0722
 4956SOL    HW226502   3.891   3.517   3.241 -0.6323 -0.2780 -0.2163
 4957SOL     OW26503   0.464   3.039  13.579  0.3505 -0.0511 -0.1234
 4957SOL    HW126504   0.402   3.061  13.510 -0.6759  0.2772  0.8935
 4957SOL    HW226505   0.546   3.046  13.531  0.3295 -2.6394 -0.5673
 4958SOL     OW26506   0.923   2.244   5.168 -0.6337 -0.0902 -0.0930
 4958SOL    HW126507   0.967   2.293   5.237  0.4588  1.4182 -1.8860
 4958SOL    HW226508   0.983   2.247   5.094  0.2781 -0.8887  0.6185
 4959SOL     OW26509   1.041   2.286  15.973  0.0729 -0.1096 -0.3646
 4959SOL    HW126510   1.055   2.378  15.997 -2.2039  0.0141  0.4395
 4959SOL    HW226511   0.957   2.272  16.017  0.0158  1.1442 -0.0653
 4960SOL     OW26512   1.742   1.816   7.447 -0.1240 -0.7307 -0.1777
 4960SOL    HW126513   1.815   1.878   7.453 -0.5488  0.0012 -2.5313
 4960SOL    HW226514   1.720   1.823   7.354  0.0276 -0.0339 -0.1662
 4961SOL     OW26515   1.324   3.106   9.170 -0.6909 -0.3854  0.0298
 4961SOL    HW126516   1.326   3.014   9.193 -1.5781 -0.2399  0.6747
 4961SOL    HW226517   1.285   3.145   9.248 -0.0956 -0.2829  0.2695
 4962SOL     OW26518   2.957   1.516   2.544  0.0835 -0.3084  0.2226
 4962SOL    HW126519   2.923   1.596   2.502  1.6354 -1.3239 -2.9510
 4962SOL    HW226520   2.903   1.449   2.504 -0.9995  0.9524 -0.4432
 4963SOL     OW26521   4.712   4.703   5.405  0.3850 -0.1036  0.2727
 4963SOL    HW126522   0.000   4.720   5.496 -1.8995 -1.8606  1.1960
 4963SOL    HW226523   4.618   4.709   5.423 -0.0967  1.2976 -2.6066
 4964SOL     OW26524   2.279   4.679   2.952  0.1372 -0.5789 -0.0462
 4964SOL    HW126525   2.273   0.020   3.010  1.1805 -0.5191 -0.0281
 4964SOL    HW226526   2.373   4.665   2.943  0.0592 -0.9337 -0.3503
 4965SOL     OW26527   1.552   2.431  15.432 -0.7897 -0.5366 -0.6384
 4965SOL    HW126528   1.560   2.369  15.359 -0.1980 -1.0946 -0.0926
 4965SOL    HW226529   1.545   2.376  15.510 -1.8764 -1.0535 -1.0906
 4966SOL     OW26530   1.465   2.102   9.418 -0.6134 -0.6118 -0.7601
 4966SOL    HW126531   1.531   2.096   9.487 -0.5159  0.1705 -0.7904
 4966SOL    HW226532   1.446   2.008   9.426 -1.4262 -0.2167  1.9355
 4967SOL     OW26533   0.967   3.587   0.030  0.1984  0.4872  0.0634
 4967SOL    HW126534   1.029   3.535   0.081 -0.0473  0.0927 -0.0440
 4967SOL    HW226535   1.027   3.643  17.719  0.6540 -0.1483 -0.0995
 4968SOL     OW26536   1.239   3.051   3.593  0.6589  0.2361 -0.0967
 4968SOL    HW126537   1.258   2.976   3.649 -0.6001 -0.4686 -0.6125
 4968SOL    HW226538   1.169   3.019   3.537  0.4148  0.3346  0.1541
 4969SOL     OW26539   3.136   4.593   4.389 -0.3171 -0.2384 -0.2955
 4969SOL    HW126540   3.142   4.560   4.479 -1.0792 -0.6552 -0.4029
 4969SOL    HW226541   3.228   4.584   4.363 -0.8499 -3.0302 -1.2141
 4970SOL     OW26542   1.889   0.927   1.766 -0.2629 -0.1076 -0.4040
 4970SOL    HW126543   1.969   0.882   1.793  0.1955  1.0912  0.2324
 4970SOL    HW226544   1.879   0.893   1.677 -0.2748  0.9520 -0.7981
 4971SOL     OW26545   3.613   3.210   5.098  0.3987  0.1057  0.0450
 4971SOL    HW126546   3.628   3.232   5.006 -2.0589 -0.8829 -0.5923
 4971SOL    HW226547   3.701   3.225   5.132 -0.2888  0.2861  1.7515
 4972SOL     OW26548   4.263   2.824  14.869  0.5713 -0.8232  0.7209
 4972SOL    HW126549   4.193   2.886  14.850  2.0209  0.9851  1.3698
 4972SOL    HW226550   4.283   2.791  14.782  0.7523  0.9091  0.1149
 4973SOL     OW26551   2.923   4.725   9.171  0.7627 -0.6966 -0.1771
 4973SOL    HW126552   2.985   4.674   9.223  0.4303  0.1023  0.9935
 4973SOL    HW226553   2.846   4.724   9.228  0.5238 -0.5136 -0.4901
 4974SOL     OW26554   3.560   0.817  12.420  0.2856 -0.1686  0.6916
 4974SOL    HW126555   3.480   0.771  12.394 -0.1784  0.9817  0.1326
 4974SOL    HW226556   3.555   0.892  12.361 -0.0288 -1.4603 -0.9351
 4975SOL     OW26557   3.310   1.607  16.606  0.1902 -0.3629 -0.1208
 4975SOL    HW126558   3.228   1.626  16.651 -0.5986 -0.8052 -1.3786
 4975SOL    HW226559   3.318   1.693  16.565 -0.4439  0.4675  1.4836
 4976SOL     OW26560   4.545   1.406  15.410  0.0231  0.2735  0.0207
 4976SOL    HW126561   4.518   1.480  15.464  1.2407  1.7842 -1.4741
 4976SOL    HW226562   4.593   1.441  15.335 -0.8022 -0.4229 -0.8265
 4977SOL     OW26563   4.523   2.878  12.161  0.1547 -0.3515  0.1113
 4977SOL    HW126564   4.595   2.933  12.190  0.1489 -1.6300  2.5904
 4977SOL    HW226565   4.459   2.905  12.227 -0.6945 -0.2268 -0.7650
 4978SOL     OW26566   0.809   1.758   2.692  0.0021  0.3846 -0.3546
 4978SOL    HW126567   0.759   1.706   2.629 -1.6726  1.2158  0.3089
 4978SOL    HW226568   0.770   1.844   2.678 -2.4558 -0.5492  0.6566
 4979SOL     OW26569   3.099   2.474   6.792  0.9434  0.3451 -0.2393
 4979SOL    HW126570   3.099   2.570   6.788 -0.6653  0.3971  0.7337
 4979SOL    HW226571   3.183   2.455   6.833  0.1099  0.6485  1.6267
 4980SOL     OW26572   4.298   2.490   5.761  0.0498 -0.4618  0.4315
 4980SOL    HW126573   4.350   2.485   5.841 -1.4618 -0.0341  1.4139
 4980SOL    HW226574   4.337   2.428   5.698 -1.5027  0.6324 -1.5894
 4981SOL     OW26575   4.192   3.200   2.472  0.4099 -0.4361  0.4063
 4981SOL    HW126576   4.114   3.216   2.525  1.1076  1.1754  0.9504
 4981SOL    HW226577   4.261   3.248   2.519  1.2787 -0.9114 -0.3827
 4982SOL     OW26578   3.105   2.892   7.355 -0.1688  0.1630  0.6976
 4982SOL    HW126579   3.191   2.924   7.327 -0.7366 -0.2045 -1.4198
 4982SOL    HW226580   3.074   2.973   7.396 -0.8103  0.1217  0.2819
 4983SOL     OW26581   2.627   3.873  11.780  0.1008 -0.8368  0.1901
 4983SOL    HW126582   2.560   3.903  11.719 -0.9413 -2.2989  0.6168
 4983SOL    HW226583   2.707   3.894  11.731  0.0984  0.0208  0.5557
 4984SOL     OW26584   0.707   0.111   2.606  0.1495 -0.3145  0.4646
 4984SOL    HW126585   0.756   0.076   2.531  0.3129  0.7110  0.0921
 4984SOL    HW226586   0.742   0.200   2.600  0.7921 -0.6127 -0.3420
 4985SOL     OW26587   0.780   2.631   3.571 -0.1942 -0.6777 -0.1349
 4985SOL    HW126588   0.814   2.569   3.506 -1.6039  0.7279 -2.2229
 4985SOL    HW226589   0.815   2.590   3.650 -3.0778 -1.8677  0.5147
 4986SOL     OW26590   3.518   0.971  13.237  0.2587  0.5119 -0.1630
 4986SOL    HW126591   3.436   1.008  13.269  0.7195  1.7942 -0.4646
 4986SOL    HW226592   3.569   1.052  13.241  0.0254  0.5514  2.0979
 4987SOL     OW26593   2.853   1.377   1.578  0.1818  0.3740 -0.3189
 4987SOL    HW126594   2.889   1.384   1.490  0.4420 -0.1546 -0.2526
 4987SOL    HW226595   2.893   1.448   1.628  0.7946  0.2723 -0.6670
 4988SOL     OW26596   4.719   0.425   4.098 -0.2341  0.3828  0.4611
 4988SOL    HW126597   4.676   0.354   4.049  0.2913  0.6136 -0.3331
 4988SOL    HW226598   0.031   0.475   4.032  0.8245  1.4352  2.0428
 4989SOL     OW26599   0.238   3.931  16.818 -0.3981  0.1250 -0.3337
 4989SOL    HW126600   0.145   3.934  16.838 -0.2875 -0.9553  0.3587
 4989SOL    HW226601   0.248   3.908  16.725  1.4628  1.9395 -0.5917
 4990SOL     OW26602   3.449   3.054   6.301 -0.0427 -0.0010 -0.4215
 4990SOL    HW126603   3.452   2.978   6.360 -0.8701 -1.9404 -2.8491
 4990SOL    HW226604   3.460   3.012   6.216 -2.0786 -1.7298  0.1667
 4991SOL     OW26605   3.783   2.372   4.713  0.2327 -0.0633  0.4048
 4991SOL    HW126606   3.807   2.464   4.711 -0.5204  0.0892 -1.0446
 4991SOL    HW226607   3.753   2.366   4.623 -3.1358 -1.0871  1.5848
 4992SOL     OW26608   2.429   1.328   4.837  0.6603 -0.1107 -0.2581
 4992SOL    HW126609   2.513   1.311   4.880  2.1918  0.2365 -3.1039
 4992SOL    HW226610   2.381   1.260   4.884  0.8750  0.3496  0.6137
 4993SOL     OW26611   4.533   2.016   3.952 -0.1864  0.2195  0.7075
 4993SOL    HW126612   4.504   1.958   4.023 -0.2340 -0.1225  0.4098
 4993SOL    HW226613   4.527   1.951   3.882  3.8306  0.1260  0.4667
 4994SOL     OW26614   3.849   3.996   5.400  0.0222 -0.2720 -0.4139
 4994SOL    HW126615   3.768   4.047   5.396  0.5223  0.4991 -0.6947
 4994SOL    HW226616   3.909   4.050   5.348 -1.2017 -1.3206 -2.8969
 4995SOL     OW26617   1.814   3.320   8.276  0.1129 -0.6707  0.2003
 4995SOL    HW126618   1.779   3.282   8.356 -1.1218  1.0005  0.4483
 4995SOL    HW226619   1.907   3.338   8.294 -0.0223 -1.6048  1.8496
 4996SOL     OW26620   2.375   3.442   3.998 -0.1845 -0.1840 -0.1942
 4996SOL    HW126621   2.387   3.363   4.052  3.9431  0.5271 -0.0841
 4996SOL    HW226622   2.398   3.509   4.062 -0.3925  1.1712 -1.5294
 4997SOL     OW26623   3.817   1.729   3.007  0.5786 -0.5957  0.1715
 4997SOL    HW126624   3.807   1.808   2.953  1.0836 -0.6477  0.0076
 4997SOL    HW226625   3.905   1.746   3.040  0.9785 -2.4970  0.0341
 4998SOL     OW26626   3.184   1.795  14.235 -0.0207 -0.0330  0.3028
 4998SOL    HW126627   3.269   1.824  14.202 -1.3208 -0.6586 -3.5275
 4998SOL    HW226628   3.159   1.856  14.304 -1.5434 -0.5063  0.1537
 4999SOL     OW26629   3.865   0.371   9.742 -0.2987 -0.5534 -0.3386
 4999SOL    HW126630   3.773   0.346   9.728 -0.5461 -0.0778  0.4273
 4999SOL    HW226631   3.916   0.296   9.771  1.0141  1.0052  1.3812
 5000SOL     OW26632   2.988   1.750   5.833  0.1078 -0.7030 -0.1979
 5000SOL    HW126633   2.939   1.717   5.757 -1.1725 -0.8830  0.6999
 5000SOL    HW226634   3.039   1.824   5.800  1.6775 -2.4756 -1.7691
 5001SOL     OW26635   0.696   3.196   3.804  0.2134 -0.2466 -0.2342
 5001SOL    HW126636   0.665   3.274   3.849  1.9474  1.5828 -2.1825
 5001SOL    HW226637   0.613   3.182   3.759 -0.3559  0.5640  0.5695
 5002SOL     OW26638   1.437   3.047   0.011  0.6049  0.0439  0.0949
 5002SOL    HW126639   1.515   3.086  17.712  1.9654 -3.0158 -0.2452
 5002SOL    HW226640   1.480   3.021   0.092  0.9051 -2.0301 -0.7242
 5003SOL     OW26641   0.875   2.496   1.218 -0.6565  0.3460 -0.1148
 5003SOL    HW126642   0.945   2.515   1.155  0.7805 -0.1653  1.3300
 5003SOL    HW226643   0.849   2.586   1.237 -1.3647 -0.3085  1.9823
 5004SOL     OW26644   3.774   4.619   4.555 -0.0040 -0.5193 -0.2119
 5004SOL    HW126645   3.777   4.542   4.612 -1.2638 -1.7804 -1.8510
 5004SOL    HW226646   3.818   4.680   4.614 -0.5349 -2.6585  2.3325
 5005SOL     OW26647   1.906   3.647  15.822 -0.1626  0.3491  0.5209
 5005SOL    HW126648   1.900   3.701  15.743  2.4488  0.9997  0.7585
 5005SOL    HW226649   1.984   3.692  15.855  0.9479 -0.3616 -1.1213
 5006SOL     OW26650   0.296   3.782   8.331  0.1607 -0.2873  0.8472
 5006SOL    HW126651   0.339   3.723   8.269 -0.1505  0.5259 -0.1396
 5006SOL    HW226652   0.234   3.825   8.273  0.5861  1.1132  1.4276
 5007SOL     OW26653   2.469   2.206  17.458  0.0860  0.1490  0.3346
 5007SOL    HW126654   2.472   2.192  17.553 -1.9661 -2.2518  0.0550
 5007SOL    HW226655   2.510   2.128  17.420  0.3311  0.5938 -0.3089
 5008SOL     OW26656   2.212   3.143   2.526 -0.0695  0.0612  0.1670
 5008SOL    HW126657   2.235   3.051   2.537  0.5902  0.2965  0.7015
 5008SOL    HW226658   2.249   3.182   2.604  0.0080 -1.0949  0.7044
 5009SOL     OW26659   0.817   0.565   3.553  0.3555  0.4050  0.0009
 5009SOL    HW126660   0.909   0.550   3.533  0.5607  1.1812  0.3541
 5009SOL    HW226661   0.786   0.476   3.535  1.2619  0.0300  0.2817
 5010SOL     OW26662   4.330   4.180   6.365  0.6871 -0.1785  0.3411
 5010SOL    HW126663   4.403   4.118   6.369  1.3855  0.5518 -0.9675
 5010SOL    HW226664   4.269   4.125   6.317 -0.7802  2.1026 -0.3708
 5011SOL     OW26665   3.954   1.236   4.302 -0.4818 -0.3626  0.2920
 5011SOL    HW126666   3.991   1.205   4.219  1.3409 -3.0482  2.1241
 5011SOL    HW226667   3.889   1.298   4.270  0.3210  0.4440  0.2096
 5012SOL     OW26668   2.670   3.349   9.360 -0.8767 -0.2965 -0.6050
 5012SOL    HW126669   2.718   3.321   9.438 -0.0686  0.4596 -0.8320
 5012SOL    HW226670   2.691   3.271   9.309  0.8116  0.0787 -0.4724
 5013SOL     OW26671   3.785   2.687  13.207  0.5696  0.0224  1.0533
 5013SOL    HW126672   3.853   2.648  13.152  1.3184  1.2328  1.1182
 5013SOL    HW226673   3.770   2.620  13.273  0.4508 -0.3873  0.6110
 5014SOL     OW26674   3.258   2.262   9.594  0.1283  0.4543  0.5250
 5014SOL    HW126675   3.197   2.274   9.667  1.6841 -1.0816  2.1078
 5014SOL    HW226676   3.247   2.168   9.579  1.9596  0.8387 -3.1125
 5015SOL     OW26677   4.004   0.044   6.130  0.0920  0.2049  0.2367
 5015SOL    HW126678   3.914   0.075   6.136  0.3018  0.7914  0.4459
 5015SOL    HW226679   4.069   0.115   6.135 -0.4104  0.8831 -2.6897
 5016SOL     OW26680   0.974   4.101   6.951  0.3159  0.6675  0.0840
 5016SOL    HW126681   1.028   4.163   6.901  1.5006 -2.3248 -2.3564
 5016SOL    HW226682   0.932   4.041   6.889  0.7254  1.0970 -0.6205
 5017SOL     OW26683   0.798   2.680   3.114  0.6640 -0.7698  0.2889
 5017SOL    HW126684   0.748   2.715   3.188 -0.1010 -1.3915  0.0696
 5017SOL    HW226685   0.848   2.760   3.102 -1.8444  0.8946  1.0491
 5018SOL     OW26686   3.168   3.780   5.840  0.0454 -0.0261 -0.5036
 5018SOL    HW126687   3.116   3.844   5.888 -1.9769 -1.2307 -1.0855
 5018SOL    HW226688   3.126   3.696   5.855  3.1549 -1.2193  1.6154
 5019SOL     OW26689   2.964   2.073  17.252 -0.4804  0.3729  0.0475
 5019SOL    HW126690   2.892   2.135  17.264  0.7437  1.5194  1.4377
 5019SOL    HW226691   2.951   2.022  17.331 -2.8071 -0.2671 -0.7614
 5020SOL     OW26692   0.606   2.738   6.546  0.0984  0.1094  0.1950
 5020SOL    HW126693   0.651   2.708   6.625  0.1097  0.2972  0.2602
 5020SOL    HW226694   0.543   2.800   6.584  1.2276  0.8565  0.8667
 5021SOL     OW26695   3.185   1.310   4.593 -0.2905  0.2653 -0.0800
 5021SOL    HW126696   3.163   1.400   4.568 -0.3166  0.0370 -0.8801
 5021SOL    HW226697   3.163   1.273   4.507  0.8287 -2.2973  0.7614
 5022SOL     OW26698   3.813   4.054   4.535 -0.3953 -0.3855 -0.0299
 5022SOL    HW126699   3.824   4.139   4.578  2.9916 -1.7453  1.8065
 5022SOL    HW226700   3.901   4.037   4.500 -0.0335 -0.7193  1.0458
 5023SOL     OW26701   4.202   0.284   3.957 -0.1143 -0.1475  0.0299
 5023SOL    HW126702   4.187   0.223   4.030  0.2063  0.0337  0.2458
 5023SOL    HW226703   4.261   0.346   4.000 -4.1698  1.8119  2.8437
 5024SOL     OW26704   2.791   1.833   2.976  0.0291 -0.3598  0.5595
 5024SOL    HW126705   2.712   1.829   2.921  0.5631 -0.9036 -0.1611
 5024SOL    HW226706   2.819   1.744   2.955 -0.0743 -0.3309  0.2932
 5025SOL     OW26707   0.756   0.014   4.029  0.1811  0.0039 -0.0662
 5025SOL    HW126708   0.820   0.031   4.098 -0.8971  0.3871  0.8256
 5025SOL    HW226709   0.710   4.675   4.068  2.0322 -0.3904  1.3511
 5026SOL     OW26710   1.545   0.860   7.005 -0.0894  0.7242 -0.9042
 5026SOL    HW126711   1.514   0.774   6.978 -2.0455  1.4043 -0.7707
 5026SOL    HW226712   1.462   0.906   6.996  0.4044  1.8485  0.1882
 5027SOL     OW26713   1.543   1.015  11.726  0.1651 -0.1984 -0.2518
 5027SOL    HW126714   1.453   1.036  11.749  0.5095  1.5256 -0.5051
 5027SOL    HW226715   1.558   0.920  11.728 -0.6298 -0.3010  0.6129
 5028SOL     OW26716   0.517   3.357   2.321  0.5029 -0.3531 -0.2296
 5028SOL    HW126717   0.535   3.285   2.382  1.5178 -0.3712 -0.5569
 5028SOL    HW226718   0.466   3.309   2.256 -0.0830 -1.8115  1.2774
 5029SOL     OW26719   1.430   2.152   3.072  0.0379  0.3557 -0.0493
 5029SOL    HW126720   1.358   2.089   3.075  0.0539  0.4313  2.1603
 5029SOL    HW226721   1.439   2.182   2.981 -1.2646 -1.9741 -0.9236
 5030SOL     OW26722   0.133   2.466   5.140  0.4762  0.7020 -0.0957
 5030SOL    HW126723   0.110   2.539   5.082 -2.3049  0.2340  0.4334
 5030SOL    HW226724   0.227   2.485   5.143  1.0166 -1.7040 -1.3511
 5031SOL     OW26725   4.439   2.956   5.077 -0.5484 -0.0074 -0.6786
 5031SOL    HW126726   4.412   2.987   4.990  0.5521 -0.2629 -1.1045
 5031SOL    HW226727   4.505   3.018   5.106 -0.0427 -1.0998  0.4970
 5032SOL     OW26728   3.886   3.544   3.438  0.5080 -0.7481  0.3128
 5032SOL    HW126729   3.952   3.475   3.451  0.8586 -0.7900 -1.8206
 5032SOL    HW226730   3.945   3.617   3.422 -0.1167 -0.2292  0.3536
 5033SOL     OW26731   2.673   2.537   6.490 -0.4009 -0.2711 -0.0695
 5033SOL    HW126732   2.758   2.530   6.447 -0.1598  0.1835  0.3353
 5033SOL    HW226733   2.704   2.581   6.569 -2.1617  0.2009  0.3654
 5034SOL     OW26734   2.405   1.653   7.438  0.6166 -0.3596  0.2037
 5034SOL    HW126735   2.467   1.605   7.382  1.3658  1.7208 -0.7337
 5034SOL    HW226736   2.360   1.701   7.368 -0.4597 -0.0859  1.0807
 5035SOL     OW26737   0.722   1.413  14.443  0.4181  0.3573  0.3839
 5035SOL    HW126738   0.795   1.352  14.452  0.8693  1.2263  2.4616
 5035SOL    HW226739   0.751   1.483  14.501 -1.6281  1.3463  0.1950
 5036SOL     OW26740   1.691   3.377   8.834  0.0865  0.2124  0.6543
 5036SOL    HW126741   1.732   3.291   8.830  1.3575  0.7934  0.9037
 5036SOL    HW226742   1.601   3.350   8.820 -0.5567  2.0331  1.2127
 5037SOL     OW26743   2.393   4.656   3.273 -0.5646 -0.2317  0.1275
 5037SOL    HW126744   2.338   4.725   3.238  1.2636  0.9584 -0.4244
 5037SOL    HW226745   2.332   4.586   3.295  0.3354 -1.2413 -0.5853
 5038SOL     OW26746   0.209   2.890   6.420 -0.6709  0.4777  0.3105
 5038SOL    HW126747   0.243   2.804   6.443  1.8171  0.9166 -1.7151
 5038SOL    HW226748   0.165   2.873   6.337 -1.1536 -0.7301  0.8081
 5039SOL     OW26749   0.193   2.882  17.612 -0.0069 -0.5223  0.0032
 5039SOL    HW126750   0.189   2.827  17.533  2.5113 -0.8683  0.1178
 5039SOL    HW226751   0.158   2.970  17.600 -0.5784 -0.6981  0.3925
 5040SOL     OW26752   0.501   1.730  14.497  0.3056 -0.0191  0.4112
 5040SOL    HW126753   0.454   1.805  14.461 -3.0497 -2.1951  0.2841
 5040SOL    HW226754   0.498   1.670  14.423 -1.1027 -0.4168  0.8018
 5041SOL     OW26755   1.255   2.227   9.526  0.5733  0.0660  0.1441
 5041SOL    HW126756   1.194   2.161   9.559  0.0075  1.5446  2.0256
 5041SOL    HW226757   1.327   2.174   9.491  1.1335 -0.1382  1.6214
 5042SOL     OW26758   0.878   0.393   5.775 -0.1728  0.0931  0.3090
 5042SOL    HW126759   0.972   0.381   5.762  0.1284  0.9967  1.6817
 5042SOL    HW226760   0.834   0.374   5.692 -0.8065 -1.7404  1.0758
 5043SOL     OW26761   4.723   2.186  16.800 -0.0495  0.2034  0.4101
 5043SOL    HW126762   4.655   2.119  16.803  0.0826  0.0207 -1.0549
 5043SOL    HW226763   4.680   2.249  16.744 -0.2155  1.4845  1.9702
 5044SOL     OW26764   2.300   0.460   7.346 -0.4867  0.2692  0.4348
 5044SOL    HW126765   2.283   0.535   7.405  0.5183 -1.7995  3.3709
 5044SOL    HW226766   2.225   0.483   7.291  1.8597  0.8783 -2.4988
 5045SOL     OW26767   4.150   0.435   5.438  0.0526  0.2388  0.0698
 5045SOL    HW126768   4.143   0.439   5.534  1.1715 -0.9340  0.1963
 5045SOL    HW226769   4.216   0.368   5.419 -0.5047 -0.4302  0.4842
 5046SOL     OW26770   3.397   2.786   3.089 -0.1814 -0.3195  0.5535
 5046SOL    HW126771   3.303   2.787   3.111 -0.8835  2.1302 -2.6559
 5046SOL    HW226772   3.426   2.869   3.127 -0.3879 -0.2518  0.5662
 5047SOL     OW26773   2.250   0.621   9.969  0.5244  0.0520  0.1835
 5047SOL    HW126774   2.285   0.684  10.032  2.5663  0.6160 -1.4990
 5047SOL    HW226775   2.164   0.661   9.957 -0.1863 -2.0259 -1.5673
 5048SOL     OW26776   0.304   3.184   4.716 -0.0844  0.0368  0.1016
 5048SOL    HW126777   0.252   3.192   4.796  1.9481  0.4896  1.3775
 5048SOL    HW226778   0.392   3.158   4.741  0.2499  0.6825 -0.3989
 5049SOL     OW26779   2.757   0.668   7.949 -0.0292  0.0721  0.8447
 5049SOL    HW126780   2.811   0.731   7.997  0.9407  0.2739 -0.5090
 5049SOL    HW226781   2.775   0.692   7.858 -1.0011  0.5121  0.7589
 5050SOL     OW26782   2.550   4.173   6.578 -0.1632 -0.6133  0.2123
 5050SOL    HW126783   2.478   4.235   6.585  0.6819  0.6668 -2.7109
 5050SOL    HW226784   2.597   4.208   6.654 -1.6575  2.2390 -0.1776
 5051SOL     OW26785   0.365   1.958   5.251 -0.5538 -0.8008  0.3917
 5051SOL    HW126786   0.288   2.012   5.232 -0.9047 -1.2513  0.5374
 5051SOL    HW226787   0.408   2.009   5.320 -2.3374 -1.5269  2.0522
 5052SOL     OW26788   1.045   2.900   8.598 -0.1683 -0.6308  0.1329
 5052SOL    HW126789   1.136   2.910   8.624  0.2294 -0.6537 -1.2446
 5052SOL    HW226790   1.042   2.806   8.580 -1.9601 -0.5953  0.2473
 5053SOL     OW26791   0.385   4.377   7.537  0.5904  0.1230 -0.2177
 5053SOL    HW126792   0.355   4.445   7.477 -0.9464  0.5854  1.0465
 5053SOL    HW226793   0.351   4.298   7.494 -0.1389  0.0610  0.4628
 5054SOL     OW26794   2.644   4.343   6.767  0.3298 -0.6687  0.0275
 5054SOL    HW126795   2.660   4.419   6.711  2.4686 -0.6139  0.7280
 5054SOL    HW226796   2.706   4.357   6.838 -1.3797 -1.7397  1.7187
 5055SOL     OW26797   3.629   2.339   2.947  0.2783  0.4685 -0.1036
 5055SOL    HW126798   3.619   2.267   2.884  0.7547  0.3349 -0.0297
 5055SOL    HW226799   3.544   2.381   2.944 -0.6885 -1.5476 -1.1457
 5056SOL     OW26800   4.254   0.777   8.864  0.0623  0.1504  0.0842
 5056SOL    HW126801   4.178   0.779   8.806  0.5539  2.3455 -0.4944
 5056SOL    HW226802   4.255   0.862   8.909  2.4273  0.2548 -0.1394
 5057SOL     OW26803   2.698   1.383   8.789 -0.2580  0.2397 -0.9414
 5057SOL    HW126804   2.754   1.412   8.861  0.7743  0.8753 -2.0010
 5057SOL    HW226805   2.684   1.292   8.815  1.0221  0.0828 -0.7960
 5058SOL     OW26806   1.606   2.832   9.748  0.1240  0.4952 -0.3754
 5058SOL    HW126807   1.560   2.796   9.824 -0.4854  1.0028 -0.5052
 5058SOL    HW226808   1.564   2.770   9.688 -0.5670 -0.2972  0.9076
 5059SOL     OW26809   0.980   3.263   9.726 -0.2075  1.3853  0.1011
 5059SOL    HW126810   0.958   3.219   9.809 -1.6114 -0.4050 -1.2084
 5059SOL    HW226811   1.066   3.229   9.701  0.0078  0.7165  1.7325
 5060SOL     OW26812   4.684   1.325   3.922 -0.2696 -0.1649  0.1204
 5060SOL    HW126813   0.039   1.342   3.893  0.7464 -0.6464  2.9898
 5060SOL    HW226814   4.668   1.247   3.869  0.2164 -0.6749  0.7238
 5061SOL     OW26815   1.536   2.740   3.922  0.1427  0.5727 -0.1040
 5061SOL    HW126816   1.489   2.813   3.963  0.8280  0.7503  0.3558
 5061SOL    HW226817   1.464   2.687   3.889  0.0535  0.7895 -0.2626
 5062SOL     OW26818   1.089   1.884  15.229 -0.2560 -0.1515  0.7549
 5062SOL    HW126819   0.993   1.887  15.233 -0.2596 -2.2737  1.7280
 5062SOL    HW226820   1.108   1.955  15.291 -0.4573  0.3394  0.2586
 5063SOL     OW26821   1.127   2.618   3.362 -0.2317 -0.0642  0.1199
 5063SOL    HW126822   1.098   2.612   3.271  0.3789  0.5869 -0.1204
 5063SOL    HW226823   1.205   2.672   3.350 -0.6500  0.4664 -0.1918
 5064SOL     OW26824   0.837   0.584   5.466  0.2262 -0.3117 -0.7262
 5064SOL    HW126825   0.854   0.494   5.496 -0.3944  0.2184  1.2459
 5064SOL    HW226826   0.911   0.606   5.409  0.2133  0.0875 -0.5916
 5065SOL     OW26827   3.602   4.026  15.925  0.1127  0.2382 -0.3961
 5065SOL    HW126828   3.552   4.031  16.007  1.0221 -1.7828  0.2831
 5065SOL    HW226829   3.686   3.993  15.956  0.3803  0.5929 -0.7515
 5066SOL     OW26830   3.945   0.839   4.646  0.1311 -0.1927 -0.4931
 5066SOL    HW126831   3.943   0.747   4.620 -0.1459 -0.2249 -0.3556
 5066SOL    HW226832   3.955   0.824   4.740  1.2778  0.2157 -0.5452
 5067SOL     OW26833   0.133   3.392   9.763  0.1021  0.2003 -0.0622
 5067SOL    HW126834   0.091   3.402   9.678  0.3676 -3.0977 -0.5734
 5067SOL    HW226835   0.070   3.419   9.830  1.8433  1.2078  1.1908
 5068SOL     OW26836   1.708   0.188   5.808 -0.2021 -0.0019  0.2218
 5068SOL    HW126837   1.654   0.234   5.872  0.4871 -0.7845  1.3772
 5068SOL    HW226838   1.698   0.093   5.822  0.5531  0.0473  1.1373
 5069SOL     OW26839   0.092   3.242   9.328  0.0802  0.5513  0.1635
 5069SOL    HW126840   0.116   3.211   9.241  1.8066  0.8637  0.5354
 5069SOL    HW226841   0.139   3.175   9.377  0.2183  1.1338  0.8374
 5070SOL     OW26842   1.737   3.867   7.627  0.1441  0.0329  0.1934
 5070SOL    HW126843   1.658   3.877   7.574  0.3265  1.5452  0.2204
 5070SOL    HW226844   1.808   3.896   7.569 -1.7353  0.7282 -1.7721
 5071SOL     OW26845   1.758   1.145   7.470  0.6584 -0.0717  0.0515
 5071SOL    HW126846   1.703   1.081   7.514  1.0632 -1.3488 -1.3039
 5071SOL    HW226847   1.697   1.219   7.465  1.4597  0.6559  1.0411
 5072SOL     OW26848   3.106   1.042  17.125  0.0165 -0.4657  0.0907
 5072SOL    HW126849   3.046   1.110  17.157  0.9884 -0.0565  1.0287
 5072SOL    HW226850   3.193   1.081  17.128 -0.0195 -0.1905 -2.1914
 5073SOL     OW26851   1.371   0.816   2.403  0.1192  0.2093 -0.1574
 5073SOL    HW126852   1.415   0.878   2.460 -0.2000 -0.6620  1.0614
 5073SOL    HW226853   1.449   0.782   2.360 -0.1162  1.0839 -1.2618
 5074SOL     OW26854   3.701   3.497  16.501 -0.4363 -0.0406 -0.3335
 5074SOL    HW126855   3.779   3.444  16.486  0.2407  0.7792  0.2751
 5074SOL    HW226856   3.718   3.521  16.592 -1.2032  0.0200 -0.2119
 5075SOL     OW26857   1.332   0.998  15.527  0.5919  0.1300  0.1322
 5075SOL    HW126858   1.382   0.980  15.607 -2.2002 -0.6978  1.6605
 5075SOL    HW226859   1.396   0.972  15.460 -1.7786 -2.5113 -1.0687
 5076SOL     OW26860   1.540   0.196   1.768  0.2086  0.0359  0.0754
 5076SOL    HW126861   1.532   0.144   1.848  3.1170  0.1299  0.4389
 5076SOL    HW226862   1.528   0.285   1.801  2.1211  0.1474  0.4492
 5077SOL     OW26863   3.450   2.678   3.930  0.4311 -0.0359 -0.0865
 5077SOL    HW126864   3.373   2.633   3.966  1.7048 -1.4830  0.8364
 5077SOL    HW226865   3.466   2.642   3.842  0.9597  0.9276 -0.3788
 5078SOL     OW26866   0.166   3.616   2.911  0.6446 -0.2062 -0.4343
 5078SOL    HW126867   0.225   3.670   2.964  2.9788 -2.4025 -0.7812
 5078SOL    HW226868   0.123   3.693   2.872  1.0008 -0.7703 -1.9522
 5079SOL     OW26869   2.799   2.994   0.969 -0.1742 -0.7002  0.3080
 5079SOL    HW126870   2.827   2.955   0.886  0.9003 -1.1801  0.8965
 5079SOL    HW226871   2.705   2.976   0.968 -0.2421 -0.3358 -0.4162
 5080SOL     OW26872   3.985   0.513   8.111  0.9606  0.0794  0.0567
 5080SOL    HW126873   3.920   0.470   8.055  1.5687 -0.8870  0.0883
 5080SOL    HW226874   4.045   0.440   8.128 -0.3263 -0.8242  0.8014
 5081SOL     OW26875   4.459   1.537  11.102 -0.4937  0.2478  0.3581
 5081SOL    HW126876   4.412   1.563  11.023  1.0952  1.4926 -0.1862
 5081SOL    HW226877   4.451   1.613  11.160  0.2229  0.8302 -0.3127
 5082SOL     OW26878   1.982   2.068  12.409 -0.3647  0.4428 -0.0928
 5082SOL    HW126879   2.049   2.082  12.343 -0.9372  0.0137 -0.7652
 5082SOL    HW226880   1.943   2.155  12.426 -1.2677  0.8396 -4.2998
 5083SOL     OW26881   4.424   0.006  12.388  0.4015 -0.5996  0.8015
 5083SOL    HW126882   4.516   4.732  12.365  0.1789 -1.9592  0.4303
 5083SOL    HW226883   4.406   4.650  12.411 -1.1512  0.3276  3.2435
 5084SOL     OW26884   3.220   1.678   6.210 -0.4805 -0.6017  0.3424
 5084SOL    HW126885   3.211   1.747   6.275 -0.0545  1.6061 -1.9384
 5084SOL    HW226886   3.189   1.597   6.251 -0.5736 -0.9208 -0.3541
 5085SOL     OW26887   4.245   1.892  14.109 -0.0154 -0.3577 -0.3209
 5085SOL    HW126888   4.234   1.983  14.135  2.1578  0.1989 -1.3303
 5085SOL    HW226889   4.323   1.905  14.054 -1.9188 -0.2237 -3.0005
 5086SOL     OW26890   2.031   3.612  12.416 -0.5958  0.1156 -0.0532
 5086SOL    HW126891   2.071   3.535  12.456  1.6465  1.8909  1.0796
 5086SOL    HW226892   2.104   3.673  12.419  1.6066 -2.5881  1.9597
 5087SOL     OW26893   3.634   1.102   7.737  0.3644 -0.3222  0.0227
 5087SOL    HW126894   3.670   1.139   7.818  1.7357  1.7639 -1.5668
 5087SOL    HW226895   3.550   1.076   7.774  0.5944 -0.9696  0.0924
 5088SOL     OW26896   2.269   1.659   9.896 -0.4527 -0.8157 -0.0087
 5088SOL    HW126897   2.215   1.641   9.819  0.4021  1.7072 -1.2107
 5088SOL    HW226898   2.339   1.595   9.908 -0.1588 -0.7613 -1.4195
 5089SOL     OW26899   0.481   0.460   9.973 -0.5043  0.6163 -0.1198
 5089SOL    HW126900   0.415   0.392   9.987  0.7091 -0.7760 -1.1716
 5089SOL    HW226901   0.532   0.459  10.055 -0.4135 -0.2579 -0.1909
 5090SOL     OW26902   0.756   0.492   3.166  0.2106 -0.2660  1.0020
 5090SOL    HW126903   0.777   0.412   3.213  2.6642 -0.1965  0.0277
 5090SOL    HW226904   0.665   0.480   3.140  0.4550  0.0087  0.0260
 5091SOL     OW26905   2.702   1.220   0.374 -0.3218 -0.4758 -0.1234
 5091SOL    HW126906   2.612   1.208   0.343 -0.3303 -1.6667  0.3628
 5091SOL    HW226907   2.710   1.124   0.376  0.1522 -0.4492 -0.6278
 5092SOL     OW26908   0.054   0.423  16.838  0.4244 -0.5330  0.5614
 5092SOL    HW126909   4.711   0.452  16.886  0.9427 -0.8388  1.5890
 5092SOL    HW226910   0.063   0.330  16.858  0.0835 -0.4331  1.1688
 5093SOL     OW26911   3.738   1.090   4.069  0.2482  0.0670  0.2517
 5093SOL    HW126912   3.792   1.021   4.107  0.3462 -0.5114 -0.9177
 5093SOL    HW226913   3.730   1.054   3.980  1.4551  2.5173 -0.8590
 5094SOL     OW26914   1.523   2.889  10.167 -0.3684 -0.0688 -0.5840
 5094SOL    HW126915   1.560   2.849  10.245 -2.0914 -1.3871 -0.4655
 5094SOL    HW226916   1.604   2.917  10.124  1.0018 -0.0234  2.0515
 5095SOL     OW26917   2.517   3.162   6.060 -0.7927 -0.2911 -0.4607
 5095SOL    HW126918   2.463   3.240   6.052 -1.0506 -0.4840 -0.6401
 5095SOL    HW226919   2.586   3.195   6.116 -1.1557 -0.3901  0.0441
 5096SOL     OW26920   2.151   4.228  17.626 -0.0067 -0.6397 -0.1368
 5096SOL    HW126921   2.157   4.222  17.721 -1.8867 -0.9771 -0.0492
 5096SOL    HW226922   2.150   4.136  17.600 -0.5585 -0.4497 -0.7784
 5097SOL     OW26923   3.492   2.343   0.883  0.1019 -0.5377  0.2966
 5097SOL    HW126924   3.463   2.310   0.798  1.6009 -0.3648 -0.2750
 5097SOL    HW226925   3.584   2.366   0.870  0.3579 -0.0313  3.1525
 5098SOL     OW26926   0.833   3.353   1.534 -0.5509  0.0002  0.0019
 5098SOL    HW126927   0.861   3.309   1.453  3.4495  1.4467  0.6095
 5098SOL    HW226928   0.915   3.380   1.574 -1.4831  0.8292  1.3373
 5099SOL     OW26929   3.883   0.180   5.815  0.1055 -0.1706 -0.4995
 5099SOL    HW126930   3.879   0.230   5.896 -0.1384  1.8457 -1.7451
 5099SOL    HW226931   3.829   0.228   5.752 -1.4239  0.6000  1.4188
 5100SOL     OW26932   1.085   0.108  10.139  0.1565  0.1733  0.1512
 5100SOL    HW126933   0.996   0.077  10.154  0.4918 -1.6049 -1.5460
 5100SOL    HW226934   1.132   0.027  10.118 -0.6288 -0.5991  1.3173
 5101SOL     OW26935   4.245   3.743   7.064  0.2439  0.8208  0.4947
 5101SOL    HW126936   4.281   3.656   7.077 -0.1764  0.0640 -3.4478
 5101SOL    HW226937   4.304   3.803   7.111  0.4465 -1.0017  2.5773
 5102SOL     OW26938   0.239   0.782   6.633  0.2216 -0.3537 -0.3606
 5102SOL    HW126939   0.262   0.694   6.663  1.2475  0.4454  1.1938
 5102SOL    HW226940   0.316   0.799   6.578  0.4324 -0.6345 -0.1497
 5103SOL     OW26941   1.366   3.426   3.234 -0.0247 -0.1479  0.0448
 5103SOL    HW126942   1.427   3.485   3.190  0.5876 -0.6943  0.1628
 5103SOL    HW226943   1.347   3.484   3.308 -0.6134  0.7882 -0.8323
 5104SOL     OW26944   3.706   2.810   1.526 -0.2128  0.0541 -0.0697
 5104SOL    HW126945   3.773   2.782   1.589 -0.3354  1.8365  0.8579
 5104SOL    HW226946   3.629   2.818   1.583 -0.0393 -0.4827  0.2409
 5105SOL     OW26947   1.686   0.603   0.178  0.0723  0.2100 -0.3018
 5105SOL    HW126948   1.714   0.675   0.234 -1.1151 -1.2196  2.1696
 5105SOL    HW226949   1.726   0.622   0.093 -2.5101 -1.6349 -1.9441
 5106SOL     OW26950   2.922   1.775   1.916 -0.3236 -0.5790  0.3460
 5106SOL    HW126951   2.919   1.853   1.972  1.7720 -1.0774  1.1253
 5106SOL    HW226952   2.846   1.804   1.865  0.4282  0.7702 -0.0032
 5107SOL     OW26953   2.323   1.977   0.144  0.5573 -0.0534 -0.5596
 5107SOL    HW126954   2.239   2.022   0.153  0.7834 -0.1105  1.8848
 5107SOL    HW226955   2.300   1.923   0.069  1.4849 -0.4466 -0.5572
 5108SOL     OW26956   3.307   0.179  17.551 -0.1875  0.2364 -0.0946
 5108SOL    HW126957   3.282   0.138  17.633  1.7144 -1.6185 -0.4224
 5108SOL    HW226958   3.279   0.267  17.575 -2.4888 -0.3763 -0.5573
 5109SOL     OW26959   0.664   0.192  14.178 -0.2504  0.1624 -0.3027
 5109SOL    HW126960   0.749   0.211  14.218 -1.5939  2.7201  1.2878
 5109SOL    HW226961   0.638   0.280  14.150  1.9976  0.8927 -0.0938
 5110SOL     OW26962   0.286   1.069   4.446 -0.5251 -0.6964  0.3808
 5110SOL    HW126963   0.270   1.112   4.362  1.8945  1.8287  1.1941
 5110SOL    HW226964   0.200   1.034   4.467 -1.2328  1.4800  1.1647
 5111SOL     OW26965   2.416   2.566  15.262  0.1888 -0.0017  0.0478
 5111SOL    HW126966   2.415   2.633  15.331 -1.4093 -0.9469  0.9189
 5111SOL    HW226967   2.473   2.501  15.303 -2.1607 -1.5854  0.7575
 5112SOL     OW26968   1.273   1.558   5.406 -0.3438  0.1006 -0.1108
 5112SOL    HW126969   1.277   1.479   5.353 -2.8073 -1.5751  2.1945
 5112SOL    HW226970   1.349   1.609   5.377 -2.9922  1.7365 -4.2578
 5113SOL     OW26971   3.481   1.015   3.897  0.5994 -0.2316 -0.0411
 5113SOL    HW126972   3.484   0.927   3.933  2.0109  0.5433  1.7287
 5113SOL    HW226973   3.439   1.064   3.967 -1.2010 -1.6126 -0.1430
 5114SOL     OW26974   1.384   4.255   7.207 -0.2858  0.5885 -0.1247
 5114SOL    HW126975   1.349   4.182   7.258  0.2585  0.7617  0.4992
 5114SOL    HW226976   1.336   4.242   7.125 -0.6638 -0.0596  0.1975
 5115SOL     OW26977   4.032   1.386   3.164 -0.3174 -0.0523  0.6812
 5115SOL    HW126978   4.012   1.314   3.225 -1.1434  0.9163  1.5562
 5115SOL    HW226979   3.961   1.363   3.103  0.3184 -0.6118  0.1599
 5116SOL     OW26980   4.600   3.521   6.427 -0.1545  0.1181 -0.6276
 5116SOL    HW126981   4.539   3.574   6.376  0.1000  0.5164 -0.5167
 5116SOL    HW226982   4.573   3.568   6.506 -1.3252 -0.4705 -0.6765
 5117SOL     OW26983   0.235   4.365   4.980  0.1590  0.6182 -0.3642
 5117SOL    HW126984   0.244   4.295   4.914 -2.7443  1.9199 -2.1574
 5117SOL    HW226985   0.155   4.339   5.025  0.9690 -1.2205  0.0340
 5118SOL     OW26986   0.215   4.182   5.827 -0.5671  0.5191  0.0625
 5118SOL    HW126987   0.207   4.089   5.806  1.2352  1.3025 -4.0938
 5118SOL    HW226988   0.202   4.177   5.921 -1.0477  0.7439  0.0058
 5119SOL     OW26989   2.718   2.050   6.250  0.3175 -0.1484 -0.4881
 5119SOL    HW126990   2.654   2.116   6.225  0.9964  0.5308 -0.4136
 5119SOL    HW226991   2.792   2.087   6.202  0.9855 -1.4234 -0.4365
 5120SOL     OW26992   1.720   3.682   2.369 -0.3185  0.3314 -0.4301
 5120SOL    HW126993   1.769   3.756   2.332  0.9239  1.0526  2.6534
 5120SOL    HW226994   1.648   3.729   2.410  0.0256 -0.4124  1.0116
 5121SOL     OW26995   2.165   4.323   8.204 -0.1219 -0.1697 -0.0087
 5121SOL    HW126996   2.120   4.241   8.188 -0.1448  0.2810 -2.3232
 5121SOL    HW226997   2.167   4.313   8.299  0.2560 -1.5592 -0.1712
 5122SOL     OW26998   0.078   3.205   2.941 -0.4007 -0.6249  0.4551
 5122SOL    HW126999   0.068   3.282   2.886 -0.5809 -0.8985  0.1066
 5122SOL    HW227000   0.118   3.136   2.888 -0.2679  1.1244 -1.7088
 5123SOL     OW27001   3.751   3.869   5.993 -0.2850  0.0221  0.2202
 5123SOL    HW127002   3.802   3.943   5.959 -0.0488  0.3314  1.2271
 5123SOL    HW227003   3.809   3.846   6.066  1.0418 -0.0407 -0.8530
 5124SOL     OW27004   1.459   2.917   6.966 -0.0656 -0.3306 -0.0689
 5124SOL    HW127005   1.529   2.952   6.911  0.1008 -1.3397 -0.4928
 5124SOL    HW227006   1.477   2.823   6.971  0.8471 -0.2513 -2.0389
 5125SOL     OW27007   4.219   3.820   4.607  0.1076 -0.2703 -0.6329
 5125SOL    HW127008   4.222   3.742   4.551  0.7340  0.1632 -1.1948
 5125SOL    HW227009   4.307   3.857   4.597 -0.7168  2.4772  2.2661
 5126SOL     OW27010   1.785   2.760   8.777 -0.4857  0.2517 -0.1516
 5126SOL    HW127011   1.799   2.699   8.850  2.3599  0.8761 -0.1748
 5126SOL    HW227012   1.696   2.789   8.799 -0.2207  2.7799 -2.4218
 5127SOL     OW27013   4.614   0.363   8.123  0.0621 -0.2225  0.0846
 5127SOL    HW127014   4.672   0.435   8.148 -0.0068  0.2915 -1.2255
 5127SOL    HW227015   4.633   0.344   8.032 -1.2280  2.0001 -0.6499
 5128SOL     OW27016   0.354   4.328  11.593  0.0383 -0.1934 -0.1949
 5128SOL    HW127017   0.381   4.414  11.560 -1.4071  0.4624  0.3503
 5128SOL    HW227018   0.308   4.292  11.517  0.4399 -0.1662 -0.4488
 5129SOL     OW27019   4.020   0.691   2.409 -0.4446  0.0114 -0.0801
 5129SOL    HW127020   3.984   0.661   2.326  1.0098  1.2227 -1.1573
 5129SOL    HW227021   3.941   0.707   2.461  0.8120  1.5932  1.3391
 5130SOL     OW27022   1.275   3.071   0.939  0.1041  0.3388  0.9330
 5130SOL    HW127023   1.336   3.058   0.867 -0.0748  1.7637  0.5385
 5130SOL    HW227024   1.268   3.166   0.936 -1.0788  0.2820  2.0576
 5131SOL     OW27025   2.177   4.320  15.928  0.3011 -0.1537  0.5597
 5131SOL    HW127026   2.173   4.412  15.900 -2.5630 -0.1531  1.0112
 5131SOL    HW227027   2.138   4.328  16.015 -0.4632  1.9949  0.0256
 5132SOL     OW27028   1.248   1.834   6.898  0.3833 -0.1827  0.6405
 5132SOL    HW127029   1.180   1.811   6.962  1.0813  1.3470  1.9207
 5132SOL    HW227030   1.198   1.863   6.822  2.5327  0.4604 -0.5221
 5133SOL     OW27031   2.467   2.764   7.594 -0.4137 -0.4842  0.2267
 5133SOL    HW127032   2.429   2.852   7.595 -1.2479 -0.8584  1.3507
 5133SOL    HW227033   2.469   2.745   7.688  0.4531 -1.5913 -0.0174
 5134SOL     OW27034   1.547   4.613   6.307  0.7111 -0.4558 -0.6830
 5134SOL    HW127035   1.553   4.551   6.380 -1.0531  1.2642  0.9123
 5134SOL    HW227036   1.619   4.587   6.249  1.6287  1.3770 -0.3533
 5135SOL     OW27037   3.557   0.273  17.329  0.7722  0.3848  0.0556
 5135SOL    HW127038   3.538   0.362  17.358 -1.6869 -0.8524  2.1546
 5135SOL    HW227039   3.614   0.297  17.255  0.5718 -1.4639 -0.7090
 5136SOL     OW27040   3.270   0.897   2.892  0.0847 -0.2804  0.5674
 5136SOL    HW127041   3.186   0.926   2.929 -1.0924  1.2348 -3.2964
 5136SOL    HW227042   3.297   0.838   2.962 -0.9567 -1.6016 -0.1423
 5137SOL     OW27043   3.923   1.553   8.138 -0.1898  0.0263  0.0280
 5137SOL    HW127044   3.922   1.465   8.175  0.5147  0.3599  0.8301
 5137SOL    HW227045   3.829   1.570   8.149 -0.2112 -0.7450  1.0473
 5138SOL     OW27046   4.298   3.113   1.520 -0.0572  0.0462 -0.3763
 5138SOL    HW127047   4.379   3.083   1.562 -1.6606 -1.9098  1.3007
 5138SOL    HW227048   4.250   3.035   1.494 -1.9506  1.3646 -0.8434
 5139SOL     OW27049   1.707   3.083   8.102  0.3325  1.1530 -0.0590
 5139SOL    HW127050   1.749   3.161   8.138 -0.6111  1.6120  0.0366
 5139SOL    HW227051   1.700   3.096   8.008 -0.9959  0.5033 -0.0474
 5140SOL     OW27052   2.188   0.132   7.828  0.4413  0.0289  0.2601
 5140SOL    HW127053   2.223   0.109   7.915  0.7599  3.5987  1.0826
 5140SOL    HW227054   2.095   0.138   7.851  0.1128 -0.8178 -0.8513
 5141SOL     OW27055   4.320   3.303   0.479 -0.0374  0.1612  0.0254
 5141SOL    HW127056   4.338   3.210   0.483 -0.4723 -0.0284 -2.6414
 5141SOL    HW227057   4.369   3.343   0.552  1.9726 -0.6467 -0.8949
 5142SOL     OW27058   1.956   0.407   3.621  0.0829  0.4103 -0.3152
 5142SOL    HW127059   2.019   0.341   3.650 -1.2485 -1.2755 -1.2060
 5142SOL    HW227060   1.873   0.365   3.645 -0.1456  1.2843  0.3923
 5143SOL     OW27061   0.236   0.799   3.197 -0.1276 -0.2281  0.5717
 5143SOL    HW127062   0.196   0.719   3.162  0.4893 -0.5901  0.6749
 5143SOL    HW227063   0.323   0.760   3.207  0.4855  1.1202  0.4781
 5144SOL     OW27064   0.873   3.989   2.120 -0.8372 -0.2173 -0.2336
 5144SOL    HW127065   0.872   3.893   2.117 -0.3680 -0.2741  1.3311
 5144SOL    HW227066   0.880   4.002   2.025  0.4229 -1.1115 -0.2688
 5145SOL     OW27067   4.525   3.740   4.692 -0.0048 -0.4105 -0.4232
 5145SOL    HW127068   4.538   3.646   4.683 -0.8962 -0.0927 -5.0453
 5145SOL    HW227069   4.567   3.773   4.612  2.9111 -1.8192  0.5383
 5146SOL     OW27070   0.229   1.159   6.181 -0.5720  0.1833 -0.8749
 5146SOL    HW127071   0.272   1.232   6.225 -0.1083 -0.0146 -1.0096
 5146SOL    HW227072   0.301   1.097   6.189 -0.4245  0.6615  1.3676
 5147SOL     OW27073   2.628   4.190   3.599 -0.3071 -0.0374 -0.0763
 5147SOL    HW127074   2.611   4.276   3.563 -1.8509 -0.8099 -1.2138
 5147SOL    HW227075   2.545   4.177   3.646  0.1231  0.0860  0.7113
 5148SOL     OW27076   3.464   2.391   4.243 -0.0902  0.2443 -0.6798
 5148SOL    HW127077   3.408   2.320   4.273 -1.5956  1.8435  0.2949
 5148SOL    HW227078   3.430   2.414   4.157  0.6691  0.9532 -0.7913
 5149SOL     OW27079   3.298   0.700   0.528 -0.1115 -0.3647  0.2663
 5149SOL    HW127080   3.263   0.622   0.571  1.4951 -1.0734  0.2745
 5149SOL    HW227081   3.214   0.741   0.507 -0.2964 -0.0378  1.6737
 5150SOL     OW27082   0.008   0.309   7.091  0.7708  0.4238 -0.0063
 5150SOL    HW127083   0.012   0.404   7.102  1.1805  0.1376  2.4236
 5150SOL    HW227084   4.654   0.308   7.056  0.3257  0.9037  1.1060
 5151SOL     OW27085   0.692   2.799   8.487  0.2248 -0.2105 -0.2260
 5151SOL    HW127086   0.691   2.799   8.582  1.6944  1.0782 -0.2135
 5151SOL    HW227087   0.632   2.872   8.471 -1.1194 -1.1818  0.3673
 5152SOL     OW27088   0.672   1.096   1.064  0.4161 -0.3886 -0.2599
 5152SOL    HW127089   0.664   1.004   1.091 -3.9769  0.2874  0.5906
 5152SOL    HW227090   0.762   1.113   1.094  0.4361 -1.7276  0.4465
 5153SOL     OW27091   1.246   3.084   7.708 -0.2009  0.4333 -0.4338
 5153SOL    HW127092   1.152   3.090   7.726  0.1301  2.2044  0.6853
 5153SOL    HW227093   1.247   3.071   7.613 -1.6718  0.4421 -0.4441
 5154SOL     OW27094   2.005   2.936   4.860 -0.0624 -0.3441 -0.4714
 5154SOL    HW127095   2.018   2.959   4.952  1.6982 -2.5345 -0.1821
 5154SOL    HW227096   2.079   2.980   4.818 -0.1463 -0.3855 -0.6607
 5155SOL     OW27097   3.029   2.115  14.625  0.6008  0.2999 -0.9714
 5155SOL    HW127098   2.933   2.112  14.620  0.5545  1.6672 -0.9862
 5155SOL    HW227099   3.044   2.030  14.585  0.0565  0.0703 -0.6799
 5156SOL     OW27100   2.471   1.184   0.254 -0.5754 -0.1536 -0.5782
 5156SOL    HW127101   2.503   1.135   0.178  0.9780  0.7212 -0.4929
 5156SOL    HW227102   2.388   1.215   0.217  0.5675  1.6060 -1.7079
 5157SOL     OW27103   0.924   3.629   8.344  0.6352  0.2383  0.1546
 5157SOL    HW127104   0.991   3.562   8.333 -0.9427 -1.6919  2.3811
 5157SOL    HW227105   0.906   3.646   8.252  1.5729  0.3467 -0.0163
 5158SOL     OW27106   4.663   3.902  17.181 -0.3125  0.6206 -0.6536
 5158SOL    HW127107   4.643   3.857  17.263  2.4583 -1.0324 -0.8985
 5158SOL    HW227108   0.023   3.903  17.192 -0.2282  1.1213 -1.4871
 5159SOL     OW27109   3.043   0.039   4.063 -0.2163 -0.3372  0.2987
 5159SOL    HW127110   2.954   0.069   4.084 -1.2943 -1.9127 -2.0452
 5159SOL    HW227111   3.084   0.122   4.088 -2.0760  0.5282  0.5197
 5160SOL     OW27112   1.671   4.350  11.557  0.3041  0.1832 -0.3013
 5160SOL    HW127113   1.611   4.421  11.578  0.6877  0.2274  0.6360
 5160SOL    HW227114   1.699   4.316  11.642 -0.6250 -1.8850 -0.8263
 5161SOL     OW27115   1.950   4.520   2.113 -0.9594 -0.0228  1.0000
 5161SOL    HW127116   2.034   4.498   2.071 -1.7983  0.3623 -0.8635
 5161SOL    HW227117   1.927   4.431   2.140  0.3433 -0.5560  0.3609
 5162SOL     OW27118   0.001   4.373   3.052  0.2011 -0.0263  0.7812
 5162SOL    HW127119   4.694   4.453   3.082  0.5963  0.9908 -1.4263
 5162SOL    HW227120   4.650   4.336   3.031  0.8577  0.7223 -3.1452
 5163SOL     OW27121   4.713   1.247  15.162  0.2445  0.1041  0.1241
 5163SOL    HW127122   4.662   1.323  15.191 -1.2467 -0.4247 -1.1278
 5163SOL    HW227123   4.698   1.242  15.068 -0.5991 -0.4259  0.2891
 5164SOL     OW27124   3.102   0.194  11.354 -0.1280 -0.1171 -0.1458
 5164SOL    HW127125   3.153   0.114  11.341  0.7215  0.7340 -2.0115
 5164SOL    HW227126   3.173   0.252  11.325  0.1334  0.1274  0.9743
 5165SOL     OW27127   2.260   0.840   7.729  0.4167 -0.7386  0.3504
 5165SOL    HW127128   2.204   0.786   7.673 -3.6003  1.5824  2.0943
 5165SOL    HW227129   2.216   0.832   7.814  0.2809 -1.3362  0.2199
 5166SOL     OW27130   2.801   1.263   6.854  0.4946  0.5490 -0.5086
 5166SOL    HW127131   2.810   1.343   6.905 -0.8759 -0.0887  0.7326
 5166SOL    HW227132   2.882   1.216   6.874 -0.9554 -1.8845 -0.2571
 5167SOL     OW27133   1.594   2.729  10.364  0.1791 -0.2775 -0.3415
 5167SOL    HW127134   1.677   2.682  10.356 -1.0028 -2.3711 -0.2446
 5167SOL    HW227135   1.540   2.664  10.409  1.6648  0.3829  2.4040
 5168SOL     OW27136   2.142   4.687  13.328 -0.2557  0.3877 -0.0678
 5168SOL    HW127137   2.065   4.662  13.278 -0.1417  1.7462 -0.9463
 5168SOL    HW227138   2.133   0.044  13.354  0.2798  0.5099 -0.3216
 5169SOL     OW27139   1.584   0.479   8.368 -0.2578 -0.4904 -0.2974
 5169SOL    HW127140   1.555   0.501   8.280 -1.3989  0.3248  0.2936
 5169SOL    HW227141   1.527   0.536   8.419  1.5379  0.6483  0.4299
 5170SOL     OW27142   3.588   4.478   5.084 -0.1871 -0.4144 -0.0547
 5170SOL    HW127143   3.617   4.413   5.148  1.0568  2.8250  2.6558
 5170SOL    HW227144   3.542   4.547   5.132  0.0683 -0.1830 -0.1446
 5171SOL     OW27145   2.239   1.640   3.445  0.6046 -0.4040 -0.1049
 5171SOL    HW127146   2.280   1.693   3.513 -0.8313 -0.1790  0.5819
 5171SOL    HW227147   2.271   1.689   3.369  2.4962 -0.1806  0.8418
 5172SOL     OW27148   3.016   3.964   5.930  0.2031 -0.4693 -0.1335
 5172SOL    HW127149   2.961   3.996   5.858  1.0763 -0.9527 -1.0228
 5172SOL    HW227150   3.021   4.040   5.988  1.3157 -1.3667  0.9641
 5173SOL     OW27151   3.217   3.069  15.112  0.1232 -0.1340 -0.2520
 5173SOL    HW127152   3.228   3.038  15.202  0.7770 -2.9803 -1.3210
 5173SOL    HW227153   3.218   3.164  15.119 -0.6675 -0.2550  1.3895
 5174SOL     OW27154   3.182   0.687   7.591 -0.2516 -0.3620  0.7384
 5174SOL    HW127155   3.170   0.774   7.555 -1.4544 -1.6915 -2.0502
 5174SOL    HW227156   3.275   0.691   7.612  0.1000  0.2487 -0.9816
 5175SOL     OW27157   0.782   2.130  17.462 -0.0647 -0.0638  0.7424
 5175SOL    HW127158   0.850   2.191  17.489 -0.4883 -0.1828  2.1071
 5175SOL    HW227159   0.766   2.093  17.549  0.3296  4.7404  2.8547
 5176SOL     OW27160   3.610   2.160   1.684 -0.1610 -0.1738  0.1880
 5176SOL    HW127161   3.679   2.106   1.723 -0.8955 -0.6168  0.8632
 5176SOL    HW227162   3.557   2.101   1.631  1.6868  0.5247 -2.4536
 5177SOL     OW27163   3.834   0.757   7.296  0.0204 -0.0796  0.3130
 5177SOL    HW127164   3.766   0.824   7.290  1.4540  1.5664  2.3741
 5177SOL    HW227165   3.818   0.702   7.219 -0.3743  1.9766 -1.0762
 5178SOL     OW27166   0.772   3.385  14.782 -0.6167 -0.1340 -0.0578
 5178SOL    HW127167   0.736   3.428  14.860 -0.1165  1.5921 -0.7942
 5178SOL    HW227168   0.753   3.449  14.714 -0.2235  1.0158  0.9211
 5179SOL     OW27169   0.425   0.947   6.091 -0.6138 -0.1514  0.0979
 5179SOL    HW127170   0.491   0.945   6.160 -1.3474  0.1714  0.8175
 5179SOL    HW227171   0.478   0.954   6.012 -2.2638  2.3099 -0.7820
 5180SOL     OW27172   1.527   1.125   3.566 -0.0713  0.2193  0.2124
 5180SOL    HW127173   1.604   1.075   3.593 -0.8660 -0.2059  1.6973
 5180SOL    HW227174   1.568   1.152   3.484  3.0475 -0.6876  1.4861
 5181SOL     OW27175   4.390   3.494   3.385  0.0321  0.7040  0.1741
 5181SOL    HW127176   4.467   3.496   3.442  0.5925  0.4981 -0.5753
 5181SOL    HW227177   4.429   3.479   3.300  0.2865 -2.0854  0.8059
 5182SOL     OW27178   1.785   1.554   3.971 -0.2867  0.0733 -0.6800
 5182SOL    HW127179   1.784   1.559   3.876 -2.1586 -1.2190 -0.7258
 5182SOL    HW227180   1.710   1.611   3.989  0.5418  0.8588  0.3124
 5183SOL     OW27181   3.745   2.603   6.919 -0.1509  0.3269 -0.3050
 5183SOL    HW127182   3.791   2.687   6.916  0.6492 -0.1218 -0.4447
 5183SOL    HW227183   3.810   2.546   6.880  0.7133  1.3636 -0.3881
 5184SOL     OW27184   3.033   1.445   8.743  0.2543 -0.2106 -0.0859
 5184SOL    HW127185   3.088   1.522   8.755  0.3206 -0.4042  0.8090
 5184SOL    HW227186   3.001   1.421   8.830  0.1802  1.5275  0.3622
 5185SOL     OW27187   3.631   1.533   5.457  0.2050  0.5294  0.2730
 5185SOL    HW127188   3.606   1.445   5.484 -0.4405  0.7762  0.5015
 5185SOL    HW227189   3.564   1.559   5.394 -0.9296  3.0468  2.4849
 5186SOL     OW27190   3.059   0.066  17.068  0.0568  0.3481  0.0504
 5186SOL    HW127191   3.135   0.041  17.121 -0.8722 -1.5953  0.4852
 5186SOL    HW227192   3.041   0.149  17.112 -1.0842  0.2933 -0.2896
 5187SOL     OW27193   3.381   0.827   5.197 -0.0667 -0.0998 -0.1294
 5187SOL    HW127194   3.472   0.797   5.192 -0.4595 -0.9582 -1.9311
 5187SOL    HW227195   3.353   0.796   5.283  0.1617  2.2350  0.8030
 5188SOL     OW27196   4.525   0.346   6.184 -0.2641  0.5847  0.0374
 5188SOL    HW127197   4.584   0.343   6.109  1.0588  2.7286  0.9807
 5188SOL    HW227198   4.456   0.407   6.158  0.4204  1.0449 -0.6804
 5189SOL     OW27199   2.432   3.839  11.562 -0.2937 -0.0123 -0.5126
 5189SOL    HW127200   2.436   3.744  11.567  0.0057  0.0969  1.3441
 5189SOL    HW227201   2.366   3.853  11.630  1.3260 -0.0478  1.0591
 5190SOL     OW27202   0.115   3.967   3.453 -0.2366  0.1875  0.2906
 5190SOL    HW127203   0.081   3.920   3.528  0.4162 -2.1134 -0.8587
 5190SOL    HW227204   0.208   3.964   3.478 -0.4107  0.8516  1.0061
 5191SOL     OW27205   0.771   2.106  11.735  0.3470 -0.1355 -0.1930
 5191SOL    HW127206   0.855   2.151  11.744  0.6323 -0.6381 -0.3363
 5191SOL    HW227207   0.716   2.177  11.702  0.0024 -0.1467  0.3595
 5192SOL     OW27208   0.649   3.840   9.787  0.0415  0.7850 -0.6555
 5192SOL    HW127209   0.577   3.902   9.780  0.0990  0.8781 -0.4078
 5192SOL    HW227210   0.617   3.791   9.862  3.7559 -2.3303 -1.0786
 5193SOL     OW27211   4.219   0.514   5.113 -0.1800  0.5733  0.8618
 5193SOL    HW127212   4.297   0.525   5.167  1.5170  1.6821 -1.8099
 5193SOL    HW227213   4.149   0.537   5.174 -0.6804  0.3035  0.3913
 5194SOL     OW27214   3.544   0.435  15.702  0.4465 -0.1233 -0.0617
 5194SOL    HW127215   3.466   0.382  15.685  1.5985 -2.4988  2.0609
 5194SOL    HW227216   3.607   0.382  15.654  1.8675  1.5565 -0.0307
 5195SOL     OW27217   3.850   2.491  16.273  0.2044  0.1659 -0.0431
 5195SOL    HW127218   3.782   2.558  16.264 -0.3311 -0.4699 -0.7468
 5195SOL    HW227219   3.922   2.546  16.242  2.5585 -2.2855  1.0346
 5196SOL     OW27220   2.656   0.641  12.071 -0.3604  0.0054 -0.0083
 5196SOL    HW127221   2.622   0.678  11.989 -2.5611 -0.9820  0.4680
 5196SOL    HW227222   2.649   0.547  12.050 -1.8694 -0.0823  0.8877
 5197SOL     OW27223   4.032   0.617  14.326  0.2431 -0.0040 -0.5539
 5197SOL    HW127224   4.045   0.604  14.420  2.4903  0.9960 -0.7444
 5197SOL    HW227225   4.011   0.710  14.320 -1.8855 -0.4632 -0.5197
 5198SOL     OW27226   3.589   4.039   3.731 -0.5266 -0.1712  0.6204
 5198SOL    HW127227   3.597   4.017   3.638 -1.2970  1.0951  0.2606
 5198SOL    HW227228   3.591   3.948   3.761 -1.1619 -0.5096 -0.3874
 5199SOL     OW27229   0.926   4.336   3.354  0.0674  0.2994 -0.7571
 5199SOL    HW127230   0.991   4.273   3.386  1.3689  1.7889 -0.4799
 5199SOL    HW227231   0.977   4.401   3.305  0.0867  1.4620  0.8062
 5200SOL     OW27232   1.944   4.297   9.707 -0.5780 -0.0784  0.1594
 5200SOL    HW127233   1.866   4.337   9.745 -0.9653  0.9353 -1.7041
 5200SOL    HW227234   1.902   4.212   9.695 -1.1678  0.3354 -0.6976
 5201SOL     OW27235   4.402   0.745   7.032  0.0917 -0.0518 -0.0685
 5201SOL    HW127236   4.391   0.756   6.937  0.7380  1.3588  0.0299
 5201SOL    HW227237   4.330   0.804   7.057  2.5374  2.2328  1.5442
 5202SOL     OW27238   1.358   4.284   6.096 -0.0436 -0.3956 -0.5140
 5202SOL    HW127239   1.452   4.298   6.102 -0.2554  0.4482  0.7682
 5202SOL    HW227240   1.332   4.331   6.017 -2.1603 -2.1454 -0.8732
 5203SOL     OW27241   0.713   0.939   8.924  0.0282 -0.1467 -0.1013
 5203SOL    HW127242   0.807   0.954   8.911 -0.1021 -0.1380 -1.0113
 5203SOL    HW227243   0.691   0.971   9.012 -0.6023  0.8604 -0.6231
 5204SOL     OW27244   3.408   0.656  14.022  0.4133 -0.4578 -0.1861
 5204SOL    HW127245   3.476   0.649  14.088  0.8996 -0.8209 -0.7173
 5204SOL    HW227246   3.461   0.669  13.943  1.9359  0.5635  1.0307
 5205SOL     OW27247   0.876   3.771  12.079 -0.4032 -0.0746 -0.0960
 5205SOL    HW127248   0.825   3.797  12.003 -1.5501 -0.6921  0.4631
 5205SOL    HW227249   0.865   3.837  12.147 -1.8277 -0.7404  0.3347
 5206SOL     OW27250   4.717   0.743   4.411 -0.7342  0.3489 -0.5849
 5206SOL    HW127251   0.070   0.729   4.376 -1.0394 -0.4006 -1.0392
 5206SOL    HW227252   4.672   0.665   4.378  3.1207 -1.3946 -1.6276
 5207SOL     OW27253   0.601   2.174   7.514 -0.5404  0.6106 -0.1236
 5207SOL    HW127254   0.649   2.176   7.431 -1.3308  1.7709 -0.5573
 5207SOL    HW227255   0.635   2.252   7.557  0.5564  0.0984 -0.0571
 5208SOL     OW27256   4.145   4.565   8.286  0.0021  0.0182  0.4379
 5208SOL    HW127257   4.112   4.481   8.257  0.5431 -0.3065  0.7643
 5208SOL    HW227258   4.086   4.593   8.357 -0.9145  0.6238 -0.5684
 5209SOL     OW27259   3.544   2.614   4.512 -1.2192  0.4115  0.1740
 5209SOL    HW127260   3.615   2.661   4.470  0.1529 -0.8755  1.0489
 5209SOL    HW227261   3.573   2.523   4.516 -0.5220  0.6155 -0.2061
 5210SOL     OW27262   1.062   0.874   6.309  0.4935 -0.0212 -0.8236
 5210SOL    HW127263   1.020   0.788   6.314  1.1617 -0.1739  2.6026
 5210SOL    HW227264   1.107   0.867   6.225  0.0776  0.4499 -1.0809
 5211SOL     OW27265   1.470   4.031   5.333  0.5863 -0.0213 -0.0945
 5211SOL    HW127266   1.390   3.999   5.291  1.3480 -1.1997 -0.6328
 5211SOL    HW227267   1.433   4.060   5.417  0.8105  3.1844 -1.0854
 5212SOL     OW27268   2.201   1.755   7.988 -0.1540 -0.4317  0.6704
 5212SOL    HW127269   2.191   1.801   8.071  0.9301  1.8159 -0.4611
 5212SOL    HW227270   2.108   1.734   7.976  0.1905 -0.5909 -1.7364
 5213SOL     OW27271   1.235   0.453   3.573 -0.6908  0.2692  0.0994
 5213SOL    HW127272   1.198   0.539   3.552 -1.7859 -0.1720  0.2372
 5213SOL    HW227273   1.229   0.411   3.487 -0.7054 -2.8983  1.6412
 5214SOL     OW27274   0.706   1.356   5.384  0.0187  0.3623  0.6989
 5214SOL    HW127275   0.783   1.399   5.348  0.2986 -0.3649  0.4275
 5214SOL    HW227276   0.635   1.406   5.343 -0.0851  1.1850  1.8828
 5215SOL     OW27277   0.451   4.005   6.949 -0.5004  0.2373  0.7525
 5215SOL    HW127278   0.460   3.914   6.917  2.6158  0.7768  0.1116
 5215SOL    HW227279   0.545   4.025   6.949 -0.6474  0.9038 -0.0107
 5216SOL     OW27280   0.632   2.902   7.716 -0.5787  0.0546  0.5337
 5216SOL    HW127281   0.642   2.888   7.810 -1.4071 -2.7664  0.2239
 5216SOL    HW227282   0.640   2.811   7.687 -0.5498  0.4373 -0.6666
 5217SOL     OW27283   3.197   0.808   3.884  0.2142  0.0031  0.4804
 5217SOL    HW127284   3.185   0.896   3.919 -0.0895 -0.9976  2.9382
 5217SOL    HW227285   3.106   0.785   3.866  0.1402  2.7565 -2.5709
 5218SOL     OW27286   3.079   1.966   0.238 -0.4308  0.2541  0.2245
 5218SOL    HW127287   3.038   1.940   0.321  0.3384  0.0861  0.5540
 5218SOL    HW227288   3.160   1.994   0.281 -0.4543  0.2175  0.2923
 5219SOL     OW27289   0.287   3.577  16.776  0.2423  0.7874 -0.0529
 5219SOL    HW127290   0.331   3.617  16.701 -2.6215 -0.1445 -2.2066
 5219SOL    HW227291   0.345   3.583  16.852  0.3403 -2.8443  0.1412
 5220SOL     OW27292   4.691   1.320   6.271 -0.0869  0.2335 -0.7408
 5220SOL    HW127293   4.678   1.414   6.256  0.0804  0.1124 -1.6369
 5220SOL    HW227294   0.017   1.304   6.198 -0.5030 -2.7147 -0.4538
 5221SOL     OW27295   4.292   1.612   4.132  0.1433  0.4039  0.3605
 5221SOL    HW127296   4.350   1.550   4.087  1.6602  2.0276  0.0534
 5221SOL    HW227297   4.306   1.571   4.217  0.1854 -0.8328 -0.2459
 5222SOL     OW27298   4.150   0.534   7.860 -0.0817 -0.3323 -0.3327
 5222SOL    HW127299   4.224   0.495   7.906  0.0451 -1.1836 -1.2683
 5222SOL    HW227300   4.101   0.463   7.819  3.2203 -1.9750 -1.3500
 5223SOL     OW27301   0.630   1.038  15.791 -0.1507  0.2947 -0.3797
 5223SOL    HW127302   0.581   1.068  15.867  0.3179 -1.5629  0.6624
 5223SOL    HW227303   0.673   0.964  15.833 -1.7712  0.1442  1.0238
 5224SOL     OW27304   1.403   4.307   8.176  0.8951 -0.0245 -0.2783
 5224SOL    HW127305   1.379   4.215   8.192 -1.1212  0.7936  1.3702
 5224SOL    HW227306   1.319   4.351   8.190  0.9219  0.1387 -0.6521
 5225SOL     OW27307   3.152   3.405   0.984  0.7197 -0.7948  0.5775
 5225SOL    HW127308   3.118   3.387   0.897  1.7845  1.9981 -0.3983
 5225SOL    HW227309   3.069   3.396   1.032 -0.3249  0.9866 -0.9228
 5226SOL     OW27310   1.404   1.222   8.436  0.4935 -0.5877  0.3460
 5226SOL    HW127311   1.388   1.301   8.488  1.0981 -1.0512  1.2404
 5226SOL    HW227312   1.400   1.246   8.343 -0.9569  1.1561  0.8532
 5227SOL     OW27313   4.137   0.001  12.278 -0.5258  0.6297  0.4121
 5227SOL    HW127314   4.204   4.734  12.346 -2.1645  0.3384  2.0255
 5227SOL    HW227315   4.142   0.089  12.242  1.9993  1.0047  1.6879
 5228SOL     OW27316   2.643   4.146   1.893 -0.1225 -0.2080 -0.2575
 5228SOL    HW127317   2.675   4.059   1.916  1.3033 -0.3180 -2.6228
 5228SOL    HW227318   2.730   4.179   1.868  0.2293 -1.6659 -0.9677
 5229SOL     OW27319   4.442   4.352   8.762 -0.2058  0.2256  0.3934
 5229SOL    HW127320   4.465   4.444   8.777 -1.2780  0.6133 -0.4206
 5229SOL    HW227321   4.355   4.361   8.725 -0.8409  0.9847  2.0779
 5230SOL     OW27322   0.526   2.633   2.303  0.5458  0.4768 -0.1703
 5230SOL    HW127323   0.534   2.647   2.209 -1.2745  3.9034  0.1981
 5230SOL    HW227324   0.495   2.543   2.298 -1.6977  1.1037  2.7031
 5231SOL     OW27325   2.846   0.658   2.633  0.1159  0.2228  0.7019
 5231SOL    HW127326   2.834   0.745   2.671  0.0523  0.6461 -0.2755
 5231SOL    HW227327   2.813   0.599   2.700 -1.5683  1.3619  0.8802
 5232SOL     OW27328   4.173   4.648   5.584  0.1429 -0.2481 -0.5697
 5232SOL    HW127329   4.078   4.640   5.592  0.0109  0.2174 -1.6681
 5232SOL    HW227330   4.195   4.675   5.674 -0.0042  0.3240 -0.7044
 5233SOL     OW27331   3.030   2.329  17.647  0.1840  0.6740  0.8321
 5233SOL    HW127332   2.996   2.298  17.731  1.3445 -0.6787  0.8042
 5233SOL    HW227333   3.090   2.399  17.674  1.9942 -0.7241  0.4685
 5234SOL     OW27334   2.667   2.703   8.880  0.1921 -0.1196  0.3467
 5234SOL    HW127335   2.601   2.675   8.942  2.6536  0.3302  3.1798
 5234SOL    HW227336   2.671   2.798   8.868 -0.0368  0.0419  1.5649
 5235SOL     OW27337   2.695   2.197   0.248  0.0820  0.1671 -0.8327
 5235SOL    HW127338   2.773   2.157   0.210  0.1457 -0.6242  0.1544
 5235SOL    HW227339   2.722   2.288   0.238  0.3855  0.6161  3.9208
 5236SOL     OW27340   3.331   0.205  10.165 -0.4267  0.1389 -0.6920
 5236SOL    HW127341   3.396   0.185  10.098 -0.8697 -0.4202 -0.9579
 5236SOL    HW227342   3.253   0.191  10.111 -0.0915 -0.8743 -0.9148
 5237SOL     OW27343   0.346   4.713   6.184  0.0107 -0.6255 -0.2564
 5237SOL    HW127344   0.357   4.690   6.092  0.5508  0.2340 -0.4100
 5237SOL    HW227345   0.433   0.015   6.192  0.3340 -1.3936 -0.2591
 5238SOL     OW27346   2.938   4.143   3.133  0.1988  0.2288  0.0957
 5238SOL    HW127347   2.874   4.214   3.129  0.1925  0.1959 -0.4254
 5238SOL    HW227348   2.880   4.069   3.115  1.5427 -0.8361  0.1576
 5239SOL     OW27349   0.162   1.659  17.011 -0.4041 -0.4309 -0.3998
 5239SOL    HW127350   0.127   1.644  17.099 -0.0086  0.0988 -0.1519
 5239SOL    HW227351   0.200   1.743  17.038 -0.3985  0.2166 -2.4919
 5240SOL     OW27352   4.337   2.354   9.501  0.1018  0.8833  0.1805
 5240SOL    HW127353   4.432   2.363   9.505  0.1945  0.3117 -0.6310
 5240SOL    HW227354   4.301   2.443   9.502 -1.4099  0.2670  1.3149
 5241SOL     OW27355   4.563   1.043   3.012  0.0474  0.8779  0.0107
 5241SOL    HW127356   4.482   1.091   2.997 -1.1303 -1.1893 -0.2089
 5241SOL    HW227357   4.540   0.951   3.026 -2.2075  1.9046  2.9724
 5242SOL     OW27358   1.740   0.002   7.040 -0.4248  0.2065  0.0405
 5242SOL    HW127359   1.800   0.076   7.046 -0.4993  0.2027  0.8255
 5242SOL    HW227360   1.676   0.055   6.992 -0.4206 -1.4723 -1.7835
 5243SOL     OW27361   4.410   2.786  12.769  0.1560 -0.0694  0.2606
 5243SOL    HW127362   4.407   2.692  12.789  2.1282 -0.5001 -1.3808
 5243SOL    HW227363   4.419   2.782  12.674  1.9463 -1.2965  0.4742
 5244SOL     OW27364   3.458   0.676   7.607 -0.1690  0.2558 -0.4866
 5244SOL    HW127365   3.467   0.705   7.516  2.2267 -3.4256 -1.4609
 5244SOL    HW227366   3.543   0.696   7.645 -0.0895 -0.1273 -0.4669
 5245SOL     OW27367   0.702   3.726  10.649 -0.2189 -0.1488  0.0613
 5245SOL    HW127368   0.697   3.703  10.742 -1.1292  1.8951  0.5150
 5245SOL    HW227369   0.748   3.651  10.612  1.6256  0.7530  0.5593
 5246SOL     OW27370   2.317   0.559  10.394  0.0710 -0.0581 -0.4312
 5246SOL    HW127371   2.294   0.637  10.445 -2.4451  1.5053 -4.0332
 5246SOL    HW227372   2.230   0.536  10.361 -1.0344  5.2139 -1.1862
 5247SOL     OW27373   4.277   0.129   8.640 -0.6794 -0.2075  0.3973
 5247SOL    HW127374   4.226   0.192   8.590  0.6126 -1.0407 -1.9672
 5247SOL    HW227375   4.222   0.051   8.649 -2.8785  1.3387  0.3259
 5248SOL     OW27376   0.998   3.380   2.070 -0.0149 -0.1506  0.2850
 5248SOL    HW127377   1.073   3.362   2.013 -1.5634 -1.0985 -1.4608
 5248SOL    HW227378   1.015   3.471   2.096  1.1190 -0.2059 -0.2552
 5249SOL     OW27379   0.550   0.611   7.488 -0.4962  0.0803 -0.1391
 5249SOL    HW127380   0.460   0.645   7.486 -0.4097  0.1229 -2.9928
 5249SOL    HW227381   0.603   0.688   7.508  0.2768 -0.9113  1.6346
 5250SOL     OW27382   3.785   0.811   6.118  0.4717  0.0722 -0.0878
 5250SOL    HW127383   3.871   0.849   6.138  0.1217  1.6771 -1.6091
 5250SOL    HW227384   3.755   0.792   6.207  1.5736  2.8929  0.8869
 5251SOL     OW27385   3.708   1.843   0.471 -0.0582 -0.4059 -0.1016
 5251SOL    HW127386   3.792   1.798   0.456  0.0747  0.3046 -1.4702
 5251SOL    HW227387   3.669   1.789   0.539  0.6485 -2.2145 -1.1223
 5252SOL     OW27388   1.725   1.308   9.448 -0.1899  0.1308 -0.4493
 5252SOL    HW127389   1.644   1.360   9.449 -0.9847 -1.0857 -1.7124
 5252SOL    HW227390   1.759   1.343   9.530 -0.9897  0.7890 -0.3921
 5253SOL     OW27391   1.022   2.215  11.695  0.7830 -0.3963 -0.0829
 5253SOL    HW127392   0.994   2.232  11.605  0.3174  1.3804  0.3861
 5253SOL    HW227393   1.111   2.197  11.665  1.1584  0.9892  0.1765
 5254SOL     OW27394   1.845   2.496   8.484  0.1778 -0.7997  0.2267
 5254SOL    HW127395   1.845   2.418   8.540 -1.3708 -1.8866 -1.2946
 5254SOL    HW227396   1.805   2.450   8.410  1.2121 -0.4534 -0.5471
 5255SOL     OW27397   0.202   4.716  14.998  0.2410 -0.0688 -0.0917
 5255SOL    HW127398   0.261   0.052  14.973 -1.1967  1.5837  1.1289
 5255SOL    HW227399   0.149   0.034  15.059 -1.1120 -1.2435 -0.2506
 5256SOL     OW27400   3.160   1.652   2.345 -0.2858  1.0091  0.1426
 5256SOL    HW127401   3.067   1.630   2.342  0.1545 -0.6049 -2.4114
 5256SOL    HW227402   3.174   1.708   2.269  1.4333  2.5450  1.5878
 5257SOL     OW27403   0.877   1.623   5.278 -0.7963 -0.2647  0.4610
 5257SOL    HW127404   0.899   1.557   5.213  0.7955  0.5722  0.1388
 5257SOL    HW227405   0.835   1.696   5.233  1.6810 -0.3424 -1.9706
 5258SOL     OW27406   3.388   4.702   6.729  0.0081 -0.3031  0.0786
 5258SOL    HW127407   3.380   4.607   6.732 -0.2592 -0.2772  0.1749
 5258SOL    HW227408   3.409   4.718   6.637 -0.3251  2.1719  0.4218
 5259SOL     OW27409   1.969   3.183   8.996 -0.0939  0.5852 -0.5863
 5259SOL    HW127410   1.925   3.252   9.045 -0.2948  0.0993 -0.0712
 5259SOL    HW227411   1.954   3.112   9.059  1.6144 -0.5876 -1.5054
 5260SOL     OW27412   2.559   3.715  10.073 -0.0177 -0.8289 -0.3298
 5260SOL    HW127413   2.639   3.665  10.089 -0.5012 -2.1716 -2.0086
 5260SOL    HW227414   2.542   3.666   9.992  0.0101  1.7888 -1.9555
 5261SOL     OW27415   3.699   1.722   1.823 -0.0776 -0.1610 -0.0337
 5261SOL    HW127416   3.747   1.655   1.774 -0.7957 -2.2353  2.0767
 5261SOL    HW227417   3.622   1.744   1.770  0.2379  2.3544  0.5366
 5262SOL     OW27418   2.349   2.847   4.100  0.2913 -0.1946  0.1079
 5262SOL    HW127419   2.372   2.914   4.164 -0.8284 -0.3052  0.6225
 5262SOL    HW227420   2.409   2.776   4.122  2.2248  1.5699  0.5010
 5263SOL     OW27421   2.184   3.617   2.295 -0.4528 -0.2811 -0.2041
 5263SOL    HW127422   2.168   3.524   2.282 -1.0016 -0.1874 -0.1991
 5263SOL    HW227423   2.225   3.645   2.213  2.3809  2.0318  2.0138
 5264SOL     OW27424   3.052   3.701   6.693 -0.3403 -0.3849  0.2082
 5264SOL    HW127425   3.121   3.702   6.759  0.9546 -1.0727 -1.1508
 5264SOL    HW227426   3.083   3.633   6.634  2.3131 -1.3058  2.6627
 5265SOL     OW27427   1.081   3.998   8.487  0.0955  0.8854  0.4472
 5265SOL    HW127428   1.124   3.914   8.474 -1.3534 -0.0052  1.4060
 5265SOL    HW227429   1.094   4.001   8.582  0.4324 -0.9541  0.4568
 5266SOL     OW27430   4.320   1.418   8.451  0.3810  0.3219  0.0630
 5266SOL    HW127431   4.289   1.508   8.461 -0.5768 -0.0746  0.7389
 5266SOL    HW227432   4.408   1.429   8.415  0.0829 -0.7793 -0.9903
 5267SOL     OW27433   1.104   1.814   8.084 -0.3858 -0.1662  0.4843
 5267SOL    HW127434   1.063   1.898   8.067 -0.5395 -0.3788 -0.1979
 5267SOL    HW227435   1.054   1.765   8.018 -0.8295  1.2965 -0.2478
 5268SOL     OW27436   4.396   0.296   4.683  0.0072  0.7195  0.1149
 5268SOL    HW127437   4.451   0.247   4.744 -0.6544  1.9108  1.6714
 5268SOL    HW227438   4.311   0.263   4.713  0.0829 -0.1655 -0.6427
 5269SOL     OW27439   1.958   1.592   7.192  0.1041  0.9201  0.1133
 5269SOL    HW127440   1.990   1.592   7.282 -2.2453 -1.4422  0.9270
 5269SOL    HW227441   1.958   1.686   7.176 -0.7977  0.6517 -1.4583
 5270SOL     OW27442   4.510   0.288   8.810 -0.0361 -0.2403  0.2508
 5270SOL    HW127443   4.512   0.365   8.753  1.9698  0.6599  1.5595
 5270SOL    HW227444   4.456   0.226   8.761 -1.0630  0.6366  0.2573
 5271SOL     OW27445   2.785   0.099  15.800  0.3155 -0.4367  0.1101
 5271SOL    HW127446   2.875   0.091  15.830  0.7407 -0.3498 -1.1413
 5271SOL    HW227447   2.786   0.087  15.705 -0.1994 -2.4528  0.3482
 5272SOL     OW27448   1.904   0.207   4.757 -0.0745 -0.1914 -0.4683
 5272SOL    HW127449   1.916   0.231   4.665  1.4174  2.1585  0.3547
 5272SOL    HW227450   1.808   0.204   4.762 -0.1233  0.6533 -0.9053
 5273SOL     OW27451   0.887   1.400   5.085 -0.5364 -0.1454  0.3526
 5273SOL    HW127452   0.807   1.347   5.091 -0.9873  0.4340 -0.4794
 5273SOL    HW227453   0.949   1.343   5.130 -0.0120  0.5852  0.5477
 5274SOL     OW27454   4.548   1.638   4.374  0.4633 -0.2399  0.1207
 5274SOL    HW127455   4.482   1.570   4.360 -0.0894 -0.3160  2.9085
 5274SOL    HW227456   4.510   1.663   4.458  1.0772 -1.7268  0.8465
 5275SOL     OW27457   0.988   1.490   3.158  0.1814 -0.2946  0.0100
 5275SOL    HW127458   0.913   1.434   3.140 -0.1951 -0.1492  1.1206
 5275SOL    HW227459   1.035   1.479   3.075 -1.3534 -1.8959 -0.6423
 5276SOL     OW27460   4.147   0.023   5.841 -0.5474  0.1912 -0.0606
 5276SOL    HW127461   4.082   0.054   5.905  1.2585 -0.7843  2.2425
 5276SOL    HW227462   4.175   4.680   5.888 -1.3146 -1.0376 -1.6596
 5277SOL     OW27463   2.923   2.537   1.974  0.0668  0.3375  0.4345
 5277SOL    HW127464   2.917   2.520   1.880  0.7767 -0.1632  0.4776
 5277SOL    HW227465   3.000   2.486   2.000  0.1206  0.0833 -0.2305
 5278SOL     OW27466   2.298   2.841   6.862  0.0998  0.0591 -0.4119
 5278SOL    HW127467   2.237   2.910   6.886  1.4661  0.8043  0.9249
 5278SOL    HW227468   2.247   2.760   6.855 -1.1061  0.7733  0.1796
 5279SOL     OW27469   3.141   0.044   0.537  0.0764  0.0810  0.3743
 5279SOL    HW127470   3.097   0.030   0.621 -0.4133  0.1472  0.1243
 5279SOL    HW227471   3.184   0.128   0.556 -3.0384  2.2920 -2.5804
 5280SOL     OW27472   3.626   2.857   5.241 -0.0632  0.1333  0.1358
 5280SOL    HW127473   3.549   2.843   5.296 -0.6977 -1.9785 -1.2904
 5280SOL    HW227474   3.677   2.889   5.315  0.3524 -0.9212  0.3043
 5281SOL     OW27475   0.390   2.690  14.978  0.4421  0.4419  0.1095
 5281SOL    HW127476   0.460   2.751  15.000  0.3041  1.1722 -1.4325
 5281SOL    HW227477   0.438   2.613  14.948 -0.5647 -0.4293  0.7365
 5282SOL     OW27478   3.179   0.927  12.850  0.2363  0.1791 -0.2463
 5282SOL    HW127479   3.190   1.013  12.809 -1.9875  0.6964  0.2836
 5282SOL    HW227480   3.265   0.912  12.891  0.3122 -1.6492 -1.1035
 5283SOL     OW27481   2.993   1.275   3.934  0.2745  1.0255  0.3521
 5283SOL    HW127482   2.909   1.268   3.980  0.5074  0.1201  0.6434
 5283SOL    HW227483   3.001   1.368   3.914 -2.0055  1.0812 -0.3254
 5284SOL     OW27484   0.664   1.102  15.419 -0.4868  0.3763  0.2281
 5284SOL    HW127485   0.694   1.193  15.407  0.3724 -0.3276 -2.9441
 5284SOL    HW227486   0.737   1.058  15.463  0.6982  2.3153  0.2117
 5285SOL     OW27487   3.926   2.627   0.750 -0.0658  0.0569  0.1238
 5285SOL    HW127488   3.872   2.596   0.822  1.3731 -0.5691  0.9258
 5285SOL    HW227489   3.859   2.669   0.696  2.2552 -0.6447 -3.2921
 5286SOL     OW27490   1.936   0.407   4.107  0.0697  0.5593  0.3050
 5286SOL    HW127491   2.022   0.387   4.068 -0.5174 -0.6379 -0.3799
 5286SOL    HW227492   1.942   0.498   4.134  3.0447  0.0540  1.4167
 5287SOL     OW27493   2.376   4.171   5.227 -0.1240  0.0609 -0.4343
 5287SOL    HW127494   2.305   4.155   5.290  0.2306 -2.1479 -0.6071
 5287SOL    HW227495   2.452   4.181   5.285  0.7876 -0.1048 -1.6138
 5288SOL     OW27496   1.245   2.996   6.645  0.8466 -0.4057 -0.4591
 5288SOL    HW127497   1.333   3.025   6.623  1.1639 -0.4610  0.7232
 5288SOL    HW227498   1.244   2.942   6.566 -1.3157 -1.7758  0.5213
 5289SOL     OW27499   4.019   2.310   6.564  0.0370  0.1252 -0.3858
 5289SOL    HW127500   3.943   2.287   6.511 -2.1748  0.5923  2.5993
 5289SOL    HW227501   4.060   2.380   6.512 -0.2314 -0.0490 -0.8347
 5290SOL     OW27502   4.210   0.057  11.964  0.0021 -0.7459 -0.1211
 5290SOL    HW127503   4.300   0.083  11.945 -0.4516 -0.3658 -1.7703
 5290SOL    HW227504   4.214   4.698  11.978  0.7908 -0.7362 -0.3109
 5291SOL     OW27505   2.546   2.262   3.135 -0.2027  0.5269  0.2602
 5291SOL    HW127506   2.624   2.318   3.132  0.8148 -0.9546 -0.8956
 5291SOL    HW227507   2.510   2.271   3.223  0.6763 -0.6444  0.7417
 5292SOL     OW27508   0.248   4.118   7.542 -0.8289  0.1453 -0.3016
 5292SOL    HW127509   0.279   4.031   7.517  1.8307  0.6744  1.1270
 5292SOL    HW227510   0.159   4.096   7.570 -1.0354  1.3558 -0.0057
 5293SOL     OW27511   4.110   1.235   2.122 -0.1236 -0.2224 -0.1390
 5293SOL    HW127512   4.043   1.170   2.145  0.1062 -0.9317 -1.4718
 5293SOL    HW227513   4.164   1.187   2.059 -0.0862 -1.6409  0.9547
 5294SOL     OW27514   3.470   2.760   8.805 -0.1373 -0.2777 -0.1816
 5294SOL    HW127515   3.403   2.758   8.737  0.1057  0.2388 -0.4346
 5294SOL    HW227516   3.437   2.689   8.860 -0.2298  1.0881  1.5134
 5295SOL     OW27517   3.666   2.913  13.061 -0.1880  0.6297 -0.3241
 5295SOL    HW127518   3.723   2.858  13.114 -1.6240 -0.6233 -0.0904
 5295SOL    HW227519   3.736   2.943  13.003  0.1840  1.5972  0.6324
 5296SOL     OW27520   0.044   2.046   3.190  0.0882  0.3387  0.1424
 5296SOL    HW127521   0.095   2.116   3.150  1.2675 -0.9136 -0.5823
 5296SOL    HW227522   0.036   2.067   3.283  0.4214 -1.1613  0.5250
 5297SOL     OW27523   3.209   4.534   2.666 -0.0969 -0.1301 -0.0234
 5297SOL    HW127524   3.303   4.553   2.654 -0.4282  0.6357 -1.4325
 5297SOL    HW227525   3.217   4.467   2.734  0.8517  1.0698  1.0532
 5298SOL     OW27526   1.516   0.697   8.531  0.0429  0.8350  0.2437
 5298SOL    HW127527   1.535   0.790   8.517  1.0311  0.7633  1.0640
 5298SOL    HW227528   1.570   0.686   8.610 -0.3382  1.3388  0.5790
 5299SOL     OW27529   3.352   3.639  16.533  0.3582  0.0221 -0.9854
 5299SOL    HW127530   3.356   3.557  16.582 -0.5577  1.0465  0.7961
 5299SOL    HW227531   3.361   3.619  16.440 -2.5593  0.0263 -1.2492
 5300SOL     OW27532   2.032   0.586  10.562  0.3855  0.0157 -0.8243
 5300SOL    HW127533   1.985   0.577  10.479 -0.5334 -1.5483 -0.1242
 5300SOL    HW227534   2.038   0.681  10.554  0.0020 -0.0645 -2.1171
 5301SOL     OW27535   3.226   3.380   6.756  0.5632 -0.4071 -0.2386
 5301SOL    HW127536   3.225   3.412   6.666 -1.1049  0.0130 -0.0632
 5301SOL    HW227537   3.287   3.437   6.801  0.4270 -0.5179  0.0897
 5302SOL     OW27538   1.968   2.862   5.853 -0.0245  0.6835 -0.2488
 5302SOL    HW127539   2.017   2.938   5.823  1.2358 -0.6073 -1.4687
 5302SOL    HW227540   1.919   2.837   5.775  1.2152 -0.7560 -0.5748
 5303SOL     OW27541   2.390   0.115  11.263 -0.2120 -0.2391 -0.0744
 5303SOL    HW127542   2.309   0.149  11.304 -0.1886 -2.6865  2.0344
 5303SOL    HW227543   2.436   0.198  11.252 -1.8044  0.5907 -0.4985
 5304SOL     OW27544   2.134   1.841  10.260  0.0813 -0.3888 -0.0006
 5304SOL    HW127545   2.107   1.894  10.185  0.8734  0.4113  0.2802
 5304SOL    HW227546   2.230   1.840  10.252  0.1307 -2.5702  0.8181
 5305SOL     OW27547   2.348   3.925   4.522 -0.2107 -0.3627 -0.2164
 5305SOL    HW127548   2.306   3.844   4.550  0.5766 -0.7192 -0.0684
 5305SOL    HW227549   2.385   3.964   4.601 -0.0962  0.6266 -0.7613
 5306SOL     OW27550   3.270   2.916   5.762  0.3338 -0.0025  0.1600
 5306SOL    HW127551   3.305   2.871   5.686 -1.5810  0.1952 -0.8349
 5306SOL    HW227552   3.212   2.846   5.794  0.8504 -0.2478  0.5596
 5307SOL     OW27553   0.925   0.213   8.639 -0.1955  0.0994  0.2852
 5307SOL    HW127554   0.933   0.125   8.601 -0.3346 -1.0527  2.9681
 5307SOL    HW227555   0.866   0.188   8.709 -0.7493  0.1052 -0.1763
 5308SOL     OW27556   1.868   4.397   4.346 -0.2483 -0.1611  0.0824
 5308SOL    HW127557   1.815   4.474   4.365 -0.5683 -0.1898 -0.7275
 5308SOL    HW227558   1.920   4.420   4.269  0.1274  0.3317  0.4784
 5309SOL     OW27559   2.454   4.634  15.498  0.6300  0.2441 -0.5389
 5309SOL    HW127560   2.466   4.724  15.470 -1.1736  0.5753 -0.2123
 5309SOL    HW227561   2.442   4.632  15.593 -0.5017  0.2138 -0.6799
 5310SOL     OW27562   2.925   0.079   8.138  0.2294 -0.3726 -0.3081
 5310SOL    HW127563   2.994   0.130   8.096 -1.1076  0.6538 -1.2260
 5310SOL    HW227564   2.956   0.091   8.228  1.6773 -1.2905 -0.6816
 5311SOL     OW27565   1.728   0.329   5.517  0.5046  0.2167 -0.0348
 5311SOL    HW127566   1.787   0.347   5.443  0.2589  0.5763 -0.1438
 5311SOL    HW227567   1.775   0.368   5.590  2.2619 -0.4597 -0.7966
 5312SOL     OW27568   4.722   1.504  14.841 -0.3367  0.3322  0.4830
 5312SOL    HW127569   4.675   1.432  14.882  1.0642 -2.0862 -2.2533
 5312SOL    HW227570   4.661   1.578  14.832 -0.9943 -0.5232 -2.1150
 5313SOL     OW27571   2.419   4.483   3.761  0.0856 -0.1786  0.1590
 5313SOL    HW127572   2.378   4.483   3.674 -0.3220 -1.2644  0.3473
 5313SOL    HW227573   2.372   4.411   3.803 -1.0241  0.9340  0.8217
 5314SOL     OW27574   2.771   1.908  16.916 -0.0017 -0.2868  0.0622
 5314SOL    HW127575   2.792   1.839  16.852  0.3992  0.3704 -0.5206
 5314SOL    HW227576   2.854   1.954  16.926  0.3631 -0.8350 -0.4334
 5315SOL     OW27577   4.428   3.831   8.116 -0.6136  0.2684  0.3874
 5315SOL    HW127578   4.521   3.807   8.113 -0.6124 -0.0635  2.9731
 5315SOL    HW227579   4.436   3.900   8.050 -0.2697  0.5502  0.7190
 5316SOL     OW27580   0.856   0.672  12.346 -0.1983 -0.2547 -0.0306
 5316SOL    HW127581   0.778   0.658  12.291  0.0132  0.6950 -0.5753
 5316SOL    HW227582   0.822   0.733  12.412  1.0694  0.2991  0.1003
 5317SOL     OW27583   2.152   2.411   5.022 -0.2652 -0.3072 -0.3966
 5317SOL    HW127584   2.108   2.488   4.987  0.3271  0.1891 -0.0570
 5317SOL    HW227585   2.195   2.443   5.101  0.3084 -1.8596 -0.0704
 5318SOL     OW27586   4.087   2.133   0.117  0.1362  0.5639 -0.5626
 5318SOL    HW127587   4.079   2.069   0.046  0.9203 -0.8605  0.6470
 5318SOL    HW227588   4.059   2.080   0.191  1.4210  1.0740  0.2841
 5319SOL     OW27589   1.889   3.082  10.941 -0.1434 -0.2286  0.0650
 5319SOL    HW127590   1.795   3.067  10.930 -0.1871  0.2693 -0.2198
 5319SOL    HW227591   1.895   3.177  10.935  0.0793 -0.3062 -1.0485
 5320SOL     OW27592   2.465   0.025  16.028  0.8791 -0.1091  0.2238
 5320SOL    HW127593   2.494   4.675  16.061  1.4961 -0.5643 -1.4881
 5320SOL    HW227594   2.522   0.072  16.089  2.5258  0.8053 -1.9870
 5321SOL     OW27595   2.143   3.441   9.067 -0.0565 -0.1050  0.0312
 5321SOL    HW127596   2.056   3.412   9.042 -0.1009 -0.6729  0.8486
 5321SOL    HW227597   2.131   3.448   9.162 -0.3267  1.8350 -0.1444
 5322SOL     OW27598   2.182   3.236  17.317  0.0849  0.1105 -0.0976
 5322SOL    HW127599   2.117   3.203  17.380  1.8613  0.1417  1.7434
 5322SOL    HW227600   2.150   3.323  17.295 -1.0102 -0.9304 -2.7373
 5323SOL     OW27601   4.425   2.102   7.333 -0.1633 -0.1082  0.2921
 5323SOL    HW127602   4.456   2.172   7.276 -3.7179 -0.0846 -1.6078
 5323SOL    HW227603   4.453   2.127   7.421 -0.0926 -3.1297  1.1177
 5324SOL     OW27604   4.298   4.351   8.159  0.1519  0.5340 -0.0123
 5324SOL    HW127605   4.327   4.355   8.250  1.4389  0.0122 -0.3941
 5324SOL    HW227606   4.280   4.444   8.145 -2.7850  0.2976  2.2560
 5325SOL     OW27607   2.834   2.219   3.113  0.1466 -0.0522  0.4209
 5325SOL    HW127608   2.830   2.173   3.196 -1.6814  0.0153  0.3697
 5325SOL    HW227609   2.862   2.153   3.049 -0.8390  0.1855 -0.2526
 5326SOL     OW27610   4.169   3.098  10.558  0.0700 -0.2304 -0.2174
 5326SOL    HW127611   4.189   3.005  10.548 -2.2949 -0.7666  0.0813
 5326SOL    HW227612   4.135   3.113  10.470 -0.6609  2.4876  0.5306
 5327SOL     OW27613   2.438   3.646  16.539  0.2995 -0.7400  0.7336
 5327SOL    HW127614   2.526   3.681  16.528  0.6594 -1.2670  1.9337
 5327SOL    HW227615   2.440   3.558  16.501 -1.9371 -0.7851  0.6907
 5328SOL     OW27616   1.639   3.509  16.949  0.3084 -0.0852 -0.4184
 5328SOL    HW127617   1.668   3.474  16.865  0.3523 -0.4153 -0.2675
 5328SOL    HW227618   1.560   3.560  16.929 -0.7756 -1.2287  0.8675
 5329SOL     OW27619   2.755   2.478   0.172 -0.2062 -0.7150 -0.5194
 5329SOL    HW127620   2.792   2.537   0.237 -1.1352  3.8119 -4.1377
 5329SOL    HW227621   2.730   2.541   0.105  1.6415  0.4774 -0.1036
 5330SOL     OW27622   3.595   1.095  10.852  0.4120  0.1420  0.0501
 5330SOL    HW127623   3.581   1.142  10.935 -0.4983  1.7654 -1.0287
 5330SOL    HW227624   3.553   1.157  10.793  2.7265  1.1906 -0.4612
 5331SOL     OW27625   3.181   0.500   5.523 -0.0497  0.2745  0.0593
 5331SOL    HW127626   3.121   0.550   5.579 -0.3488  0.4101 -0.3867
 5331SOL    HW227627   3.204   0.429   5.583  1.2520 -1.1969 -2.2139
 5332SOL     OW27628   3.919   2.071   2.323  0.5087 -0.1503 -0.1259
 5332SOL    HW127629   4.009   2.086   2.293  0.7363 -0.5946  0.3300
 5332SOL    HW227630   3.944   2.039   2.410  1.1560  2.4885  0.6791
 5333SOL     OW27631   2.889   0.709   2.371  0.0121 -0.1716 -0.0480
 5333SOL    HW127632   2.848   0.721   2.457  1.3593  1.3929  0.3695
 5333SOL    HW227633   2.890   0.614   2.362 -1.2667 -0.2236  0.4227
 5334SOL     OW27634   3.964   4.173   5.644 -0.5307 -0.5461  0.8403
 5334SOL    HW127635   3.927   4.260   5.628 -0.3788 -0.1748  2.5098
 5334SOL    HW227636   3.993   4.146   5.557 -0.4202 -2.3441  1.4375
 5335SOL     OW27637   1.669   2.527  11.168  0.4388  0.4859  0.1446
 5335SOL    HW127638   1.699   2.484  11.248 -1.8886 -3.0286 -0.8982
 5335SOL    HW227639   1.749   2.573  11.143 -0.1823  2.4858  1.8272
 5336SOL     OW27640   0.370   4.475   0.752 -0.2293  0.8856 -0.0785
 5336SOL    HW127641   0.284   4.517   0.766  0.1663  1.2486  1.2960
 5336SOL    HW227642   0.359   4.438   0.665 -0.7885 -0.6096  0.6304
 5337SOL     OW27643   0.616   2.532   6.354 -0.1601 -0.4229 -0.0048
 5337SOL    HW127644   0.601   2.603   6.417  1.9761 -1.1454  1.3062
 5337SOL    HW227645   0.672   2.475   6.406  0.7129  0.4931  0.0605
 5338SOL     OW27646   3.448   1.669   0.023  0.4765 -0.1035  0.3538
 5338SOL    HW127647   3.496   1.671  17.679  0.1353  0.0331  0.1583
 5338SOL    HW227648   3.366   1.709  17.731  0.8338  0.1773 -0.2260
 5339SOL     OW27649   0.322   2.753  17.334  0.0016 -0.1791  0.1967
 5339SOL    HW127650   0.234   2.717  17.320  0.6680 -2.2174  1.1922
 5339SOL    HW227651   0.349   2.752  17.242 -0.8954  1.2500 -0.0893
 5340SOL     OW27652   2.571   3.823   3.862  0.0969 -0.1005 -0.2258
 5340SOL    HW127653   2.536   3.737   3.884  2.1096 -1.1528 -1.1311
 5340SOL    HW227654   2.522   3.826   3.780  1.5430  1.2234 -1.0372
 5341SOL     OW27655   3.145   0.900   4.399  0.5996 -0.2885  0.1377
 5341SOL    HW127656   3.137   0.894   4.494 -1.0859  1.9840  0.1433
 5341SOL    HW227657   3.239   0.918   4.388  0.0503  1.7929 -1.1313
 5342SOL     OW27658   3.831   2.799   8.365 -0.3766  0.1364  0.2008
 5342SOL    HW127659   3.877   2.735   8.419 -0.3967 -0.0365  0.0143
 5342SOL    HW227660   3.782   2.739   8.308  1.1166  0.2214 -1.1571
 5343SOL     OW27661   3.028   0.294   3.614  0.0102 -0.1373 -0.0081
 5343SOL    HW127662   3.047   0.214   3.566 -0.5352 -0.6105  0.5679
 5343SOL    HW227663   3.041   0.258   3.702 -1.8762 -2.6439 -0.7589
 5344SOL     OW27664   0.131   3.111   7.037  0.3249 -0.4025 -0.8929
 5344SOL    HW127665   0.118   3.201   7.066  3.6599 -0.2860  0.2694
 5344SOL    HW227666   0.192   3.083   7.106 -0.7392  1.0452  0.6360
 5345SOL     OW27667   3.325   0.317   8.628  0.2980  0.8283 -0.2788
 5345SOL    HW127668   3.282   0.247   8.579  1.8557  0.1178 -0.6133
 5345SOL    HW227669   3.389   0.358   8.570 -0.0393  0.6033 -0.8108
 5346SOL     OW27670   0.437   1.494   6.071 -0.5383 -0.7318 -0.1449
 5346SOL    HW127671   0.521   1.539   6.085 -0.9544 -0.4846  1.5869
 5346SOL    HW227672   0.388   1.560   6.022  0.0254  1.2725  2.0110
 5347SOL     OW27673   2.403   2.804  16.097 -0.1574 -0.0796  0.4105
 5347SOL    HW127674   2.471   2.872  16.089  1.0550 -1.2139  1.0015
 5347SOL    HW227675   2.341   2.850  16.152 -0.3494  0.0257  0.1027
 5348SOL     OW27676   3.856   3.642  13.301 -0.5387  0.3873  0.5069
 5348SOL    HW127677   3.799   3.576  13.340 -0.2207 -0.9335 -1.3282
 5348SOL    HW227678   3.945   3.608  13.296 -1.0921 -1.1955  1.2487
 5349SOL     OW27679   1.934   0.109   7.997  0.2167  0.1902 -0.1446
 5349SOL    HW127680   1.923   0.022   7.959  0.8693  0.1601 -0.2771
 5349SOL    HW227681   1.868   0.107   8.065  2.3331  1.7783  1.9790
 5350SOL     OW27682   0.406   0.658  12.381 -0.0204 -0.4155 -0.6896
 5350SOL    HW127683   0.445   0.734  12.425  2.3398 -1.3953 -1.0896
 5350SOL    HW227684   0.314   0.656  12.407 -0.1375 -0.5386 -1.1129
 5351SOL     OW27685   0.958   2.595   0.874 -0.5058  0.6706  0.1498
 5351SOL    HW127686   1.003   2.597   0.958 -1.3009  1.8468  0.5385
 5351SOL    HW227687   0.924   2.505   0.874  0.4897  0.2944  0.5195
 5352SOL     OW27688   4.122   3.460  13.290  0.4582 -0.2328  0.3052
 5352SOL    HW127689   4.132   3.494  13.379 -0.2056 -0.2860  0.4039
 5352SOL    HW227690   4.105   3.368  13.312  1.0502 -1.1287 -2.9656
 5353SOL     OW27691   3.707   3.495   4.742 -0.0786  0.6883 -0.0086
 5353SOL    HW127692   3.789   3.536   4.717 -0.6899  2.8947  1.6128
 5353SOL    HW227693   3.651   3.570   4.722  0.0242  0.6465 -0.4426
 5354SOL     OW27694   2.510   1.510  11.258  0.1429  0.2951 -0.2964
 5354SOL    HW127695   2.549   1.426  11.284  2.4385  0.8535 -1.9862
 5354SOL    HW227696   2.588   1.562  11.240  0.1230  0.5880  0.4547
 5355SOL     OW27697   0.641   3.245   8.957 -0.3982 -0.5861  0.2924
 5355SOL    HW127698   0.566   3.195   8.924 -0.3690  0.0111 -0.6925
 5355SOL    HW227699   0.640   3.308   8.885 -0.8917 -2.3491 -1.2578
 5356SOL     OW27700   4.516   1.499  17.365  0.6093 -0.2454 -0.3015
 5356SOL    HW127701   4.424   1.519  17.344  0.8006  0.5112 -0.4298
 5356SOL    HW227702   4.564   1.551  17.301 -0.1674 -0.2707 -0.9110
 5357SOL     OW27703   4.086   2.235   1.692 -0.2190  0.4621 -0.2946
 5357SOL    HW127704   4.176   2.266   1.688 -0.2114  0.1948 -1.9538
 5357SOL    HW227705   4.053   2.277   1.772  1.1170  1.7148 -0.4041
 5358SOL     OW27706   3.497   2.318  16.320  0.2616 -0.2479  0.9217
 5358SOL    HW127707   3.482   2.394  16.263 -0.4887 -0.3443  0.9923
 5358SOL    HW227708   3.422   2.266  16.291 -0.7879  0.2367  2.8042
 5359SOL     OW27709   3.166   2.145  16.863  0.7878  0.5300  0.3032
 5359SOL    HW127710   3.152   2.213  16.796 -0.3483  0.1154  0.1227
 5359SOL    HW227711   3.162   2.195  16.944  0.0088 -2.2652  1.9750
 5360SOL     OW27712   4.252   0.375  12.438 -0.4982 -0.7065  0.0610
 5360SOL    HW127713   4.166   0.388  12.477 -1.2309  3.6175 -2.9453
 5360SOL    HW227714   4.300   0.458  12.432  1.2832 -1.6681  0.7630
 5361SOL     OW27715   1.617   1.731  16.620  0.0796 -0.9084 -0.0925
 5361SOL    HW127716   1.639   1.822  16.598  2.9317 -1.7795 -0.8846
 5361SOL    HW227717   1.523   1.719  16.611 -0.0951 -0.7232  1.4203
 5362SOL     OW27718   0.419   2.357   3.490 -0.3700 -0.3062 -0.5639
 5362SOL    HW127719   0.436   2.397   3.405  0.2693  1.3002  0.3298
 5362SOL    HW227720   0.326   2.338   3.501 -0.5747 -0.4731 -2.7047
 5363SOL     OW27721   2.468   3.592   3.431 -0.0949 -0.0389 -0.5970
 5363SOL    HW127722   2.399   3.572   3.367 -0.6215 -1.4442  0.4315
 5363SOL    HW227723   2.549   3.561   3.391  1.7116  0.8361  2.4485
 5364SOL     OW27724   2.559   4.125  10.213 -0.3339  0.0287 -0.2059
 5364SOL    HW127725   2.514   4.111  10.130 -1.5228 -3.5380  1.0437
 5364SOL    HW227726   2.632   4.063  10.209  0.8276  1.4030 -0.7554
 5365SOL     OW27727   2.276   3.105   7.620 -0.1760 -0.1462  0.2552
 5365SOL    HW127728   2.300   3.073   7.707 -1.3198  1.4090  1.1476
 5365SOL    HW227729   2.228   3.029   7.587  0.4445 -0.6960  0.6350
 5366SOL     OW27730   3.974   2.121   7.102 -0.3024 -0.9051  0.3540
 5366SOL    HW127731   3.971   2.136   7.008 -2.4200 -1.2136  0.3697
 5366SOL    HW227732   3.914   2.047   7.102 -1.4151  0.0023  2.7643
 5367SOL     OW27733   3.252   1.657   6.657 -0.3027 -0.2594  0.2066
 5367SOL    HW127734   3.253   1.582   6.717 -0.7522  0.1161  0.6888
 5367SOL    HW227735   3.229   1.725   6.721  1.0999  0.1310  0.3075
 5368SOL     OW27736   2.158   2.790  11.060  0.1465 -0.1434 -0.0658
 5368SOL    HW127737   2.229   2.841  11.098  0.0502  0.1394 -0.2652
 5368SOL    HW227738   2.209   2.756  10.986  1.6472  0.4132  0.7026
 5369SOL     OW27739   0.542   1.999   5.035  0.3971 -0.1306  0.0564
 5369SOL    HW127740   0.587   2.055   5.098 -1.1563 -0.1660  1.1969
 5369SOL    HW227741   0.477   1.965   5.095  0.2748  0.6471  0.3661
 5370SOL     OW27742   3.367   3.148   5.959  0.5559 -0.5381  0.4488
 5370SOL    HW127743   3.444   3.176   5.910 -1.0342  3.0414 -0.0009
 5370SOL    HW227744   3.401   3.067   5.998 -1.7321 -1.2420  0.9706
 5371SOL     OW27745   2.704   1.829  17.159  0.2242 -0.1735  0.2024
 5371SOL    HW127746   2.720   1.846  17.066 -0.4341 -0.0982  0.1021
 5371SOL    HW227747   2.795   1.812  17.185 -0.0569 -0.6888  0.8502
 5372SOL     OW27748   4.180   1.985  16.558  0.1968 -0.1880 -0.8910
 5372SOL    HW127749   4.103   1.933  16.580  0.5900 -0.7450 -0.8332
 5372SOL    HW227750   4.247   1.917  16.564  1.9462  1.7295  1.7821
 5373SOL     OW27751   0.939   2.570   9.222  0.3470 -0.0822 -0.0626
 5373SOL    HW127752   0.979   2.605   9.142  1.6051 -0.4669  0.4073
 5373SOL    HW227753   0.980   2.623   9.290 -0.0680 -0.2506  0.3215
 5374SOL     OW27754   3.833   1.585   8.556  0.2007 -0.1706  0.6214
 5374SOL    HW127755   3.845   1.511   8.497 -0.4902  0.9183 -0.8789
 5374SOL    HW227756   3.773   1.536   8.612  1.5533  0.1302  2.3116
 5375SOL     OW27757   2.108   2.248   2.395  0.3631  0.4717 -0.2697
 5375SOL    HW127758   2.066   2.289   2.320  1.9759  0.5780 -1.1326
 5375SOL    HW227759   2.062   2.306   2.456 -0.7343  1.4360 -2.0164
 5376SOL     OW27760   4.322   0.993  12.527 -0.6630  0.4881 -0.0689
 5376SOL    HW127761   4.408   0.989  12.486 -1.4272 -0.6331 -1.5645
 5376SOL    HW227762   4.271   0.948  12.460 -0.5506 -1.0496  0.8721
 5377SOL     OW27763   3.322   0.759  15.033 -0.0723 -0.2064 -0.5201
 5377SOL    HW127764   3.228   0.776  15.027  0.0379  0.1489 -1.3519
 5377SOL    HW227765   3.361   0.843  15.009 -1.3174  0.4663 -0.1802
 5378SOL     OW27766   0.601   1.833   3.942 -0.4770 -0.0940  0.0160
 5378SOL    HW127767   0.507   1.828   3.962 -0.5802 -4.0089 -1.4529
 5378SOL    HW227768   0.601   1.768   3.872 -1.1107 -2.4110  2.1980
 5379SOL     OW27769   3.282   0.390   4.694 -0.1109 -0.0227 -0.0459
 5379SOL    HW127770   3.357   0.362   4.746 -2.9333 -1.3695  3.2819
 5379SOL    HW227771   3.213   0.347   4.745 -3.3287  2.0841 -2.5699
 5380SOL     OW27772   2.608   3.284   3.165 -0.4193  0.6301  0.0481
 5380SOL    HW127773   2.607   3.217   3.232  0.6226  0.6928  0.1281
 5380SOL    HW227774   2.537   3.337   3.202 -0.2392  0.4195  0.6899
 5381SOL     OW27775   1.143   1.336  10.017 -0.0343 -0.0801  0.3016
 5381SOL    HW127776   1.086   1.281   9.964 -1.7330  1.9948 -0.0282
 5381SOL    HW227777   1.076   1.381  10.068  1.5554 -0.8872  3.1470
 5382SOL     OW27778   4.522   3.432  13.503 -0.2870 -0.6547  0.4064
 5382SOL    HW127779   4.566   3.380  13.436 -0.4271 -1.4573  0.9272
 5382SOL    HW227780   4.436   3.392  13.486 -0.0629 -1.5599  1.3680
 5383SOL     OW27781   2.931   0.763   6.177  0.0796  0.4210 -0.1703
 5383SOL    HW127782   2.844   0.743   6.142  0.3131 -0.1757 -0.4202
 5383SOL    HW227783   2.917   0.777   6.271 -1.0056 -1.5367 -0.0340
 5384SOL     OW27784   4.440   1.902  12.919 -0.1376  0.3129 -0.2990
 5384SOL    HW127785   4.478   1.980  12.878 -0.4945  0.8807  0.4425
 5384SOL    HW227786   4.408   1.857  12.841 -0.8044  0.6095 -0.1915
 5385SOL     OW27787   1.369   2.808   2.669 -0.1324  0.2538 -0.5725
 5385SOL    HW127788   1.375   2.895   2.708  0.8489 -0.3764  0.6653
 5385SOL    HW227789   1.382   2.752   2.745  3.1359  3.4053  1.1580
 5386SOL     OW27790   1.521   0.324  10.043  0.3263 -0.2475 -0.2381
 5386SOL    HW127791   1.611   0.313  10.074 -0.1803 -1.5439  0.7746
 5386SOL    HW227792   1.473   0.267  10.103  2.5216 -1.9084 -0.0330
 5387SOL     OW27793   3.450   1.444  16.985  0.5858 -0.3849  0.2767
 5387SOL    HW127794   3.397   1.366  16.967 -1.2493  1.0208 -0.3598
 5387SOL    HW227795   3.530   1.423  16.938  0.7090 -1.2154  0.8420
 5388SOL     OW27796   3.196   3.002   7.718  0.6754 -0.1331  0.8630
 5388SOL    HW127797   3.266   2.968   7.774  1.4121 -0.9793 -0.5569
 5388SOL    HW227798   3.116   2.965   7.755 -0.1173  0.9470  0.2191
 5389SOL     OW27799   4.444   2.685   1.911 -0.2218  0.3083 -0.3938
 5389SOL    HW127800   4.504   2.657   1.842  0.3452 -1.6370  0.9052
 5389SOL    HW227801   4.375   2.621   1.899  0.5794 -1.0478  2.2512
 5390SOL     OW27802   2.364   3.167   4.016 -0.5244 -0.1925  0.3658
 5390SOL    HW127803   2.310   3.091   3.998 -0.7728 -0.2477  1.3290
 5390SOL    HW227804   2.394   3.185   3.927 -3.1517 -0.8164 -0.6467
 5391SOL     OW27805   0.344   3.614   7.798  0.2011 -0.8132  0.1210
 5391SOL    HW127806   0.341   3.548   7.728 -0.3046  0.3735 -0.9754
 5391SOL    HW227807   0.313   3.555   7.867 -0.1784  1.3043  1.7378
 5392SOL     OW27808   3.200   0.457   7.255  0.4758 -0.5781 -0.0362
 5392SOL    HW127809   3.157   0.447   7.170  0.7691  0.4250 -0.2954
 5392SOL    HW227810   3.176   0.544   7.285  3.1600 -0.1583  0.8983
 5393SOL     OW27811   4.442   2.141  16.826 -0.5049 -0.1449  0.2063
 5393SOL    HW127812   4.361   2.146  16.777 -1.1478  1.2114  1.3873
 5393SOL    HW227813   4.417   2.198  16.899  2.4225  1.4182 -0.0077
 5394SOL     OW27814   3.540   3.840   9.176 -0.4881 -0.1437 -0.3233
 5394SOL    HW127815   3.482   3.914   9.191 -1.7488 -1.2918  0.4324
 5394SOL    HW227816   3.501   3.769   9.226  0.5630 -1.3470 -1.2167
 5395SOL     OW27817   4.343   2.729   2.451  0.5721  0.3361 -0.0915
 5395SOL    HW127818   4.411   2.668   2.422 -0.9326 -1.4511  0.1286
 5395SOL    HW227819   4.393   2.775   2.518 -0.5739  0.5885  0.6044
 5396SOL     OW27820   3.969   2.496   5.182  0.0356  0.1005 -0.3932
 5396SOL    HW127821   3.982   2.576   5.130  2.3454 -0.8073 -1.2365
 5396SOL    HW227822   4.014   2.438   5.121 -0.6171 -1.0423  0.2203
 5397SOL     OW27823   3.505   1.246   5.453 -0.2997  0.7941 -0.9426
 5397SOL    HW127824   3.523   1.181   5.384  1.4197 -0.0384  0.2776
 5397SOL    HW227825   3.422   1.275   5.416 -1.2313  0.5304  0.9542
 5398SOL     OW27826   0.613   3.377   8.122 -0.1117 -0.2052 -0.0063
 5398SOL    HW127827   0.611   3.319   8.199  0.2422  0.8244  0.7814
 5398SOL    HW227828   0.581   3.322   8.051  1.7437 -2.1469  0.6356
 5399SOL     OW27829   4.248   2.144  14.271 -0.3799  0.2044  0.4218
 5399SOL    HW127830   4.246   2.110  14.360 -0.2383 -0.2700  0.2434
 5399SOL    HW227831   4.341   2.162  14.260 -0.0069 -2.3304 -0.5122
 5400SOL     OW27832   3.114   2.342   2.303  0.1631  0.0727  0.3236
 5400SOL    HW127833   3.126   2.360   2.210  0.1319 -0.4088  0.2278
 5400SOL    HW227834   3.190   2.286   2.317 -0.5393 -0.9469  0.0363
 5401SOL     OW27835   2.822   2.818  10.958 -0.4379  0.0619 -0.3185
 5401SOL    HW127836   2.765   2.893  10.938 -0.5085  0.2453  0.5431
 5401SOL    HW227837   2.880   2.839  11.031  0.2469  1.5018 -1.2758
 5402SOL     OW27838   1.429   3.296  17.183  0.0608 -0.0687 -0.3132
 5402SOL    HW127839   1.511   3.345  17.183  0.0494 -0.0387  0.5074
 5402SOL    HW227840   1.408   3.287  17.090 -2.1230  1.0380  0.0675
 5403SOL     OW27841   1.328   1.610  16.678  0.2963 -0.4380  0.3089
 5403SOL    HW127842   1.280   1.528  16.666  1.8526 -1.4385  0.9370
 5403SOL    HW227843   1.272   1.676  16.718 -1.2746 -0.5286 -1.7355
 5404SOL     OW27844   0.072   4.239   4.258  0.5042  0.6420  0.0959
 5404SOL    HW127845   0.053   4.323   4.216  0.6157  0.1084 -1.0158
 5404SOL    HW227846   0.167   4.242   4.258  0.4730  1.5992  0.1373
 5405SOL     OW27847   2.055   1.451   8.385  0.3622 -0.1133  0.0037
 5405SOL    HW127848   1.968   1.491   8.385 -0.4013 -1.7560 -0.0395
 5405SOL    HW227849   2.063   1.419   8.295 -2.7201 -2.7902  0.6960
 5406SOL     OW27850   1.960   1.650   7.470 -0.2971  0.2614 -0.2025
 5406SOL    HW127851   1.984   1.630   7.561 -5.4258 -3.4088  0.3549
 5406SOL    HW227852   1.866   1.665   7.478 -0.3418 -0.1748  0.1167
 5407SOL     OW27853   0.919   2.331   7.134 -0.7822 -0.1206 -0.0089
 5407SOL    HW127854   0.956   2.303   7.051  0.9033 -1.3020  1.1555
 5407SOL    HW227855   0.978   2.406   7.145  0.2429 -0.9803  0.3520
 5408SOL     OW27856   0.561   3.483   4.605 -0.7306  0.0625 -0.5849
 5408SOL    HW127857   0.641   3.430   4.604 -1.0370 -0.4208 -0.0962
 5408SOL    HW227858   0.499   3.413   4.584 -0.5430 -0.3041  0.0592
 5409SOL     OW27859   4.735   3.555   3.520 -0.0853  0.1585  0.1379
 5409SOL    HW127860   4.689   3.638   3.536 -0.2848  0.0442  0.1598
 5409SOL    HW227861   0.084   3.600   3.516  0.1727 -0.3165  0.2882
 5410SOL     OW27862   3.543   0.892   9.345  0.1297 -0.3315 -0.3111
 5410SOL    HW127863   3.559   0.933   9.260 -3.5710  3.4874  0.7742
 5410SOL    HW227864   3.473   0.836   9.311 -0.0029 -0.3945  0.0611
 5411SOL     OW27865   2.542   1.410   5.282  0.4075  0.0902  0.0007
 5411SOL    HW127866   2.549   1.467   5.359 -0.0799  3.0337 -2.0890
 5411SOL    HW227867   2.613   1.349   5.295  0.1850 -0.3059 -0.6720
 5412SOL     OW27868   4.013   2.264   1.052 -0.1326  0.0957  0.1443
 5412SOL    HW127869   3.958   2.190   1.027  0.4118 -0.6192  1.0572
 5412SOL    HW227870   4.066   2.267   0.972  2.7633  2.1419  2.1410
 5413SOL     OW27871   0.656   3.120   5.137 -0.2817  0.1009 -0.1790
 5413SOL    HW127872   0.579   3.160   5.177  1.4253 -0.6151  3.8703
 5413SOL    HW227873   0.692   3.065   5.207 -0.6113  1.5009  1.0961
 5414SOL     OW27874   0.592   2.830   2.471 -0.5873 -0.3003 -0.3033
 5414SOL    HW127875   0.594   2.791   2.558  1.7760 -1.0082 -0.6620
 5414SOL    HW227876   0.563   2.757   2.415  0.0713 -0.9095  0.1486
 5415SOL     OW27877   4.531   4.477   5.825  0.2696  0.2914 -0.0135
 5415SOL    HW127878   4.528   4.545   5.757 -2.9379 -1.3776 -1.5531
 5415SOL    HW227879   4.614   4.432   5.816  0.5473  0.6481  0.7862
 5416SOL     OW27880   0.755   3.455  14.492 -0.6040 -0.0652  0.3804
 5416SOL    HW127881   0.665   3.424  14.505 -0.6788  0.7121  1.7055
 5416SOL    HW227882   0.799   3.379  14.455 -1.1684 -0.5918  0.7909
 5417SOL     OW27883   0.427   1.297   8.351  0.3914  0.0540  0.1135
 5417SOL    HW127884   0.429   1.292   8.256  1.4307 -1.4114  0.2102
 5417SOL    HW227885   0.513   1.333   8.370  0.6329  0.2580 -1.3867
 5418SOL     OW27886   1.677   2.087   2.529 -0.1048  1.2804 -0.5007
 5418SOL    HW127887   1.632   2.169   2.550 -1.7329 -0.0020  1.0188
 5418SOL    HW227888   1.742   2.122   2.468  0.3058  0.8100 -0.3343
 5419SOL     OW27889   3.387   1.715   8.115 -0.0186  0.2092  0.3344
 5419SOL    HW127890   3.469   1.758   8.090 -0.0211  0.4923  0.8088
 5419SOL    HW227891   3.414   1.691   8.203  0.9551 -0.5666 -0.1822
 5420SOL     OW27892   1.692   1.728  11.105  0.2174  0.2563  0.4189
 5420SOL    HW127893   1.671   1.763  11.191 -0.4612 -1.0085  0.7727
 5420SOL    HW227894   1.787   1.735  11.100  0.2537 -2.8443 -2.8309
 5421SOL     OW27895   2.312   4.619   6.006  0.2089  0.0779 -0.2993
 5421SOL    HW127896   2.263   4.699   5.985 -0.8036 -0.1444  1.1893
 5421SOL    HW227897   2.252   4.555   6.045  0.7848  0.5352  1.3100
 5422SOL     OW27898   2.919   2.827  16.929 -0.5524  0.5166  0.2094
 5422SOL    HW127899   2.893   2.735  16.928 -1.0142  0.6482  0.0071
 5422SOL    HW227900   3.000   2.815  16.880  0.6000 -0.0672  2.2745
 5423SOL     OW27901   2.088   4.433  17.273 -0.2969 -0.2209  0.0734
 5423SOL    HW127902   2.171   4.478  17.284  0.7548 -2.2383  0.4511
 5423SOL    HW227903   2.076   4.456  17.181 -0.3051 -1.5499 -0.2653
 5424SOL     OW27904   1.715   1.310   9.070 -0.4777  0.1142 -0.3412
 5424SOL    HW127905   1.791   1.325   9.126 -2.0017 -0.0515  1.7897
 5424SOL    HW227906   1.755   1.302   8.983  1.7570  0.0333  0.6985
 5425SOL     OW27907   2.070   1.308  11.561 -0.0335  0.2897 -0.0420
 5425SOL    HW127908   2.144   1.331  11.616 -0.7000 -0.3949  1.1548
 5425SOL    HW227909   2.013   1.268  11.628 -1.1713  1.5910 -0.2231
 5426SOL     OW27910   3.766   0.011   2.653 -0.4472 -0.0174  0.0612
 5426SOL    HW127911   3.861   0.001   2.651 -0.2697  1.1443  3.2940
 5426SOL    HW227912   3.755   0.091   2.704 -0.3379  0.2829 -0.3890
 5427SOL     OW27913   2.210   2.201   4.867 -0.3174  0.3986 -0.7445
 5427SOL    HW127914   2.258   2.235   4.792  0.9357  1.0281  0.3570
 5427SOL    HW227915   2.191   2.285   4.908 -0.6102  0.0287 -0.1217
 5428SOL     OW27916   0.747   3.795   0.662  0.0162 -0.3034  0.0860
 5428SOL    HW127917   0.679   3.841   0.613  1.9296  1.2037 -1.1324
 5428SOL    HW227918   0.767   3.841   0.743  2.2815 -2.9015  1.0167
 5429SOL     OW27919   3.524   2.644   3.660 -0.2033  0.1387 -0.5352
 5429SOL    HW127920   3.609   2.673   3.626 -0.4350 -2.6011 -3.3330
 5429SOL    HW227921   3.520   2.567   3.604  0.0451 -0.8922  0.8547
 5430SOL     OW27922   3.146   1.099   5.149 -0.5767 -0.6474  0.3386
 5430SOL    HW127923   3.215   1.034   5.140 -0.7106 -0.9405  1.4058
 5430SOL    HW227924   3.067   1.051   5.122  0.3047 -0.6205 -2.2845
 5431SOL     OW27925   1.958   0.535   3.158  0.2862  0.4407  0.2726
 5431SOL    HW127926   1.989   0.625   3.167  0.2396  0.4848 -0.0321
 5431SOL    HW227927   2.031   0.477   3.178 -0.1823  0.1882  1.2609
 5432SOL     OW27928   2.540   1.656  17.711 -0.1303  0.0448  0.5689
 5432SOL    HW127929   2.522   1.564  17.729 -1.1102 -0.0203 -0.7512
 5432SOL    HW227930   2.455   1.696  17.697 -0.8559 -1.0789  1.7534
 5433SOL     OW27931   0.136   3.522   5.936 -0.0224  0.4715 -0.6100
 5433SOL    HW127932   0.138   3.428   5.956  0.9546  0.7452  0.5392
 5433SOL    HW227933   0.094   3.552   6.016  0.5227  3.0743 -1.2861
 5434SOL     OW27934   3.003   2.694   2.631 -0.4500  0.2732  0.1464
 5434SOL    HW127935   2.966   2.746   2.703 -2.6670 -0.9020 -0.1352
 5434SOL    HW227936   2.971   2.606   2.651 -0.2100 -0.2113 -1.6073
 5435SOL     OW27937   0.461   3.553  10.793 -0.0938  0.1017 -0.0674
 5435SOL    HW127938   0.376   3.596  10.785 -0.9505 -1.1373  2.5262
 5435SOL    HW227939   0.512   3.608  10.852 -0.2881  0.0658  0.1320
 5436SOL     OW27940   2.768   3.942  10.123  0.3446 -0.0930 -0.2946
 5436SOL    HW127941   2.784   3.881  10.194  1.4325 -3.3898 -3.3624
 5436SOL    HW227942   2.735   3.878  10.059 -1.9669 -0.5425  1.3347
 5437SOL     OW27943   2.806   2.461   7.393 -0.6875  0.5296  0.4446
 5437SOL    HW127944   2.733   2.418   7.438  0.2349  0.7011  2.0950
 5437SOL    HW227945   2.760   2.473   7.310 -0.0184 -4.1721 -0.5637
 5438SOL     OW27946   4.402   4.462   9.213 -0.7502 -0.0024 -0.6793
 5438SOL    HW127947   4.481   4.434   9.166 -0.5376 -1.5619  0.6255
 5438SOL    HW227948   4.340   4.392   9.193 -0.3343  0.0571 -2.1815
 5439SOL     OW27949   2.530   0.573   6.665 -0.2182  0.4492 -0.1757
 5439SOL    HW127950   2.547   0.640   6.731  2.9884 -0.2909 -0.2540
 5439SOL    HW227951   2.434   0.577   6.670 -0.2188 -1.1661  0.9976
 5440SOL     OW27952   0.687   2.720   9.314  0.0166  0.0615  0.3532
 5440SOL    HW127953   0.692   2.814   9.331 -3.5548  0.3810 -0.3762
 5440SOL    HW227954   0.778   2.697   9.297 -0.0993  0.8454 -1.4105
 5441SOL     OW27955   0.694   0.866  15.038 -0.2004  0.6552 -0.3180
 5441SOL    HW127956   0.633   0.864  15.112 -1.1038  1.1103 -1.0499
 5441SOL    HW227957   0.769   0.896  15.091 -0.1107  1.6343 -0.9896
 5442SOL     OW27958   1.119   0.221   8.282  0.4690 -0.1780  0.0287
 5442SOL    HW127959   1.189   0.156   8.272  2.4909  1.8500  0.8672
 5442SOL    HW227960   1.044   0.163   8.280 -0.1990  0.6819 -0.0855
 5443SOL     OW27961   2.583   3.421   7.328  0.3391  0.3303 -0.1216
 5443SOL    HW127962   2.501   3.402   7.373 -0.7886  0.0485 -2.2990
 5443SOL    HW227963   2.647   3.377   7.384 -0.5620 -0.7470  0.0604
 5444SOL     OW27964   3.843   0.998   0.670  0.0371  0.3435  0.0172
 5444SOL    HW127965   3.930   0.969   0.699  0.3446  0.9487 -0.3010
 5444SOL    HW227966   3.841   1.093   0.677  1.9549  0.4299 -0.5456
 5445SOL     OW27967   4.120   4.251   2.018 -0.7376  0.3256  0.1316
 5445SOL    HW127968   4.212   4.224   2.021 -0.4807  1.0867 -1.0482
 5445SOL    HW227969   4.106   4.280   1.928 -0.5321  1.1143  0.3495
 5446SOL     OW27970   3.581   1.916  17.321  0.1511 -0.5820 -0.6880
 5446SOL    HW127971   3.558   1.987  17.261  1.7911 -1.0125 -1.8065
 5446SOL    HW227972   3.559   1.950  17.408 -1.2555 -1.1529 -0.8113
 5447SOL     OW27973   0.043   2.053   3.474  0.4804 -0.1939  0.5187
 5447SOL    HW127974   0.110   2.027   3.537  1.1785 -0.0331 -0.1616
 5447SOL    HW227975   4.700   2.006   3.502 -0.1562  2.1490  2.7317
 5448SOL     OW27976   0.377   3.199  12.922  0.3994 -0.3177 -0.0836
 5448SOL    HW127977   0.441   3.270  12.933  2.0276 -1.9774  1.0913
 5448SOL    HW227978   0.412   3.130  12.978 -0.8179  0.4413  1.6132
 5449SOL     OW27979   3.227   4.706   4.874  0.2224 -0.5907 -0.1274
 5449SOL    HW127980   3.139   4.735   4.850  0.6989  1.8309  1.0428
 5449SOL    HW227981   3.268   4.717   4.788  0.4302 -0.1967  0.0219
 5450SOL     OW27982   0.823   2.401   6.441 -0.0096 -0.1885 -0.1022
 5450SOL    HW127983   0.831   2.341   6.367 -1.6966  3.7803 -3.5108
 5450SOL    HW227984   0.908   2.442   6.456  0.1070 -0.7208  0.6451
 5451SOL     OW27985   0.241   2.444  14.390 -0.2742  0.3104  0.0071
 5451SOL    HW127986   0.308   2.387  14.352 -0.3777  0.7472 -0.8237
 5451SOL    HW227987   0.266   2.454  14.482  1.5243  0.1275 -0.4574
 5452SOL     OW27988   0.184   3.145   1.684  0.2185 -0.3812 -0.1465
 5452SOL    HW127989   0.121   3.134   1.755  0.3186 -1.7822 -0.2580
 5452SOL    HW227990   0.253   3.202   1.717  0.9006 -0.5265 -1.3052
 5453SOL     OW27991   0.414   4.229   1.214  0.1704 -0.0683 -0.5443
 5453SOL    HW127992   0.395   4.233   1.120  1.7541  1.3979 -0.7981
 5453SOL    HW227993   0.508   4.248   1.215 -0.4644  2.9939  0.7631
 5454SOL     OW27994   2.383   0.447  17.551  0.6173  0.3513  0.2727
 5454SOL    HW127995   2.454   0.491  17.599 -1.5110  1.1923  2.6636
 5454SOL    HW227996   2.410   0.456  17.460  1.8496  0.7724  0.6812
 5455SOL     OW27997   2.334   4.674   4.984 -0.3301 -0.3602  0.1611
 5455SOL    HW127998   2.372   4.605   4.929  1.5109  1.6023 -1.0581
 5455SOL    HW227999   2.385   4.657   5.063  0.4932 -0.4692 -0.3911
 5456SOL     OW28000   1.163   4.426   1.749 -0.1727  0.0367 -0.0239
 5456SOL    HW128001   1.134   4.498   1.804 -3.0789 -1.7724  0.8505
 5456SOL    HW228002   1.104   4.442   1.675 -1.5721 -0.7475  0.9149
 5457SOL     OW28003   2.381   3.816   7.664 -0.4508  0.0330 -0.0649
 5457SOL    HW128004   2.431   3.744   7.703 -0.2811 -0.9011 -1.9719
 5457SOL    HW228005   2.360   3.773   7.581 -0.7243  1.2263 -0.6246
 5458SOL     OW28006   1.955   4.203  17.318 -0.1568  0.5886 -0.4854
 5458SOL    HW128007   1.904   4.284  17.324  0.1568  0.7623 -0.1453
 5458SOL    HW228008   2.037   4.239  17.285 -0.3756  1.3708 -0.1834
 5459SOL     OW28009   2.832   3.469   6.346  0.3487  0.1755 -0.2551
 5459SOL    HW128010   2.826   3.541   6.409 -0.2928  0.0601 -0.1872
 5459SOL    HW228011   2.843   3.519   6.265 -0.9129  0.1740 -0.4178
 5460SOL     OW28012   1.406   4.644   6.078  0.2781  0.6669 -0.4590
 5460SOL    HW128013   1.452   4.638   6.162 -1.6810  3.6907  0.8324
 5460SOL    HW228014   1.327   4.596   6.101 -0.5870  1.5934 -1.5277
 5461SOL     OW28015   2.638   3.340  16.782 -0.9828  0.5545 -0.4802
 5461SOL    HW128016   2.672   3.252  16.794  0.0705  1.0058 -0.1596
 5461SOL    HW228017   2.547   3.325  16.807 -0.7015 -1.0001 -0.3932
 5462SOL     OW28018   4.397   3.020   9.476  0.5976  0.0643 -0.0191
 5462SOL    HW128019   4.330   2.972   9.525  2.6693 -1.6329  1.1556
 5462SOL    HW228020   4.353   3.078   9.414  1.2452 -1.4991 -1.9492
 5463SOL     OW28021   4.535   3.295   9.259 -0.1535 -0.8437 -0.0699
 5463SOL    HW128022   4.538   3.249   9.175  0.8978 -0.2327 -0.3740
 5463SOL    HW228023   4.622   3.277   9.295 -0.6888  1.6283  2.4574
 5464SOL     OW28024   4.629   2.375   7.461  0.4209  0.2329  0.3738
 5464SOL    HW128025   4.598   2.453   7.509  0.3376  0.4676 -0.0633
 5464SOL    HW228026   4.570   2.313   7.503 -0.0559  0.5129  0.1188
 5465SOL     OW28027   1.008   0.243   0.603 -0.5044  0.3520  0.2341
 5465SOL    HW128028   1.043   0.288   0.680 -1.9179  0.8424  0.5964
 5465SOL    HW228029   1.067   0.278   0.536  0.4067 -0.9612  0.3702
 5466SOL     OW28030   2.712   2.139  14.009 -0.2856  0.2549  0.5699
 5466SOL    HW128031   2.708   2.225  13.967  4.2782  0.5056  0.6468
 5466SOL    HW228032   2.807   2.132  14.015 -0.2617 -0.1376 -0.2798
 5467SOL     OW28033   1.471   2.545  10.530 -0.1690  0.2559  0.1814
 5467SOL    HW128034   1.446   2.470  10.584 -0.4227 -0.2833 -0.6900
 5467SOL    HW228035   1.423   2.610  10.582 -2.1290 -1.1521  0.1494
 5468SOL     OW28036   0.465   4.651   6.563 -0.4437 -0.0683 -0.3645
 5468SOL    HW128037   0.498   4.735   6.596 -1.7671 -0.0338  0.8438
 5468SOL    HW228038   0.431   4.608   6.641 -0.4124 -1.0276 -0.8778
 5469SOL     OW28039   1.914   0.979  15.310 -0.3174  0.9850  0.0209
 5469SOL    HW128040   1.886   0.923  15.382 -0.0293 -1.4752 -1.8030
 5469SOL    HW228041   1.854   0.959  15.238 -0.0248 -0.4545  0.1729
 5470SOL     OW28042   2.210   4.140   2.717 -0.5580 -0.0102  0.0206
 5470SOL    HW128043   2.132   4.182   2.681  0.9622  1.8678 -1.0007
 5470SOL    HW228044   2.219   4.053   2.678 -0.7719  0.0645 -0.1950
 5471SOL     OW28045   2.205   3.555   6.533  0.1866  0.2506 -0.3003
 5471SOL    HW128046   2.263   3.480   6.544  2.1700  1.8458  0.0882
 5471SOL    HW228047   2.181   3.578   6.623  3.1538 -2.4411  1.1730
 5472SOL     OW28048   1.376   3.292  16.876  0.1978 -0.5011 -0.1648
 5472SOL    HW128049   1.431   3.213  16.875  0.0476 -0.6514  2.1546
 5472SOL    HW228050   1.446   3.356  16.864 -0.0790  0.1310  1.4986
 5473SOL     OW28051   0.011   4.503  16.889  0.1387 -0.0539 -0.0656
 5473SOL    HW128052   4.726   4.486  16.797 -0.4670  0.3923 -0.0156
 5473SOL    HW228053   0.038   4.418  16.925 -0.2139 -0.1857 -0.1057
 5474SOL     OW28054   0.840   0.546   6.310  0.1431 -0.0470  0.1074
 5474SOL    HW128055   0.895   0.562   6.387  1.7163 -0.6755 -0.8757
 5474SOL    HW228056   0.898   0.576   6.241 -0.1819 -2.4798 -1.1922
 5475SOL     OW28057   3.263   0.008   9.746  0.0799 -0.1031 -0.1356
 5475SOL    HW128058   3.204   0.071   9.788 -1.0138 -1.9604  1.1301
 5475SOL    HW228059   3.302   4.698   9.821  0.5283 -0.5952 -0.6655
 5476SOL     OW28060   1.041   3.636  10.775  0.5807 -0.0667  0.3835
 5476SOL    HW128061   1.045   3.553  10.728 -0.2892 -0.1920  0.5318
 5476SOL    HW228062   1.054   3.691  10.698  2.4843 -1.3896 -0.2549
 5477SOL     OW28063   1.149   2.638   8.594 -0.1868 -0.1770  0.0140
 5477SOL    HW128064   1.237   2.619   8.562 -0.1746 -0.9689  0.5202
 5477SOL    HW228065   1.088   2.598   8.532  0.1196  0.8094 -0.9103
 5478SOL     OW28066   0.187   2.927   1.974 -0.2195  0.2831 -0.2902
 5478SOL    HW128067   0.215   2.895   2.060  0.5342  1.2960 -0.1635
 5478SOL    HW228068   0.143   3.008   1.999 -1.8532 -0.7088  0.0527
 5479SOL     OW28069   2.153   0.969  11.943  0.6667  0.5401  0.0744
 5479SOL    HW128070   2.215   1.034  11.912  1.2645  0.1735  0.4966
 5479SOL    HW228071   2.159   0.964  12.039  2.5554  1.8028  0.0171
 5480SOL     OW28072   0.228   1.329   0.286  0.6401 -0.0761  0.1721
 5480SOL    HW128073   0.299   1.393   0.292  0.6396 -0.2837  2.4639
 5480SOL    HW228074   0.283   1.256   0.258  0.2977  0.0190 -0.7420
 5481SOL     OW28075   0.845   0.926   2.075  0.1082  0.2075  0.3488
 5481SOL    HW128076   0.903   0.965   2.140 -0.7046  1.4091  0.3582
 5481SOL    HW228077   0.865   0.967   1.991 -0.0585  0.1096  0.2613
 5482SOL     OW28078   2.659   3.474  15.390  0.4122  0.7054 -0.3027
 5482SOL    HW128079   2.576   3.507  15.425  0.0134  0.8340 -1.3529
 5482SOL    HW228080   2.684   3.555  15.345 -0.5739  0.9998 -0.3111
 5483SOL     OW28081   0.118   3.042   3.597 -0.2040  0.1264 -0.3907
 5483SOL    HW128082   0.210   3.017   3.598 -0.1386  0.3567 -0.7599
 5483SOL    HW228083   0.096   3.049   3.690 -1.2257 -0.3911 -0.5903
 5484SOL     OW28084   3.831   4.448  11.544 -0.0495  0.5658  0.2141
 5484SOL    HW128085   3.771   4.374  11.549 -0.6001  0.9769 -0.3585
 5484SOL    HW228086   3.883   4.425  11.467 -0.8335 -0.1711 -0.0861
 5485SOL     OW28087   3.758   2.198  16.885 -0.4511  0.2208 -0.0218
 5485SOL    HW128088   3.845   2.162  16.905 -0.4899 -1.1916 -2.3343
 5485SOL    HW228089   3.770   2.223  16.793  0.2244 -0.4102 -0.1127
 5486SOL     OW28090   3.676   2.335   0.432  0.4596  0.5935 -0.0363
 5486SOL    HW128091   3.714   2.320   0.345 -0.2178  0.1289 -0.2461
 5486SOL    HW228092   3.627   2.256   0.453  0.5130  0.5156 -0.2015
 5487SOL     OW28093   4.155   0.198   4.649  0.1914  0.2767 -0.5239
 5487SOL    HW128094   4.182   0.108   4.629  0.1622 -0.2239  1.6187
 5487SOL    HW228095   4.091   0.215   4.579 -2.5477 -0.4477  1.7791
 5488SOL     OW28096   1.214   1.376   1.670 -0.0992  0.1539 -0.6745
 5488SOL    HW128097   1.243   1.375   1.578  0.2423 -0.9315 -0.5516
 5488SOL    HW228098   1.197   1.469   1.686 -0.3000 -0.2558  1.4494
 5489SOL     OW28099   0.059   2.429   2.475  0.7723 -0.0453  0.2782
 5489SOL    HW128100   0.140   2.450   2.428  0.1572 -2.4172 -1.8446
 5489SOL    HW228101   0.079   2.463   2.562 -0.6525  1.2925  0.0839
 5490SOL     OW28102   3.460   1.632   6.468 -0.3501  0.2111 -0.7338
 5490SOL    HW128103   3.481   1.557   6.413 -0.6733 -0.4003 -0.0280
 5490SOL    HW228104   3.410   1.593   6.540  1.2770  0.2749  0.4435
 5491SOL     OW28105   1.389   0.667   9.138  0.2839  0.5595  0.3977
 5491SOL    HW128106   1.299   0.699   9.127 -0.2003 -0.5151  1.2275
 5491SOL    HW228107   1.401   0.619   9.056 -0.3232 -0.5918  0.9872
 5492SOL     OW28108   0.530   1.188  17.344 -0.4201  0.0500 -0.1011
 5492SOL    HW128109   0.608   1.166  17.293  0.8173 -1.9824  2.6218
 5492SOL    HW228110   0.488   1.252  17.287 -2.5593 -1.1463  0.1420
 5493SOL     OW28111   4.565   3.468  14.805  0.4288  0.1514  0.3887
 5493SOL    HW128112   4.523   3.433  14.726  2.1821 -1.3357  0.1295
 5493SOL    HW228113   4.651   3.425  14.810  0.9274  0.8047 -2.2302
 5494SOL     OW28114   0.351   4.122   8.291 -0.0039 -0.6598 -0.1850
 5494SOL    HW128115   0.333   4.138   8.199 -3.2980  1.2210  0.8172
 5494SOL    HW228116   0.265   4.135   8.331  0.7797  1.1796  0.9063
 5495SOL     OW28117   4.279   2.855  13.008 -0.3119 -0.1480 -0.2627
 5495SOL    HW128118   4.201   2.901  12.976 -2.1979 -2.1580  1.4423
 5495SOL    HW228119   4.312   2.822  12.924  1.0940 -1.6217  0.8977
 5496SOL     OW28120   1.379   0.004   4.207  0.4769  0.1960  0.3681
 5496SOL    HW128121   1.430   4.692   4.141 -1.0479 -0.7930 -0.0984
 5496SOL    HW228122   1.300   4.684   4.210  0.6205 -0.0083  0.3809
 5497SOL     OW28123   4.453   3.121   5.427  0.1476 -0.0410 -0.3571
 5497SOL    HW128124   4.361   3.101   5.408 -0.0158  0.4204 -0.0695
 5497SOL    HW228125   4.489   3.034   5.440  1.4864  0.7812  1.5329
 5498SOL     OW28126   2.974   4.532   4.169  0.2793 -0.3218 -0.0685
 5498SOL    HW128127   3.003   4.606   4.116  1.0084 -1.4346 -1.1963
 5498SOL    HW228128   3.041   4.529   4.237  1.2714  1.3582 -0.9867
 5499SOL     OW28129   2.515   3.915   9.623  0.1235  0.8862 -0.2008
 5499SOL    HW128130   2.488   3.844   9.566  1.6653 -0.6739  0.9772
 5499SOL    HW228131   2.471   3.890   9.704 -0.2589  2.8844  0.2119
 5500SOL     OW28132   4.566   0.667   9.792 -0.0345 -0.1637 -0.1889
 5500SOL    HW128133   4.603   0.752   9.769  1.7485 -1.3306 -1.6315
 5500SOL    HW228134   4.475   0.682   9.764  0.1820  2.4819  0.4622
 5501SOL     OW28135   3.551   1.907   6.485  0.2168  0.0572  0.6206
 5501SOL    HW128136   3.533   1.814   6.471  0.6885  0.0812 -0.1700
 5501SOL    HW228137   3.624   1.916   6.424  0.7855 -1.8186  1.0247
 5502SOL     OW28138   3.416   0.036   3.703 -0.2865  0.5883 -0.1855
 5502SOL    HW128139   3.356   4.697   3.696  3.2137 -1.9648 -2.9181
 5502SOL    HW228140   3.494   4.731   3.741  0.4085  0.4217 -1.8029
 5503SOL     OW28141   4.188   3.938   8.948 -0.1164  0.1598  0.3904
 5503SOL    HW128142   4.134   3.895   9.014  0.5012  0.2874  0.9752
 5503SOL    HW228143   4.263   3.881   8.929 -1.0036 -0.1935 -2.1015
 5504SOL     OW28144   2.518   1.373   4.254  0.0954 -0.5337  0.2348
 5504SOL    HW128145   2.447   1.344   4.312 -1.7289  0.9368 -1.2530
 5504SOL    HW228146   2.462   1.361   4.177  2.0866  1.4187 -1.5145
 5505SOL     OW28147   1.323   4.124  13.259 -0.0522 -0.0604 -0.0963
 5505SOL    HW128148   1.317   4.206  13.211  1.5678 -0.2372 -0.5899
 5505SOL    HW228149   1.390   4.079  13.209  1.0616  2.2432 -0.6518
 5506SOL     OW28150   0.203   0.813   8.455  0.2385 -0.1541  0.0662
 5506SOL    HW128151   0.233   0.858   8.535 -1.1406  1.0620 -0.0962
 5506SOL    HW228152   0.281   0.829   8.402  0.0293  0.7951  0.0384
 5507SOL     OW28153   0.032   1.107   6.456  0.6367 -0.2624  0.0132
 5507SOL    HW128154   4.733   1.155   6.532  2.6634 -2.5422  2.3581
 5507SOL    HW228155   0.000   1.164   6.386  1.0344 -0.7641 -0.5746
 5508SOL     OW28156   4.025   3.456  15.415  0.0203  0.1849  0.7475
 5508SOL    HW128157   4.119   3.449  15.433 -0.0159 -1.6026  0.2483
 5508SOL    HW228158   3.980   3.448  15.500 -0.2691 -0.5489  0.5279
 5509SOL     OW28159   2.777   2.835   2.914  0.0465 -0.7169 -0.6412
 5509SOL    HW128160   2.872   2.824   2.917  0.2391  1.1370 -0.0826
 5509SOL    HW228161   2.752   2.746   2.939 -2.8164  0.6238  1.2678
 5510SOL     OW28162   1.277   1.958   9.878 -0.6639 -0.4872  0.2399
 5510SOL    HW128163   1.316   2.046   9.882  1.7933 -1.5696 -0.0267
 5510SOL    HW228164   1.352   1.901   9.866 -0.5723 -0.9767  3.3421
 5511SOL     OW28165   3.040   2.173  14.272  0.1278  0.1454  0.1703
 5511SOL    HW128166   3.033   2.166  14.177  0.3223  0.6160  0.1221
 5511SOL    HW228167   3.133   2.177  14.292  0.8346 -0.2427 -3.0503
 5512SOL     OW28168   4.543   1.868  16.793  0.2323  1.0539 -0.0018
 5512SOL    HW128169   4.602   1.883  16.868 -0.7081 -0.5679  1.0589
 5512SOL    HW228170   4.481   1.939  16.809  1.2317  1.3780  2.4906
 5513SOL     OW28171   2.861   1.182   0.888  0.2070  0.0866  0.4245
 5513SOL    HW128172   2.770   1.192   0.860  0.0248  3.0971  2.1080
 5513SOL    HW228173   2.911   1.219   0.816 -2.5604  1.7308 -0.6297
 5514SOL     OW28174   2.792   0.335   2.658 -0.5752  1.1085  0.1651
 5514SOL    HW128175   2.751   0.269   2.601 -1.6782  1.2322  0.8092
 5514SOL    HW228176   2.724   0.373   2.713  0.9062  3.1105  0.6176
 5515SOL     OW28177   3.110   0.674  12.750  0.0328  0.3304 -0.3577
 5515SOL    HW128178   3.179   0.635  12.804 -1.5979 -0.7602  0.9512
 5515SOL    HW228179   3.125   0.767  12.764 -1.7887  0.5509  0.1130
 5516SOL     OW28180   4.079   1.391   7.713 -0.0547  0.2466 -0.8577
 5516SOL    HW128181   4.056   1.299   7.706 -1.1431  0.5964 -2.1059
 5516SOL    HW228182   4.151   1.380   7.775 -0.4684  1.9455 -0.0677
 5517SOL     OW28183   0.055   3.061   6.036  0.2756  0.4413 -0.5910
 5517SOL    HW128184   0.071   3.134   5.977 -3.0850  1.2294 -0.5259
 5517SOL    HW228185   0.136   3.061   6.087  0.0168 -3.2693 -0.1476
 5518SOL     OW28186   4.405   4.190   2.028  0.3529 -0.0776 -0.3835
 5518SOL    HW128187   4.400   4.115   1.969  2.0251 -1.7133  1.5597
 5518SOL    HW228188   4.474   4.243   1.986 -0.3656  1.6019  0.5805
 5519SOL     OW28189   0.851   4.489   8.190  0.1944  0.0261  0.2200
 5519SOL    HW128190   0.885   4.400   8.175  3.5974  1.5017 -0.9284
 5519SOL    HW228191   0.844   4.530   8.104  1.3383 -1.4389 -0.5810
 5520SOL     OW28192   0.780   2.652   1.708  0.0409  0.0659  0.1640
 5520SOL    HW128193   0.707   2.697   1.750 -0.6466 -0.1813 -0.7603
 5520SOL    HW228194   0.740   2.622   1.626  0.8043  2.8188 -1.2063
 5521SOL     OW28195   1.171   4.437   0.120 -0.0902  0.5095 -0.0039
 5521SOL    HW128196   1.114   4.464   0.049 -0.9682 -2.0605 -0.2755
 5521SOL    HW228197   1.263   4.448   0.093 -0.0699 -2.5038 -1.1904
 5522SOL     OW28198   3.050   2.067  16.412 -0.0450 -0.6078  0.3366
 5522SOL    HW128199   3.039   1.980  16.374  1.8094  1.1478 -4.2972
 5522SOL    HW228200   3.079   2.036  16.498 -1.5510 -1.8422  0.3986
 5523SOL     OW28201   4.542   2.205  13.081  0.1399  0.1788 -0.9003
 5523SOL    HW128202   4.524   2.258  13.003  0.1122  0.4684 -0.6943
 5523SOL    HW228203   4.465   2.223  13.135 -0.1283 -1.2833 -0.8127
 5524SOL     OW28204   3.572   3.834   3.982 -0.1881  0.5091  0.0915
 5524SOL    HW128205   3.549   3.790   3.901 -1.0037 -0.2187  0.7206
 5524SOL    HW228206   3.616   3.767   4.034 -0.5713 -0.9395 -1.4542
 5525SOL     OW28207   4.197   3.371   7.636 -0.1703 -0.0612 -0.2361
 5525SOL    HW128208   4.227   3.451   7.678  0.1995 -1.3668  2.0048
 5525SOL    HW228209   4.214   3.314   7.711 -0.8860 -0.4340 -0.3570
 5526SOL     OW28210   0.394   4.023   4.987  0.3406  0.1776 -0.1835
 5526SOL    HW128211   0.350   3.944   5.017 -0.1166 -0.1170 -1.6234
 5526SOL    HW228212   0.348   4.055   4.909 -1.4834 -0.3368  0.6931
 5527SOL     OW28213   1.075   0.578   1.552  0.3571 -0.0951 -0.2504
 5527SOL    HW128214   1.118   0.547   1.472 -1.3928  1.0921 -1.6578
 5527SOL    HW228215   1.134   0.651   1.569  1.4362 -0.4080 -2.5614
 5528SOL     OW28216   1.352   2.400   3.204  0.3033  0.2216  0.4647
 5528SOL    HW128217   1.353   2.354   3.288  0.6081  2.2808  1.5881
 5528SOL    HW228218   1.368   2.326   3.146 -0.2940  0.7170 -0.3329
 5529SOL     OW28219   3.282   4.378  11.554  0.1237  0.2454  0.0647
 5529SOL    HW128220   3.325   4.451  11.599  2.1621  0.0891 -1.5923
 5529SOL    HW228221   3.198   4.366  11.598 -0.1201  2.2192  0.1355
 5530SOL     OW28222   2.473   1.451   9.932  0.0331  0.1297 -0.0026
 5530SOL    HW128223   2.540   1.453   9.863 -0.2248  1.3154 -0.2062
 5530SOL    HW228224   2.521   1.505   9.995  0.3301 -1.8054  1.4279
 5531SOL     OW28225   3.565   1.107   9.166 -0.2518  0.0599  0.0253
 5531SOL    HW128226   3.630   1.144   9.106 -0.7776  0.4937 -0.2712
 5531SOL    HW228227   3.489   1.157   9.139 -0.0572 -0.6192 -1.7852
 5532SOL     OW28228   1.440   2.577  14.675  0.6176 -0.0382 -0.3645
 5532SOL    HW128229   1.485   2.508  14.723  0.6262  0.6024  0.5437
 5532SOL    HW228230   1.505   2.632  14.630 -0.6006 -0.7308 -2.9679
 5533SOL     OW28231   2.934   2.516  10.765 -0.2590  0.1257 -0.3939
 5533SOL    HW128232   2.965   2.479  10.682 -0.1383  1.3831 -0.9102
 5533SOL    HW228233   2.888   2.592  10.728 -1.1148 -0.6570 -0.9179
 5534SOL     OW28234   3.894   3.552   9.335  0.4202 -0.5353 -0.1800
 5534SOL    HW128235   3.871   3.538   9.244 -1.7503 -1.2219  0.4774
 5534SOL    HW228236   3.843   3.631   9.354 -0.7168 -1.0924 -0.9176
 5535SOL     OW28237   3.457   3.572   5.493 -0.2248  0.0775 -0.1924
 5535SOL    HW128238   3.486   3.482   5.506  2.7074  1.1669  0.8252
 5535SOL    HW228239   3.536   3.625   5.480 -0.8074  0.6736 -1.3272
 5536SOL     OW28240   3.729   1.292   9.018 -0.4399  0.5506 -0.7003
 5536SOL    HW128241   3.779   1.347   8.957  0.6449 -1.1126 -1.3038
 5536SOL    HW228242   3.707   1.354   9.088  0.9001  0.9646 -0.6312
 5537SOL     OW28243   0.385   3.781   3.347 -0.2165  0.5614 -0.7051
 5537SOL    HW128244   0.403   3.825   3.429  1.8699 -0.4724 -0.5967
 5537SOL    HW228245   0.308   3.819   3.305 -2.1611 -1.0770  1.3973
 5538SOL     OW28246   0.096   0.163  10.539 -0.3408 -0.1942 -0.1228
 5538SOL    HW128247   0.166   0.172  10.474  0.7051 -0.2455  0.9960
 5538SOL    HW228248   0.049   0.084  10.513 -0.2440  0.5900 -2.6599
 5539SOL     OW28249   0.457   1.224   9.011  0.1141  0.2887 -0.1992
 5539SOL    HW128250   0.457   1.167   9.089 -0.6697  0.8370  0.2098
 5539SOL    HW228251   0.505   1.169   8.950 -1.7477 -1.6252  0.0535
 5540SOL     OW28252   0.444   0.627   1.129  0.1773 -0.2357  0.0660
 5540SOL    HW128253   0.384   0.627   1.204  0.4681  1.7684  0.2946
 5540SOL    HW228254   0.395   0.685   1.071  2.3251 -1.2155 -2.6856
 5541SOL     OW28255   0.070   2.432   7.250  0.2154 -0.1735 -0.1932
 5541SOL    HW128256   4.731   2.422   7.310  0.2205  1.6896  0.1365
 5541SOL    HW228257   0.145   2.465   7.299 -0.0661  0.8682 -0.4690
 5542SOL     OW28258   3.277   3.410   7.402 -0.5066  0.0441 -0.5828
 5542SOL    HW128259   3.286   3.326   7.448 -0.6486  1.2396  1.6053
 5542SOL    HW228260   3.372   3.426   7.398  0.0836 -2.6420  2.3959
 5543SOL     OW28261   1.048   3.336   2.731 -0.2737  0.1025 -0.3549
 5543SOL    HW128262   0.972   3.384   2.697 -1.1392 -2.3289 -1.8875
 5543SOL    HW228263   1.039   3.258   2.676  2.4073  0.0957 -0.7519
 5544SOL     OW28264   3.659   2.561   5.399 -0.3214 -0.2601 -0.0055
 5544SOL    HW128265   3.701   2.509   5.330  0.1458  0.3838 -0.2061
 5544SOL    HW228266   3.569   2.529   5.395 -0.1377 -0.8186  0.2931
 5545SOL     OW28267   1.391   1.550   7.408  0.6250  0.5093  0.2988
 5545SOL    HW128268   1.301   1.541   7.377  0.1151 -0.8861  2.1203
 5545SOL    HW228269   1.371   1.573   7.499  0.8397 -0.4476  0.5987
 5546SOL     OW28270   3.037   3.821   7.881  0.0780  0.0007  0.2370
 5546SOL    HW128271   3.114   3.767   7.863  0.6226  1.2082 -0.9670
 5546SOL    HW228272   3.011   3.846   7.793  0.1961 -1.9940 -0.3703
 5547SOL     OW28273   2.691   3.031  16.636  0.1335 -0.0590  0.7063
 5547SOL    HW128274   2.707   3.035  16.542  0.4085  0.1061  0.7603
 5547SOL    HW228275   2.679   2.937  16.650  2.1104 -0.4108  0.0430
 5548SOL     OW28276   3.044   1.453  16.073 -0.0972  0.4347  0.2731
 5548SOL    HW128277   2.981   1.522  16.095 -1.6411 -0.6842 -0.6631
 5548SOL    HW228278   3.117   1.481  16.128  1.5991 -1.3370 -1.0632
 5549SOL     OW28279   1.466   2.561   8.866  1.1002 -0.2204  0.1512
 5549SOL    HW128280   1.507   2.557   8.953  1.0700 -2.6585  0.0688
 5549SOL    HW228281   1.376   2.535   8.887  0.4146  0.9045 -1.4479
 5550SOL     OW28282   4.514   0.139   3.609  0.9439  0.2370  0.1003
 5550SOL    HW128283   4.468   0.223   3.607 -0.1543 -0.3475  0.5245
 5550SOL    HW228284   4.602   0.172   3.595  1.1141 -0.9995 -1.7446
 5551SOL     OW28285   1.171   1.130   2.406 -0.0741 -0.0317  0.1478
 5551SOL    HW128286   1.250   1.168   2.366 -0.1352  0.2695  0.3131
 5551SOL    HW228287   1.141   1.212   2.445  0.8967 -0.2929  1.4322
 5552SOL     OW28288   2.500   1.869   8.047 -0.0653 -0.1475 -0.4500
 5552SOL    HW128289   2.479   1.962   8.035 -0.5094 -0.2385 -0.3415
 5552SOL    HW228290   2.436   1.831   7.988 -0.8127 -1.6565  1.3662
 5553SOL     OW28291   2.114   4.188   6.384  0.6859 -0.1800 -0.4454
 5553SOL    HW128292   2.147   4.103   6.356  1.8241 -0.2948  1.2805
 5553SOL    HW228293   2.173   4.258   6.354 -0.5787  1.6469  1.2967
 5554SOL     OW28294   3.850   0.386   7.879  0.1392  0.4286 -0.4902
 5554SOL    HW128295   3.904   0.404   7.802  0.1923  0.7710 -0.3735
 5554SOL    HW228296   3.764   0.419   7.852  0.5460  0.7941 -1.3469
 5555SOL     OW28297   0.555   0.466  12.491 -0.0384 -0.5986  0.2249
 5555SOL    HW128298   0.608   0.460  12.411 -0.7811  1.0855 -0.4073
 5555SOL    HW228299   0.490   0.531  12.462  0.4916 -0.2745 -0.2264
 5556SOL     OW28300   1.403   1.807   2.837 -0.1601  0.1065  0.3008
 5556SOL    HW128301   1.380   1.816   2.929  0.6819 -0.6167  0.5792
 5556SOL    HW228302   1.495   1.834   2.831 -0.2002 -0.0695 -1.1039
 5557SOL     OW28303   0.150   4.044   9.851  0.0525 -0.3116 -0.0054
 5557SOL    HW128304   0.245   4.036   9.853  0.0480 -0.3091  0.1524
 5557SOL    HW228305   0.124   3.953   9.861 -0.1466 -0.3555 -0.8480
 5558SOL     OW28306   4.093   1.780   9.304 -0.7768  0.5312 -0.7118
 5558SOL    HW128307   4.097   1.685   9.297  0.1242  0.4796  0.3890
 5558SOL    HW228308   4.113   1.815   9.217 -2.1137 -1.6399 -1.8936
 5559SOL     OW28309   3.376   3.811   4.409  0.1686 -0.3985 -0.6236
 5559SOL    HW128310   3.383   3.747   4.338  2.6249  0.1547 -0.8835
 5559SOL    HW228311   3.460   3.857   4.396 -0.3302  1.2862  2.0433
 5560SOL     OW28312   1.110   4.035   8.756 -0.2485  0.4570 -0.1522
 5560SOL    HW128313   1.058   4.001   8.828  1.7025 -1.7620  0.2248
 5560SOL    HW228314   1.098   4.128   8.775 -0.8890  0.6881 -1.6617
 5561SOL     OW28315   0.702   3.934  16.503  0.6318  0.3045  0.1968
 5561SOL    HW128316   0.707   3.845  16.467  0.7807  0.4370 -0.1121
 5561SOL    HW228317   0.762   3.979  16.443  1.9025 -1.5624  0.0675
 5562SOL     OW28318   0.052   2.657   9.158  0.2851 -0.0615 -0.0732
 5562SOL    HW128319   0.128   2.613   9.120 -0.2860 -0.4845 -0.7177
 5562SOL    HW228320   0.058   2.635   9.251  2.4438  0.6072 -0.0556
 5563SOL     OW28321   2.687   2.010   2.245 -0.1539 -0.5632 -0.1042
 5563SOL    HW128322   2.659   2.080   2.186 -0.0323  1.4339  2.2289
 5563SOL    HW228323   2.752   2.061   2.293 -1.1529  0.7803 -0.1709
 5564SOL     OW28324   0.229   2.207  12.984  0.8628  0.7802  0.0354
 5564SOL    HW128325   0.302   2.190  12.924  0.0103 -0.1944 -0.7296
 5564SOL    HW228326   0.228   2.125  13.033  0.1843  0.9132  0.2395
 5565SOL     OW28327   3.932   0.921   8.381 -0.4861  0.0166  0.1189
 5565SOL    HW128328   3.885   0.966   8.451  0.1505  1.3443 -0.3067
 5565SOL    HW228329   4.020   0.952   8.402 -0.3488 -2.2933  3.0121
 5566SOL     OW28330   3.204   0.601   4.282  0.0624  0.1301 -0.1474
 5566SOL    HW128331   3.261   0.678   4.290 -2.1131  1.9442 -1.7848
 5566SOL    HW228332   3.133   0.628   4.223 -1.1039  0.7320  1.5458
 5567SOL     OW28333   2.159   3.806   6.104 -0.1151 -0.3996  0.0089
 5567SOL    HW128334   2.177   3.712   6.098 -2.0147 -0.7798  0.1743
 5567SOL    HW228335   2.159   3.816   6.200  0.5394 -1.0799  0.0783
 5568SOL     OW28336   1.131   2.168   2.461  0.2882 -0.1599  0.5816
 5568SOL    HW128337   1.059   2.116   2.425  1.4727 -1.6459  0.3378
 5568SOL    HW228338   1.094   2.256   2.456  0.1744 -0.3858 -3.0142
 5569SOL     OW28339   0.517   0.639   3.982 -0.6537  0.3418 -0.7366
 5569SOL    HW128340   0.518   0.610   4.074 -4.3366 -1.2488 -1.1994
 5569SOL    HW228341   0.502   0.555   3.938  2.2723 -1.1145  0.9890
 5570SOL     OW28342   1.788   3.245  14.907  0.1894  0.0502  0.0246
 5570SOL    HW128343   1.852   3.290  14.962 -0.1929  0.4725  0.1285
 5570SOL    HW228344   1.833   3.235  14.823 -0.8290  0.1553 -0.5389
 5571SOL     OW28345   4.723   3.171   4.729  0.4630 -0.1711  0.3729
 5571SOL    HW128346   4.646   3.114   4.734  0.4839 -0.2169  0.1509
 5571SOL    HW228347   4.730   3.223   4.649  0.6096  2.0138  1.8030
 5572SOL     OW28348   4.714   3.599   9.091 -0.0506 -0.4903 -0.1804
 5572SOL    HW128349   0.037   3.662   9.048 -1.9465  0.7104 -1.0035
 5572SOL    HW228350   0.035   3.581   9.167  0.5940 -0.4235 -0.6490
 5573SOL     OW28351   4.024   4.303   9.276 -0.3104 -0.2085  0.0432
 5573SOL    HW128352   4.098   4.302   9.337 -1.9701 -4.1059  1.9942
 5573SOL    HW228353   3.958   4.275   9.339  0.2616  0.1886  0.8265
 5574SOL     OW28354   2.286   3.622   5.289 -0.4936 -0.0908 -0.0909
 5574SOL    HW128355   2.350   3.682   5.251  1.7346 -1.7320  1.0755
 5574SOL    HW228356   2.305   3.545   5.235 -1.3509  0.8167 -1.6923
 5575SOL     OW28357   2.290   0.196   2.255 -0.6698 -0.0590 -0.3408
 5575SOL    HW128358   2.252   0.262   2.197 -0.8004 -2.2221 -2.7495
 5575SOL    HW228359   2.258   0.221   2.341 -1.1727  0.6294 -0.7242
 5576SOL     OW28360   3.756   1.512  17.553 -0.3903  0.4493  0.1868
 5576SOL    HW128361   3.838   1.548  17.519  0.3725 -1.1552  0.3282
 5576SOL    HW228362   3.702   1.591  17.546  0.0654  0.9384  2.1931
 5577SOL     OW28363   3.541   3.372  16.274 -0.0093  0.0611  0.6406
 5577SOL    HW128364   3.592   3.437  16.324 -1.0140 -0.2022  2.0139
 5577SOL    HW228365   3.600   3.336  16.208 -0.2781  0.1177  0.3716
 5578SOL     OW28366   0.182   3.237   2.523  0.2569 -0.7214  0.5054
 5578SOL    HW128367   0.245   3.170   2.547  0.0476 -0.6867  1.1791
 5578SOL    HW228368   0.214   3.253   2.434  1.4317  0.6207  1.1637
 5579SOL     OW28369   1.975   2.533  12.899 -0.3157 -0.0190  0.1203
 5579SOL    HW128370   2.017   2.500  12.978 -1.3639 -0.2027  0.5994
 5579SOL    HW228371   1.976   2.450  12.853 -0.1212 -0.0181  0.1216
 5580SOL     OW28372   0.324   1.642   9.430  0.4911 -0.1195 -0.2835
 5580SOL    HW128373   0.322   1.658   9.525  2.1232  1.2385 -0.4715
 5580SOL    HW228374   0.246   1.589   9.414  0.9389 -0.5529 -1.0520
 5581SOL     OW28375   4.518   1.056   4.332 -0.6683 -0.4745 -0.0761
 5581SOL    HW128376   4.506   0.971   4.290  0.1852  0.5051 -2.2757
 5581SOL    HW228377   4.492   1.116   4.263 -0.1828 -0.7073 -0.4613
 5582SOL     OW28378   1.787   1.708   0.130 -0.2686  0.3350  0.1386
 5582SOL    HW128379   1.862   1.651   0.115  2.1403  2.6921  3.2659
 5582SOL    HW228380   1.732   1.664   0.195 -1.2764  0.3216 -0.7148
 5583SOL     OW28381   0.747   2.771  17.509 -0.0501  0.3985  0.3005
 5583SOL    HW128382   0.834   2.785  17.548 -1.1327  0.6555  2.6428
 5583SOL    HW228383   0.765   2.821  17.429  0.1359 -1.5806 -0.8759
 5584SOL     OW28384   2.421   4.471  13.031  0.2446 -0.1081  0.2635
 5584SOL    HW128385   2.435   4.456  13.124  1.6107 -0.6536 -0.0285
 5584SOL    HW228386   2.474   4.549  13.018  1.6259 -1.2143 -0.7764
 5585SOL     OW28387   3.329   0.284  11.262 -0.2803 -0.0464  0.0887
 5585SOL    HW128388   3.420   0.272  11.287  0.2160  1.2182 -1.0853
 5585SOL    HW228389   3.338   0.282  11.166  1.1019  2.7545  0.1708
 5586SOL     OW28390   0.319   1.936  10.733 -0.7318 -0.3083 -0.6927
 5586SOL    HW128391   0.279   1.930  10.819 -2.7255  1.8248 -1.4838
 5586SOL    HW228392   0.341   1.845  10.710 -0.5505 -0.3908 -0.1845
 5587SOL     OW28393   0.934   2.796   6.570 -0.1333 -0.3920  0.2370
 5587SOL    HW128394   0.962   2.761   6.485 -1.6277  1.4324 -1.0182
 5587SOL    HW228395   1.008   2.754   6.614 -0.6687 -0.0583  1.4501
 5588SOL     OW28396   3.452   2.129   3.089 -0.2627 -0.0183  0.4136
 5588SOL    HW128397   3.416   2.208   3.048  0.4052 -0.1055 -0.3317
 5588SOL    HW228398   3.510   2.098   3.020  1.8064  2.2742  1.1635
 5589SOL     OW28399   0.404   0.736   5.639 -0.2279  0.1628  0.4960
 5589SOL    HW128400   0.454   0.802   5.591 -1.3923  1.0238  0.4607
 5589SOL    HW228401   0.330   0.716   5.582  1.4780 -0.2211 -1.6012
 5590SOL     OW28402   0.141   0.358   2.716  0.0732 -0.7902  0.1913
 5590SOL    HW128403   0.112   0.322   2.633 -0.0899  2.6673 -1.2491
 5590SOL    HW228404   0.079   0.318   2.778 -1.1264  0.4463 -0.2107
 5591SOL     OW28405   0.784   2.357   5.827 -0.2058 -0.8158  0.0467
 5591SOL    HW128406   0.746   2.442   5.805  1.1760 -0.2860 -0.2958
 5591SOL    HW228407   0.862   2.352   5.772 -0.7536 -0.4762 -0.7548
 5592SOL     OW28408   2.447   2.140   9.796 -0.5006 -0.2662  0.2336
 5592SOL    HW128409   2.468   2.147   9.889 -2.9928  3.8361  0.5225
 5592SOL    HW228410   2.464   2.049   9.774 -1.1013 -0.4580  0.5516
 5593SOL     OW28411   0.241   4.202   6.446 -0.4115  0.1868  0.4978
 5593SOL    HW128412   0.267   4.216   6.355 -3.2896  1.7636 -0.0809
 5593SOL    HW228413   0.221   4.293   6.471 -1.3161  0.0748  0.1717
 5594SOL     OW28414   1.960   4.517  17.045 -0.1549 -0.3378  0.6162
 5594SOL    HW128415   1.910   4.511  17.127 -0.4300 -3.3649  0.2445
 5594SOL    HW228416   1.955   4.607  17.013 -1.2273 -0.8728 -0.7423
 5595SOL     OW28417   0.378   1.480   1.957  0.2427 -0.5394 -0.7913
 5595SOL    HW128418   0.371   1.561   2.009  4.4193  0.8948 -2.4430
 5595SOL    HW228419   0.472   1.464   1.964  0.2934 -1.2027 -3.0699
 5596SOL     OW28420   3.973   0.237   4.448  0.6081 -0.6239  0.2737
 5596SOL    HW128421   3.892   0.287   4.453  0.2811 -1.1179 -0.0070
 5596SOL    HW228422   3.944   0.179   4.378  2.5817  0.1516 -1.1539
 5597SOL     OW28423   3.123   2.872  11.955  0.2188  0.8268  0.1913
 5597SOL    HW128424   3.088   2.907  11.873  0.0653 -1.0403 -0.5557
 5597SOL    HW228425   3.093   2.781  11.951  0.5201  0.8272 -2.1544
 5598SOL     OW28426   2.610   1.367   1.730 -0.0962  0.3966 -0.3747
 5598SOL    HW128427   2.675   1.375   1.661 -1.4165  2.1116 -1.4125
 5598SOL    HW228428   2.559   1.293   1.697  2.0859 -1.9346  1.4908
 5599SOL     OW28429   3.730   1.995   9.258  0.1870  0.1014  0.5323
 5599SOL    HW128430   3.697   2.012   9.170 -1.7712 -0.6086  1.1342
 5599SOL    HW228431   3.690   1.912   9.285  2.6379 -0.5101  2.2536
 5600SOL     OW28432   1.904   1.609   6.588 -0.1811 -0.1423 -0.4030
 5600SOL    HW128433   1.908   1.526   6.636  0.0712  0.6732  1.0005
 5600SOL    HW228434   1.989   1.643   6.615 -1.0935 -1.0985  3.6512
 5601SOL     OW28435   3.576   1.334  16.403  0.6038 -0.2515  0.2449
 5601SOL    HW128436   3.619   1.308  16.322 -0.9808  2.9776 -1.6711
 5601SOL    HW228437   3.581   1.429  16.387 -0.1333 -0.2640 -0.0861
 5602SOL     OW28438   0.866   1.094   2.864  0.4804  0.0969 -0.3085
 5602SOL    HW128439   0.775   1.065   2.861  0.6906 -0.7318  1.0546
 5602SOL    HW228440   0.900   1.031   2.800  1.9190  0.7126 -0.1449
 5603SOL     OW28441   0.374   1.984   8.274 -0.1748 -0.8793  0.3830
 5603SOL    HW128442   0.328   1.908   8.237 -2.3248  0.4451  0.3424
 5603SOL    HW228443   0.372   2.039   8.196 -0.7548  1.7696  2.2597
 5604SOL     OW28444   1.630   0.740  11.100  1.0742 -0.1639  0.0395
 5604SOL    HW128445   1.719   0.711  11.121  1.1394  0.0484  0.0570
 5604SOL    HW228446   1.599   0.667  11.046  0.3769  0.2336 -0.0962
 5605SOL     OW28447   3.236   0.796   4.959  0.0134 -0.4648  0.0253
 5605SOL    HW128448   3.270   0.802   5.048  1.4991  2.2200 -0.7043
 5605SOL    HW228449   3.294   0.731   4.920  0.7030 -0.9856  1.9039
 5606SOL     OW28450   1.800   1.152   3.843 -0.1156  0.5479 -0.2549
 5606SOL    HW128451   1.812   1.181   3.753 -1.2396 -1.5184 -1.0891
 5606SOL    HW228452   1.796   1.056   3.834  0.5562  0.4263  0.7958
 5607SOL     OW28453   1.770   2.567   2.674  0.2352  0.0163 -0.1265
 5607SOL    HW128454   1.844   2.518   2.639 -1.0169 -2.9948  1.4218
 5607SOL    HW228455   1.803   2.592   2.760  1.3609 -0.8242 -0.3205
 5608SOL     OW28456   0.285   3.003  13.823 -0.1816  0.3543 -0.0092
 5608SOL    HW128457   0.210   3.060  13.811 -0.9963 -0.5659  0.6753
 5608SOL    HW228458   0.341   3.040  13.755 -0.9291  0.4184 -0.5943
 5609SOL     OW28459   4.723   4.019   4.684  0.2184  0.7895 -1.1254
 5609SOL    HW128460   4.642   4.043   4.729  0.9619 -0.9896  1.1717
 5609SOL    HW228461   4.685   3.966   4.614 -1.1114  0.5013 -0.1827
 5610SOL     OW28462   1.309   3.463   9.767 -0.6006 -0.0015  0.7325
 5610SOL    HW128463   1.341   3.523   9.700 -2.1533 -0.8685 -0.7989
 5610SOL    HW228464   1.389   3.425   9.802 -0.6339  0.4945  1.3500
 5611SOL     OW28465   2.871   4.194   9.388 -0.0010 -0.3166  0.0227
 5611SOL    HW128466   2.841   4.145   9.465  0.4448  1.1857  1.1603
 5611SOL    HW228467   2.817   4.158   9.318 -0.2547 -0.0537  0.0807
 5612SOL     OW28468   1.700   0.582   5.947  0.4553  0.0333  0.0854
 5612SOL    HW128469   1.658   0.499   5.926 -0.3649  0.9883 -2.0382
 5612SOL    HW228470   1.730   0.562   6.036 -0.4896 -1.1437  0.1298
 5613SOL     OW28471   0.881   3.906   9.205 -0.0852 -0.0378 -0.3402
 5613SOL    HW128472   0.898   3.963   9.280  0.4157 -1.5822  0.7255
 5613SOL    HW228473   0.945   3.835   9.212 -1.3197 -0.9190  2.2999
 5614SOL     OW28474   4.169   2.621   1.584 -0.5394 -0.1509  0.4423
 5614SOL    HW128475   4.232   2.549   1.585 -1.6290 -1.0903  1.3010
 5614SOL    HW228476   4.157   2.626   1.679 -1.5252 -2.3786  0.4327
 5615SOL     OW28477   0.057   4.692   5.156  0.1830 -0.0035  0.1411
 5615SOL    HW128478   0.059   4.679   5.251 -0.1062 -1.2077 -0.0155
 5615SOL    HW228479   0.150   4.679   5.138  0.3836  1.4094  0.1505
 5616SOL     OW28480   2.989   1.249   9.242  0.5875  0.0114  0.2618
 5616SOL    HW128481   3.051   1.204   9.299 -0.1229 -1.0866  0.1650
 5616SOL    HW228482   2.947   1.179   9.192 -0.1895 -0.8947  2.1662
 5617SOL     OW28483   2.435   0.268   5.945  0.2452  0.8549  0.6778
 5617SOL    HW128484   2.382   0.242   6.021 -1.8978 -0.5108 -1.2874
 5617SOL    HW228485   2.527   0.249   5.964  1.1130  1.7621 -2.6412
 5618SOL     OW28486   4.030   2.289   2.683  0.0311  0.1330  0.2146
 5618SOL    HW128487   4.119   2.301   2.650  0.7483 -2.0062  1.3723
 5618SOL    HW228488   4.053   2.242   2.764  0.5287  1.8908  1.0966
 5619SOL     OW28489   3.916   1.527   6.534 -0.6651  0.2818 -0.0472
 5619SOL    HW128490   3.925   1.437   6.503  1.0028  1.0993 -1.9365
 5619SOL    HW228491   4.006   1.559   6.523 -0.5435  0.6058  1.7558
 5620SOL     OW28492   1.623   2.550   9.123 -0.2530  0.4922 -0.2953
 5620SOL    HW128493   1.616   2.467   9.170 -1.0465  0.9191  0.3540
 5620SOL    HW228494   1.704   2.555   9.073  0.3092 -0.1608  0.5666
 5621SOL     OW28495   2.241   2.711   8.966 -0.2027  0.2472 -0.5358
 5621SOL    HW128496   2.266   2.668   8.884  1.9377 -0.1960  0.3620
 5621SOL    HW228497   2.199   2.793   8.941 -0.2202  1.3305  3.2014
 5622SOL     OW28498   0.695   4.596  14.578 -0.4149 -0.2295 -0.9307
 5622SOL    HW128499   0.787   4.597  14.552 -0.0505 -0.6743  0.3372
 5622SOL    HW228500   0.660   4.578  14.491  0.7650 -0.0821 -1.4398
 5623SOL     OW28501   0.717   3.939   7.722  0.1315  0.5082 -0.6153
 5623SOL    HW128502   0.682   3.865   7.672  0.8253 -1.2854  1.5312
 5623SOL    HW228503   0.691   4.009   7.662  0.1276 -0.4629 -1.7381
 5624SOL     OW28504   2.809   2.265  15.506  0.5313  0.7178  0.1220
 5624SOL    HW128505   2.901   2.258  15.479  0.8139 -1.2274  1.6083
 5624SOL    HW228506   2.810   2.306  15.592  0.8182 -1.5075  1.1619
 5625SOL     OW28507   0.688   1.109   0.795  0.3036 -0.1813 -0.2490
 5625SOL    HW128508   0.669   1.099   0.888 -0.3840 -0.6163 -0.4369
 5625SOL    HW228509   0.642   1.030   0.768  3.3024 -2.7369  2.0122
 5626SOL     OW28510   2.373   2.905   8.498 -0.0494 -0.1240  0.1167
 5626SOL    HW128511   2.363   2.966   8.571  1.2841 -0.3367  0.4704
 5626SOL    HW228512   2.453   2.863   8.527 -0.7708 -0.1085  2.1249
 5627SOL     OW28513   1.596   1.664   8.200  0.2081  0.1505 -0.0485
 5627SOL    HW128514   1.529   1.701   8.144  0.9424  0.1949 -0.8950
 5627SOL    HW228515   1.585   1.572   8.175 -0.0893  0.3839 -0.7688
 5628SOL     OW28516   0.617   3.998  10.672 -0.3835 -0.2001 -0.1371
 5628SOL    HW128517   0.711   4.015  10.663 -0.4481  0.6846  0.9569
 5628SOL    HW228518   0.618   3.903  10.656 -1.4693 -0.3724  0.8803
 5629SOL     OW28519   1.887   0.514   2.007 -0.1778 -0.3892 -0.2873
 5629SOL    HW128520   1.864   0.428   2.042 -0.2514 -0.2024  0.1242
 5629SOL    HW228521   1.869   0.571   2.083  1.8294  1.2778 -1.0518
 5630SOL     OW28522   0.476   1.931   7.534 -0.4728  0.1514 -0.1937
 5630SOL    HW128523   0.514   2.017   7.520 -2.1717  0.7162 -1.3556
 5630SOL    HW228524   0.384   1.947   7.512 -0.4820 -0.3053 -0.4964
 5631SOL     OW28525   2.352   4.093  13.789  0.1911 -0.0596 -0.2698
 5631SOL    HW128526   2.301   4.147  13.729 -0.3843 -0.8221 -0.4643
 5631SOL    HW228527   2.286   4.051  13.843  2.4248  0.5032  2.8851
 5632SOL     OW28528   2.284   3.330   8.115  0.0070  0.1666  0.2317
 5632SOL    HW128529   2.257   3.306   8.026 -2.6114  3.0999  0.2368
 5632SOL    HW228530   2.195   3.346   8.147  0.0790  1.1697 -0.0888
 5633SOL     OW28531   3.862   2.473   6.362 -0.1878  0.2438 -0.0280
 5633SOL    HW128532   3.900   2.397   6.319 -0.7776  1.4634 -2.7281
 5633SOL    HW228533   3.914   2.544   6.322 -1.2220 -0.0191 -1.8724
 5634SOL     OW28534   1.852   4.570   0.250  0.0846  0.0226  0.2763
 5634SOL    HW128535   1.766   4.601   0.277 -0.0606 -0.1129 -0.0302
 5634SOL    HW228536   1.834   4.510   0.177 -1.0317 -0.8018  1.2285
 5635SOL     OW28537   4.292   3.422  10.987 -0.2152 -0.2730 -0.2694
 5635SOL    HW128538   4.288   3.345  11.044  0.6165 -0.0511  0.0785
 5635SOL    HW228539   4.368   3.391  10.938  0.2185  2.2542 -1.1489
 5636SOL     OW28540   0.858   3.431   9.511  0.4273 -0.2338  0.7518
 5636SOL    HW128541   0.939   3.395   9.473  1.4868  1.4674  1.3866
 5636SOL    HW228542   0.885   3.423   9.603  0.9631 -1.9186  0.4362
 5637SOL     OW28543   1.069   4.529   5.890  0.1496 -0.0342 -0.1631
 5637SOL    HW128544   1.032   4.586   5.823  1.5930 -1.5132 -2.2198
 5637SOL    HW228545   1.160   4.514   5.864  0.1188  1.8323 -1.2804
 5638SOL     OW28546   4.418   4.241   2.302  0.2663 -0.3690  0.0267
 5638SOL    HW128547   4.478   4.291   2.248 -1.3011  0.6353 -0.7915
 5638SOL    HW228548   4.394   4.185   2.228  1.0526  0.4794 -0.8645
 5639SOL     OW28549   0.175   2.932   2.930 -0.3940  0.1784 -0.1321
 5639SOL    HW128550   0.098   2.878   2.949 -0.2243 -0.2576 -0.6639
 5639SOL    HW228551   0.246   2.872   2.955  2.2728  1.6883 -4.0829
 5640SOL     OW28552   3.208   4.448  14.763  0.7261 -0.0433 -0.3261
 5640SOL    HW128553   3.299   4.456  14.733  1.4163 -0.7171  1.5640
 5640SOL    HW228554   3.163   4.462  14.680  1.2990 -0.1501 -0.6513
 5641SOL     OW28555   2.673   0.059   8.313 -0.0522  0.2064  0.3996
 5641SOL    HW128556   2.753   0.096   8.273 -0.0650 -0.4537 -0.2256
 5641SOL    HW228557   2.710   0.017   8.391 -0.2011  2.5599  1.7397
 5642SOL     OW28558   3.780   1.824  16.568 -0.3390  0.6060 -0.0674
 5642SOL    HW128559   3.848   1.860  16.624 -0.6253 -0.3554  0.9114
 5642SOL    HW228560   3.779   1.890  16.499 -1.9139  1.3688  0.6809
 5643SOL     OW28561   1.696   4.590   7.812  0.2548  0.0343  0.6584
 5643SOL    HW128562   1.672   4.500   7.832 -0.9744 -0.1514 -1.6870
 5643SOL    HW228563   1.791   4.578   7.813  0.5013  1.9270  0.1300
 5644SOL     OW28564   4.506   4.211   6.086 -0.5039 -0.1038 -0.8305
 5644SOL    HW128565   4.561   4.288   6.101  0.0820 -1.2758  3.1734
 5644SOL    HW228566   4.426   4.260   6.105  0.0313 -0.1950  1.6444
 5645SOL     OW28567   2.320   0.809  10.152 -0.1194  0.0675 -0.2184
 5645SOL    HW128568   2.292   0.784  10.240 -2.0633  1.7961 -0.3457
 5645SOL    HW228569   2.305   0.904  10.156  0.2706  0.0404  1.6867
 5646SOL     OW28570   1.625   1.781   0.476 -0.1845  0.2994  0.5315
 5646SOL    HW128571   1.622   1.876   0.493 -1.4883 -0.0427  2.1606
 5646SOL    HW228572   1.679   1.744   0.546 -3.3848  0.2269  2.9812
 5647SOL     OW28573   1.134   1.676   9.357  0.5363  0.7913  0.2735
 5647SOL    HW128574   1.177   1.648   9.276 -1.2358 -1.5079  0.1111
 5647SOL    HW228575   1.199   1.707   9.420  1.2416 -1.9916  0.9449
 5648SOL     OW28576   3.498   3.744   7.006  0.2953  0.5039 -0.4018
 5648SOL    HW128577   3.504   3.833   6.972  2.0863 -0.1334 -1.7730
 5648SOL    HW228578   3.463   3.771   7.091  1.0571  1.1804 -0.3001
 5649SOL     OW28579   2.638   4.107  17.010 -0.2176  0.3259 -0.2993
 5649SOL    HW128580   2.625   4.023  16.965  0.6467 -0.2573  0.5356
 5649SOL    HW228581   2.724   4.089  17.049 -0.7440 -1.0629  0.2153
 5650SOL     OW28582   2.958   2.851   5.489  0.0531  0.3402 -0.2246
 5650SOL    HW128583   2.963   2.886   5.400  1.2743  1.2131  0.1912
 5650SOL    HW228584   2.866   2.868   5.511  0.6757  0.5552  2.1904
 5651SOL     OW28585   0.337   3.531  12.680  0.0491 -0.0421 -0.0204
 5651SOL    HW128586   0.337   3.568  12.768  0.6244  0.6427 -0.3115
 5651SOL    HW228587   0.332   3.602  12.616  0.7371 -0.7693 -0.8929
 5652SOL     OW28588   2.219   3.642   4.314 -0.2833 -0.0402 -0.0838
 5652SOL    HW128589   2.295   3.650   4.258 -1.5144  0.3737 -1.6723
 5652SOL    HW228590   2.251   3.654   4.404  0.9179  1.1034 -0.6850
 5653SOL     OW28591   1.355   2.713   8.058  0.1197 -0.3722  0.4511
 5653SOL    HW128592   1.383   2.711   7.967 -2.7173 -0.1181 -0.4040
 5653SOL    HW228593   1.353   2.809   8.066 -1.7163 -0.3572 -0.4001
 5654SOL     OW28594   3.604   0.814   8.871  0.0279  0.3241  0.8057
 5654SOL    HW128595   3.533   0.826   8.933 -0.2794 -1.9209  0.8658
 5654SOL    HW228596   3.643   0.902   8.876  1.6406 -0.4004  0.9596
 5655SOL     OW28597   3.410   2.648  12.475 -0.0806  0.0446 -0.0082
 5655SOL    HW128598   3.346   2.647  12.546 -0.4773 -1.1925 -0.3754
 5655SOL    HW228599   3.483   2.606  12.521 -1.1233 -0.9894  0.7321
 5656SOL     OW28600   4.147   3.058  14.733 -0.4436 -0.3932 -0.0956
 5656SOL    HW128601   4.227   3.108  14.718  0.6731 -1.7743  1.2632
 5656SOL    HW228602   4.108   3.071  14.647 -2.6037  1.0722  1.0889
 5657SOL     OW28603   0.598   4.215   7.256  0.0317  0.7143  0.1637
 5657SOL    HW128604   0.617   4.152   7.187  2.9113  1.4842  0.2660
 5657SOL    HW228605   0.650   4.295   7.247 -0.5123  1.4268  3.3226
 5658SOL     OW28606   0.918   2.112   6.746  0.0425  0.5895  0.4712
 5658SOL    HW128607   0.913   2.024   6.784 -1.7476  0.8070  0.7723
 5658SOL    HW228608   0.917   2.093   6.652  1.6775 -1.2158  0.8203
 5659SOL     OW28609   2.708   4.086   7.826  0.6873  0.3439 -0.1421
 5659SOL    HW128610   2.668   4.169   7.801  0.2965  0.0668 -0.4443
 5659SOL    HW228611   2.743   4.066   7.739  1.5632  2.9379 -0.3808
 5660SOL     OW28612   3.572   0.974   5.761 -0.3181  0.3781 -0.2216
 5660SOL    HW128613   3.584   0.887   5.724  1.9438 -0.2485  1.9805
 5660SOL    HW228614   3.483   0.999   5.736 -0.5280  1.0181  1.1261
 5661SOL     OW28615   2.920   4.255   4.880 -0.1295  0.2642  0.7163
 5661SOL    HW128616   2.891   4.341   4.852 -1.3247 -0.4556 -0.2443
 5661SOL    HW228617   2.982   4.232   4.810  0.7969  1.0330  1.2828
 5662SOL     OW28618   2.591   3.627   5.912  0.3723 -0.3819  0.8623
 5662SOL    HW128619   2.614   3.707   5.866 -1.5792 -0.6538 -0.5457
 5662SOL    HW228620   2.499   3.620   5.888  0.6101 -0.4519 -0.0284
 5663SOL     OW28621   2.140   1.348  12.061  0.1694  0.5079 -0.0296
 5663SOL    HW128622   2.111   1.333  12.152 -1.4215 -3.5956 -1.1911
 5663SOL    HW228623   2.233   1.367  12.074 -0.2736  1.6308  1.5437
 5664SOL     OW28624   2.594   4.148  17.734 -0.2106 -0.1605  0.1796
 5664SOL    HW128625   2.545   4.224  17.701  0.8421  0.5062  0.1603
 5664SOL    HW228626   2.681   4.164  17.699  0.6695 -2.8125  1.1552
 5665SOL     OW28627   2.322   1.158  11.906  0.0401 -0.2922 -0.2056
 5665SOL    HW128628   2.345   1.228  11.844  4.4222 -1.6862 -0.1635
 5665SOL    HW228629   2.394   1.099  11.883  0.7594  0.5252 -0.0382
 5666SOL     OW28630   0.112   4.261  16.962  0.2418  0.2767 -0.2678
 5666SOL    HW128631   0.137   4.191  17.023  4.3621 -0.5440 -2.8914
 5666SOL    HW228632   0.164   4.235  16.886  0.8254  1.2913 -0.2090
 5667SOL     OW28633   1.232   2.845   7.091  0.2470  0.0390 -0.0204
 5667SOL    HW128634   1.190   2.848   7.006  0.7909  0.4400 -0.2773
 5667SOL    HW228635   1.313   2.892   7.070 -0.8200  1.3270 -1.2472
 5668SOL     OW28636   3.504   1.888   4.851 -0.2068 -0.4719 -0.1895
 5668SOL    HW128637   3.528   1.870   4.941  1.0627  0.9344 -0.2560
 5668SOL    HW228638   3.416   1.918   4.872  0.7525  1.0481  1.6638
 5669SOL     OW28639   3.018   1.098   6.209 -0.5485 -0.5217  0.5838
 5669SOL    HW128640   2.942   1.109   6.152  0.4326  1.6905 -0.3441
 5669SOL    HW228641   3.006   1.172   6.268  1.9699 -1.2428  2.0153
 5670SOL     OW28642   2.986   1.290   6.388 -0.4108  0.1233  0.0336
 5670SOL    HW128643   2.993   1.235   6.466 -1.4811  1.4021  1.0301
 5670SOL    HW228644   3.053   1.358   6.397 -3.6113  3.3949 -0.8371
 5671SOL     OW28645   1.044   1.722   7.830  0.1040 -0.1172 -0.0706
 5671SOL    HW128646   0.967   1.665   7.834 -0.2135  0.1542 -2.5932
 5671SOL    HW228647   1.024   1.774   7.752  0.1598  0.9196  0.6063
 5672SOL     OW28648   2.596   2.997   5.864  0.0620  0.0061  0.1652
 5672SOL    HW128649   2.558   3.029   5.946 -2.3808 -0.7833 -0.6740
 5672SOL    HW228650   2.542   2.923   5.838 -0.4270  0.1834  0.6753
 5673SOL     OW28651   3.556   3.699   4.654 -0.0797  0.1558 -0.1093
 5673SOL    HW128652   3.507   3.709   4.572 -0.5251 -1.5532 -0.0585
 5673SOL    HW228653   3.604   3.781   4.657  0.2824  0.0329 -2.6913
 5674SOL     OW28654   0.791   2.029   9.397 -0.0054 -0.3140  0.3384
 5674SOL    HW128655   0.702   1.993   9.398  0.8243 -2.4343 -1.6722
 5674SOL    HW228656   0.810   2.008   9.489  0.5336 -1.1324  0.0467
 5675SOL     OW28657   1.390   4.328  12.046  0.2110  0.4689 -0.0440
 5675SOL    HW128658   1.470   4.366  12.009  0.0250 -0.9666 -1.8751
 5675SOL    HW228659   1.409   4.235  12.047 -1.9657  0.0159 -1.8262
 5676SOL     OW28660   0.540   1.283   7.528  0.3651 -0.5371 -0.2540
 5676SOL    HW128661   0.534   1.298   7.623  2.3850  0.9539 -0.3696
 5676SOL    HW228662   0.449   1.258   7.510  0.0150  0.0465  0.7028
 5677SOL     OW28663   0.603   4.137   4.695 -0.2717 -0.4741 -0.0713
 5677SOL    HW128664   0.626   4.208   4.634  1.2847  1.3562  2.6462
 5677SOL    HW228665   0.508   4.133   4.686 -0.3386  1.9809 -0.5363
 5678SOL     OW28666   1.960   0.486  10.906  0.1168  0.1334  0.2883
 5678SOL    HW128667   2.049   0.464  10.879 -0.0208 -0.8198  0.6207
 5678SOL    HW228668   1.974   0.576  10.936  0.3773 -0.0483  0.7226
 5679SOL     OW28669   3.645   1.185   0.274 -0.1569 -0.0738  0.8389
 5679SOL    HW128670   3.696   1.133   0.335 -1.7913  0.5444  2.7309
 5679SOL    HW228671   3.670   1.149   0.189  2.7935  0.3097  1.5594
 5680SOL     OW28672   0.580   2.876  10.281  0.2455 -0.1114 -0.3316
 5680SOL    HW128673   0.636   2.799  10.271 -0.0528 -0.2738 -0.7871
 5680SOL    HW228674   0.570   2.906  10.190 -0.8091  0.6862  0.0472
 5681SOL     OW28675   3.012   1.978  17.716  0.4141 -0.5435 -0.1991
 5681SOL    HW128676   3.043   1.976   0.067 -1.6347  0.7207  0.5563
 5681SOL    HW228677   2.934   2.023   0.010  1.7257 -0.2000  2.4692
 5682SOL     OW28678   1.778   1.433   2.210 -1.1758  0.4485  0.4325
 5682SOL    HW128679   1.723   1.358   2.187  1.5107 -0.8728 -1.6754
 5682SOL    HW228680   1.859   1.385   2.224 -0.0530  1.6782 -1.9284
 5683SOL     OW28681   2.417   1.166   1.654  0.0654  0.3310  0.3554
 5683SOL    HW128682   2.363   1.088   1.635 -2.3145  2.3538 -1.1844
 5683SOL    HW228683   2.402   1.202   1.566  2.1083  1.4078  0.4561
 5684SOL     OW28684   1.006   1.154   3.307 -0.3449  0.1772  0.2134
 5684SOL    HW128685   1.000   1.198   3.392  0.0896 -0.0400  0.3592
 5684SOL    HW228686   0.949   1.211   3.256 -0.4261 -0.6816 -0.6629
 5685SOL     OW28687   3.549   0.740   0.497  0.2492 -0.1752 -0.0516
 5685SOL    HW128688   3.454   0.727   0.496  0.2173  0.2332 -1.6904
 5685SOL    HW228689   3.568   0.796   0.421 -0.9665  0.2798 -0.0182
 5686SOL     OW28690   4.334   4.488   3.355  0.3052 -0.0391  0.1766
 5686SOL    HW128691   4.376   4.404   3.375 -0.0388  0.0778  1.3958
 5686SOL    HW228692   4.413   4.543   3.350 -0.5176  1.0790 -0.4995
 5687SOL     OW28693   1.682   1.284   4.456  0.4921 -0.1974  0.2128
 5687SOL    HW128694   1.621   1.333   4.401 -0.3577 -2.7404 -1.1166
 5687SOL    HW228695   1.625   1.219   4.498  0.6223 -0.9236 -0.7464
 5688SOL     OW28696   1.330   0.201  13.281  0.1079  0.1393 -0.4306
 5688SOL    HW128697   1.371   0.247  13.353 -0.1958 -1.6760  0.9003
 5688SOL    HW228698   1.238   0.229  13.282 -0.5327 -2.0640  1.5467
 5689SOL     OW28699   4.259   4.392   4.581  0.1389  0.4484  0.5229
 5689SOL    HW128700   4.199   4.335   4.533 -1.6583  0.6917  2.4915
 5689SOL    HW228701   4.346   4.372   4.545 -0.6202 -0.7282 -0.6574
 5690SOL     OW28702   1.213   3.360   1.080 -0.2258 -0.1221  0.9034
 5690SOL    HW128703   1.218   3.267   1.099  0.3589 -0.4064 -0.6350
 5690SOL    HW228704   1.209   3.399   1.168 -2.0692 -1.7462  1.5291
 5691SOL     OW28705   0.696   2.978   0.522 -0.0069  0.0883  0.5708
 5691SOL    HW128706   0.703   2.893   0.565  0.8261 -0.5301 -0.7529
 5691SOL    HW228707   0.753   3.030   0.579  2.2731 -2.8747  0.9964
 5692SOL     OW28708   3.668   0.832   6.924  0.0726  0.2279 -0.1859
 5692SOL    HW128709   3.582   0.869   6.942  0.4404  0.7691  0.4516
 5692SOL    HW228710   3.715   0.912   6.899 -0.5972  0.9757  0.9459
 5693SOL     OW28711   1.554   2.660   5.432  0.5414 -0.2596 -0.3276
 5693SOL    HW128712   1.485   2.724   5.451 -0.1117 -1.5539  1.6914
 5693SOL    HW228713   1.503   2.589   5.394  1.0062 -0.3017 -0.8735
 5694SOL     OW28714   2.827   2.318  14.344  0.2127  0.5097  0.3007
 5694SOL    HW128715   2.900   2.279  14.296  0.3120  0.1391  0.7593
 5694SOL    HW228716   2.803   2.244  14.399  1.0668  0.3088  0.4097
 5695SOL     OW28717   1.067   2.305   3.013 -0.1591 -0.1186 -0.0727
 5695SOL    HW128718   1.136   2.244   3.040 -1.5482 -0.2896  3.1631
 5695SOL    HW228719   1.019   2.248   2.953  1.6983 -1.6142 -0.1391
 5696SOL     OW28720   3.013   0.516   6.081 -0.3085 -0.0892  0.1890
 5696SOL    HW128721   2.986   0.606   6.100  0.0170  0.0938 -0.2277
 5696SOL    HW228722   3.109   0.518   6.084 -0.1831  1.7436 -4.6077
 5697SOL     OW28723   4.346   2.828   9.162 -0.2194 -0.5399 -0.0786
 5697SOL    HW128724   4.417   2.799   9.106 -0.3676 -0.1971 -0.4421
 5697SOL    HW228725   4.387   2.818   9.248  1.4972  0.2881 -0.8095
 5698SOL     OW28726   1.904   0.658  16.375 -0.0720 -0.0137 -0.2919
 5698SOL    HW128727   1.895   0.748  16.405  0.8039 -1.1146  3.2180
 5698SOL    HW228728   1.975   0.672  16.311  0.0247 -1.4055 -0.4798
 5699SOL     OW28729   2.657   3.714   9.319 -0.0186 -0.4383  0.1910
 5699SOL    HW128730   2.664   3.711   9.223 -1.5493  0.0681  0.0591
 5699SOL    HW228731   2.752   3.715   9.332  0.2062 -1.7996 -1.2930
 5700SOL     OW28732   3.176   1.640   0.230  0.2988  0.0170  0.0272
 5700SOL    HW128733   3.159   1.607   0.142  2.9955  0.3020 -0.6067
 5700SOL    HW228734   3.123   1.719   0.240  1.3945  0.6842  0.6323
 5701SOL     OW28735   1.393   2.449   8.180 -0.1288  0.2000  0.4386
 5701SOL    HW128736   1.374   2.451   8.274 -0.4885  0.1480  0.3652
 5701SOL    HW228737   1.319   2.403   8.140  1.4427 -1.3434 -0.6889
 5702SOL     OW28738   3.542   2.971   3.342 -0.7823 -0.5959  0.0296
 5702SOL    HW128739   3.603   3.012   3.403 -0.3864 -0.3205 -0.5503
 5702SOL    HW228740   3.579   2.882   3.347  2.6855  1.0178  2.7449
 5703SOL     OW28741   3.275   3.473   4.665  0.5622  0.4401  0.0871
 5703SOL    HW128742   3.341   3.539   4.648  0.8755  0.7565  2.4844
 5703SOL    HW228743   3.197   3.507   4.621  1.3690  0.6959 -1.1491
 5704SOL     OW28744   4.434   1.834   9.382 -0.1438  0.4249  0.2753
 5704SOL    HW128745   4.413   1.744   9.407  3.0382 -0.1721  0.7864
 5704SOL    HW228746   4.386   1.881   9.450  1.4950  1.6794  0.5659
 5705SOL     OW28747   3.527   0.734   6.109  0.1293  0.1892 -0.3989
 5705SOL    HW128748   3.480   0.802   6.062 -1.0297  0.8173  1.6584
 5705SOL    HW228749   3.617   0.767   6.114  0.2384 -0.4892  2.1454
 5706SOL     OW28750   2.720   2.287  11.633 -0.4488 -0.2406  0.7253
 5706SOL    HW128751   2.735   2.228  11.708 -1.6232 -0.6108  0.6645
 5706SOL    HW228752   2.625   2.296  11.629 -0.5359 -1.7464 -0.6711
 5707SOL     OW28753   1.591   1.720   8.942  0.1726  0.5171 -0.2672
 5707SOL    HW128754   1.658   1.690   8.881  0.6174  1.6485 -0.3175
 5707SOL    HW228755   1.515   1.743   8.889 -0.4410  0.3725  0.5464
 5708SOL     OW28756   0.402   3.951   8.524  0.0532  0.3413 -0.2912
 5708SOL    HW128757   0.428   4.015   8.458  0.8985  0.7451  0.4248
 5708SOL    HW228758   0.395   3.864   8.485  1.3759  0.5570 -0.9924
 5709SOL     OW28759   3.984   3.436  12.783 -0.0226 -0.4875 -0.2024
 5709SOL    HW128760   3.936   3.446  12.865  0.4033 -0.7692  0.0800
 5709SOL    HW228761   3.957   3.515  12.735  1.8930 -0.4204 -1.1856
 5710SOL     OW28762   1.881   3.683   4.961 -0.4987 -0.2908  0.0334
 5710SOL    HW128763   1.848   3.773   4.971  2.0323  0.4480  1.7596
 5710SOL    HW228764   1.833   3.643   5.033 -0.0969 -0.5398  0.1623
 5711SOL     OW28765   3.562   0.695  14.590  0.2436 -0.1185  0.2555
 5711SOL    HW128766   3.612   0.708  14.509 -0.5141  0.4225 -0.1277
 5711SOL    HW228767   3.538   0.603  14.586  0.7373 -0.1902 -0.9714
 5712SOL     OW28768   0.353   0.295  12.593  0.1308 -0.5297  0.0576
 5712SOL    HW128769   0.419   0.363  12.576  0.2452 -0.7243 -0.2712
 5712SOL    HW228770   0.313   0.339  12.668  0.0719 -0.8068  0.1879
 5713SOL     OW28771   2.049   0.539  10.272  0.6998 -0.4075  0.0134
 5713SOL    HW128772   2.005   0.465  10.314 -2.0767  1.8000  1.0202
 5713SOL    HW228773   2.005   0.530  10.188 -1.0518 -2.6360  1.1483
 5714SOL     OW28774   3.714   0.016   6.093 -0.0950  0.3832 -0.0570
 5714SOL    HW128775   3.747   4.670   6.053  0.6250 -0.1276  1.5689
 5714SOL    HW228776   3.660   0.051   6.023  1.5849 -0.6367 -1.8792
 5715SOL     OW28777   2.287   3.692   8.178  0.1947 -0.2808  0.3959
 5715SOL    HW128778   2.198   3.725   8.166  0.8066  0.8637 -0.9316
 5715SOL    HW228779   2.302   3.680   8.084  1.0445 -1.7125  0.7164
 5716SOL     OW28780   2.277   0.742   3.346 -0.1041  0.0003  0.2689
 5716SOL    HW128781   2.240   0.827   3.369  0.3368 -0.0310  1.0932
 5716SOL    HW228782   2.219   0.699   3.408 -2.6487 -1.3512 -3.0759
 5717SOL     OW28783   3.494   3.218   6.627  0.7065 -0.5271 -0.6343
 5717SOL    HW128784   3.459   3.241   6.541 -1.1338 -0.8955  0.0199
 5717SOL    HW228785   3.442   3.272   6.687  0.9480 -0.4450 -0.4983
 5718SOL     OW28786   2.966   4.333   6.367 -0.5927  0.4083  0.3922
 5718SOL    HW128787   3.040   4.346   6.307 -1.5795  1.3399 -0.6130
 5718SOL    HW228788   3.006   4.325   6.453 -1.4502 -1.8123  0.5805
 5719SOL     OW28789   0.700   1.297   8.454  0.2559 -0.2133  0.3288
 5719SOL    HW128790   0.689   1.232   8.523  2.7228 -0.6832  0.2908
 5719SOL    HW228791   0.747   1.370   8.496 -0.9064  0.2906  0.7564
 5720SOL     OW28792   4.287   0.550  15.957  0.5035  0.9793 -0.2273
 5720SOL    HW128793   4.211   0.548  16.015  0.1502 -1.6539 -0.7951
 5720SOL    HW228794   4.248   0.559  15.870 -0.2026 -2.6337 -0.2694
 5721SOL     OW28795   3.550   1.927   2.905 -0.3988 -0.2693 -0.4251
 5721SOL    HW128796   3.516   1.937   2.816  0.8815  1.5812 -0.6972
 5721SOL    HW228797   3.519   1.839   2.926  1.7050 -1.0957 -0.7346
 5722SOL     OW28798   4.059   4.028   8.722  0.3027 -0.1535 -0.2718
 5722SOL    HW128799   4.122   3.998   8.657  0.2933  0.3047 -0.4927
 5722SOL    HW228800   4.106   4.009   8.803  1.7008 -1.5824 -1.4284
 5723SOL     OW28801   1.140   3.199   6.786  0.2161 -0.6208  0.3237
 5723SOL    HW128802   1.180   3.125   6.740 -0.2621 -0.6042 -0.1159
 5723SOL    HW228803   1.053   3.194   6.746  0.2097  0.3350  0.2122
 5724SOL     OW28804   0.316   2.977   7.728 -0.2864  1.0326  0.1073
 5724SOL    HW128805   0.388   2.923   7.696 -1.3841 -0.1401 -0.3750
 5724SOL    HW228806   0.320   3.049   7.665 -0.0030  0.5602 -0.4164
 5725SOL     OW28807   2.058   1.917   8.484  0.3791  0.1158  0.0603
 5725SOL    HW128808   2.132   1.910   8.544 -0.6589  0.7299  1.4248
 5725SOL    HW228809   1.990   1.977   8.514 -0.4354 -1.5052  1.4095
 5726SOL     OW28810   1.339   3.812   3.023 -0.5586  0.3379  0.0391
 5726SOL    HW128811   1.344   3.751   3.097 -0.1474  0.6456  0.2658
 5726SOL    HW228812   1.246   3.824   3.001 -0.7135  1.4850  1.2843
 5727SOL     OW28813   2.353   0.107   3.954  0.0299  0.8461 -0.6622
 5727SOL    HW128814   2.339   0.054   4.033 -2.5612 -0.2676 -1.8787
 5727SOL    HW228815   2.274   0.073   3.912 -0.3152  1.8460 -0.8437
 5728SOL     OW28816   3.291   1.466  13.772 -0.3449 -0.3466  0.1912
 5728SOL    HW128817   3.225   1.413  13.727 -1.9910  1.2097  0.7340
 5728SOL    HW228818   3.330   1.511  13.697  0.4035 -0.3386  0.5850
 5729SOL     OW28819   3.004   0.240  16.110 -0.3312 -0.2302  0.4596
 5729SOL    HW128820   2.942   0.199  16.170 -1.6109  1.2220  0.1492
 5729SOL    HW228821   3.032   0.167  16.055  0.3378 -0.1182  0.6466
 5730SOL     OW28822   1.614   3.938   8.181 -0.1110 -0.1628  0.1397
 5730SOL    HW128823   1.557   3.993   8.234 -0.5969  1.8069 -2.4255
 5730SOL    HW228824   1.550   3.881   8.138 -0.4365  0.7637 -0.6082
 5731SOL     OW28825   2.907   3.600  16.949 -0.0979 -0.5453  0.2116
 5731SOL    HW128826   2.815   3.597  16.922  0.3266 -4.0648 -0.7937
 5731SOL    HW228827   2.920   3.508  16.972  3.5891 -0.6417 -2.3356
 5732SOL     OW28828   3.209   4.454  17.115  0.2334 -0.1170  0.0790
 5732SOL    HW128829   3.226   4.388  17.048  1.0562  0.5533 -0.3726
 5732SOL    HW228830   3.114   4.458  17.104  0.0924  0.2667  1.5024
 5733SOL     OW28831   2.320   3.473  10.238  0.4072 -0.3041 -0.2233
 5733SOL    HW128832   2.238   3.509  10.271  1.0536  0.3074  0.7318
 5733SOL    HW228833   2.378   3.479  10.315  0.9746  1.0126 -0.7594
 5734SOL     OW28834   4.606   3.456  16.159  0.7416 -0.0389 -0.4926
 5734SOL    HW128835   4.570   3.498  16.081 -0.0637  3.0237  1.5598
 5734SOL    HW228836   4.640   3.532  16.206  0.4470 -0.0194 -0.3136
 5735SOL     OW28837   0.497   1.291   1.282 -0.1672  0.0123 -0.4746
 5735SOL    HW128838   0.587   1.312   1.256 -0.2369 -2.2405 -2.5217
 5735SOL    HW228839   0.452   1.365   1.242 -0.5175 -1.3871 -2.6312
 5736SOL     OW28840   0.905   0.382   9.336 -0.2357  0.2398  0.0346
 5736SOL    HW128841   0.862   0.299   9.315  4.0806 -1.5961 -1.6751
 5736SOL    HW228842   0.998   0.356   9.342  0.8616  3.8437 -1.5199
 5737SOL     OW28843   1.104   0.025  10.928 -0.5319 -0.0295 -0.0794
 5737SOL    HW128844   1.111   0.083  11.003  0.6085  0.3123 -0.4499
 5737SOL    HW228845   1.100   4.679  10.979 -0.9638 -0.5682 -0.9661
 5738SOL     OW28846   2.187   3.967   2.320  0.1187 -0.3994  0.7940
 5738SOL    HW128847   2.226   4.054   2.312 -1.5693  0.4316  1.5219
 5738SOL    HW228848   2.210   3.942   2.409  0.0153 -2.2447  0.2973
 5739SOL     OW28849   4.369   0.271   7.036 -0.0767  0.0722  0.0043
 5739SOL    HW128850   4.380   0.209   6.964  0.9902 -0.2535  0.4398
 5739SOL    HW228851   4.383   0.206   7.104  0.8021 -0.2660 -0.4941
 5740SOL     OW28852   0.057   4.062   7.960  0.0601  0.1940 -0.0281
 5740SOL    HW128853   4.699   4.055   7.939  0.0152  1.0802 -0.1189
 5740SOL    HW228854   0.084   3.983   7.914  1.2522  0.3107  0.4806
 5741SOL     OW28855   1.791   4.634   4.702 -0.4490 -0.3813 -0.2091
 5741SOL    HW128856   1.702   4.616   4.672 -0.5534 -0.3553  0.0815
 5741SOL    HW228857   1.786   4.726   4.730 -1.1929 -0.6946  0.7156
 5742SOL     OW28858   4.652   4.404   3.659  0.0310 -0.7951  0.4799
 5742SOL    HW128859   4.592   4.473   3.630 -1.6326 -1.3102  2.6576
 5742SOL    HW228860   4.698   4.369   3.583  0.2206  3.2797 -1.2914
 5743SOL     OW28861   4.110   1.904  12.765 -0.5588 -0.2975  0.3815
 5743SOL    HW128862   4.052   1.846  12.716 -2.0904  0.8540  0.8237
 5743SOL    HW228863   4.197   1.863  12.757  0.2814  1.3135  1.1857
 5744SOL     OW28864   4.619   1.253   7.279  0.5591 -0.4307  0.4611
 5744SOL    HW128865   4.661   1.236   7.195 -1.8091  2.0044 -1.2225
 5744SOL    HW228866   4.533   1.213   7.266 -0.1909  0.9573  1.0851
 5745SOL     OW28867   1.200   3.907   4.482  0.3402  0.3754 -0.0230
 5745SOL    HW128868   1.260   3.884   4.553  0.9186  0.6662 -0.4244
 5745SOL    HW228869   1.253   3.884   4.406 -1.1122  1.6537 -1.4277
 5746SOL     OW28870   3.642   2.195  12.833 -0.1739 -0.5795  0.5093
 5746SOL    HW128871   3.610   2.145  12.907 -0.7019 -1.8493 -0.5782
 5746SOL    HW228872   3.734   2.168  12.830  0.4456  1.6860 -1.3421
 5747SOL     OW28873   4.717   0.617   9.258 -0.1574 -0.2074 -0.1024
 5747SOL    HW128874   4.669   0.596   9.178  0.4364  1.7911 -0.9833
 5747SOL    HW228875   4.691   0.543   9.314 -1.0722  1.6266  1.8768
 5748SOL     OW28876   2.561   0.246   3.877  0.1160 -0.0109 -0.1763
 5748SOL    HW128877   2.517   0.298   3.809 -0.5784 -1.4954 -0.8488
 5748SOL    HW228878   2.488   0.199   3.917  1.8979 -0.8810  2.0403
 5749SOL     OW28879   1.415   4.540   7.043 -0.6572  0.1680 -1.0177
 5749SOL    HW128880   1.368   4.622   7.026 -1.2842  0.1987  0.8825
 5749SOL    HW228881   1.342   4.479   7.037 -0.7422  0.1558  0.1568
 5750SOL     OW28882   2.585   1.559   3.611  0.1753 -0.0401  0.4082
 5750SOL    HW128883   2.558   1.473   3.644 -0.5380  0.1862  0.4259
 5750SOL    HW228884   2.630   1.532   3.531 -0.5384  1.7831 -0.6060
 5751SOL     OW28885   0.789   4.468   7.280 -0.8567  0.5165 -0.0897
 5751SOL    HW128886   0.712   4.522   7.262  0.4323  1.8497 -1.6102
 5751SOL    HW228887   0.850   4.541   7.288 -0.0472  0.0510 -2.0552
 5752SOL     OW28888   0.386   0.067   4.704 -0.2753  1.0775  0.0933
 5752SOL    HW128889   0.308   0.119   4.724 -0.1292  0.8219  1.3664
 5752SOL    HW228890   0.366   4.735   4.769  0.3250 -0.0186 -0.8698
 5753SOL     OW28891   4.121   2.972   3.474 -0.1467  0.2738  0.1130
 5753SOL    HW128892   4.112   2.904   3.408 -0.6713 -0.4803  0.9506
 5753SOL    HW228893   4.206   2.946   3.511 -0.1680 -2.6827 -1.9066
 5754SOL     OW28894   4.654   2.222  15.183 -0.3979 -0.1596 -0.9927
 5754SOL    HW128895   4.571   2.232  15.136 -0.5253  0.6389 -0.5971
 5754SOL    HW228896   4.675   2.313  15.206 -2.5973  0.7642 -2.6143
 5755SOL     OW28897   2.311   4.126  16.109 -0.0405  0.2097 -0.0198
 5755SOL    HW128898   2.235   4.134  16.167  1.4860  1.4020  1.8096
 5755SOL    HW228899   2.318   4.202  16.052 -1.6452  0.0461 -0.4343
 5756SOL     OW28900   0.988   1.813   8.766 -0.2762 -0.4895 -0.7567
 5756SOL    HW128901   1.053   1.837   8.831 -1.3675 -1.9110  0.8832
 5756SOL    HW228902   0.989   1.885   8.703 -1.4103 -0.9331 -1.2929
 5757SOL     OW28903   3.565   3.839   8.891 -0.2061 -0.3668  0.1357
 5757SOL    HW128904   3.652   3.803   8.909  0.6859  1.2696 -0.9560
 5757SOL    HW228905   3.533   3.843   8.981  0.8010 -2.0385  0.5775
 5758SOL     OW28906   3.187   1.902   3.017 -0.1439 -0.2653 -0.1767
 5758SOL    HW128907   3.214   1.886   2.927  2.1476 -1.5907  0.7578
 5758SOL    HW228908   3.263   1.866   3.063  0.9973  0.3382 -1.6062
 5759SOL     OW28909   3.306   3.117   7.503 -0.5380 -0.4171 -0.8486
 5759SOL    HW128910   3.327   3.046   7.442  1.9327  0.6822 -1.2936
 5759SOL    HW228911   3.262   3.075   7.576 -1.1760  0.6106 -0.6470
 5760SOL     OW28912   3.320   3.740  10.642  0.0165 -0.4036 -0.7431
 5760SOL    HW128913   3.346   3.809  10.703  0.7036 -0.5035 -0.9240
 5760SOL    HW228914   3.333   3.665  10.699 -1.0867  0.8695  1.1941
 5761SOL     OW28915   3.314   4.108   7.085 -0.1910 -0.0233  0.2424
 5761SOL    HW128916   3.285   4.110   6.994 -1.3550 -0.6844  0.5985
 5761SOL    HW228917   3.240   4.069   7.133  0.1582 -2.5151 -1.2434
 5762SOL     OW28918   4.267   0.856   1.909  0.8548 -0.3973 -0.2399
 5762SOL    HW128919   4.296   0.793   1.975  3.4424  0.0668 -0.9295
 5762SOL    HW228920   4.174   0.836   1.914  0.9681 -1.6408 -3.1414
 5763SOL     OW28921   0.512   4.217   4.323  0.1531  0.0509  0.7039
 5763SOL    HW128922   0.575   4.260   4.380 -0.8124 -0.2749  2.0303
 5763SOL    HW228923   0.433   4.236   4.374  0.0612  0.9642  0.2200
 5764SOL     OW28924   4.096   0.587  15.724  0.4397 -0.6864  0.4288
 5764SOL    HW128925   4.017   0.637  15.740  0.8720 -0.2248  1.0858
 5764SOL    HW228926   4.078   0.565  15.632 -2.2201  1.4474  0.4689
 5765SOL     OW28927   1.970   2.986   9.182 -0.3154 -0.1959 -0.6810
 5765SOL    HW128928   1.951   2.901   9.222 -0.5059  0.6791  1.0739
 5765SOL    HW228929   2.062   2.987   9.210 -0.6505 -1.2597  0.4664
 5766SOL     OW28930   2.834   3.919   6.996  0.7945 -0.2377 -0.5686
 5766SOL    HW128931   2.805   3.832   7.023 -1.3240  0.1596 -1.5013
 5766SOL    HW228932   2.816   3.925   6.902 -1.0899  0.5989 -0.1656
 5767SOL     OW28933   3.636   0.941   7.289  0.0733 -0.4560  0.0244
 5767SOL    HW128934   3.608   1.016   7.342 -0.7176 -0.5810 -0.2204
 5767SOL    HW228935   3.576   0.944   7.215  0.8381 -0.9493 -0.6165
 5768SOL     OW28936   0.042   3.964   7.277 -0.1475  0.0640 -0.2493
 5768SOL    HW128937   0.090   3.979   7.196  0.1497  0.7599  0.0535
 5768SOL    HW228938   0.108   3.993   7.340 -0.2983  0.1054 -0.1094
 5769SOL     OW28939   0.220   1.617   2.540  0.2296 -0.2269  0.3247
 5769SOL    HW128940   0.231   1.600   2.634 -0.5312 -2.2447  0.0552
 5769SOL    HW228941   0.208   1.527   2.509  1.7165 -0.2857 -0.0625
 5770SOL     OW28942   3.884   2.311   5.788  0.5149 -0.3211 -0.3844
 5770SOL    HW128943   3.912   2.400   5.765  0.7810 -0.7629 -1.7719
 5770SOL    HW228944   3.924   2.299   5.874  1.3921 -1.4069 -0.9456
 5771SOL     OW28945   2.416   4.501   9.118 -0.3562  0.2377  0.6116
 5771SOL    HW128946   2.457   4.451   9.189  1.0713  1.7026  0.8113
 5771SOL    HW228947   2.491   4.500   9.059 -0.7971 -0.7328  0.0620
 5772SOL     OW28948   2.010   0.759   0.929  0.3180  0.5584 -0.0114
 5772SOL    HW128949   2.070   0.831   0.947  2.4551 -1.1375 -0.2252
 5772SOL    HW228950   2.025   0.695   0.999 -1.9941 -0.1310 -0.1713
 5773SOL     OW28951   4.103   0.571  14.584  0.2515  0.4750 -0.2473
 5773SOL    HW128952   4.151   0.495  14.615 -0.6913  0.5185  1.3485
 5773SOL    HW228953   4.117   0.628  14.660  0.5101 -0.0981  0.1376
 5774SOL     OW28954   1.177   4.480   8.203 -0.3304 -0.1127  0.2181
 5774SOL    HW128955   1.123   4.409   8.239 -0.5236  0.6566  1.4607
 5774SOL    HW228956   1.140   4.482   8.115 -1.2843 -0.9848  0.5952
 5775SOL     OW28957   2.405   3.297   8.342 -0.0706 -0.2268  0.0757
 5775SOL    HW128958   2.339   3.242   8.384  0.0957 -0.7135 -0.3035
 5775SOL    HW228959   2.379   3.298   8.250  0.4679 -1.8089 -0.0991
 5776SOL     OW28960   3.007   2.147   5.335  0.3741  0.0210  0.6561
 5776SOL    HW128961   3.081   2.207   5.346 -0.2767  1.1265 -0.9805
 5776SOL    HW228962   3.026   2.095   5.257  1.9644 -1.0788  1.7766
 5777SOL     OW28963   1.971   0.481   5.101 -0.5674  0.5539  0.3373
 5777SOL    HW128964   1.889   0.452   5.061  0.3710 -0.9533 -0.5240
 5777SOL    HW228965   2.017   0.498   5.019 -3.1586 -1.4792 -1.5121
 5778SOL     OW28966   0.695   4.295   5.346  0.1145 -0.4311  0.0850
 5778SOL    HW128967   0.674   4.337   5.263 -0.4624 -1.9593 -0.5425
 5778SOL    HW228968   0.708   4.206   5.315  2.4586  0.3376 -1.1315
 5779SOL     OW28969   2.906   1.724   6.527 -0.2198 -0.3434  0.0500
 5779SOL    HW128970   2.859   1.657   6.577  0.0617 -1.9813 -1.9100
 5779SOL    HW228971   2.852   1.803   6.532  1.0641  0.4505  1.5942
 5780SOL     OW28972   0.685   3.691  17.570  0.5163  0.3593  0.2600
 5780SOL    HW128973   0.712   3.628  17.637 -1.5066 -0.3698  0.3785
 5780SOL    HW228974   0.709   3.644  17.491 -1.6548 -0.6837  0.2415
 5781SOL     OW28975   2.440   4.117   7.231 -0.1216 -0.4493 -0.4758
 5781SOL    HW128976   2.453   4.086   7.320 -2.1424  0.0110 -0.0151
 5781SOL    HW228977   2.502   4.189   7.219 -1.6507  0.5705 -2.3600
 5782SOL     OW28978   3.977   1.085  11.593  0.0663 -0.1004  0.9176
 5782SOL    HW128979   3.972   1.083  11.689 -0.2318  1.0782  0.9334
 5782SOL    HW228980   3.924   1.009  11.571  0.4450 -0.4845  1.3222
 5783SOL     OW28981   4.610   0.041   9.750  0.1764  0.0799 -0.6241
 5783SOL    HW128982   4.599   0.093   9.829 -3.4146  0.3753 -1.3421
 5783SOL    HW228983   4.607   4.692   9.795 -1.6487  0.4419 -0.0717
 5784SOL     OW28984   0.312   2.092   6.791  0.2681 -0.2700 -0.5553
 5784SOL    HW128985   0.389   2.114   6.843  0.7142  0.0287 -1.3385
 5784SOL    HW228986   0.340   2.120   6.703 -1.9837  0.7954 -0.9354
 5785SOL     OW28987   4.338   4.653   2.954 -0.5271  0.2592 -0.1664
 5785SOL    HW128988   4.316   0.011   2.961  0.3583  0.4942 -0.5417
 5785SOL    HW228989   4.258   4.609   2.984 -0.0674 -0.3149  0.2146
 5786SOL     OW28990   3.481   2.543  14.973 -0.1179  0.6545  0.1584
 5786SOL    HW128991   3.404   2.530  14.919  0.2479 -0.0570 -0.1960
 5786SOL    HW228992   3.470   2.497  15.057  0.3698 -0.5797 -0.4527
 5787SOL     OW28993   1.853   3.128   7.141 -0.0123  0.9785  0.3310
 5787SOL    HW128994   1.788   3.160   7.203 -1.9404 -1.9060 -0.2093
 5787SOL    HW228995   1.907   3.206   7.129  2.4939 -0.8166 -0.0908
 5788SOL     OW28996   0.605   3.103   8.649  0.0879 -0.2067  0.1892
 5788SOL    HW128997   0.699   3.100   8.632 -0.3085  0.1490 -2.0731
 5788SOL    HW228998   0.564   3.062   8.573  0.7378 -0.3629 -0.0783
 5789SOL     OW28999   3.216   4.079   6.834  0.0648  0.4512 -0.5111
 5789SOL    HW129000   3.132   4.038   6.811  0.2982 -1.6373  2.3236
 5789SOL    HW229001   3.213   4.165   6.791  2.5341  1.1601  0.7821
 5790SOL     OW29002   3.802   1.382  16.142 -0.2968 -0.3490  0.1227
 5790SOL    HW129003   3.837   1.463  16.179  0.7237 -0.4742 -0.5925
 5790SOL    HW229004   3.870   1.317  16.159  2.2842  2.5324  0.8928
 5791SOL     OW29005   2.396   1.855  10.264  0.3182 -0.5174 -0.4949
 5791SOL    HW129006   2.474   1.900  10.297  0.2022 -0.5212 -0.2183
 5791SOL    HW229007   2.409   1.873  10.171  1.3151 -1.4172 -0.5326
 5792SOL     OW29008   0.553   4.705  16.478 -0.3149  0.5964 -0.8153
 5792SOL    HW129009   0.642   0.005  16.489 -0.7200  2.2789 -2.8733
 5792SOL    HW229010   0.559   4.631  16.417 -0.4029  1.9456 -2.4608
 5793SOL     OW29011   4.308   3.504   7.060 -0.1187  1.1338  0.0280
 5793SOL    HW129012   4.239   3.489   7.124  0.0448  0.5192  0.0655
 5793SOL    HW229013   4.287   3.451   6.983  2.1992  1.7693 -1.0545
 5794SOL     OW29014   2.726   1.081  16.574 -0.3767  0.0625 -0.0687
 5794SOL    HW129015   2.701   1.066  16.665 -0.0502  1.4651  0.2445
 5794SOL    HW229016   2.774   1.002  16.549 -1.9381 -0.6340 -0.8761
 5795SOL     OW29017   4.524   0.640   8.220 -0.1047 -0.2394 -0.8608
 5795SOL    HW129018   4.586   0.663   8.289 -0.8336 -0.2606 -0.2028
 5795SOL    HW229019   4.520   0.546   8.239 -0.5229  0.2628  1.4265
 5796SOL     OW29020   2.751   4.034   9.757  0.5732 -0.1852  0.1331
 5796SOL    HW129021   2.733   4.103   9.693  0.2857 -0.3725  0.0123
 5796SOL    HW229022   2.704   4.064   9.835  2.9963  1.6074  0.8755
 5797SOL     OW29023   4.061   3.019   2.195 -0.3016 -0.3534 -0.0588
 5797SOL    HW129024   4.091   3.068   2.118  1.0053 -0.0121  0.6753
 5797SOL    HW229025   3.974   3.054   2.216  0.6179  0.6367  2.0726
 5798SOL     OW29026   2.458   1.575   8.805  0.2903 -0.0148  0.1493
 5798SOL    HW129027   2.468   1.628   8.726  0.3409  1.0460  0.8707
 5798SOL    HW229028   2.406   1.505   8.765 -0.9317  0.2185  1.2944
 5799SOL     OW29029   4.597   4.419   2.171  0.0727 -0.1036  0.2150
 5799SOL    HW129030   4.556   4.476   2.106  0.9997 -0.5606 -0.7751
 5799SOL    HW229031   4.639   4.484   2.227 -1.8577  2.2316 -1.0531
 5800SOL     OW29032   2.347   3.139  15.251  0.3521  0.7033 -0.2777
 5800SOL    HW129033   2.383   3.051  15.240  0.4444  0.6892  0.1421
 5800SOL    HW229034   2.333   3.139  15.345 -1.6398  2.4288 -0.5731
 5801SOL     OW29035   0.187   4.499   3.682  0.0051 -0.0960 -0.2731
 5801SOL    HW129036   0.132   4.485   3.605 -1.3589 -1.7434  0.9890
 5801SOL    HW229037   0.257   4.438   3.660  1.0116  1.1372 -0.5006
 5802SOL     OW29038   0.178   1.353  11.591 -0.8182 -0.2822  0.3251
 5802SOL    HW129039   0.086   1.364  11.614 -1.1676 -1.1379 -0.6563
 5802SOL    HW229040   0.173   1.272  11.541  0.9453 -0.2408  0.0643
 5803SOL     OW29041   1.635   3.263  10.292 -0.4918  0.6374 -0.0251
 5803SOL    HW129042   1.696   3.290  10.361 -0.6927  2.2255 -0.4669
 5803SOL    HW229043   1.697   3.207  10.245 -1.0695  0.0082 -0.0373
 5804SOL     OW29044   3.429   0.561  10.939 -0.6967 -0.0426  0.5360
 5804SOL    HW129045   3.418   0.477  10.982  0.6457 -0.3564  0.2678
 5804SOL    HW229046   3.361   0.617  10.976 -0.0913  0.7361  0.4726
 5805SOL     OW29047   3.688   1.408   8.729 -0.1927  0.5483  0.1479
 5805SOL    HW129048   3.608   1.356   8.723  1.1901 -1.4138 -1.3313
 5805SOL    HW229049   3.658   1.471   8.795 -2.9641 -2.0030  1.3210
 5806SOL     OW29050   0.531   1.760  15.183  0.3072  0.4559 -0.6140
 5806SOL    HW129051   0.497   1.687  15.130 -0.8018 -0.3839  1.2613
 5806SOL    HW229052   0.595   1.793  15.120  0.4907  1.8293  0.2884
 5807SOL     OW29053   1.652   2.978   3.357  0.0469  0.3523  0.0224
 5807SOL    HW129054   1.733   2.930   3.375 -0.2514 -0.3760 -0.5583
 5807SOL    HW229055   1.603   2.955   3.436  1.4541 -0.9050  0.5267
 5808SOL     OW29056   1.289   0.126   0.732  0.7266  0.6094 -0.1533
 5808SOL    HW129057   1.247   0.072   0.664  1.5489  0.0511 -0.2047
 5808SOL    HW229058   1.379   0.094   0.726  0.1594 -0.7606 -1.5217
 5809SOL     OW29059   0.307   1.196  11.792 -0.4153  0.7347  0.0203
 5809SOL    HW129060   0.269   1.258  11.729 -1.2718  1.1310  0.9427
 5809SOL    HW229061   0.398   1.184  11.764 -0.4083  1.7496 -0.3824
 5810SOL     OW29062   4.356   2.601   6.843  0.1239  0.7499  0.8548
 5810SOL    HW129063   4.412   2.647   6.781 -2.4491  1.6959 -0.7814
 5810SOL    HW229064   4.343   2.521   6.791  1.4508  0.8417  0.3997
 5811SOL     OW29065   1.244   3.777   8.435 -0.1457 -0.3868  0.5079
 5811SOL    HW129066   1.256   3.816   8.349  1.0576 -1.0013  0.4006
 5811SOL    HW229067   1.297   3.697   8.429 -0.0739 -0.2686 -0.4026
 5812SOL     OW29068   1.082   1.849  16.470  0.6425 -0.3205  0.1523
 5812SOL    HW129069   1.054   1.784  16.405 -1.7132  0.4662  0.3737
 5812SOL    HW229070   0.999   1.867  16.513  0.6068 -1.2822  0.4942
 5813SOL     OW29071   1.073   4.074   7.936  0.2406 -0.1621  0.2672
 5813SOL    HW129072   1.042   4.158   7.901 -1.9787 -0.6784  0.9786
 5813SOL    HW229073   1.067   4.022   7.856  2.3666  0.3922 -0.2655
 5814SOL     OW29074   0.891   3.466   6.318 -0.1071 -0.4482 -0.7720
 5814SOL    HW129075   0.946   3.388   6.314  0.6665  0.1209 -1.3098
 5814SOL    HW229076   0.810   3.423   6.292 -1.4859  1.4508  0.3940
 5815SOL     OW29077   0.036   2.920   9.304 -0.1018  0.0005  0.2874
 5815SOL    HW129078   0.094   2.937   9.378 -0.5705  1.2731  0.3692
 5815SOL    HW229079   0.073   2.843   9.260 -1.3230  0.4911 -1.6042
 5816SOL     OW29080   3.973   1.905  16.739 -0.1821  0.1809 -0.5433
 5816SOL    HW129081   3.969   1.983  16.794  2.4200  0.6266 -0.9587
 5816SOL    HW229082   4.015   1.850  16.805  1.2009  0.7213 -0.9649
 5817SOL     OW29083   2.627   2.356   7.549  0.1514  0.0171  0.1533
 5817SOL    HW129084   2.548   2.303   7.558  0.3873 -0.6010 -1.4373
 5817SOL    HW229085   2.691   2.308   7.602  0.5453  3.6054  2.9423
 5818SOL     OW29086   2.802   4.445   8.170  0.0374  0.2368 -0.2214
 5818SOL    HW129087   2.771   4.442   8.260  0.9904  0.3214  0.1007
 5818SOL    HW229088   2.769   4.357   8.148 -3.2624  0.6177  3.2585
 5819SOL     OW29089   4.457   4.236  13.182  0.4168 -0.2158 -0.3569
 5819SOL    HW129090   4.495   4.302  13.240  0.2678  1.0359 -1.6810
 5819SOL    HW229091   4.377   4.284  13.162  1.2647  1.0100 -0.8580
 5820SOL     OW29092   3.144   4.038   5.601 -0.5624 -0.6807  0.0709
 5820SOL    HW129093   3.166   3.982   5.676 -1.4531 -0.1925  0.6975
 5820SOL    HW229094   3.163   3.975   5.532 -1.4375  0.2649 -1.0194
 5821SOL     OW29095   1.080   1.082   5.641 -0.2723 -0.3911 -0.3468
 5821SOL    HW129096   1.125   1.096   5.725 -2.6325  1.6135  0.5828
 5821SOL    HW229097   1.012   1.020   5.669 -0.4131 -0.1324 -0.1211
 5822SOL     OW29098   0.938   4.098   5.695  0.0218 -0.4183 -0.3763
 5822SOL    HW129099   0.850   4.093   5.732  0.3099  0.1059  0.3765
 5822SOL    HW229100   0.929   4.064   5.606 -0.0470 -0.4772 -0.3467
 5823SOL     OW29101   3.260   0.939   1.110  0.0558 -0.0667  0.0853
 5823SOL    HW129102   3.298   1.020   1.077 -1.1952  0.3984 -0.2111
 5823SOL    HW229103   3.269   0.879   1.035 -2.3158 -0.7026  0.3071
 5824SOL     OW29104   2.657   1.622  17.339  0.2055 -0.6564 -0.5332
 5824SOL    HW129105   2.720   1.574  17.286 -0.8153 -1.7407 -0.7542
 5824SOL    HW229106   2.630   1.689  17.276 -0.6799 -1.2953 -0.8245
 5825SOL     OW29107   0.956   2.833   0.760 -0.2869  0.0649 -0.2461
 5825SOL    HW129108   0.953   2.808   0.667  2.9210 -1.0275 -0.0368
 5825SOL    HW229109   0.967   2.748   0.801  0.9797  0.0955 -0.5139
 5826SOL     OW29110   1.448   3.299   0.957 -0.2978  0.6792  0.7390
 5826SOL    HW129111   1.375   3.347   0.995 -1.3502  0.4644 -1.0410
 5826SOL    HW229112   1.513   3.319   1.025 -0.3547  1.0350  0.6909
 5827SOL     OW29113   0.332   4.127   8.021 -0.1155 -0.0073 -0.0578
 5827SOL    HW129114   0.250   4.145   7.974 -0.2491  0.5028  0.3641
 5827SOL    HW229115   0.383   4.083   7.954  0.9841  0.2901  0.5946
 5828SOL     OW29116   4.549   3.441   8.241  0.1531  0.3848  0.1207
 5828SOL    HW129117   4.535   3.359   8.290  1.8912  0.6293  1.0267
 5828SOL    HW229118   4.553   3.410   8.150  2.2310 -0.9524  0.6457
 5829SOL     OW29119   3.339   1.435   2.335  0.9418  0.6530  0.1041
 5829SOL    HW129120   3.265   1.493   2.319  1.8613  2.1120  1.1801
 5829SOL    HW229121   3.385   1.435   2.251 -1.2604  2.2286 -1.0919
 5830SOL     OW29122   1.363   4.654   1.546 -0.3815  0.3757  0.3216
 5830SOL    HW129123   1.439   4.708   1.523 -0.1032  0.7076  2.0195
 5830SOL    HW229124   1.361   4.668   1.641  1.4057  1.2207  0.2318
 5831SOL     OW29125   3.592   4.520   3.853 -0.2160  1.0692  0.7735
 5831SOL    HW129126   3.516   4.469   3.879 -1.2582  1.5258 -1.3472
 5831SOL    HW229127   3.630   4.480   3.774  0.1955  0.2725  1.3754
 5832SOL     OW29128   3.811   3.292   7.151 -0.1944  0.2789 -0.3806
 5832SOL    HW129129   3.770   3.336   7.225  2.4491 -1.9448  2.4182
 5832SOL    HW229130   3.760   3.331   7.081 -0.1462  2.2206  0.6895
 5833SOL     OW29131   0.158   1.592   0.759 -0.2564 -0.2831 -0.2448
 5833SOL    HW129132   0.079   1.559   0.718 -1.3959  2.3793 -0.2385
 5833SOL    HW229133   0.217   1.603   0.685  0.3752  1.2862  0.4856
 5834SOL     OW29134   1.511   3.558  15.734  0.8851  0.6298 -0.0806
 5834SOL    HW129135   1.539   3.649  15.743 -1.8234  1.6580 -1.9597
 5834SOL    HW229136   1.579   3.514  15.785 -1.7324 -2.7501  0.4674
 5835SOL     OW29137   3.012   0.435   7.067  0.2388 -0.0932 -0.2454
 5835SOL    HW129138   3.028   0.470   6.979  0.0950 -0.6903 -0.5158
 5835SOL    HW229139   2.942   0.370   7.057  1.0652 -0.8678 -1.0952
 5836SOL     OW29140   0.781   3.191   4.137  0.4259 -0.3737 -0.3080
 5836SOL    HW129141   0.786   3.278   4.099  1.1565 -0.4173 -0.3082
 5836SOL    HW229142   0.859   3.185   4.193  1.0478 -1.8072 -1.3155
 5837SOL     OW29143   3.757   1.667   3.290  0.1856 -0.1443 -0.0088
 5837SOL    HW129144   3.742   1.679   3.197 -0.8507  0.7093  0.2769
 5837SOL    HW229145   3.736   1.575   3.303  2.0074 -0.8072 -1.8811
 5838SOL     OW29146   3.510   1.413   8.145  0.0948  0.1103  0.3889
 5838SOL    HW129147   3.571   1.486   8.155 -2.4027  2.1876  0.5008
 5838SOL    HW229148   3.474   1.420   8.233  0.2715  1.3576  0.3643
 5839SOL     OW29149   3.783   1.692   9.293  0.2631 -0.3188 -0.0292
 5839SOL    HW129150   3.791   1.678   9.388 -0.6732  2.8490  0.5183
 5839SOL    HW229151   3.876   1.696   9.271  0.3150  0.8246  0.3787
 5840SOL     OW29152   1.070   1.559   6.845  0.4668  0.8139  0.7613
 5840SOL    HW129153   1.091   1.577   6.753  0.3200  1.1400  0.7918
 5840SOL    HW229154   0.975   1.551   6.844  0.4572  1.0339  0.0902
 5841SOL     OW29155   3.020   2.851   9.098  0.0890  0.1626  0.2556
 5841SOL    HW129156   2.932   2.871   9.129 -0.4536 -1.9973  0.1109
 5841SOL    HW229157   3.059   2.938   9.086  0.5901 -0.4453 -2.6490
 5842SOL     OW29158   1.568   0.982   2.540 -0.2934  0.4536  0.0932
 5842SOL    HW129159   1.566   0.987   2.636 -0.0177  1.8226  0.0220
 5842SOL    HW229160   1.601   1.069   2.517  0.9047  0.2789  1.1357
 5843SOL     OW29161   4.418   2.739   4.769  0.1969 -0.1617 -0.0848
 5843SOL    HW129162   4.416   2.657   4.819 -0.4881 -1.1321 -1.6910
 5843SOL    HW229163   4.342   2.713   4.718  0.6324 -0.5495 -0.5451
 5844SOL     OW29164   0.284   1.005   0.916 -0.4526  0.4259  0.2364
 5844SOL    HW129165   0.328   1.030   0.997 -0.4042 -0.1123  0.3757
 5844SOL    HW229166   0.263   0.913   0.930 -1.5075  0.8323  1.2607
 5845SOL     OW29167   1.294   3.410   6.901  0.0738  0.4260 -0.1143
 5845SOL    HW129168   1.221   3.444   6.953  0.6188 -1.4609  1.9250
 5845SOL    HW229169   1.240   3.346   6.853 -0.5742  0.6306  0.3286
 5846SOL     OW29170   0.701   1.869   6.415  0.3377  0.0754 -0.2230
 5846SOL    HW129171   0.627   1.863   6.476  2.1453  0.2999  1.9795
 5846SOL    HW229172   0.661   1.888   6.330  1.5716  1.2394 -0.5306
 5847SOL     OW29173   1.928   3.902   2.319 -0.1485 -0.6151 -0.1626
 5847SOL    HW129174   2.010   3.950   2.309 -1.2060  1.3578  0.5005
 5847SOL    HW229175   1.942   3.868   2.407  1.6674  0.6486  0.0381
 5848SOL     OW29176   1.948   3.028  17.328 -0.1121  0.2085 -0.2554
 5848SOL    HW129177   1.972   2.936  17.331  0.0421  0.2413 -0.4948
 5848SOL    HW229178   1.852   3.031  17.330 -0.0191  3.7203 -0.0777
 5849SOL     OW29179   0.300   3.391   7.990 -0.4686 -0.6826  0.3474
 5849SOL    HW129180   0.230   3.327   8.001  0.1081 -1.3582  0.0387
 5849SOL    HW229181   0.368   3.328   7.966  0.4124 -0.3499  1.8983
 5850SOL     OW29182   2.943   1.921   2.590 -0.3166  0.6285 -0.1707
 5850SOL    HW129183   2.964   1.911   2.497 -0.6836 -1.1494 -0.0627
 5850SOL    HW229184   2.856   1.882   2.599 -0.9076  1.3433 -2.7874
 5851SOL     OW29185   1.542   4.204   9.314  0.2013  0.3357 -0.2239
 5851SOL    HW129186   1.539   4.288   9.359 -2.0269  0.5322 -0.7291
 5851SOL    HW229187   1.499   4.158   9.386 -0.0094 -1.4130 -1.4543
 5852SOL     OW29188   3.129   0.870  16.051  0.0319 -0.3033 -0.4322
 5852SOL    HW129189   3.041   0.898  16.076  0.9379  0.2011  2.2005
 5852SOL    HW229190   3.150   0.941  15.990 -1.5071  2.2273  2.0122
 5853SOL     OW29191   4.688   3.302  13.337 -0.0802 -0.0135  0.1165
 5853SOL    HW129192   4.728   3.215  13.342  0.2154  0.0733 -0.6692
 5853SOL    HW229193   4.675   3.326  13.245  0.4946 -0.8844 -0.1982
 5854SOL     OW29194   1.041   2.614  12.178 -0.2476 -0.0112  0.4881
 5854SOL    HW129195   1.054   2.689  12.236 -1.5197 -0.4587  1.3564
 5854SOL    HW229196   1.018   2.661  12.098  1.1303 -1.1932 -0.6037
 5855SOL     OW29197   1.224   2.151  15.214 -0.8193 -0.6970  0.2413
 5855SOL    HW129198   1.230   2.086  15.144  1.1047  0.5323 -0.7327
 5855SOL    HW229199   1.313   2.184  15.208 -0.4776 -1.6017  0.3073
 5856SOL     OW29200   4.264   1.119   1.888  0.2837  0.2260  0.0654
 5856SOL    HW129201   4.283   1.025   1.883 -3.2721 -0.5284  0.8854
 5856SOL    HW229202   4.241   1.134   1.796  0.6584 -1.8204 -0.3757
 5857SOL     OW29203   0.296   3.739  14.833 -0.3970  0.5630 -0.0410
 5857SOL    HW129204   0.369   3.756  14.773  0.1003 -1.2564  0.0309
 5857SOL    HW229205   0.345   3.722  14.914 -1.1415 -1.9860 -0.1164
 5858SOL     OW29206   0.458   3.986   3.514 -0.0698 -0.1993  0.2840
 5858SOL    HW129207   0.523   4.007   3.581 -0.9430  2.1077  0.3729
 5858SOL    HW229208   0.444   4.070   3.472  2.7559  0.1737  0.0986
 5859SOL     OW29209   3.451   2.716   2.268 -0.0718 -0.4381 -0.5390
 5859SOL    HW129210   3.532   2.729   2.318 -0.9922  1.8108  0.4032
 5859SOL    HW229211   3.429   2.624   2.282 -4.2460  0.4364 -1.2432
 5860SOL     OW29212   0.103   3.361   6.781  0.3121  0.3242  0.4643
 5860SOL    HW129213   0.016   3.399   6.768  0.6998  0.8282 -0.6545
 5860SOL    HW229214   0.095   3.286   6.841  0.9306 -0.4493 -0.4182
 5861SOL     OW29215   1.104   1.715   6.536  0.2454 -0.4167 -0.7410
 5861SOL    HW129216   1.179   1.662   6.561 -0.1647  0.2492  1.9894
 5861SOL    HW229217   1.111   1.696   6.443  0.2548 -4.4567  0.0872
 5862SOL     OW29218   4.675   0.944   5.292 -0.0058  0.3838 -0.1052
 5862SOL    HW129219   4.583   0.966   5.280 -0.6725 -2.3225  0.0629
 5862SOL    HW229220   4.698   1.002   5.365  1.2492 -2.0570  1.4387
 5863SOL     OW29221   1.717   3.013   3.862  0.4602  0.0475  0.0587
 5863SOL    HW129222   1.665   2.959   3.921  0.8570  0.0778  0.4361
 5863SOL    HW229223   1.762   2.944   3.813 -2.3983 -0.5377 -1.7642
 5864SOL     OW29224   2.434   2.351   0.418  0.0749  0.0657 -0.4820
 5864SOL    HW129225   2.529   2.348   0.433 -0.0917  0.2358  0.6447
 5864SOL    HW229226   2.406   2.441   0.434 -2.6917 -0.6555 -1.3815
 5865SOL     OW29227   1.079   4.553   3.252 -0.0017 -0.4040 -0.3950
 5865SOL    HW129228   1.143   4.610   3.209 -1.1628  0.6883 -0.6840
 5865SOL    HW229229   1.077   4.478   3.193 -0.5750 -0.3290 -0.4656
 5866SOL     OW29230   1.338   3.034  10.342  0.6507  0.5390  0.2589
 5866SOL    HW129231   1.403   3.095  10.379 -1.0549  0.8800  2.6540
 5866SOL    HW229232   1.380   2.984  10.272  1.6707 -0.7233  1.7613
 5867SOL     OW29233   0.365   3.576  12.943 -0.0027 -0.1584  0.8933
 5867SOL    HW129234   0.359   3.630  13.021  0.2399  1.7761 -0.4373
 5867SOL    HW229235   0.428   3.515  12.982  0.7702  0.5338  0.7305
 5868SOL     OW29236   1.252   1.577  11.947 -0.4267 -0.1433 -0.3167
 5868SOL    HW129237   1.188   1.634  11.904 -1.0866 -1.7496 -1.4235
 5868SOL    HW229238   1.194   1.539  12.013 -0.9446  0.5557 -0.3593
 5869SOL     OW29239   3.661   4.398   3.640  0.2078 -0.6428 -0.3784
 5869SOL    HW129240   3.712   4.320   3.615  0.5922 -0.9126  1.2508
 5869SOL    HW229241   3.628   4.412   3.551 -1.7377 -1.2894  0.2437
 5870SOL     OW29242   1.591   0.816  15.686  0.0260  0.1554  0.4031
 5870SOL    HW129243   1.609   0.807  15.593  2.0903  2.5484  0.5683
 5870SOL    HW229244   1.533   0.892  15.682 -0.9935 -0.4851  3.4340
 5871SOL     OW29245   1.825   4.698   2.263 -0.6149 -0.4400 -0.5264
 5871SOL    HW129246   1.880   4.638   2.213 -0.7599 -1.8697  1.0002
 5871SOL    HW229247   1.874   4.727   2.340 -0.8092 -0.4510 -0.3973
 5872SOL     OW29248   1.403   1.718   3.893  0.0918 -0.1995 -0.1409
 5872SOL    HW129249   1.455   1.638   3.903 -1.9042 -1.2871  1.6797
 5872SOL    HW229250   1.475   1.778   3.912  0.6212 -1.1257  0.7858
 5873SOL     OW29251   4.010   1.061   5.077 -0.0802  0.5476 -0.2024
 5873SOL    HW129252   3.921   1.096   5.070 -0.6170 -0.9420 -0.8162
 5873SOL    HW229253   4.039   1.061   4.986  0.3109 -1.9239 -0.0783
 5874SOL     OW29254   1.111   4.228   7.568 -0.0880  0.1888  0.2877
 5874SOL    HW129255   1.068   4.252   7.486  2.0239 -0.7382 -1.0875
 5874SOL    HW229256   1.039   4.224   7.632 -0.5231  1.2944 -0.1339
 5875SOL     OW29257   1.225   0.760   7.881  0.1408 -0.0353 -0.2120
 5875SOL    HW129258   1.256   0.673   7.856  1.7372  0.0899  1.3200
 5875SOL    HW229259   1.217   0.749   7.976  0.5825  1.7050  0.0140
 5876SOL     OW29260   1.140   2.063   4.853 -0.2333 -0.1883 -0.5687
 5876SOL    HW129261   1.122   2.019   4.936  0.4785  2.6135  1.0455
 5876SOL    HW229262   1.187   1.993   4.807  0.7314 -0.6706  1.1306
 5877SOL     OW29263   3.967   3.406   3.745  0.2367 -0.2686  0.8414
 5877SOL    HW129264   4.036   3.347   3.776  0.1704 -1.0306 -0.4879
 5877SOL    HW229265   3.949   3.389   3.653 -0.1727  0.9669  0.7023
 5878SOL     OW29266   1.153   3.708   8.017 -0.5096  0.1615  0.5302
 5878SOL    HW129267   1.113   3.623   8.003 -0.7672  0.6458 -1.6630
 5878SOL    HW229268   1.075   3.762   8.028  1.3646  3.1888 -0.9236
 5879SOL     OW29269   3.508   2.443   0.615 -0.5973  0.1478  0.2070
 5879SOL    HW129270   3.549   2.520   0.653 -2.5820  1.1821  0.2418
 5879SOL    HW229271   3.576   2.417   0.553  2.1697 -0.0377  3.3069
 5880SOL     OW29272   2.147   0.985   5.265 -0.1353  0.8383  0.1818
 5880SOL    HW129273   2.210   1.052   5.239  1.2324  0.3242  2.2287
 5880SOL    HW229274   2.077   1.044   5.294 -0.0382  0.5911  0.9119
 5881SOL     OW29275   3.518   2.733   7.362  0.3277  0.1700 -0.4493
 5881SOL    HW129276   3.586   2.769   7.305  1.6002 -0.4479  0.6622
 5881SOL    HW229277   3.572   2.662   7.398 -1.2590 -0.4065  0.7493
 5882SOL     OW29278   2.923   0.577  16.425  0.0584 -0.0327 -0.6096
 5882SOL    HW129279   2.979   0.513  16.468  0.4938 -0.5211 -1.9345
 5882SOL    HW229280   2.860   0.519  16.383  1.4966 -1.5479 -0.6812
 5883SOL     OW29281   3.260   4.314   5.771 -0.3249  0.0100 -0.3380
 5883SOL    HW129282   3.213   4.246   5.723 -0.3313 -0.4130  0.2678
 5883SOL    HW229283   3.325   4.261   5.817 -1.7931 -1.1349  0.4009
 5884SOL     OW29284   2.457   2.762  12.586  0.0717 -0.5328  0.2498
 5884SOL    HW129285   2.375   2.715  12.575  0.2675 -0.8112 -0.0126
 5884SOL    HW229286   2.520   2.697  12.554 -0.2005 -0.9161  0.4980
 5885SOL     OW29287   2.344   1.946  16.706  0.4462 -0.3650 -0.2703
 5885SOL    HW129288   2.400   2.002  16.653  1.5073  0.1529  1.3944
 5885SOL    HW229289   2.311   1.889  16.637  1.9011  0.6420 -1.7778
 5886SOL     OW29290   3.792   2.027   2.948  0.1934 -0.3776  0.0051
 5886SOL    HW129291   3.704   1.992   2.930  0.4561  0.0604 -2.1039
 5886SOL    HW229292   3.802   2.097   2.885  0.9582 -0.1251  0.4113
 5887SOL     OW29293   1.146   3.751   8.960  0.6464 -0.1730 -0.2133
 5887SOL    HW129294   1.052   3.747   8.977  0.3465  0.1280 -1.7522
 5887SOL    HW229295   1.165   3.743   8.866  2.6122 -3.3473  0.4210
 5888SOL     OW29296   2.903   0.469   8.985 -0.3465 -0.1457 -0.4381
 5888SOL    HW129297   2.936   0.533   9.047 -1.3074 -0.3793  0.3233
 5888SOL    HW229298   2.961   0.393   8.995 -1.2606 -0.9391 -1.0796
 5889SOL     OW29299   0.556   4.643   3.744  0.5123 -0.6111 -0.3267
 5889SOL    HW129300   0.569   4.637   3.649 -0.5193  0.2638 -0.5244
 5889SOL    HW229301   0.605   4.563   3.763  0.4512 -0.6883 -0.4913
 5890SOL     OW29302   1.011   4.433  10.316  0.1974 -0.1074 -0.1785
 5890SOL    HW129303   1.039   4.525  10.322  0.3683 -0.1764  0.0857
 5890SOL    HW229304   0.917   4.440  10.297  1.0322 -0.0421 -4.2876
 5891SOL     OW29305   4.110   1.286   7.356  0.3193  0.2055 -0.1754
 5891SOL    HW129306   4.086   1.372   7.391  2.6870  1.2232 -1.0488
 5891SOL    HW229307   4.154   1.239   7.426  0.7481  0.3597 -0.3453
 5892SOL     OW29308   3.435   1.281   2.956  0.2807 -0.5511 -0.1896
 5892SOL    HW129309   3.433   1.254   2.865  1.0179 -2.1479  0.2620
 5892SOL    HW229310   3.346   1.316   2.966  0.4724 -0.1256  0.0224
 5893SOL     OW29311   4.013   3.851   4.255 -0.1544  0.5459 -0.6394
 5893SOL    HW129312   3.949   3.891   4.196  0.1483  1.2262 -0.5200
 5893SOL    HW229313   3.984   3.764   4.230  2.1229 -0.2787 -0.4008
 5894SOL     OW29314   2.614   1.026   2.538  0.2069 -0.3327  0.2985
 5894SOL    HW129315   2.669   1.104   2.538  0.6023 -0.6072  2.5257
 5894SOL    HW229316   2.605   0.994   2.628  0.2293 -0.3469  0.2957
 5895SOL     OW29317   4.478   3.069  17.086 -0.3870 -0.5628  0.1537
 5895SOL    HW129318   4.459   3.053  16.993 -1.3301  0.6391  0.1490
 5895SOL    HW229319   4.462   3.163  17.095 -0.0712 -0.5238  0.3080
 5896SOL     OW29320   0.686   1.936  14.396 -1.2151 -0.0580 -0.5227
 5896SOL    HW129321   0.622   1.914  14.464  1.2104  0.6972  1.9952
 5896SOL    HW229322   0.693   1.853  14.349  1.2243 -1.7323  2.8235
 5897SOL     OW29323   0.305   0.994   5.463  0.6068  0.6437 -0.0915
 5897SOL    HW129324   0.310   0.949   5.379  0.2720 -2.0019  1.3070
 5897SOL    HW229325   0.272   1.079   5.434 -1.0129  0.2115  0.4822
 5898SOL     OW29326   3.164   2.852   4.410  0.0514  0.5576 -0.7894
 5898SOL    HW129327   3.235   2.900   4.368  0.1628 -0.6632 -2.0124
 5898SOL    HW229328   3.206   2.801   4.479 -0.9647  0.5420 -0.1910
 5899SOL     OW29329   0.361   3.889   2.746 -0.4436 -0.1616  0.0507
 5899SOL    HW129330   0.360   3.980   2.776  0.1602 -0.7117  1.7789
 5899SOL    HW229331   0.454   3.877   2.725 -0.3462 -1.6224  1.2636
 5900SOL     OW29332   2.696   0.439  16.225  0.3503 -0.5575 -0.3160
 5900SOL    HW129333   2.656   0.486  16.152  0.7937  0.8111  0.3192
 5900SOL    HW229334   2.779   0.436  16.177  0.1372  1.4114 -0.8046
 5901SOL     OW29335   0.196   3.765   4.388 -0.4786  0.2521  0.0188
 5901SOL    HW129336   0.199   3.860   4.388  0.5588  0.2121 -1.3119
 5901SOL    HW229337   0.281   3.738   4.423  0.2420  3.2384  0.5337
 5902SOL     OW29338   0.848   1.378   2.673  0.1899 -0.2086 -0.0137
 5902SOL    HW129339   0.816   1.303   2.623  0.3960 -1.8510  2.3039
 5902SOL    HW229340   0.933   1.394   2.633 -0.7960 -0.8348 -2.3574
 5903SOL     OW29341   0.692   0.102  13.431 -0.8586 -0.8193  0.4472
 5903SOL    HW129342   0.658   0.124  13.518 -0.4899  1.6756 -0.0397
 5903SOL    HW229343   0.698   0.189  13.392 -2.7549 -0.5316  0.7811
 5904SOL     OW29344   2.731   3.546   3.396  0.6205 -0.2024 -0.1285
 5904SOL    HW129345   2.786   3.604   3.448  1.4168 -0.0295 -1.1680
 5904SOL    HW229346   2.792   3.473   3.390 -1.0381 -1.5317 -0.9452
 5905SOL     OW29347   3.001   1.310   3.428 -0.2729 -0.1108  0.6146
 5905SOL    HW129348   3.008   1.218   3.454  0.0304  0.4797  2.6251
 5905SOL    HW229349   3.094   1.331   3.438 -0.3069 -0.2951  1.3603
 5906SOL     OW29350   0.884   1.078   1.846 -0.8681 -0.6138  0.1091
 5906SOL    HW129351   0.898   1.172   1.860 -1.7555 -0.2856 -1.2168
 5906SOL    HW229352   0.800   1.078   1.801 -0.6400 -0.4515 -0.3205
 5907SOL     OW29353   2.644   2.322   2.846  0.0880 -0.2680 -0.0736
 5907SOL    HW129354   2.651   2.270   2.926  0.5112 -2.4358 -1.5081
 5907SOL    HW229355   2.673   2.263   2.777  0.8844 -0.8833  0.7938
 5908SOL     OW29356   2.408   2.860  15.334 -0.8243  0.4561 -0.1165
 5908SOL    HW129357   2.494   2.844  15.372 -0.9186  0.8248  0.2489
 5908SOL    HW229358   2.437   2.864  15.243 -0.6630 -0.5334 -0.1034
 5909SOL     OW29359   4.265   3.518   0.100  0.2801  1.0378  0.1825
 5909SOL    HW129360   4.337   3.464   0.135  1.9821  4.1475  1.4531
 5909SOL    HW229361   4.322   3.588   0.068  0.1623  1.3502  0.6507
 5910SOL     OW29362   0.246   0.259  12.357  0.0377 -0.2598 -0.8026
 5910SOL    HW129363   0.283   0.265  12.445  0.1139  0.7390 -0.9037
 5910SOL    HW229364   0.166   0.309  12.369 -1.2527 -2.5939  0.3037
 5911SOL     OW29365   3.347   1.903  16.273 -0.6711  0.0478 -0.5719
 5911SOL    HW129366   3.388   1.856  16.200  1.2101  0.5828  0.1441
 5911SOL    HW229367   3.416   1.887  16.337 -1.0872 -0.8404 -0.3563
 5912SOL     OW29368   3.850   2.938   2.475 -0.5550  0.0696 -0.8299
 5912SOL    HW129369   3.935   2.944   2.519 -1.7735 -1.1789  1.6832
 5912SOL    HW229370   3.807   2.900   2.551 -0.9550 -1.2001 -1.7042
 5913SOL     OW29371   0.286   3.637   2.093  0.4854  0.3357  0.3937
 5913SOL    HW129372   0.330   3.638   2.008 -2.6898 -0.6282 -1.2867
 5913SOL    HW229373   0.337   3.686   2.157  2.9200 -0.8567 -0.6518
 5914SOL     OW29374   3.308   0.742   2.522  0.0672 -0.1987  0.0297
 5914SOL    HW129375   3.353   0.669   2.478  0.6062  0.3490 -0.3172
 5914SOL    HW229376   3.236   0.694   2.562 -0.7308  0.8432 -0.1669
 5915SOL     OW29377   1.067   0.229  11.897 -0.1124  0.0472  0.2142
 5915SOL    HW129378   1.141   0.254  11.953 -1.8704 -0.0698  2.6229
 5915SOL    HW229379   1.060   0.141  11.933  2.3923 -0.1546  0.2470
 5916SOL     OW29380   1.047   4.011  15.509 -0.3548  0.3086 -0.5335
 5916SOL    HW129381   0.966   3.993  15.558  0.5442 -1.2233  0.4094
 5916SOL    HW229382   1.036   4.098  15.470 -0.6410 -0.4546 -2.1493
 5917SOL     OW29383   3.024   3.206   2.690  0.3540 -0.7210 -0.7643
 5917SOL    HW129384   2.937   3.166   2.688 -0.4424  0.8405  1.8567
 5917SOL    HW229385   3.015   3.266   2.616  0.9545  0.6495  0.2779
 5918SOL     OW29386   2.836   2.241   7.118  0.0784 -0.0331 -0.0007
 5918SOL    HW129387   2.778   2.304   7.161 -0.6739 -1.0845  0.5401
 5918SOL    HW229388   2.919   2.266   7.160  0.2857  0.5421 -0.7699
 5919SOL     OW29389   3.239   3.246   4.896 -0.2893  0.2024  0.4176
 5919SOL    HW129390   3.149   3.227   4.869  0.0988 -0.3582 -0.4690
 5919SOL    HW229391   3.258   3.329   4.853  0.1716 -0.2873 -0.3114
 5920SOL     OW29392   0.827   2.069   2.084  0.4152  0.1033 -0.0814
 5920SOL    HW129393   0.900   2.132   2.075 -0.2034  0.9779  1.1062
 5920SOL    HW229394   0.856   2.000   2.024  1.1425  0.3280  0.0062
 5921SOL     OW29395   3.686   1.031  15.563 -0.0756 -0.1968 -0.7367
 5921SOL    HW129396   3.601   1.058  15.528 -0.2763 -1.6843 -1.3853
 5921SOL    HW229397   3.743   1.052  15.489  1.5867  0.0975  0.6140
 5922SOL     OW29398   3.620   2.553  17.648  0.3893 -0.5287 -0.0422
 5922SOL    HW129399   3.643   2.572   0.000 -1.3939  1.3338  0.0028
 5922SOL    HW229400   3.567   2.633  17.640  0.8745 -0.2265 -0.2845
 5923SOL     OW29401   3.543   2.297   9.229  0.2420  0.1913 -0.3786
 5923SOL    HW129402   3.505   2.336   9.307 -2.0247  0.2121 -1.4955
 5923SOL    HW229403   3.469   2.246   9.196  0.3817 -0.9540  1.0723
 5924SOL     OW29404   2.108   2.460  11.182  0.0067  0.5833 -0.1383
 5924SOL    HW129405   2.164   2.424  11.113 -1.8930 -0.7104 -0.9777
 5924SOL    HW229406   2.155   2.423  11.256 -0.5436  0.9084  0.3739
 5925SOL     OW29407   4.336   2.082  14.560 -0.1615 -0.2139 -0.0214
 5925SOL    HW129408   4.339   2.038  14.645  0.5978 -0.5831 -0.2486
 5925SOL    HW229409   4.426   2.105  14.539  0.1017 -0.6029  0.6672
 5926SOL     OW29410   0.394   3.436   5.590  0.0342 -0.1034  0.3599
 5926SOL    HW129411   0.330   3.366   5.608  2.2644 -2.5098 -1.1044
 5926SOL    HW229412   0.452   3.435   5.665 -2.0976 -1.2204  1.9970
 5927SOL     OW29413   1.363   1.998   7.539 -0.1129  0.2850 -0.3257
 5927SOL    HW129414   1.330   2.086   7.558  2.0131  0.8517  0.7662
 5927SOL    HW229415   1.282   1.948   7.536  0.4772 -0.6915  0.4015
 5928SOL     OW29416   3.852   2.075   0.968  0.5149 -0.1993 -0.5517
 5928SOL    HW129417   3.846   1.994   0.916  0.1675  0.5252 -1.6350
 5928SOL    HW229418   3.760   2.083   0.993  0.4736  0.5757 -0.9646
 5929SOL     OW29419   1.300   3.772   3.932  0.2028 -0.0710  0.3135
 5929SOL    HW129420   1.374   3.727   3.892  0.2152  1.3176 -1.2481
 5929SOL    HW229421   1.272   3.701   3.989  0.8626  0.0300  0.7575
 5930SOL     OW29422   4.426   0.333   4.397  0.0307  0.7308  0.3200
 5930SOL    HW129423   4.434   0.324   4.492  0.5697  0.1554  0.2226
 5930SOL    HW229424   4.421   0.238   4.384  1.0711  0.7633 -0.2600
 5931SOL     OW29425   1.546   0.716   9.825  0.9568 -0.3663  0.4095
 5931SOL    HW129426   1.456   0.740   9.847  0.7816 -0.1920 -0.4972
 5931SOL    HW229427   1.581   0.777   9.890  1.1442  0.8244 -0.8192
 5932SOL     OW29428   0.141   3.505   4.002  0.0797 -0.0829 -0.1616
 5932SOL    HW129429   0.050   3.477   3.992  0.1875 -0.3002 -0.5455
 5932SOL    HW229430   0.196   3.437   3.963  0.5767  0.6679 -0.7573
 5933SOL     OW29431   4.517   1.543   7.256 -0.5202  0.7230 -0.3832
 5933SOL    HW129432   4.546   1.457   7.225  1.6062  1.0629  0.7149
 5933SOL    HW229433   4.434   1.555   7.208 -1.4260 -0.6676  0.8368
 5934SOL     OW29434   3.973   0.308   2.983  0.5930  0.6663 -0.4315
 5934SOL    HW129435   3.899   0.314   3.042  0.3551  0.5942 -0.7244
 5934SOL    HW229436   3.989   0.402   2.968 -0.3164  1.1512  1.6240
 5935SOL     OW29437   4.087   3.332   4.397  0.0339  0.0195 -0.2033
 5935SOL    HW129438   4.068   3.319   4.304  1.7682 -1.1223 -0.3958
 5935SOL    HW229439   3.995   3.331   4.422  1.0629 -1.5080  3.5381
 5936SOL     OW29440   3.405   1.788   5.834  0.1191  0.5926  0.5375
 5936SOL    HW129441   3.376   1.730   5.763 -2.0729  0.4419  1.5585
 5936SOL    HW229442   3.424   1.728   5.906  3.5684  0.4903 -0.4357
 5937SOL     OW29443   2.539   1.152   7.463 -0.0757 -0.2264 -0.1615
 5937SOL    HW129444   2.532   1.240   7.499 -0.6228 -0.6285  0.7246
 5937SOL    HW229445   2.486   1.106   7.529  0.5284 -3.3677 -1.8778
 5938SOL     OW29446   2.409   1.722   7.172 -0.2011  0.2944  0.3308
 5938SOL    HW129447   2.476   1.656   7.184 -0.3750  0.0910  0.1945
 5938SOL    HW229448   2.389   1.715   7.078  2.4147 -0.8115 -0.1289
 5939SOL     OW29449   4.505   2.931  10.852  0.0251  0.2006 -0.3473
 5939SOL    HW129450   4.513   3.001  10.917 -0.1067 -0.3720  0.2798
 5939SOL    HW229451   4.489   2.979  10.771 -1.5116  0.2813  0.0038
 5940SOL     OW29452   0.168   0.502   3.922  0.4344  0.7673  0.2418
 5940SOL    HW129453   0.250   0.479   3.966  0.9315  1.6734 -0.2240
 5940SOL    HW229454   0.178   0.451   3.841  2.1618  1.8033 -0.1843
 5941SOL     OW29455   0.838   3.991   4.690 -0.1725 -0.0994 -0.0741
 5941SOL    HW129456   0.806   3.903   4.668 -0.6870  0.0260  0.1567
 5941SOL    HW229457   0.760   4.046   4.683 -1.3928 -1.6636  1.1877
 5942SOL     OW29458   4.706   1.091   5.532  0.5380  0.1750 -0.3042
 5942SOL    HW129459   4.724   1.131   5.618  0.8287  0.6946 -0.6085
 5942SOL    HW229460   4.611   1.102   5.523  0.7050  1.5909 -0.3820
 5943SOL     OW29461   0.658   4.706   7.216  0.3998 -0.4330  0.2222
 5943SOL    HW129462   0.679   4.730   7.126 -0.7679 -2.0909 -0.5038
 5943SOL    HW229463   0.683   0.051   7.262  2.0737 -1.8849  1.8013
 5944SOL     OW29464   1.267   1.568   9.145 -0.1621 -0.6059  0.8102
 5944SOL    HW129465   1.325   1.495   9.126 -1.0382 -1.3885  1.1107
 5944SOL    HW229466   1.254   1.601   9.056 -0.0060 -0.9706  0.6526
 5945SOL     OW29467   0.790   4.702   7.710  0.1470  0.5949  0.2333
 5945SOL    HW129468   0.856   4.693   7.641  1.2755 -0.4232  1.4152
 5945SOL    HW229469   0.717   4.650   7.676  0.0005  0.4738  0.7253
 5946SOL     OW29470   1.894   3.102   5.579 -0.1741 -0.3758 -0.6130
 5946SOL    HW129471   1.868   3.010   5.590 -3.0278  0.2996 -1.6892
 5946SOL    HW229472   1.829   3.137   5.640  0.8380 -3.2244  2.0872
 5947SOL     OW29473   3.693   4.003  14.536  0.1049 -0.6527 -0.1767
 5947SOL    HW129474   3.738   4.025  14.455  2.0543 -1.2673  0.7288
 5947SOL    HW229475   3.775   3.966  14.570 -0.2350 -1.2157  0.0302
 5948SOL     OW29476   0.967   1.136   7.259 -0.1412 -0.6517  0.3586
 5948SOL    HW129477   0.885   1.087   7.249 -1.7881  1.7807  2.0510
 5948SOL    HW229478   1.034   1.069   7.243  3.2520  3.0593 -0.9615
 5949SOL     OW29479   0.299   4.550   3.294 -0.7571  0.3837  0.2514
 5949SOL    HW129480   0.258   4.508   3.369 -2.1011  1.0341 -0.1080
 5949SOL    HW229481   0.311   4.483   3.227  0.9262  1.9011 -0.9764
 5950SOL     OW29482   1.298   2.737   4.733 -0.4699  0.2585 -0.0199
 5950SOL    HW129483   1.368   2.756   4.795  0.9308  1.7524 -2.0690
 5950SOL    HW229484   1.340   2.784   4.661 -0.0908 -1.5815 -0.9979
 5951SOL     OW29485   1.638   1.493   4.231 -0.5485 -0.1626 -0.4015
 5951SOL    HW129486   1.684   1.410   4.217 -0.1975  0.0649 -0.5722
 5951SOL    HW229487   1.583   1.486   4.153  1.1366  1.5223 -1.7262
 5952SOL     OW29488   3.856   0.062   9.969  0.3499 -0.5538 -1.0075
 5952SOL    HW129489   3.924   0.015  10.019 -1.5615 -1.3550  0.8573
 5952SOL    HW229490   3.804   0.098  10.041 -0.4956  2.4066 -3.0969
 5953SOL     OW29491   0.178   2.339   0.671 -0.0926 -0.1206 -0.6393
 5953SOL    HW129492   0.124   2.283   0.727  1.6056 -1.6332 -0.4876
 5953SOL    HW229493   0.207   2.284   0.598  0.0878  0.1509 -0.7725
 5954SOL     OW29494   1.366   3.397   0.578 -0.3364 -0.1873  0.0601
 5954SOL    HW129495   1.331   3.357   0.498  3.4792 -1.7153 -0.8838
 5954SOL    HW229496   1.294   3.410   0.639 -1.9379 -0.9375 -1.6900
 5955SOL     OW29497   0.481   2.174   3.064  0.1395 -0.0206  0.2444
 5955SOL    HW129498   0.424   2.225   3.123 -0.6289 -1.1725  0.4924
 5955SOL    HW229499   0.539   2.236   3.020  0.3857 -0.7206 -0.3997
 5956SOL     OW29500   0.560   1.099   7.201 -0.0803  0.2092 -0.3354
 5956SOL    HW129501   0.620   1.048   7.256 -1.0211  2.0968  2.4285
 5956SOL    HW229502   0.482   1.071   7.250 -1.4625  1.5629 -1.7447
 5957SOL     OW29503   3.671   1.259   6.889  0.0468 -0.8825  0.0880
 5957SOL    HW129504   3.679   1.177   6.840  0.1162 -0.8299  0.0113
 5957SOL    HW229505   3.648   1.315   6.815  2.2896 -1.0945 -0.7909
 5958SOL     OW29506   2.290   0.289   9.546  0.0311 -0.2373  0.0736
 5958SOL    HW129507   2.282   0.380   9.516 -2.2196 -0.2357  0.6330
 5958SOL    HW229508   2.195   0.279   9.558 -0.2442  1.5153 -0.5467
 5959SOL     OW29509   0.593   3.603   9.958  0.1137 -0.0248 -0.2652
 5959SOL    HW129510   0.666   3.572  10.012 -1.2734 -1.0796  1.0325
 5959SOL    HW229511   0.523   3.585  10.022  0.4097 -0.9439 -0.1983
 5960SOL     OW29512   2.304   2.090   4.125 -0.0605  0.2131 -0.1208
 5960SOL    HW129513   2.341   2.149   4.191 -3.0026  0.0354  1.6950
 5960SOL    HW229514   2.319   2.005   4.165  1.8858 -0.9234 -3.3023
 5961SOL     OW29515   4.378   0.098  15.480 -0.2601 -0.1056  0.3776
 5961SOL    HW129516   4.357   0.187  15.453 -3.0601 -0.9066 -0.0888
 5961SOL    HW229517   4.471   0.105  15.502  0.0423  0.3580 -1.0947
 5962SOL     OW29518   3.358   2.511   7.196 -0.2053  0.1649 -0.4830
 5962SOL    HW129519   3.415   2.576   7.154  0.4011 -0.8775 -1.2538
 5962SOL    HW229520   3.349   2.455   7.119  0.8550 -1.0959  0.3045
 5963SOL     OW29521   1.395   0.516   3.850 -0.2840  0.0010 -0.4361
 5963SOL    HW129522   1.331   0.583   3.875  0.1805  1.4544 -3.1436
 5963SOL    HW229523   1.468   0.570   3.819 -0.0494  0.5610  1.0752
 5964SOL     OW29524   1.790   1.531   2.474 -0.2285 -0.2937  0.0749
 5964SOL    HW129525   1.823   1.522   2.385 -2.7438  0.4819 -0.9200
 5964SOL    HW229526   1.697   1.515   2.463 -0.0033 -1.9840  0.6488
 5965SOL     OW29527   1.940   4.117   4.871  0.2613 -0.2734 -0.2298
 5965SOL    HW129528   1.978   4.189   4.820  1.6368  1.4783  3.2328
 5965SOL    HW229529   2.015   4.057   4.868  1.4346  1.2309 -1.0744
 5966SOL     OW29530   4.596   2.149  14.615 -0.5366  0.5365  0.0650
 5966SOL    HW129531   4.593   2.163  14.709  0.5459  0.4646  0.1071
 5966SOL    HW229532   4.650   2.226  14.599 -0.6063  0.5286 -0.2189
 5967SOL     OW29533   0.696   1.529   7.623  0.6759 -0.1435 -0.9139
 5967SOL    HW129534   0.678   1.447   7.576  2.8350 -0.9731 -0.2613
 5967SOL    HW229535   0.606   1.562   7.631  1.6757  2.0771  1.0480
 5968SOL     OW29536   3.953   3.751  16.789  0.0570 -0.0160 -0.0789
 5968SOL    HW129537   3.986   3.819  16.848 -0.0982  0.1977 -0.2400
 5968SOL    HW229538   3.910   3.812  16.729 -2.2774 -2.2263 -0.6304
 5969SOL     OW29539   0.699   4.154   1.666  0.2169 -0.4439 -0.2901
 5969SOL    HW129540   0.667   4.227   1.615  2.3624  0.0333 -0.9808
 5969SOL    HW229541   0.622   4.110   1.701 -1.2603  1.9376 -0.6018
 5970SOL     OW29542   1.359   3.394   4.448 -0.2622  0.2824  0.3800
 5970SOL    HW129543   1.301   3.450   4.397  0.5020  0.2651 -0.5082
 5970SOL    HW229544   1.307   3.330   4.497 -2.0810  1.2719 -0.2633
 5971SOL     OW29545   4.685   0.802   5.574  0.5891 -0.2412  0.2489
 5971SOL    HW129546   4.619   0.838   5.633  0.6596 -0.4859  0.4750
 5971SOL    HW229547   4.715   0.878   5.525 -1.3413  0.7575  0.6223
 5972SOL     OW29548   3.406   4.415   6.429  0.8141  0.1028  0.1265
 5972SOL    HW129549   3.493   4.396   6.392  0.8302  2.6129 -1.1408
 5972SOL    HW229550   3.422   4.396   6.521  0.0725 -0.0634  0.2197
 5973SOL     OW29551   3.078   2.697  11.603  0.2943  0.3639 -0.5083
 5973SOL    HW129552   3.101   2.659  11.518  0.7147 -1.1530  0.2906
 5973SOL    HW229553   3.013   2.633  11.634  0.6583 -0.8411 -2.2357
 5974SOL     OW29554   3.558   2.752  12.171  0.0287 -0.1923  0.3658
 5974SOL    HW129555   3.529   2.811  12.102  0.2975  0.4195  0.7845
 5974SOL    HW229556   3.516   2.797  12.244  0.4795 -1.1812  1.2448
 5975SOL     OW29557   2.829   4.530  14.999 -0.2682  0.0339 -0.1425
 5975SOL    HW129558   2.777   4.608  15.016  0.0192  0.2195 -0.1055
 5975SOL    HW229559   2.770   4.464  15.034 -0.1841 -0.5433 -1.0961
 5976SOL     OW29560   2.816   1.105   1.584 -0.1622 -0.2134 -0.1595
 5976SOL    HW129561   2.861   1.100   1.500  1.0895 -0.5085  0.5347
 5976SOL    HW229562   2.809   1.200   1.595  0.8575 -0.0096 -1.2640
 5977SOL     OW29563   3.053   0.425   3.887 -0.2491  0.4366 -0.2322
 5977SOL    HW129564   2.965   0.398   3.913  0.8688 -3.3761 -0.4144
 5977SOL    HW229565   3.034   0.519   3.892 -0.3433  0.4562 -0.9221
 5978SOL     OW29566   2.402   2.467   8.535 -0.1614 -0.3418 -0.3877
 5978SOL    HW129567   2.375   2.492   8.623  2.5430 -0.8615  0.5830
 5978SOL    HW229568   2.330   2.502   8.482  0.3283 -0.2195 -0.9696
 5979SOL     OW29569   3.165   3.324   8.220 -0.0689 -0.2967  0.3299
 5979SOL    HW129570   3.099   3.308   8.152 -1.4193  1.5809  1.1730
 5979SOL    HW229571   3.117   3.377   8.283  1.1599 -0.3550  1.2971
 5980SOL     OW29572   1.120   4.609   4.450 -0.4542  0.6687 -0.2351
 5980SOL    HW129573   1.157   4.520   4.447 -2.4634 -0.1433 -0.8140
 5980SOL    HW229574   1.183   4.649   4.510 -0.0272  1.7701 -1.4027
 5981SOL     OW29575   4.656   0.551  13.163 -0.6449 -0.0480 -0.6631
 5981SOL    HW129576   4.723   0.503  13.212 -0.3222  0.8735 -0.2181
 5981SOL    HW229577   4.669   0.644  13.182 -1.5130 -0.0946  0.1599
 5982SOL     OW29578   3.734   0.644   1.984 -0.0787  0.1348  0.1345
 5982SOL    HW129579   3.658   0.691   1.951  2.0147  1.9835 -2.0901
 5982SOL    HW229580   3.764   0.609   1.899 -1.4447  0.9586 -0.6883
 5983SOL     OW29581   1.409   3.212   7.145  0.0596  0.5500  0.4224
 5983SOL    HW129582   1.335   3.166   7.104  1.8162 -0.3073 -1.7539
 5983SOL    HW229583   1.372   3.299   7.161  0.1253  0.6912 -0.1925
 5984SOL     OW29584   4.603   0.578  10.058 -0.2834  0.0767  0.7631
 5984SOL    HW129585   4.583   0.597   9.966  0.8694 -0.4552  0.3959
 5984SOL    HW229586   4.515   0.589  10.094 -0.9200 -2.3332 -0.0443
 5985SOL     OW29587   3.918   1.266   0.737 -0.4069  0.1754  0.3703
 5985SOL    HW129588   3.984   1.336   0.738 -0.0007 -0.2098  0.3962
 5985SOL    HW229589   3.843   1.313   0.772 -1.4355 -1.8377  0.8595
 5986SOL     OW29590   3.481   0.450   8.455  0.0316  0.5359  0.9110
 5986SOL    HW129591   3.529   0.495   8.524  0.3311  2.4117 -0.5286
 5986SOL    HW229592   3.541   0.472   8.384 -1.6637 -0.3155 -0.7729
 5987SOL     OW29593   0.336   4.255   6.863 -0.0890 -0.5130  0.3783
 5987SOL    HW129594   0.407   4.196   6.886 -0.6447  0.1410  3.8082
 5987SOL    HW229595   0.332   4.226   6.771 -1.5838  1.9336 -0.3327
 5988SOL     OW29596   1.493   4.109   8.384 -0.2494 -0.0232  0.4394
 5988SOL    HW129597   1.439   4.116   8.462  1.7605  1.0260  1.7322
 5988SOL    HW229598   1.504   4.201   8.359  0.4755  0.0338  0.9728
 5989SOL     OW29599   4.334   4.215   7.571 -0.8882 -0.0726 -0.1188
 5989SOL    HW129600   4.301   4.177   7.653 -0.6380 -1.8872 -0.8638
 5989SOL    HW229601   4.395   4.146   7.545 -1.4175 -0.1649 -1.0854
 5990SOL     OW29602   4.230   3.716  10.011 -0.2317  0.1654 -0.1549
 5990SOL    HW129603   4.302   3.775  10.035 -0.4601  1.3150 -2.2825
 5990SOL    HW229604   4.165   3.782   9.988 -1.2800  0.0241  2.3739
 5991SOL     OW29605   3.888   4.175   6.876 -0.3165 -0.3992 -0.1467
 5991SOL    HW129606   3.802   4.179   6.833  0.0179  2.3175 -0.5528
 5991SOL    HW229607   3.881   4.142   6.966 -0.5566 -1.5119 -0.5656
 5992SOL     OW29608   3.975   3.370   7.463 -0.0397 -0.0270 -0.3981
 5992SOL    HW129609   3.943   3.280   7.466  1.9831 -0.7112  0.4097
 5992SOL    HW229610   4.058   3.353   7.508  0.0843  0.1162 -0.5731
 5993SOL     OW29611   1.510   3.822   5.873  0.0626  0.5029 -0.3809
 5993SOL    HW129612   1.535   3.854   5.960 -0.0762 -0.6305  0.0808
 5993SOL    HW229613   1.548   3.895   5.825  2.7500 -0.2418  0.5892
 5994SOL     OW29614   4.166   2.876   8.309 -0.0047 -0.0812  0.0755
 5994SOL    HW129615   4.124   2.800   8.268  1.4379  0.2858 -2.1096
 5994SOL    HW229616   4.113   2.885   8.388  0.2664 -1.1636  0.3824
 5995SOL     OW29617   3.218   3.075   9.713 -0.1367  0.5864 -0.2100
 5995SOL    HW129618   3.186   3.116   9.792  1.4505  2.7037 -0.6741
 5995SOL    HW229619   3.242   3.157   9.670 -1.7299  1.2337  0.1566
 5996SOL     OW29620   0.037   4.357   2.471  0.3969 -0.2048  0.3183
 5996SOL    HW129621   4.711   4.430   2.460  0.6339 -0.0500  0.0273
 5996SOL    HW229622   4.722   4.283   2.436  0.6720 -0.1322 -0.2211
 5997SOL     OW29623   2.507   2.786   5.434 -0.3462  0.3746 -0.4061
 5997SOL    HW129624   2.600   2.807   5.439  0.2475 -1.6764 -2.5721
 5997SOL    HW229625   2.511   2.692   5.412  0.8062  0.5143 -0.8271
 5998SOL     OW29626   3.062   2.679   5.108  0.1813 -0.1505 -0.5257
 5998SOL    HW129627   3.067   2.641   5.196 -0.1197 -0.2908 -0.5684
 5998SOL    HW229628   3.154   2.683   5.083  0.4113 -1.5142  0.0955
 5999SOL     OW29629   1.748   0.250   8.296 -0.2355 -0.0968  0.4727
 5999SOL    HW129630   1.668   0.302   8.292 -0.1782 -0.2485 -2.3533
 5999SOL    HW229631   1.752   0.212   8.208  2.5315  0.3994  0.3783
 6000SOL     OW29632   0.100   1.060   9.678 -0.0294 -0.3476 -0.4525
 6000SOL    HW129633   0.183   1.060   9.726 -0.8379 -3.9000  0.9512
 6000SOL    HW229634   0.120   1.082   9.587  0.0322 -2.4208 -0.9451
 6001SOL     OW29635   0.204   1.199   5.327  0.3448 -0.1718 -0.5050
 6001SOL    HW129636   0.152   1.193   5.247 -1.1459 -1.2803  0.5535
 6001SOL    HW229637   0.167   1.273   5.374 -3.0008 -1.0824 -1.7125
 6002SOL     OW29638   3.597   3.517   8.748 -0.6188 -0.0617  0.7788
 6002SOL    HW129639   3.545   3.555   8.819  0.4150  1.0960  0.9153
 6002SOL    HW229640   3.533   3.453   8.717 -0.8962  1.8578 -2.6258
 6003SOL     OW29641   1.335   0.803  16.475 -0.1439  0.2657 -0.5409
 6003SOL    HW129642   1.295   0.807  16.561 -0.8932 -0.7743 -0.8328
 6003SOL    HW229643   1.260   0.771  16.425  0.0507  0.6930 -1.1130
 6004SOL     OW29644   4.233   3.136   8.833  0.2549 -0.3827  0.3166
 6004SOL    HW129645   4.195   3.172   8.753 -0.4710 -0.9556  0.4077
 6004SOL    HW229646   4.238   3.206   8.898 -0.2060 -2.3926  2.5340
 6005SOL     OW29647   3.870   0.029   7.167 -0.4775  0.0250 -0.8015
 6005SOL    HW129648   3.951   0.024   7.117 -0.3320  0.2761 -0.5951
 6005SOL    HW229649   3.897   0.087   7.239 -0.5884 -0.0278 -0.7171
 6006SOL     OW29650   1.898   3.288   2.494  0.3043 -0.1357  0.1446
 6006SOL    HW129651   1.956   3.283   2.571 -1.5357  2.4590  1.6761
 6006SOL    HW229652   1.818   3.319   2.536  0.3823 -0.7647  0.7616
 6007SOL     OW29653   0.475   2.105   9.173  0.1938 -0.0909  0.2836
 6007SOL    HW129654   0.526   2.035   9.132 -2.8694 -1.7052 -0.7479
 6007SOL    HW229655   0.399   2.062   9.211 -0.1328 -1.6908 -2.2147
 6008SOL     OW29656   3.407   4.230   8.240 -0.1953  0.7228 -0.0879
 6008SOL    HW129657   3.434   4.157   8.296 -2.1242 -0.9713 -1.3566
 6008SOL    HW229658   3.345   4.264   8.304  0.8785  1.3243  0.6420
 6009SOL     OW29659   2.433   1.587  10.231  0.6290 -0.0366 -0.4393
 6009SOL    HW129660   2.349   1.542  10.224  0.8400 -0.8295  1.8526
 6009SOL    HW229661   2.406   1.678  10.245  2.4639  0.6012 -0.9733
 6010SOL     OW29662   4.552   1.062  10.391 -0.0679  0.3521  0.5384
 6010SOL    HW129663   4.459   1.068  10.410  0.0359  3.4117  0.0905
 6010SOL    HW229664   4.575   1.129  10.327  1.5645  1.1538  1.9385
 6011SOL     OW29665   3.740   0.794  11.877  0.3838  0.6805 -0.6884
 6011SOL    HW129666   3.754   0.704  11.850 -1.7518 -0.7477  2.9783
 6011SOL    HW229667   3.830   0.825  11.882  0.6795 -0.1580 -0.9014
 6012SOL     OW29668   4.107   1.112   5.594 -0.0191  0.0930 -0.2311
 6012SOL    HW129669   4.077   1.156   5.514 -0.4878 -2.8649 -1.6719
 6012SOL    HW229670   4.023   1.077   5.623  0.0020  1.1267  1.0622
 6013SOL     OW29671   3.478   1.766   3.773 -0.1193  0.1672 -0.5909
 6013SOL    HW129672   3.541   1.824   3.815 -1.1711  1.0095 -0.1595
 6013SOL    HW229673   3.397   1.769   3.824 -0.3543  2.0187 -1.0761
 6014SOL     OW29674   1.951   0.823   3.736 -0.4309 -0.0144  0.6032
 6014SOL    HW129675   1.939   0.739   3.782 -0.6295  1.2027  2.7603
 6014SOL    HW229676   2.033   0.818   3.686 -1.1806 -1.0905 -0.5414
 6015SOL     OW29677   2.096   3.000   6.126  0.8015  0.1574  0.4972
 6015SOL    HW129678   2.081   2.980   6.219 -1.6129  0.6035  0.1830
 6015SOL    HW229679   2.008   3.029   6.103  0.0653 -1.4024  1.3673
 6016SOL     OW29680   0.400   0.933   8.234  0.2339  0.1169 -0.4013
 6016SOL    HW129681   0.475   0.933   8.293 -0.5942  3.0171  0.6272
 6016SOL    HW229682   0.427   0.875   8.162  0.2873 -0.6549  0.2400
 6017SOL     OW29683   3.729   0.782   7.924 -0.1276 -0.5271 -0.2839
 6017SOL    HW129684   3.739   0.813   8.014 -0.3189 -0.2760 -0.3466
 6017SOL    HW229685   3.821   0.769   7.900 -0.8388 -0.7272 -2.9743
 6018SOL     OW29686   1.551   4.101  12.163 -0.0401  0.1191 -0.4462
 6018SOL    HW129687   1.596   4.041  12.223 -0.3032  0.1872 -0.1813
 6018SOL    HW229688   1.625   4.141  12.119  0.6943 -0.3128  0.3967
 6019SOL     OW29689   1.666   3.333  12.745  0.2787  1.1611 -0.1781
 6019SOL    HW129690   1.713   3.417  12.745  0.6644  0.9532 -0.9678
 6019SOL    HW229691   1.656   3.308  12.836  3.4734 -0.9430 -0.3879
 6020SOL     OW29692   3.266   2.268  12.393 -0.3328 -0.3221  0.1221
 6020SOL    HW129693   3.307   2.230  12.315  0.7008  0.3235  0.3671
 6020SOL    HW229694   3.327   2.234  12.458  0.0431  0.3003  0.0878
 6021SOL     OW29695   2.792   4.149   8.792  0.0612  0.4504 -0.7575
 6021SOL    HW129696   2.758   4.062   8.769 -0.9609  0.6482 -0.0186
 6021SOL    HW229697   2.713   4.197   8.767  2.1016  3.1385 -1.9928
 6022SOL     OW29698   4.247   1.995   9.563 -0.0863 -0.1214 -0.2008
 6022SOL    HW129699   4.292   2.068   9.520 -1.0514  0.1447 -0.7604
 6022SOL    HW229700   4.185   1.977   9.492 -1.1604  0.1650  0.6765
 6023SOL     OW29701   1.178   2.476   2.748 -0.5257 -0.2554 -0.2525
 6023SOL    HW129702   1.088   2.499   2.771 -1.0899 -1.5570 -1.1304
 6023SOL    HW229703   1.190   2.526   2.667  1.5321  1.7736  1.3270
 6024SOL     OW29704   3.048   2.387   3.376  0.3953  0.4914 -0.3967
 6024SOL    HW129705   3.124   2.330   3.366 -0.7920 -1.2992  0.9031
 6024SOL    HW229706   3.055   2.415   3.468 -0.9498  1.1908 -0.4992
 6025SOL     OW29707   2.975   0.277  10.692  0.4752 -0.0619 -0.5049
 6025SOL    HW129708   2.978   0.366  10.655 -4.3346  1.3107  2.3288
 6025SOL    HW229709   2.927   0.225  10.628 -1.1549 -0.0365  0.6918
 6026SOL     OW29710   3.033   1.139  16.281  0.3094  0.3714  0.5519
 6026SOL    HW129711   3.099   1.158  16.214 -1.0946  1.6906 -0.4522
 6026SOL    HW229712   3.061   1.050  16.303 -0.2690 -0.2024 -1.0983
 6027SOL     OW29713   1.722   3.620   2.016  0.2870 -0.2400 -0.5610
 6027SOL    HW129714   1.789   3.687   2.026 -0.3252  0.6951 -2.8677
 6027SOL    HW229715   1.644   3.676   2.014 -0.0309 -0.7277 -1.8027
 6028SOL     OW29716   3.931   2.882   8.058 -0.0996  0.4055  0.1875
 6028SOL    HW129717   3.985   2.806   8.036 -2.3125 -1.3212  0.6996
 6028SOL    HW229718   3.943   2.898   8.151  0.0984 -0.6059  0.3357
 6029SOL     OW29719   4.640   2.011  16.472 -0.3360  0.3681  0.5655
 6029SOL    HW129720   4.614   1.932  16.519 -1.2546 -0.6342 -1.6532
 6029SOL    HW229721   4.630   1.982  16.381 -0.3185 -2.1772  1.3630
 6030SOL     OW29722   2.941   4.570  17.146  0.0226 -0.0080  0.0370
 6030SOL    HW129723   2.974   4.653  17.111 -0.9074 -0.7556 -2.6332
 6030SOL    HW229724   2.854   4.598  17.174  0.1962 -0.6446  1.1729
 6031SOL     OW29725   4.493   4.468   3.939  0.2799 -0.0057 -0.1556
 6031SOL    HW129726   4.428   4.491   3.872  0.1532 -2.4353 -0.8869
 6031SOL    HW229727   4.569   4.456   3.883  0.4393 -1.0006  0.2834
 6032SOL     OW29728   2.720   1.911   8.689  1.0893  0.2572  0.5958
 6032SOL    HW129729   2.704   2.005   8.694 -0.9852 -0.0418 -0.1267
 6032SOL    HW229730   2.694   1.885   8.600  0.1044  0.7655  0.7385
 6033SOL     OW29731   2.424   0.496   4.497  0.1077  0.3245 -0.4342
 6033SOL    HW129732   2.342   0.536   4.469 -0.7646 -0.9408  0.3715
 6033SOL    HW229733   2.395   0.467   4.583 -1.2379  0.5767 -0.8036
 6034SOL     OW29734   0.267   2.129   9.598  0.5582  0.3067  0.2216
 6034SOL    HW129735   0.262   2.067   9.525  2.1400 -0.8682  1.1138
 6034SOL    HW229736   0.189   2.113   9.651 -0.4807  2.0915 -0.7965
 6035SOL     OW29737   3.240   2.529  12.305  0.1660 -0.2163  0.0554
 6035SOL    HW129738   3.250   2.438  12.333  1.8260  0.4989  1.7625
 6035SOL    HW229739   3.313   2.576  12.345 -0.7346  2.0613 -1.0028
 6036SOL     OW29740   0.189   1.118   0.653  0.6840 -0.0810  0.2585
 6036SOL    HW129741   0.255   1.130   0.721  1.1821 -1.3272 -0.0113
 6036SOL    HW229742   0.112   1.081   0.696  0.3768  0.6321  0.3268
 6037SOL     OW29743   1.594   4.116   0.647  0.3211 -0.0755  0.5172
 6037SOL    HW129744   1.583   4.177   0.720 -1.2310 -1.8128  1.7344
 6037SOL    HW229745   1.684   4.141   0.628 -0.6764  2.2337 -1.1389
 6038SOL     OW29746   3.251   2.756   3.725 -0.8745  0.2727 -0.4166
 6038SOL    HW129747   3.330   2.748   3.672 -0.8442  0.2696 -0.3712
 6038SOL    HW229748   3.280   2.818   3.792  1.6496  0.4940 -1.7192
 6039SOL     OW29749   1.932   1.596  11.667  0.9243  0.3137 -0.0152
 6039SOL    HW129750   1.845   1.562  11.647  0.8183  0.5074  0.1233
 6039SOL    HW229751   1.958   1.557  11.750  1.3800  1.1353  0.2218
 6040SOL     OW29752   0.072   0.489   8.425  0.2300 -0.0204 -0.0965
 6040SOL    HW129753   0.062   0.429   8.351  1.1477 -0.8755  0.4607
 6040SOL    HW229754   0.117   0.563   8.383 -1.7768  1.1469 -0.1745
 6041SOL     OW29755   0.018   4.652  10.499  0.0824 -0.1623  0.9036
 6041SOL    HW129756   4.667   4.610  10.491 -0.5590  1.1768  0.7454
 6041SOL    HW229757   0.074   4.576  10.482 -0.1350  0.4484 -2.6297
 6042SOL     OW29758   1.653   3.595   9.596  0.4582 -0.7918 -0.1884
 6042SOL    HW129759   1.680   3.512   9.634  1.3428 -1.0699 -1.4120
 6042SOL    HW229760   1.717   3.661   9.623 -1.2957  0.4744  0.8790
 6043SOL     OW29761   1.177   1.330   4.137 -0.2493 -0.0301  0.0133
 6043SOL    HW129762   1.180   1.342   4.042  1.9629  0.0639  0.0866
 6043SOL    HW229763   1.151   1.417   4.168  1.8714  0.0779  1.4635
 6044SOL     OW29764   4.521   1.733   2.781  0.8402 -0.1013 -0.0495
 6044SOL    HW129765   4.530   1.639   2.796 -0.0920  0.0130  1.1981
 6044SOL    HW229766   4.447   1.722   2.722  1.4111  0.3225 -0.8430
 6045SOL     OW29767   0.997   0.242   7.608 -0.4298  0.0579 -0.7268
 6045SOL    HW129768   1.071   0.191   7.643 -0.4899 -0.9250 -2.0518
 6045SOL    HW229769   1.021   0.243   7.516  1.6798 -0.7027 -0.1963
 6046SOL     OW29770   2.086   3.058   1.964  0.8303 -0.2780  0.0462
 6046SOL    HW129771   2.180   3.068   1.949  1.1507 -5.4896 -1.3245
 6046SOL    HW229772   2.050   3.054   1.876  0.6969 -0.0887  0.0917
 6047SOL     OW29773   0.370   0.392   1.402  0.4268 -0.2326  0.2875
 6047SOL    HW129774   0.450   0.438   1.427  0.4533 -0.5833  0.8483
 6047SOL    HW229775   0.327   0.476   1.385 -1.6299 -1.2732  0.4337
 6048SOL     OW29776   2.992   1.727  11.076  0.5012 -0.2304 -0.4993
 6048SOL    HW129777   2.994   1.791  11.006 -1.5608 -1.3766 -1.6237
 6048SOL    HW229778   2.955   1.654  11.027  1.6396 -0.2034 -1.3938
 6049SOL     OW29779   1.519   1.651   5.049 -0.0496  0.2388 -0.3837
 6049SOL    HW129780   1.507   1.696   4.965 -1.1020  1.6120  0.4999
 6049SOL    HW229781   1.488   1.717   5.112 -0.9178 -0.4078 -0.1271
 6050SOL     OW29782   3.682   3.753   8.011 -0.1065  0.1968  0.0530
 6050SOL    HW129783   3.727   3.835   7.993  0.5482 -0.0158  0.6751
 6050SOL    HW229784   3.717   3.711   7.932 -0.0603  0.3907 -0.0289
 6051SOL     OW29785   1.226   0.390   2.678 -0.3061  0.6488 -0.2729
 6051SOL    HW129786   1.199   0.378   2.587  2.2716  1.6008 -1.1513
 6051SOL    HW229787   1.220   0.485   2.678 -0.2644  0.6559  0.7954
 6052SOL     OW29788   2.088   0.001   4.346  0.3642 -0.1372  0.1003
 6052SOL    HW129789   2.050   0.067   4.405 -0.5070 -0.1959 -0.3915
 6052SOL    HW229790   2.041   0.030   4.268  0.6576 -2.5332 -0.9558
 6053SOL     OW29791   4.495   1.440   2.852 -0.5230 -0.1697 -0.6473
 6053SOL    HW129792   4.410   1.446   2.894 -0.4036  1.1103 -0.5717
 6053SOL    HW229793   4.474   1.423   2.760  1.3365 -0.3535 -1.0378
 6054SOL     OW29794   3.077   4.290   7.312 -0.3090 -0.0609 -0.0671
 6054SOL    HW129795   3.016   4.227   7.275  2.2470 -1.7819 -1.4122
 6054SOL    HW229796   3.066   4.265   7.403 -2.0506  1.5343  0.1609
 6055SOL     OW29797   2.212   3.400   3.280  0.3710  0.0583 -0.4485
 6055SOL    HW129798   2.274   3.414   3.207  1.3031 -1.2629  0.0959
 6055SOL    HW229799   2.269   3.339   3.326 -0.3720  1.4209  2.2739
 6056SOL     OW29800   3.563   4.235   3.935  0.2917  0.6055 -0.0903
 6056SOL    HW129801   3.484   4.266   3.891  0.4418  0.0471 -0.7526
 6056SOL    HW229802   3.613   4.189   3.868  0.7426 -1.7314  1.8381
 6057SOL     OW29803   4.176   1.464   5.966  0.0710  0.8881  0.2942
 6057SOL    HW129804   4.201   1.405   5.894  2.2104  2.1173  0.0264
 6057SOL    HW229805   4.259   1.484   6.009  0.6595 -0.4799 -0.1663
 6058SOL     OW29806   3.711   1.585  15.408 -0.7559 -0.0276  0.2155
 6058SOL    HW129807   3.683   1.676  15.412  1.5821  0.6551  1.2773
 6058SOL    HW229808   3.754   1.581  15.494 -1.7787 -1.4711  0.6587
 6059SOL     OW29809   0.380   1.611  13.080  0.6240  0.1999 -0.2704
 6059SOL    HW129810   0.420   1.524  13.076  0.1651 -0.0557  0.7470
 6059SOL    HW229811   0.337   1.623  13.164  0.5256 -1.9982  0.0097
 6060SOL     OW29812   0.537   1.075   9.620  0.7520  0.1529 -0.7525
 6060SOL    HW129813   0.571   0.993   9.585  1.1069 -0.0531  0.0939
 6060SOL    HW229814   0.515   1.047   9.708  0.4784  0.6544 -0.6611
 6061SOL     OW29815   1.018   2.099  14.911 -0.0326 -0.4460  0.1834
 6061SOL    HW129816   1.104   2.058  14.900  0.9753  1.7122 -0.0376
 6061SOL    HW229817   1.007   2.101  15.006  0.6351  0.0647  0.2485
 6062SOL     OW29818   4.357   2.040   5.746 -0.4279  0.1428 -0.3459
 6062SOL    HW129819   4.396   2.019   5.831  0.4464  2.3228 -0.1926
 6062SOL    HW229820   4.340   1.955   5.705  0.4065  0.6985 -1.8428
 6063SOL     OW29821   3.311   3.048  17.075  0.4214 -0.4004 -0.0435
 6063SOL    HW129822   3.297   2.981  17.142  0.8581 -1.1657 -0.7218
 6063SOL    HW229823   3.397   3.020  17.043  0.3067 -0.3635 -0.3789
 6064SOL     OW29824   4.252   3.228   1.069  0.4166  0.4515  0.5830
 6064SOL    HW129825   4.342   3.250   1.045  1.2319 -3.1717  0.2060
 6064SOL    HW229826   4.264   3.145   1.116 -3.0414  0.8861  2.2225
 6065SOL     OW29827   3.150   0.429   2.383 -0.2150 -0.0752  0.6021
 6065SOL    HW129828   3.078   0.457   2.326  1.5341 -0.9419 -2.0757
 6065SOL    HW229829   3.129   0.486   2.456 -0.9173  0.7151 -0.2146
 6066SOL     OW29830   4.147   3.952   0.297 -0.0512 -0.0086  0.0762
 6066SOL    HW129831   4.116   3.919   0.212  0.5964  0.9864 -0.5543
 6066SOL    HW229832   4.202   3.878   0.321  0.8537  0.4593 -0.5368
 6067SOL     OW29833   2.711   1.561   5.135  0.1949  0.2108 -0.1007
 6067SOL    HW129834   2.765   1.485   5.112 -0.7111 -0.2690 -0.6123
 6067SOL    HW229835   2.653   1.517   5.197  0.1080 -1.5891 -1.4453
 6068SOL     OW29836   4.332   2.934  13.279  0.1448 -0.3365  0.2863
 6068SOL    HW129837   4.428   2.933  13.286  0.2341  0.1108 -0.8527
 6068SOL    HW229838   4.315   2.915  13.187  0.0897  0.7321  0.0753
 6069SOL     OW29839   0.712   0.103   5.427  0.1937 -0.1414  0.6789
 6069SOL    HW129840   0.679   0.020   5.393  1.2335  0.1834 -1.1281
 6069SOL    HW229841   0.695   0.083   5.519 -0.4893  1.2843  0.8668
 6070SOL     OW29842   1.990   2.078  11.707 -0.3423  0.3722  0.5483
 6070SOL    HW129843   2.052   2.148  11.686 -0.2638  0.0055 -0.4149
 6070SOL    HW229844   2.050   2.004  11.715 -0.8483 -0.1697 -0.7249
 6071SOL     OW29845   0.704   0.032   9.992 -0.4747 -0.6669  0.3617
 6071SOL    HW129846   0.703   0.034  10.087  0.9557 -2.4920  0.4163
 6071SOL    HW229847   0.789   4.734   9.964  0.2735  0.2410  1.5887
 6072SOL     OW29848   3.500   1.108   5.225 -0.4410 -0.1017  0.3196
 6072SOL    HW129849   3.446   1.162   5.168 -0.1661 -1.3728 -1.1395
 6072SOL    HW229850   3.490   1.017   5.196 -1.4696  0.7993 -2.0683
 6073SOL     OW29851   3.243   1.609   1.980 -0.2503  0.5780  0.1482
 6073SOL    HW129852   3.333   1.606   1.948 -1.1061  1.2402 -2.3743
 6073SOL    HW229853   3.202   1.642   1.900  0.2074  1.4109  0.2591
 6074SOL     OW29854   1.759   3.642   6.017  0.2056  0.9703  0.1978
 6074SOL    HW129855   1.837   3.587   6.030 -1.1127 -1.1733 -0.9977
 6074SOL    HW229856   1.721   3.628   6.104 -1.3942 -2.2492 -1.0287
 6075SOL     OW29857   4.564   0.899   5.803  0.5043  0.1262 -0.1504
 6075SOL    HW129858   4.561   0.825   5.863  1.7148 -1.2305 -1.7545
 6075SOL    HW229859   4.477   0.926   5.835 -0.0463  0.6203 -2.0565
 6076SOL     OW29860   2.603   1.165  15.539  0.1037 -0.6233  0.1786
 6076SOL    HW129861   2.512   1.196  15.536 -0.0729 -1.2390 -0.9396
 6076SOL    HW229862   2.615   1.135  15.629  1.0227 -1.0695 -0.0949
 6077SOL     OW29863   1.829   3.927  12.387  0.2910  0.4325 -0.5639
 6077SOL    HW129864   1.737   3.902  12.374  0.1810 -1.0168  3.0923
 6077SOL    HW229865   1.806   3.997  12.448 -0.8354  0.5241 -1.0930
 6078SOL     OW29866   3.851   0.579  17.163  0.0181 -0.6672  0.1706
 6078SOL    HW129867   3.913   0.570  17.091  0.1745 -0.4266  0.2761
 6078SOL    HW229868   3.926   0.574  17.223  0.0825  0.3736  0.1740
 6079SOL     OW29869   1.284   0.489   5.119 -0.4458 -0.0758  0.6951
 6079SOL    HW129870   1.292   0.442   5.201 -0.0253 -4.2229 -1.7296
 6079SOL    HW229871   1.216   0.434   5.078 -1.2005  1.5912 -0.3271
 6080SOL     OW29872   1.881   3.861   9.086  0.0382  0.3043  0.7151
 6080SOL    HW129873   1.944   3.922   9.047 -1.2872  2.7859  2.4409
 6080SOL    HW229874   1.943   3.789   9.096 -1.0242 -0.5294  1.3179
 6081SOL     OW29875   2.888   2.505   5.814  0.9959  0.1481 -0.4249
 6081SOL    HW129876   2.889   2.596   5.843  0.0038  0.7255 -2.1839
 6081SOL    HW229877   2.959   2.472   5.869 -1.6228  1.4866  3.7244
 6082SOL     OW29878   1.239   1.463   2.945  0.3376  0.4746 -0.8164
 6082SOL    HW129879   1.175   1.405   2.903 -3.0987  3.0257  0.8885
 6082SOL    HW229880   1.258   1.522   2.871  1.9260  1.8880  0.7273
 6083SOL     OW29881   4.077   2.300   5.019 -0.3975 -0.2479  0.3639
 6083SOL    HW129882   4.154   2.271   5.068  0.2541  2.3904  0.8843
 6083SOL    HW229883   4.116   2.268   4.937  0.4601 -1.9706  1.4466
 6084SOL     OW29884   3.478   2.095   5.852 -0.0522  0.3090 -0.2676
 6084SOL    HW129885   3.526   2.142   5.784  1.5773 -0.8684  0.0777
 6084SOL    HW229886   3.505   2.005   5.837  3.5173  1.3535 -0.1883
 6085SOL     OW29887   1.083   0.097   2.312 -0.6410 -0.5388  0.3043
 6085SOL    HW129888   1.171   0.135   2.314 -0.6066 -0.5367 -1.2297
 6085SOL    HW229889   1.110   0.021   2.260 -0.9080  0.3796 -1.1549
 6086SOL     OW29890   1.563   4.026   4.029 -0.5444  0.0297  0.4057
 6086SOL    HW129891   1.618   3.962   4.075 -0.1598  0.7023  0.8822
 6086SOL    HW229892   1.569   4.100   4.089  0.0676 -1.6092  2.3494
 6087SOL     OW29893   1.767   2.204   6.187 -0.2028 -0.0498  0.1426
 6087SOL    HW129894   1.757   2.119   6.142  0.4628  0.3532 -0.7817
 6087SOL    HW229895   1.853   2.193   6.228  0.0458 -1.3385 -0.7137
 6088SOL     OW29896   4.275   0.452   6.157 -0.3742 -0.3805 -0.1067
 6088SOL    HW129897   4.275   0.508   6.235 -2.5256 -2.0205  1.0583
 6088SOL    HW229898   4.193   0.404   6.166  0.4453 -1.7420  0.0385
 6089SOL     OW29899   4.279   2.512  13.886 -0.4566  0.1648  0.3891
 6089SOL    HW129900   4.332   2.529  13.807 -0.0281  0.1965  0.6835
 6089SOL    HW229901   4.341   2.451  13.927 -0.2351  0.1137 -0.0195
 6090SOL     OW29902   3.421   1.504   4.473  0.0211 -0.4564 -0.3714
 6090SOL    HW129903   3.492   1.565   4.457 -1.1430  1.2948  1.2726
 6090SOL    HW229904   3.464   1.448   4.537 -1.7156 -0.7557  0.5426
 6091SOL     OW29905   4.049   3.762   3.387 -0.4437 -0.2448  0.2884
 6091SOL    HW129906   4.133   3.719   3.371  0.1869  0.9309  0.4697
 6091SOL    HW229907   4.086   3.847   3.409 -1.0690  0.4384 -1.3171
 6092SOL     OW29908   3.565   4.539   8.181  0.3905  0.0846  0.1117
 6092SOL    HW129909   3.652   4.578   8.169  0.4519  0.2629  1.1178
 6092SOL    HW229910   3.558   4.465   8.121 -1.7506  2.0574 -2.1074
 6093SOL     OW29911   2.668   3.769  16.019 -1.0810 -0.5367 -0.3353
 6093SOL    HW129912   2.664   3.830  15.945  1.4025  0.6647  0.5282
 6093SOL    HW229913   2.626   3.811  16.093 -1.0610 -1.3639  0.1410
 6094SOL     OW29914   0.843   2.966   7.064  0.5496 -0.3570 -0.2995
 6094SOL    HW129915   0.799   2.936   6.985 -0.1810  1.7529 -0.6992
 6094SOL    HW229916   0.931   2.930   7.050 -0.5305 -2.4882 -1.5103
 6095SOL     OW29917   2.898   4.246   5.508  0.3229  0.0179 -0.1517
 6095SOL    HW129918   2.945   4.175   5.464  2.9480  1.2822  0.6200
 6095SOL    HW229919   2.974   4.297   5.538  0.2260 -1.5645  2.7401
 6096SOL     OW29920   1.044   3.464   5.015  0.2491 -0.2312  0.6366
 6096SOL    HW129921   0.975   3.398   5.025  0.3579 -0.3738  0.4660
 6096SOL    HW229922   0.994   3.543   5.034  0.6315 -0.0818  1.0252
 6097SOL     OW29923   1.139   0.350   9.999 -0.2483 -0.5649 -0.0039
 6097SOL    HW129924   1.053   0.388   9.979 -0.4326 -1.4452 -0.8940
 6097SOL    HW229925   1.112   0.273  10.051 -0.4816  0.0698  0.8222
 6098SOL     OW29926   0.382   1.713   7.298 -0.0850  0.0050 -0.0345
 6098SOL    HW129927   0.297   1.675   7.320 -0.4606  1.1955  0.5326
 6098SOL    HW229928   0.377   1.741   7.207 -1.9972 -3.0509 -0.8544
 6099SOL     OW29929   0.921   4.428   4.365 -0.4905  0.0665 -0.8422
 6099SOL    HW129930   0.974   4.500   4.398  0.0828 -1.7026  2.0596
 6099SOL    HW229931   0.936   4.424   4.271  4.5814 -2.6348  0.0855
 6100SOL     OW29932   3.108   3.835   2.701  0.1482 -0.1358 -0.2832
 6100SOL    HW129933   3.112   3.741   2.720  0.9208  0.1967  1.2033
 6100SOL    HW229934   3.079   3.865   2.787  2.0906 -1.0345  0.6793
 6101SOL     OW29935   2.194   4.630   9.205 -0.0054 -0.6789  0.4362
 6101SOL    HW129936   2.216   4.717   9.239  1.0586 -0.4519 -0.8252
 6101SOL    HW229937   2.272   4.595   9.162  0.6767  2.3209 -0.7336
 6102SOL     OW29938   4.292   0.730   9.754 -0.0764  0.5419  0.4497
 6102SOL    HW129939   4.229   0.666   9.724 -0.0262 -0.1623  1.8338
 6102SOL    HW229940   4.238   0.803   9.784 -1.1873 -0.4990  0.9904
 6103SOL     OW29941   2.505   2.269   4.785  1.0732  0.4088 -0.4060
 6103SOL    HW129942   2.600   2.263   4.801  0.8999 -2.4317 -0.4152
 6103SOL    HW229943   2.481   2.178   4.769  3.8152 -0.6422  1.3345
 6104SOL     OW29944   0.436   4.204  10.615 -0.2195 -0.3896  0.0276
 6104SOL    HW129945   0.405   4.156  10.539 -1.2851  1.2444 -0.5755
 6104SOL    HW229946   0.506   4.147  10.648  3.0035  4.1825  1.2435
 6105SOL     OW29947   0.653   2.694  12.155 -0.2399 -0.1542 -0.0440
 6105SOL    HW129948   0.586   2.699  12.087 -2.3028  2.7758  2.1631
 6105SOL    HW229949   0.704   2.618  12.128  0.1126  0.0606  0.0240
 6106SOL     OW29950   1.650   2.996  15.699  0.2599  0.0101 -0.3357
 6106SOL    HW129951   1.686   3.060  15.761 -0.6926 -0.4992  0.7463
 6106SOL    HW229952   1.729   2.966  15.654  0.5532  0.7606 -0.3232
 6107SOL     OW29953   1.581   3.079  10.684  0.1898 -0.5427  0.1784
 6107SOL    HW129954   1.486   3.095  10.688 -0.1852 -2.3332 -1.3534
 6107SOL    HW229955   1.585   3.061  10.778  0.0657  0.0456  0.2931
 6108SOL     OW29956   0.863   3.994  10.921  0.5796  0.4999  0.1131
 6108SOL    HW129957   0.898   3.989  10.832 -1.5845  0.2512 -0.7078
 6108SOL    HW229958   0.889   3.916  10.970  0.0874 -1.2260 -2.4170
 6109SOL     OW29959   3.419   4.144   6.314  0.3091 -0.8205 -0.2877
 6109SOL    HW129960   3.404   4.086   6.239  0.3805 -0.3990 -0.6327
 6109SOL    HW229961   3.350   4.208   6.295  0.6659  0.1136  1.5936
 6110SOL     OW29962   2.698   1.042   9.125 -0.0809  0.2793 -0.1978
 6110SOL    HW129963   2.680   1.080   9.210  1.3962 -1.4188  0.8755
 6110SOL    HW229964   2.614   1.002   9.099  0.5740 -0.3795 -1.3140
 6111SOL     OW29965   0.350   4.572   7.849  0.0720  0.3519 -0.1272
 6111SOL    HW129966   0.397   4.517   7.912 -0.8641  2.6036  2.5793
 6111SOL    HW229967   0.411   4.637   7.815  2.3060 -1.1354  1.0460
 6112SOL     OW29968   2.910   0.867   1.177  0.1641  0.3193 -0.1074
 6112SOL    HW129969   2.946   0.949   1.143  0.1960 -0.4123 -1.7979
 6112SOL    HW229970   2.965   0.805   1.130  0.1324  0.6001 -0.5086
 6113SOL     OW29971   3.702   2.951  15.019 -0.3500  0.6837 -0.2764
 6113SOL    HW129972   3.707   2.996  15.104 -2.3073  0.4665 -0.0364
 6113SOL    HW229973   3.766   2.994  14.963  0.2006  0.3623  0.1083
 6114SOL     OW29974   2.808   1.634   0.305  0.1520  0.1405 -0.1088
 6114SOL    HW129975   2.801   1.538   0.303  0.2225  0.1457 -0.7370
 6114SOL    HW229976   2.847   1.652   0.219  0.4771 -1.5674 -0.3298
 6115SOL     OW29977   3.396   3.317   8.364 -0.4847  0.5322 -0.5609
 6115SOL    HW129978   3.477   3.367   8.361  0.1425 -0.4558  0.1122
 6115SOL    HW229979   3.329   3.366   8.315 -1.5779  0.6976  1.1024
 6116SOL     OW29980   1.496   2.434   0.365  0.1018 -0.2134  0.2098
 6116SOL    HW129981   1.458   2.433   0.277 -1.3387  1.6460  0.7840
 6116SOL    HW229982   1.475   2.346   0.395  0.6967 -0.4208  0.0071
 6117SOL     OW29983   3.450   4.025  14.064 -0.5343 -0.2030 -0.8927
 6117SOL    HW129984   3.365   4.050  14.027 -1.3282  0.1246  1.1927
 6117SOL    HW229985   3.497   4.108  14.055  0.3661 -0.7822 -1.5505
 6118SOL     OW29986   4.510   1.272   6.976 -0.4259 -0.3536  0.2599
 6118SOL    HW129987   4.468   1.212   6.915  0.3998 -2.4347  1.7283
 6118SOL    HW229988   4.446   1.271   7.047 -0.4226 -2.1133  0.2260
 6119SOL     OW29989   1.774   2.094   7.837 -0.3441 -0.4931 -0.4570
 6119SOL    HW129990   1.806   2.142   7.914 -1.9933 -2.4033  1.4411
 6119SOL    HW229991   1.681   2.090   7.860 -0.6861  1.4767 -1.5887
 6120SOL     OW29992   2.235   1.821   2.537 -0.0118  0.2265 -0.6363
 6120SOL    HW129993   2.241   1.884   2.466 -0.5349 -0.6138 -1.4277
 6120SOL    HW229994   2.185   1.872   2.600  0.2798 -1.2265  0.7994
 6121SOL     OW29995   1.274   2.654   4.310 -0.2175  0.2705  0.0105
 6121SOL    HW129996   1.245   2.735   4.353  1.1862  1.2009 -0.7771
 6121SOL    HW229997   1.213   2.636   4.239 -2.0051  1.3846  1.2538
 6122SOL     OW29998   4.249   4.362   4.864  0.0232  0.0184 -0.2500
 6122SOL    HW129999   4.233   4.365   4.770 -0.7625  0.4299 -0.0969
 6122SOL    HW230000   4.233   4.453   4.891  1.0541 -0.1073  0.8051
 6123SOL     OW30001   2.071   0.947   6.816  0.0124  0.5451 -0.5761
 6123SOL    HW130002   1.987   0.931   6.860  0.5277 -0.5098  0.0273
 6123SOL    HW230003   2.129   0.943   6.893 -1.0444  0.1086  0.2014
 6124SOL     OW30004   2.369   2.020   5.175  0.0195  0.6007 -0.0748
 6124SOL    HW130005   2.348   1.960   5.103 -2.0422 -0.3612  1.3431
 6124SOL    HW230006   2.293   2.077   5.176  1.5116  2.5679  2.1303
 6125SOL     OW30007   2.329   3.673   5.851  0.0372  0.1257  0.3589
 6125SOL    HW130008   2.338   3.592   5.801  1.7122  0.0605  0.7904
 6125SOL    HW230009   2.244   3.706   5.821 -0.8548 -2.9708 -0.4667
 6126SOL     OW30010   1.923   0.087   0.324  0.0128  0.7678 -0.2741
 6126SOL    HW130011   2.016   0.104   0.336 -0.2650  1.6105  0.7017
 6126SOL    HW230012   1.922   4.728   0.306  1.3481  0.5669  0.7083
 6127SOL     OW30013   4.524   3.721   1.401 -0.2658 -0.5405 -0.1645
 6127SOL    HW130014   4.458   3.789   1.391 -0.9210 -1.0773  0.4563
 6127SOL    HW230015   4.601   3.776   1.416 -0.8661  0.8104 -2.0575
 6128SOL     OW30016   3.843   2.826  12.245  0.4629  0.1042  1.0130
 6128SOL    HW130017   3.867   2.883  12.172  1.1565  0.0277  1.1831
 6128SOL    HW230018   3.751   2.810  12.222  0.4875  0.5852  0.5925
 6129SOL     OW30019   2.229   1.184   2.018 -0.1470  0.0537 -0.0919
 6129SOL    HW130020   2.321   1.162   2.004 -0.2407 -0.5235  0.2110
 6129SOL    HW230021   2.190   1.215   1.936 -0.3979  3.0550  1.1416
 6130SOL     OW30022   2.168   4.092   5.394  0.7728  0.4661  0.4342
 6130SOL    HW130023   2.119   4.021   5.352  0.4921  0.8973  0.0382
 6130SOL    HW230024   2.119   4.167   5.359  0.8051  0.4507  0.3561
 6131SOL     OW30025   1.873   2.577   8.963 -0.3411 -0.2864 -0.0343
 6131SOL    HW130026   1.934   2.605   9.032 -0.9678  3.0056 -0.7922
 6131SOL    HW230027   1.880   2.482   8.955 -1.6011 -0.3505 -0.2672
 6132SOL     OW30028   4.710   1.604   5.688 -0.2793  0.6979  0.3975
 6132SOL    HW130029   4.718   1.695   5.659 -0.9145  0.3500 -0.8805
 6132SOL    HW230030   0.047   1.563   5.641  0.3714  1.8540  0.3879
 6133SOL     OW30031   2.145   0.237   3.736 -0.4696  0.2099 -0.5326
 6133SOL    HW130032   2.235   0.268   3.724 -0.0677  0.2231  2.3500
 6133SOL    HW230033   2.154   0.142   3.741 -1.9453  0.0282 -1.5130
 6134SOL     OW30034   4.554   1.556   8.737 -0.1583  0.2225  0.5955
 6134SOL    HW130035   4.556   1.512   8.822  0.8409 -0.3455  0.2817
 6134SOL    HW230036   4.488   1.624   8.750 -0.4103 -0.1918  1.5264
 6135SOL     OW30037   3.106   1.182   3.694  0.3786  0.2274 -0.0310
 6135SOL    HW130038   3.027   1.205   3.742 -1.7610 -2.7319 -2.1195
 6135SOL    HW230039   3.119   1.105   3.750  3.7954 -0.0140 -1.1619
 6136SOL     OW30040   0.635   1.160   3.477  0.1293 -0.1182  0.1298
 6136SOL    HW130041   0.623   1.184   3.386  1.9273  1.3440  0.2813
 6136SOL    HW230042   0.662   1.244   3.516  0.4328  0.6220 -1.7009
 6137SOL     OW30043   0.361   2.176   1.310 -0.5855 -0.0565 -0.8010
 6137SOL    HW130044   0.452   2.178   1.342 -1.4932 -0.1874  1.7865
 6137SOL    HW230045   0.350   2.090   1.270 -0.1099 -0.5328  0.0823
 6138SOL     OW30046   2.047   3.024   3.433  0.3271 -0.5524  0.0078
 6138SOL    HW130047   2.114   3.065   3.379  1.5388 -1.1759  1.0318
 6138SOL    HW230048   2.076   2.933   3.435  0.7353 -0.3765  2.6125
 6139SOL     OW30049   2.011   1.404   1.900  0.5973 -0.6957 -0.0793
 6139SOL    HW130050   1.992   1.377   1.990 -0.0222 -1.4810 -0.4412
 6139SOL    HW230051   2.070   1.475   1.924  0.2986  0.4843 -2.7373
 6140SOL     OW30052   0.478   2.660   3.662  0.3934 -0.5278  0.2106
 6140SOL    HW130053   0.568   2.641   3.638  1.2859  1.6258  1.8258
 6140SOL    HW230054   0.471   2.599   3.735 -0.9061  0.4470  0.9058
 6141SOL     OW30055   3.238   3.868   9.093  0.2877 -0.6994  0.1730
 6141SOL    HW130056   3.263   3.806   9.025  1.6503  0.0533 -0.0090
 6141SOL    HW230057   3.216   3.946   9.042 -2.6405 -0.0504  2.3512
 6142SOL     OW30058   1.193   0.098   3.456  0.6108  0.2347  0.0588
 6142SOL    HW130059   1.245   0.018   3.463 -0.8323 -0.6970  0.3254
 6142SOL    HW230060   1.208   0.144   3.539  0.5692  1.6985 -0.7554
 6143SOL     OW30061   1.192   1.933   8.936 -0.8419 -0.9040  0.1263
 6143SOL    HW130062   1.228   1.933   9.025 -0.1202 -0.6721 -0.1634
 6143SOL    HW230063   1.135   2.010   8.935  1.1329  0.6195  3.3917
 6144SOL     OW30064   2.592   3.463   4.568  0.3265  0.6308  0.1877
 6144SOL    HW130065   2.535   3.400   4.524  0.5161 -0.1295  1.0270
 6144SOL    HW230066   2.645   3.403   4.621  1.0349 -1.3761 -2.8153
 6145SOL     OW30067   4.166   2.798  10.639  1.0459 -0.6617  0.4221
 6145SOL    HW130068   4.243   2.794  10.583  1.6924 -0.0630  1.2685
 6145SOL    HW230069   4.194   2.737  10.706 -0.9166 -1.7937  0.2004
 6146SOL     OW30070   4.332   1.856   2.101 -0.0793  0.7786  0.1078
 6146SOL    HW130071   4.423   1.884   2.101  0.3504 -0.6637  0.2828
 6146SOL    HW230072   4.302   1.923   2.039  0.0487  2.1821  1.5398
 6147SOL     OW30073   1.130   0.352   6.017  0.2683 -0.1739 -0.2655
 6147SOL    HW130074   1.119   0.385   6.106 -0.1948  0.4662 -0.5580
 6147SOL    HW230075   1.102   0.431   5.970 -0.3745 -0.5741 -0.5503
 6148SOL     OW30076   1.743   2.333   4.572  0.0734 -0.6188  0.2873
 6148SOL    HW130077   1.749   2.269   4.642  0.7456 -1.6668 -0.7396
 6148SOL    HW230078   1.740   2.421   4.611 -1.0726 -1.7056  2.6621
 6149SOL     OW30079   0.299   2.019   4.444 -0.2940 -0.2292  0.0963
 6149SOL    HW130080   0.265   1.961   4.376  1.7887  0.9564 -1.9743
 6149SOL    HW230081   0.392   2.007   4.421 -0.5027 -0.0628 -0.8321
 6150SOL     OW30082   3.909   4.370   8.107  0.1400 -0.6515  0.1462
 6150SOL    HW130083   3.819   4.340   8.120 -0.0005 -0.0927  0.4701
 6150SOL    HW230084   3.886   4.463   8.098  0.7941 -0.4310  0.7858
 6151SOL     OW30085   4.424   2.303  16.437  0.1561  0.3621 -0.7553
 6151SOL    HW130086   4.512   2.300  16.475  0.1856 -0.2868 -0.8714
 6151SOL    HW230087   4.451   2.307  16.345 -0.8996  2.1251 -0.9817
 6152SOL     OW30088   1.267   0.144   6.382 -0.2325  0.1220  0.2373
 6152SOL    HW130089   1.262   0.077   6.450  0.2500  0.4498  0.5934
 6152SOL    HW230090   1.175   0.164   6.363 -0.7266 -0.1829  2.3338
 6153SOL     OW30091   2.434   1.071   7.692  0.0789  0.2338  0.2141
 6153SOL    HW130092   2.415   0.981   7.717  1.5121 -0.4126 -0.9812
 6153SOL    HW230093   2.368   1.109   7.749  0.6094  0.8966  0.3931
 6154SOL     OW30094   1.320   3.660   7.715  0.0583  0.3410 -0.1595
 6154SOL    HW130095   1.282   3.691   7.797 -0.3321 -0.7176  0.0669
 6154SOL    HW230096   1.317   3.565   7.725 -0.0447  0.0941 -2.6322
 6155SOL     OW30097   2.580   2.645  13.800  0.1640 -0.3670  0.3137
 6155SOL    HW130098   2.615   2.598  13.724  2.0887  1.9404 -0.2352
 6155SOL    HW230099   2.497   2.672  13.760 -1.7547 -2.5176  2.8282
 6156SOL     OW30100   1.829   3.107   3.570 -0.4909 -0.4992  0.1796
 6156SOL    HW130101   1.907   3.070   3.528  0.8001  3.4825 -0.9612
 6156SOL    HW230102   1.801   3.025   3.611 -1.1439 -0.1773  0.3755
 6157SOL     OW30103   1.821   0.125   1.475  0.2189 -0.0177 -0.2834
 6157SOL    HW130104   1.845   0.073   1.398  0.0417 -0.9057  0.2659
 6157SOL    HW230105   1.877   0.091   1.544  0.3009  2.3471  0.8183
 6158SOL     OW30106   2.681   2.602   7.828 -0.3293  0.6515 -0.2159
 6158SOL    HW130107   2.732   2.594   7.747  0.4559 -0.4059  0.3769
 6158SOL    HW230108   2.732   2.551   7.891 -0.5950  0.8908  0.1963
 6159SOL     OW30109   0.632   2.933   9.618  0.0050  0.2650 -0.6787
 6159SOL    HW130110   0.597   2.935   9.529  1.7696 -1.4336 -1.4180
 6159SOL    HW230111   0.642   3.025   9.643 -0.3465  0.0271  0.3461
 6160SOL     OW30112   4.099   0.228   6.873 -0.3336 -0.1893  0.2511
 6160SOL    HW130113   4.193   0.245   6.884 -0.3061  0.8800 -1.5994
 6160SOL    HW230114   4.074   0.166   6.941 -4.1231  1.1365  0.0367
 6161SOL     OW30115   1.881   2.365  15.497 -0.1886  0.1984 -0.3044
 6161SOL    HW130116   1.956   2.383  15.441 -0.2615  2.9426  0.4479
 6161SOL    HW230117   1.831   2.447  15.503 -0.8455 -0.2955  1.1874
 6162SOL     OW30118   0.197   3.853   7.820  0.0300  0.2748  0.6463
 6162SOL    HW130119   0.251   3.928   7.798 -0.1714  0.2176 -0.0519
 6162SOL    HW230120   0.247   3.775   7.796  1.5096 -0.0789  4.8326
 6163SOL     OW30121   2.029   3.682   8.728 -0.2562  1.0062  0.1506
 6163SOL    HW130122   2.050   3.589   8.722 -3.7493  0.0980  1.9323
 6163SOL    HW230123   1.935   3.679   8.715 -0.2276 -0.9106  0.4428
 6164SOL     OW30124   2.892   3.006  13.669 -0.7323 -0.1450  0.3593
 6164SOL    HW130125   2.947   3.084  13.674 -0.4722 -0.2861 -0.2766
 6164SOL    HW230126   2.873   3.019  13.576  1.2660  0.6685  0.0703
 6165SOL     OW30127   2.299   0.735   4.081  0.0768  1.0660 -0.1484
 6165SOL    HW130128   2.367   0.669   4.090 -1.3145 -0.6574 -2.0869
 6165SOL    HW230129   2.340   0.806   4.129  0.6622 -0.1203  1.0942
 6166SOL     OW30130   0.954   2.415   9.560  0.3514 -0.8510  0.1535
 6166SOL    HW130131   0.991   2.500   9.583  1.1910 -1.1838  0.0369
 6166SOL    HW230132   0.925   2.429   9.470 -0.5587  0.2394  0.6117
 6167SOL     OW30133   2.543   3.500   6.889  0.1672 -0.3295  0.0514
 6167SOL    HW130134   2.494   3.437   6.836  0.4236  0.6074 -1.3068
 6167SOL    HW230135   2.596   3.441   6.943  0.7411 -0.5073 -0.7005
 6168SOL     OW30136   0.264   1.212   4.211  0.0823  0.1584 -0.2713
 6168SOL    HW130137   0.284   1.191   4.120 -0.6490  1.3701 -0.7099
 6168SOL    HW230138   0.170   1.222   4.199  0.1607  2.2068  0.7607
 6169SOL     OW30139   0.810   1.287   5.712 -0.5004 -0.4528  0.7222
 6169SOL    HW130140   0.813   1.193   5.699  0.5812 -0.4572  0.9455
 6169SOL    HW230141   0.874   1.302   5.781 -1.3021 -0.3804  1.4473
 6170SOL     OW30142   0.093   0.276  15.366 -0.4310 -0.2890 -0.0642
 6170SOL    HW130143   0.025   0.338  15.394 -0.6429 -1.0783  1.1455
 6170SOL    HW230144   0.170   0.302  15.416 -0.2598 -0.6641 -0.1340
 6171SOL     OW30145   4.015   2.781  16.444  0.4343  0.2908  0.3614
 6171SOL    HW130146   4.027   2.707  16.385 -0.5783  0.3895  0.0337
 6171SOL    HW230147   3.934   2.749  16.482  0.8345 -0.5441  0.5024
 6172SOL     OW30148   3.602   3.030  12.312  0.8854 -0.5731 -0.4533
 6172SOL    HW130149   3.649   3.078  12.244 -0.4075  1.2388 -0.0835
 6172SOL    HW230150   3.669   3.011  12.377 -0.2072 -2.3022  0.1463
 6173SOL     OW30151   1.324   0.911  15.217 -0.3900  0.4550  0.2426
 6173SOL    HW130152   1.305   1.005  15.212  1.8976  0.9310  0.5294
 6173SOL    HW230153   1.373   0.894  15.137 -1.9702  0.3010 -0.6925
 6174SOL     OW30154   1.877   4.132  16.155 -0.2000  0.0425  0.0997
 6174SOL    HW130155   1.786   4.104  16.160 -0.2456  0.6054  2.6498
 6174SOL    HW230156   1.917   4.047  16.137 -0.9197 -0.6863  1.9707
 6175SOL     OW30157   2.142   2.859   7.572  0.2606 -0.1020  0.1158
 6175SOL    HW130158   2.083   2.882   7.500  0.2582  1.2685  0.5568
 6175SOL    HW230159   2.162   2.770   7.541 -0.1602 -1.0984  2.7241
 6176SOL     OW30160   0.817   0.963  12.256  0.0015 -0.4600  0.3087
 6176SOL    HW130161   0.794   0.943  12.346 -0.9254 -1.0110 -0.0457
 6176SOL    HW230162   0.777   0.892  12.206  1.4924 -1.8479  1.0842
 6177SOL     OW30163   1.198   1.058  16.477  0.6644  0.3580 -0.1245
 6177SOL    HW130164   1.141   1.009  16.536  2.1052  0.5066  1.3925
 6177SOL    HW230165   1.274   1.074  16.533  0.1808 -0.2457  0.6952
 6178SOL     OW30166   3.486   3.749   3.366  0.4397  0.2044  0.2440
 6178SOL    HW130167   3.454   3.660   3.383 -1.1672  0.4613 -1.4518
 6178SOL    HW230168   3.521   3.726   3.279 -1.5628  0.6445 -0.6792
 6179SOL     OW30169   4.232   3.541   7.866  0.0667 -0.0976  0.2574
 6179SOL    HW130170   4.224   3.584   7.952  0.3644  0.1550  0.1577
 6179SOL    HW230171   4.310   3.486   7.876 -0.0741 -0.5197 -0.9793
 6180SOL     OW30172   1.974   1.234   5.327  0.4370 -0.0868 -0.1108
 6180SOL    HW130173   1.983   1.181   5.406  0.0021 -0.0327 -0.0277
 6180SOL    HW230174   1.960   1.321   5.364 -0.4193  0.6067 -2.0404
 6181SOL     OW30175   1.152   0.203   2.900  0.6101  0.4600 -0.2811
 6181SOL    HW130176   1.205   0.277   2.929  0.6614 -0.6394  2.4703
 6181SOL    HW230177   1.168   0.201   2.806 -1.0478 -1.9497 -0.5159
 6182SOL     OW30178   3.605   0.463   6.959 -0.7341 -0.0662 -0.3590
 6182SOL    HW130179   3.568   0.446   6.872 -0.7838 -1.2246 -0.1231
 6182SOL    HW230180   3.533   0.424   7.010 -0.8199  0.0683 -0.3785
 6183SOL     OW30181   2.915   2.003   2.036  0.1786  0.0870 -0.0680
 6183SOL    HW130182   2.900   2.076   1.977  1.8603  0.0320 -0.5836
 6183SOL    HW230183   2.834   1.981   2.081  0.1329 -1.2640 -0.8010
 6184SOL     OW30184   1.262   2.285   1.822 -0.0252 -0.2241 -0.3218
 6184SOL    HW130185   1.307   2.234   1.754 -1.8230 -1.2319 -0.7573
 6184SOL    HW230186   1.295   2.374   1.811 -1.4935  0.3169 -0.3729
 6185SOL     OW30187   0.851   2.497   0.118  0.3389 -0.3424  0.4252
 6185SOL    HW130188   0.945   2.506   0.100  0.5869  1.0998  2.5168
 6185SOL    HW230189   0.801   2.499   0.037 -1.1864  0.9962  1.4261
 6186SOL     OW30190   3.828   3.333  14.447  0.0591  0.8809  1.0574
 6186SOL    HW130191   3.823   3.282  14.367  0.2679  3.1334 -0.4003
 6186SOL    HW230192   3.741   3.371  14.460 -1.0866 -1.8289  1.1906
 6187SOL     OW30193   0.387   3.098   9.094 -0.0387  0.5219  0.4586
 6187SOL    HW130194   0.378   3.121   9.001 -1.0712  1.8076  0.8757
 6187SOL    HW230195   0.312   3.039   9.103  0.8314 -0.8305 -0.9551
 6188SOL     OW30196   3.596   1.029  11.898  0.2013  0.0883  0.1422
 6188SOL    HW130197   3.631   0.941  11.884 -0.5606 -0.4441  1.5801
 6188SOL    HW230198   3.608   1.064  11.810 -0.2867 -3.7297 -1.4401
 6189SOL     OW30199   0.637   3.752   3.994 -0.0903 -0.6118  0.0317
 6189SOL    HW130200   0.716   3.767   3.942  1.0261 -1.9598  1.3598
 6189SOL    HW230201   0.668   3.715   4.077  2.9025  0.1718 -0.7231
 6190SOL     OW30202   4.383   0.478   7.538  0.6336 -0.2320 -0.0181
 6190SOL    HW130203   4.365   0.445   7.450  0.5196  1.5541 -0.6794
 6190SOL    HW230204   4.394   0.395   7.584 -0.4618 -0.7675 -0.7309
 6191SOL     OW30205   1.147   0.477   5.766  0.2509 -0.4015 -0.2751
 6191SOL    HW130206   1.207   0.406   5.747 -1.3352 -2.1831  1.3512
 6191SOL    HW230207   1.166   0.538   5.694  1.0331 -0.1520  0.1421
 6192SOL     OW30208   2.582   3.884   0.697 -0.8409  0.0310  0.7809
 6192SOL    HW130209   2.613   3.864   0.609 -1.8259  0.1191  0.4193
 6192SOL    HW230210   2.537   3.964   0.671 -0.2740  0.0541 -0.1375
 6193SOL     OW30211   3.255   0.698   2.100  0.5943  0.6208 -0.0339
 6193SOL    HW130212   3.234   0.607   2.121  2.4969  0.0081 -0.7768
 6193SOL    HW230213   3.172   0.746   2.100 -0.2047 -0.7756 -1.0337
 6194SOL     OW30214   4.323   3.939   1.357  0.0786  0.4303 -0.1554
 6194SOL    HW130215   4.231   3.961   1.342  0.1722  0.0924 -1.1991
 6194SOL    HW230216   4.362   4.026   1.354 -0.2175  0.4742 -2.1957
 6195SOL     OW30217   1.481   2.736   9.483  0.1930 -0.7339  0.7093
 6195SOL    HW130218   1.424   2.664   9.454  1.0310 -0.9446 -0.4018
 6195SOL    HW230219   1.425   2.812   9.465  2.0907  0.4656 -0.1016
 6196SOL     OW30220   1.278   4.459   9.321 -0.1728  0.3558  0.0465
 6196SOL    HW130221   1.189   4.443   9.351 -0.6159 -0.0641 -1.4773
 6196SOL    HW230222   1.274   4.418   9.235  0.8183 -0.6190  0.4598
 6197SOL     OW30223   0.285   1.408   5.665 -0.2693 -0.7459 -0.2202
 6197SOL    HW130224   0.261   1.374   5.752  1.3115 -2.1302 -0.3082
 6197SOL    HW230225   0.378   1.421   5.682 -1.1356  3.0429  1.6078
 6198SOL     OW30226   4.344   0.730   1.683 -0.1886 -0.0445 -0.0681
 6198SOL    HW130227   4.316   0.790   1.752 -0.0350 -1.4140  1.2110
 6198SOL    HW230228   4.309   0.775   1.607  0.5611 -0.0079 -0.3938
 6199SOL     OW30229   1.981   2.482   2.495 -0.0270 -0.3656  0.0084
 6199SOL    HW130230   1.910   2.504   2.435  0.6303 -0.6205 -0.8668
 6199SOL    HW230231   2.040   2.556   2.481 -1.2608  0.4092 -0.9894
 6200SOL     OW30232   1.554   2.711  10.907 -0.5245  0.2134  0.0311
 6200SOL    HW130233   1.626   2.717  10.969 -1.2387 -0.3382  0.9215
 6200SOL    HW230234   1.478   2.757  10.942 -0.0498 -0.4907  2.0123
 6201SOL     OW30235   2.110   3.558   3.007 -1.1263  0.6010 -0.0909
 6201SOL    HW130236   2.193   3.587   2.970 -0.7298 -0.4179  0.0102
 6201SOL    HW230237   2.060   3.631   2.971 -3.6012 -0.8518  0.3661
 6202SOL     OW30238   2.312   4.408   6.615  0.2387 -0.6196 -0.1375
 6202SOL    HW130239   2.240   4.440   6.560 -0.3782  0.3936  1.2637
 6202SOL    HW230240   2.388   4.465   6.601 -0.7617  1.4028  2.6259
 6203SOL     OW30241   4.013   1.439   5.190 -0.4327 -0.3472  0.0221
 6203SOL    HW130242   4.068   1.469   5.117 -2.0659  1.0393 -0.6350
 6203SOL    HW230243   3.973   1.521   5.218 -1.0468 -0.6573  0.0505
 6204SOL     OW30244   2.715   3.478  17.358  0.2954 -0.3050 -0.4904
 6204SOL    HW130245   2.628   3.503  17.325 -0.0280 -0.4995  0.2205
 6204SOL    HW230246   2.691   3.443  17.444 -2.0129 -0.4973 -1.2012
 6205SOL     OW30247   4.174   1.461   6.284  0.0399 -0.4430  0.0814
 6205SOL    HW130248   4.101   1.428   6.232  0.8416 -0.4469 -1.0339
 6205SOL    HW230249   4.231   1.500   6.218  0.8864 -0.8751  0.5502
 6206SOL     OW30250   0.460   2.921   6.668 -0.4198  0.6817 -0.4267
 6206SOL    HW130251   0.378   2.942   6.714 -0.7392 -2.2232  0.3219
 6206SOL    HW230252   0.482   3.004   6.625  0.1272  0.9977  0.4613
 6207SOL     OW30253   3.483   4.052   8.417 -0.2831 -0.7232 -0.0511
 6207SOL    HW130254   3.574   4.055   8.447 -0.3242 -0.8247  0.0841
 6207SOL    HW230255   3.495   3.974   8.364  1.7258 -0.5815  0.1831
 6208SOL     OW30256   4.396   0.384   6.741  1.0889  0.4744  0.4417
 6208SOL    HW130257   4.353   0.346   6.665  0.2712 -1.5215  1.8691
 6208SOL    HW230258   4.390   0.310   6.802 -2.4169  0.2504 -0.1326
 6209SOL     OW30259   1.045   1.282   5.262 -0.3006  0.2640 -0.3995
 6209SOL    HW130260   1.094   1.201   5.274 -0.4392  0.2177 -0.1498
 6209SOL    HW230261   1.053   1.314   5.352  0.4760  2.4122 -1.2348
 6210SOL     OW30262   0.894   4.424   8.528  0.3497 -0.0290  0.2419
 6210SOL    HW130263   0.809   4.430   8.571  0.1980 -0.5100  0.0133
 6210SOL    HW230264   0.870   4.382   8.445 -1.7485 -1.1515  1.4236
 6211SOL     OW30265   4.256   1.567   8.956  0.1047  0.3623  0.6054
 6211SOL    HW130266   4.326   1.626   8.983 -0.1990  0.9201  0.1864
 6211SOL    HW230267   4.235   1.598   8.868 -1.4858 -0.3463  0.7451
 6212SOL     OW30268   0.664   2.919   2.199  0.2886  0.6205  0.0068
 6212SOL    HW130269   0.641   2.906   2.291 -0.4029  0.9535 -0.1188
 6212SOL    HW230270   0.641   2.836   2.159  1.4446  0.8627 -1.1463
 6213SOL     OW30271   0.219   0.189   7.649 -0.0812  0.1576  0.4493
 6213SOL    HW130272   0.183   0.116   7.599 -2.0991  2.7457 -1.9790
 6213SOL    HW230273   0.204   0.262   7.588 -2.8217 -2.2591 -1.7902
 6214SOL     OW30274   0.977   3.626   7.649 -0.2613 -0.1101 -0.1362
 6214SOL    HW130275   0.934   3.571   7.583 -1.3210 -0.5201  0.9089
 6214SOL    HW230276   0.973   3.584   7.734  2.0754 -1.1236 -0.5467
 6215SOL     OW30277   2.547   1.831   9.768  0.6361 -0.1891  1.0116
 6215SOL    HW130278   2.629   1.800   9.729 -0.5735 -1.0690 -0.8327
 6215SOL    HW230279   2.490   1.782   9.708 -0.1097  1.2516  0.5398
 6216SOL     OW30280   3.319   3.367   2.466 -0.4517 -0.6715  0.5142
 6216SOL    HW130281   3.385   3.308   2.429  0.0053  0.4562 -0.4983
 6216SOL    HW230282   3.249   3.374   2.401  0.3003  0.9251 -0.1333
 6217SOL     OW30283   1.576   2.309   9.203 -0.1342  0.6153  0.7464
 6217SOL    HW130284   1.554   2.234   9.260 -0.5994 -0.8115 -1.3112
 6217SOL    HW230285   1.495   2.313   9.153 -0.2080 -0.8883  0.7495
 6218SOL     OW30286   0.328   0.601   6.296 -0.2436  0.4743 -0.4184
 6218SOL    HW130287   0.421   0.585   6.276  0.7277  2.5509  2.5121
 6218SOL    HW230288   0.287   0.553   6.224 -0.5746  1.4897 -0.9054
 6219SOL     OW30289   2.785   3.680   4.640 -0.1248  0.3984  0.4773
 6219SOL    HW130290   2.751   3.673   4.729  0.9344 -1.0402  0.7694
 6219SOL    HW230291   2.706   3.685   4.586 -1.0098  0.0461  1.7673
 6220SOL     OW30292   4.099   1.249   9.121  0.3716  0.1599  0.5091
 6220SOL    HW130293   4.055   1.246   9.206 -0.3096  0.2199  0.1621
 6220SOL    HW230294   4.169   1.308   9.146 -0.1620  0.6652  0.8198
 6221SOL     OW30295   1.310   0.551   8.653 -0.1620  0.1034 -0.1010
 6221SOL    HW130296   1.359   0.594   8.583  0.3507 -0.1835  0.0772
 6221SOL    HW230297   1.281   0.469   8.614  1.4586 -0.0938 -0.9018
 6222SOL     OW30298   3.363   4.069   8.943 -0.0545  0.0728  0.1593
 6222SOL    HW130299   3.458   4.069   8.931 -0.1349 -0.1514 -0.5105
 6222SOL    HW230300   3.365   4.067   9.038  2.6864  4.5776  0.1601
 6223SOL     OW30301   0.615   3.877   8.667  0.2563 -0.0417 -0.6808
 6223SOL    HW130302   0.542   3.890   8.607 -1.6101 -1.4647  1.2534
 6223SOL    HW230303   0.687   3.867   8.606 -0.4261 -1.6400 -1.2315
 6224SOL     OW30304   1.009   4.469   2.786  0.3200  0.4142  0.0361
 6224SOL    HW130305   0.965   4.536   2.735 -1.6162  1.3953  2.9994
 6224SOL    HW230306   1.056   4.525   2.848 -0.4329  0.3547  0.6588
 6225SOL     OW30307   3.504   3.055   7.035 -0.2762 -0.2388 -0.3464
 6225SOL    HW130308   3.504   3.149   7.053 -2.5754  0.3229 -3.3966
 6225SOL    HW230309   3.493   3.061   6.940 -0.7119  0.2990 -0.2634
 6226SOL     OW30310   2.500   3.135   2.090  0.0172 -0.3554  0.2058
 6226SOL    HW130311   2.515   3.229   2.088  1.2968 -0.5273  2.0874
 6226SOL    HW230312   2.447   3.117   2.013 -2.8354 -2.4068  2.6787
 6227SOL     OW30313   3.171   1.029   2.601  0.1634  0.2474 -0.2077
 6227SOL    HW130314   3.224   0.949   2.591 -0.1238 -0.1141  1.1066
 6227SOL    HW230315   3.086   1.012   2.561  0.5833 -1.9833 -0.1628
 6228SOL     OW30316   0.459   3.697   7.003 -0.4008  0.0705  0.2177
 6228SOL    HW130317   0.410   3.654   6.933  0.5731 -0.6646 -0.0213
 6228SOL    HW230318   0.522   3.625   7.011 -0.3332  0.2036  0.8171
 6229SOL     OW30319   3.781   2.531   2.170  0.1877 -0.4233 -0.2912
 6229SOL    HW130320   3.814   2.620   2.160  2.0103 -0.9720  0.8281
 6229SOL    HW230321   3.715   2.562   2.233  1.9735  1.1976  0.7958
 6230SOL     OW30322   2.668   3.114   7.660  0.3658 -0.2872 -0.3198
 6230SOL    HW130323   2.583   3.134   7.700  0.4051  1.1519 -0.9399
 6230SOL    HW230324   2.679   3.196   7.612  1.9932 -0.9152 -0.9871
 6231SOL     OW30325   3.116   1.580  12.459  0.4726 -0.0105  0.1369
 6231SOL    HW130326   3.177   1.636  12.412  0.3131 -0.3342 -0.4620
 6231SOL    HW230327   3.081   1.641  12.524 -0.8567  0.9535 -1.4882
 6232SOL     OW30328   0.213   4.009   7.050  0.0923 -0.4954  0.1795
 6232SOL    HW130329   0.205   4.052   6.965  0.4224  0.6816  0.7406
 6232SOL    HW230330   0.307   3.989   7.052 -0.6462 -4.0015  0.5008
 6233SOL     OW30331   2.658   2.557  12.529  0.1715  0.4877 -0.2774
 6233SOL    HW130332   2.732   2.501  12.553  2.1836  3.2956  0.0261
 6233SOL    HW230333   2.713   2.610  12.472 -1.0875  0.6083 -1.3795
 6234SOL     OW30334   1.760   3.575   4.103  0.0804 -0.5162  0.0736
 6234SOL    HW130335   1.726   3.504   4.048 -2.0059  1.9724 -1.8454
 6234SOL    HW230336   1.840   3.592   4.054 -0.0580 -0.0307  0.0158
 6235SOL     OW30337   2.690   4.185   6.109  0.3485 -0.0351 -0.7408
 6235SOL    HW130338   2.751   4.113   6.094 -0.9771 -1.6161  1.5011
 6235SOL    HW230339   2.711   4.209   6.199  0.2706  1.3537 -1.0986
 6236SOL     OW30340   3.472   4.405   4.733  0.3979 -0.0921  0.1661
 6236SOL    HW130341   3.382   4.423   4.707 -0.0802 -1.3398  0.9443
 6236SOL    HW230342   3.494   4.372   4.646 -0.3391 -2.3934  0.8620
 6237SOL     OW30343   2.967   3.252   8.019 -0.8105 -0.2811  0.4476
 6237SOL    HW130344   2.912   3.216   7.949  0.6170 -1.1444 -0.2536
 6237SOL    HW230345   3.031   3.307   7.973 -1.9393 -1.1121 -2.1105
 6238SOL     OW30346   3.635   1.427  10.180 -0.3297 -0.1181 -0.0361
 6238SOL    HW130347   3.637   1.505  10.236  1.1321  0.9224 -1.5499
 6238SOL    HW230348   3.627   1.366  10.253 -0.3695 -0.9757 -0.7667
 6239SOL     OW30349   3.410   4.472   1.982  0.3904 -0.7032 -0.3110
 6239SOL    HW130350   3.465   4.550   1.973 -0.9855  0.6070  2.7862
 6239SOL    HW230351   3.457   4.418   1.917  1.2120 -1.1773  0.6814
 6240SOL     OW30352   3.756   0.616   1.688 -0.0251 -0.2278 -0.2255
 6240SOL    HW130353   3.843   0.579   1.674  0.5118  0.5248  1.1049
 6240SOL    HW230354   3.740   0.666   1.608 -1.1976  1.6453  1.1720
 6241SOL     OW30355   2.085   4.061   3.775  0.4177 -0.1772  0.4689
 6241SOL    HW130356   2.092   3.973   3.738  0.2386 -0.7405  1.7934
 6241SOL    HW230357   2.120   4.054   3.863 -0.0358 -0.4194  0.6328
 6242SOL     OW30358   0.349   1.291   6.745  0.0048 -0.4222 -0.1431
 6242SOL    HW130359   0.364   1.199   6.723  2.4093 -0.2658  0.8535
 6242SOL    HW230360   0.297   1.323   6.672 -3.5070 -0.1435  2.4355
 6243SOL     OW30361   2.532   0.621   4.770 -0.0310  0.1050 -0.2885
 6243SOL    HW130362   2.442   0.588   4.776  0.7135 -1.8280  0.0920
 6243SOL    HW230363   2.581   0.540   4.781  0.8113  0.6867  0.2487
 6244SOL     OW30364   1.301   1.832  12.225  0.2585  0.1077  0.1256
 6244SOL    HW130365   1.277   1.915  12.184  3.6448  1.9764  1.9194
 6244SOL    HW230366   1.375   1.862  12.277  0.6242 -0.3225 -0.1483
 6245SOL     OW30367   0.473   3.161   6.534 -0.1728 -0.0512  0.0939
 6245SOL    HW130368   0.531   3.234   6.512  0.0189 -0.8874 -2.1846
 6245SOL    HW230369   0.390   3.205   6.517  0.0842  0.7189  0.8359
 6246SOL     OW30370   2.622   0.880   8.678 -1.3195 -0.1368  0.0809
 6246SOL    HW130371   2.527   0.894   8.673 -1.1830  0.7522 -0.1183
 6246SOL    HW230372   2.609   0.823   8.753 -0.0379 -0.1267  0.3038
 6247SOL     OW30373   3.653   2.252   3.722 -0.0744 -0.4401 -0.1720
 6247SOL    HW130374   3.569   2.226   3.759 -0.0019  0.5588  0.7223
 6247SOL    HW230375   3.685   2.181   3.667 -0.2851 -0.8558  0.2392
 6248SOL     OW30376   1.558   0.941  15.421 -0.6239 -0.7665 -0.1936
 6248SOL    HW130377   1.619   0.921  15.350 -0.5515  0.0585 -0.3758
 6248SOL    HW230378   1.562   1.037  15.423 -0.7404 -0.7906  1.2271
 6249SOL     OW30379   4.106   4.719   7.033 -0.0585  0.0107 -0.2729
 6249SOL    HW130380   4.117   4.648   6.969  0.6747 -0.7566  0.7020
 6249SOL    HW230381   4.185   4.715   7.087  0.1124 -0.4645 -0.5528
 6250SOL     OW30382   0.733   4.090   7.072 -0.6821 -0.3207  0.4125
 6250SOL    HW130383   0.817   4.102   7.028 -1.0712  1.2518  0.1135
 6250SOL    HW230384   0.759   4.030   7.142 -2.4904 -2.0448 -0.4068
 6251SOL     OW30385   3.575   1.903   8.111 -0.1191  0.0759  0.4985
 6251SOL    HW130386   3.634   1.895   8.036 -2.3733 -0.7006 -1.1923
 6251SOL    HW230387   3.581   1.996   8.130  0.3833  0.3193 -0.8430
 6252SOL     OW30388   1.008   3.578  12.219 -0.2542 -0.6981  0.3311
 6252SOL    HW130389   0.982   3.625  12.139  0.7737  0.6639  0.7967
 6252SOL    HW230390   0.933   3.592  12.277 -0.1781 -1.2645  0.5644
 6253SOL     OW30391   3.233   1.550   3.144  0.1815  0.1425  0.4654
 6253SOL    HW130392   3.262   1.596   3.065  1.3010 -2.7234 -0.8277
 6253SOL    HW230393   3.187   1.474   3.107 -0.5848  1.9252 -2.2442
 6254SOL     OW30394   2.362   2.428   8.109 -0.1324  0.2612 -0.3299
 6254SOL    HW130395   2.397   2.485   8.178 -0.9885  0.5963 -0.1588
 6254SOL    HW230396   2.435   2.427   8.048 -1.0780 -0.5711 -1.4208
 6255SOL     OW30397   0.682   4.007   3.688  0.2756  0.2940 -0.4219
 6255SOL    HW130398   0.696   4.050   3.773 -2.7021 -2.5982  1.5216
 6255SOL    HW230399   0.767   4.018   3.646 -0.6283  0.3376 -2.2261
 6256SOL     OW30400   2.091   4.696   3.310  0.0721  0.7413 -0.3382
 6256SOL    HW130401   2.093   0.048   3.269  2.7034  1.0542  0.4178
 6256SOL    HW230402   2.089   4.635   3.236 -1.5481 -1.1877  1.3090
 6257SOL     OW30403   0.335   3.834   5.843 -0.3917 -0.2184  0.2431
 6257SOL    HW130404   0.248   3.845   5.805  0.0366 -1.6699 -1.1398
 6257SOL    HW230405   0.385   3.823   5.762  1.2524 -0.6395  1.3056
 6258SOL     OW30406   0.341   4.311   7.258  0.1515 -0.5690 -0.2741
 6258SOL    HW130407   0.413   4.249   7.262  0.1667 -0.6106 -1.2591
 6258SOL    HW230408   0.379   4.393   7.227 -1.9459  0.4194 -0.2307
 6259SOL     OW30409   3.936   2.108  12.376  0.0506 -0.0785 -0.4581
 6259SOL    HW130410   3.855   2.159  12.380  0.4665  0.6186 -0.7582
 6259SOL    HW230411   3.969   2.126  12.288 -0.3303  1.2018 -0.3499
 6260SOL     OW30412   3.163   2.608  11.361 -0.2669  0.7661 -1.1823
 6260SOL    HW130413   3.240   2.552  11.356 -1.0455 -0.3705 -0.4571
 6260SOL    HW230414   3.206   2.688  11.391  0.4769 -0.1285  0.1481
 6261SOL     OW30415   4.097   1.119   7.121 -0.3063 -0.4260  0.3186
 6261SOL    HW130416   4.053   1.036   7.142  0.7798 -0.5516  2.0737
 6261SOL    HW230417   4.094   1.163   7.205  1.2264 -0.9441  0.6480
 6262SOL     OW30418   2.768   3.659  11.543 -0.3703  0.3154 -0.0001
 6262SOL    HW130419   2.692   3.622  11.590  0.8937 -2.0539  0.1676
 6262SOL    HW230420   2.794   3.725  11.607  3.3807 -1.4746  0.3085
 6263SOL     OW30421   2.767   1.425   3.446 -0.2812  0.0972  0.2123
 6263SOL    HW130422   2.707   1.354   3.471  0.8982  0.3600  3.7927
 6263SOL    HW230423   2.853   1.382   3.454  0.5424  1.5268 -1.1827
 6264SOL     OW30424   1.284   3.483   5.209 -0.3633  0.1701  0.6458
 6264SOL    HW130425   1.338   3.411   5.241  0.7013  0.9137  0.5737
 6264SOL    HW230426   1.236   3.447   5.135  1.0090  0.6263 -0.4847
 6265SOL     OW30427   1.997   1.296  10.163 -0.4678 -0.2114  0.3254
 6265SOL    HW130428   1.916   1.249  10.143 -0.7992 -0.7609  2.9787
 6265SOL    HW230429   2.004   1.325  10.072 -0.2664  0.6370  0.6116
 6266SOL     OW30430   1.324   0.520   7.849 -0.1315 -0.2043 -0.1832
 6266SOL    HW130431   1.264   0.449   7.869 -0.0668 -0.4735 -0.9287
 6266SOL    HW230432   1.345   0.508   7.756 -1.4338  2.0149 -0.7652
 6267SOL     OW30433   3.647   2.743   4.779  0.1809 -0.0651  0.3950
 6267SOL    HW130434   3.571   2.684   4.775  0.5740 -0.6274  1.3455
 6267SOL    HW230435   3.622   2.812   4.841  0.2422 -0.5923  1.0066
 6268SOL     OW30436   3.576   3.066   4.046 -0.8173  0.0208  0.0358
 6268SOL    HW130437   3.532   3.111   3.974 -0.4734 -0.6606 -0.6062
 6268SOL    HW230438   3.617   2.997   3.994 -0.2076  1.7063 -1.7156
 6269SOL     OW30439   1.742   3.866   2.746  0.4498  0.0937 -0.1314
 6269SOL    HW130440   1.725   3.818   2.827  1.3399  1.0819  0.6405
 6269SOL    HW230441   1.684   3.824   2.683  0.0588 -1.4319  1.2622
 6270SOL     OW30442   3.907   1.917  17.339  0.3097 -0.0191  0.0043
 6270SOL    HW130443   3.868   1.992  17.384 -0.6564  0.6474 -1.9315
 6270SOL    HW230444   3.830   1.886  17.290 -0.1013  1.6388 -0.3941
 6271SOL     OW30445   2.195   0.029   8.294  0.5569  0.0302 -0.1444
 6271SOL    HW130446   2.221   0.106   8.244 -1.6960  0.9461  0.1188
 6271SOL    HW230447   2.208   4.694   8.231 -0.4489  0.0983 -0.4162
 6272SOL     OW30448   2.714   2.558   2.857 -0.2831  0.4628 -0.1097
 6272SOL    HW130449   2.791   2.538   2.803  0.6076 -3.4827  2.6649
 6272SOL    HW230450   2.678   2.470   2.849 -0.7957  0.9392 -2.9817
 6273SOL     OW30451   2.678   2.380   1.339 -0.0440 -0.2393  0.2663
 6273SOL    HW130452   2.583   2.376   1.342 -0.0330 -0.8789 -0.1274
 6273SOL    HW230453   2.703   2.308   1.397  0.6323 -0.7924 -0.7121
 6274SOL     OW30454   3.969   1.176   3.361 -0.0589  0.3647  0.2616
 6274SOL    HW130455   3.896   1.182   3.423 -1.0921  2.7862 -1.2146
 6274SOL    HW230456   3.979   1.083   3.342  2.3993  0.3019  1.8570
 6275SOL     OW30457   2.478   4.387   7.772  0.3525 -0.1304 -0.0013
 6275SOL    HW130458   2.416   4.330   7.817  0.5364  0.6639  1.2799
 6275SOL    HW230459   2.508   4.434   7.851  1.8564  0.2447 -0.7958
 6276SOL     OW30460   0.390   4.156   8.892  0.5966  0.8615  0.3082
 6276SOL    HW130461   0.461   4.097   8.916  0.4309  0.8927  0.8694
 6276SOL    HW230462   0.410   4.226   8.953 -1.0203  0.6910  1.0321
 6277SOL     OW30463   0.760   3.429   4.378  0.2498  0.1606  0.2677
 6277SOL    HW130464   0.851   3.418   4.349 -0.1658 -0.8176 -0.6349
 6277SOL    HW230465   0.749   3.342   4.417  0.9592 -0.4983 -1.0002
 6278SOL     OW30466   1.390   2.078   6.911  0.7957 -0.1125 -0.0591
 6278SOL    HW130467   1.353   1.990   6.917  0.1887  0.1268 -0.3682
 6278SOL    HW230468   1.375   2.098   6.818  2.0967  1.2793  0.0224
 6279SOL     OW30469   1.676   3.583   4.486 -0.2267 -0.3500  0.0839
 6279SOL    HW130470   1.682   3.674   4.516  2.2696 -0.1668 -0.9662
 6279SOL    HW230471   1.761   3.587   4.442  0.5610 -1.1052  1.5283
 6280SOL     OW30472   4.650   3.475   4.212  0.1253  0.0822  0.1310
 6280SOL    HW130473   4.638   3.396   4.158  0.8854  0.9825 -1.3307
 6280SOL    HW230474   4.714   3.525   4.162 -0.1914  0.7511  0.3967
 6281SOL     OW30475   2.910   0.169   8.838  0.4804  0.5362 -0.1565
 6281SOL    HW130476   2.822   0.142   8.812 -0.6935  0.2967  4.1106
 6281SOL    HW230477   2.907   0.246   8.782  1.5171  0.4766 -0.3035
 6282SOL     OW30478   4.681   1.873  17.055 -0.4694  0.5530  0.1291
 6282SOL    HW130479   4.648   1.870  17.145  0.6721  0.0748  0.5287
 6282SOL    HW230480   4.724   1.958  17.056  0.8124 -0.1070  3.5302
 6283SOL     OW30481   0.398   2.031  13.144  0.1492  0.2774  0.1250
 6283SOL    HW130482   0.475   2.066  13.191 -0.6380  0.1151  1.5274
 6283SOL    HW230483   0.446   1.976  13.083 -1.3974 -1.2622  0.3184
 6284SOL     OW30484   3.545   4.553  15.660  0.3251  0.0037  0.9835
 6284SOL    HW130485   3.567   4.555  15.567  2.1924 -2.3096  1.3741
 6284SOL    HW230486   3.470   4.495  15.649  2.0880 -2.1897  0.5610
 6285SOL     OW30487   0.908   2.917   3.109  0.0749 -0.4293 -0.2890
 6285SOL    HW130488   0.955   2.961   3.180  1.1965  0.9658 -1.8726
 6285SOL    HW230489   0.971   2.916   3.036 -1.1833  0.5876 -1.3913
 6286SOL     OW30490   3.053   2.921  13.897  0.0433 -0.6116  0.5040
 6286SOL    HW130491   3.079   2.870  13.821 -1.7476  1.1099 -1.2653
 6286SOL    HW230492   2.986   2.860  13.927  0.8094 -0.7701  1.8970
 6287SOL     OW30493   2.975   3.611  16.524  0.4612  1.1707  0.6001
 6287SOL    HW130494   3.022   3.577  16.447 -0.0725 -0.1139  0.8296
 6287SOL    HW230495   2.944   3.527  16.558 -2.5744  1.6741 -0.8953
 6288SOL     OW30496   0.834   3.210  10.276 -0.4858 -0.3767  0.3431
 6288SOL    HW130497   0.851   3.145  10.344 -0.6229 -0.8559 -0.0723
 6288SOL    HW230498   0.908   3.269  10.288 -0.7771 -0.0126  0.3512
 6289SOL     OW30499   4.400   0.231   9.270  0.5503 -0.3619 -0.4181
 6289SOL    HW130500   4.323   0.261   9.319  0.6418 -2.7083  1.1858
 6289SOL    HW230501   4.367   0.146   9.242  0.5569 -0.5125  0.0216
 6290SOL     OW30502   3.838   3.434  11.981  0.0469  0.1064  0.3205
 6290SOL    HW130503   3.878   3.432  11.894  1.4373  2.2549  0.9292
 6290SOL    HW230504   3.748   3.421  11.949  0.5416 -0.9931 -0.6320
 6291SOL     OW30505   4.495   0.093   4.536  0.0738 -0.0711  0.8955
 6291SOL    HW130506   4.464   0.151   4.606 -1.1761 -0.5797  0.7615
 6291SOL    HW230507   4.587   0.119   4.543 -0.8899  2.8600  2.2722
 6292SOL     OW30508   4.596   1.226   8.103 -0.2040 -0.3758 -0.1365
 6292SOL    HW130509   4.619   1.278   8.027  1.9066 -1.1081 -0.0018
 6292SOL    HW230510   4.617   1.287   8.173  1.6142  0.9979 -1.9042
 6293SOL     OW30511   2.848   3.346  13.995 -0.4190  0.2912  0.3973
 6293SOL    HW130512   2.855   3.421  14.054  1.0555  0.4238  0.0459
 6293SOL    HW230513   2.933   3.305  13.981  0.2002  1.5224  0.5570
 6294SOL     OW30514   4.732   4.599   9.239 -0.0541  0.2567 -0.0360
 6294SOL    HW130515   0.037   4.545   9.307 -0.3954  0.9830  0.7464
 6294SOL    HW230516   4.652   4.634   9.278  1.1136  1.7891  0.9384
 6295SOL     OW30517   1.893   4.008   7.368 -0.2074  0.6972 -0.4092
 6295SOL    HW130518   1.839   3.953   7.311  1.2006  0.5457 -1.6034
 6295SOL    HW230519   1.843   4.090   7.368  1.2281  1.5857  0.4257
 6296SOL     OW30520   4.222   0.877   2.315  0.3029 -0.5362  0.1027
 6296SOL    HW130521   4.248   0.827   2.238 -0.3976  2.2238 -1.9232
 6296SOL    HW230522   4.167   0.815   2.363  0.8787 -1.4918 -0.4613
 6297SOL     OW30523   1.572   1.201  10.035 -0.0639  0.3684 -0.3657
 6297SOL    HW130524   1.620   1.271  10.077  2.6952 -1.9163  0.2776
 6297SOL    HW230525   1.604   1.195   9.945 -1.7603  0.2298 -0.9642
 6298SOL     OW30526   3.419   1.576   9.393  0.2179 -0.3377 -0.5086
 6298SOL    HW130527   3.337   1.540   9.428 -0.7775  2.6796  0.2138
 6298SOL    HW230528   3.418   1.651   9.452 -0.3038  0.1307 -1.1137
 6299SOL     OW30529   2.624   1.018   4.119  0.4830  0.2690  0.0721
 6299SOL    HW130530   2.647   1.107   4.143  1.0528 -0.1394  1.0316
 6299SOL    HW230531   2.546   0.993   4.169 -0.0098  2.4650  0.3950
 6300SOL     OW30532   3.070   3.842   4.350 -0.0403 -0.1818  0.5198
 6300SOL    HW130533   3.103   3.752   4.359  0.7074  0.1677  1.2635
 6300SOL    HW230534   3.093   3.873   4.438 -0.8879 -0.6198  0.8980
 6301SOL     OW30535   2.582   0.791   4.978  0.2997 -0.2522  0.0899
 6301SOL    HW130536   2.544   0.758   4.896 -0.9528  0.9092  0.1963
 6301SOL    HW230537   2.506   0.815   5.031  1.3990 -0.8798  1.9298
 6302SOL     OW30538   4.490   2.477  11.861 -0.0636 -0.0100  0.2924
 6302SOL    HW130539   4.574   2.482  11.907  0.2377 -0.4562 -0.2153
 6302SOL    HW230540   4.438   2.520  11.929  1.7001 -0.1875  1.7788
 6303SOL     OW30541   1.550   0.328   5.961 -0.4920 -0.1398  0.5156
 6303SOL    HW130542   1.537   0.307   6.054  0.4932  1.8810  1.1048
 6303SOL    HW230543   1.460   0.328   5.929 -0.3774  2.2546  0.2277
 6304SOL     OW30544   2.365   4.641   8.503  0.5760  0.1688  0.6600
 6304SOL    HW130545   2.294   4.651   8.439 -1.1415 -0.3734  2.4752
 6304SOL    HW230546   2.403   4.728   8.501 -0.3760  0.5388 -1.7554
 6305SOL     OW30547   2.329   0.680   8.517  0.0136  0.2153  0.2186
 6305SOL    HW130548   2.254   0.629   8.486  0.3204  0.4675 -0.9053
 6305SOL    HW230549   2.394   0.614   8.539 -0.1662 -0.6163 -1.8258
 6306SOL     OW30550   4.719   2.009   4.954  0.2509 -0.1171  0.7472
 6306SOL    HW130551   0.005   2.046   4.868 -0.6294  1.0987  1.0445
 6306SOL    HW230552   4.715   1.915   4.938  0.0878  0.8870 -5.2671
 6307SOL     OW30553   1.318   1.642   5.792 -0.0627  0.7171 -0.2841
 6307SOL    HW130554   1.242   1.698   5.813 -0.6267  0.1118 -0.7102
 6307SOL    HW230555   1.381   1.713   5.784  0.0527  0.8799  2.1453
 6308SOL     OW30556   3.736   4.423   1.652 -0.5036 -0.1641  0.1056
 6308SOL    HW130557   3.804   4.391   1.711 -0.6266 -1.0219 -0.2202
 6308SOL    HW230558   3.764   4.515   1.646 -1.7721  0.0621 -2.4632
 6309SOL     OW30559   0.372   0.027  12.630  0.1791 -0.4674 -0.7866
 6309SOL    HW130560   0.466   0.013  12.641  0.4709  0.8598 -1.5845
 6309SOL    HW230561   0.374   0.123  12.633  0.4219 -0.4886 -0.3381
 6310SOL     OW30562   4.734   0.599   2.664 -0.0754 -0.4458  0.1137
 6310SOL    HW130563   0.022   0.598   2.571  1.1645 -0.1629  0.4166
 6310SOL    HW230564   0.059   0.536   2.703 -0.5065  0.3945  2.1251
 6311SOL     OW30565   3.035   2.732   1.765  0.3049 -0.5317  0.5608
 6311SOL    HW130566   3.074   2.712   1.850  2.3774 -0.1793 -0.3242
 6311SOL    HW230567   3.069   2.662   1.709  1.4502 -0.1938  0.8307
 6312SOL     OW30568   0.679   4.466   5.808  0.0633  0.2174 -0.2641
 6312SOL    HW130569   0.605   4.405   5.805  1.2445 -1.2496  0.5533
 6312SOL    HW230570   0.727   4.431   5.734  1.1510 -2.0869  1.5406
 6313SOL     OW30571   2.198   1.502   2.686 -0.0920 -0.1843  0.3034
 6313SOL    HW130572   2.161   1.448   2.756 -0.6335 -2.3664 -1.6732
 6313SOL    HW230573   2.230   1.576   2.738  1.5003 -0.3781 -0.3985
 6314SOL     OW30574   1.364   3.470   6.107  0.0618 -0.3600 -0.2347
 6314SOL    HW130575   1.313   3.487   6.027 -2.3809 -0.8295  1.2179
 6314SOL    HW230576   1.357   3.555   6.151 -1.7679 -0.2806 -0.6660
 6315SOL     OW30577   1.001   3.251   0.927 -0.1823 -0.0418  0.4703
 6315SOL    HW130578   0.909   3.222   0.928 -0.4585  0.9118  1.6653
 6315SOL    HW230579   1.003   3.301   1.008  3.1459 -0.5688  0.7011
 6316SOL     OW30580   1.512   0.202   7.202 -0.6772  0.0078 -0.0515
 6316SOL    HW130581   1.550   0.204   7.114 -1.3164  1.3791 -0.2937
 6316SOL    HW230582   1.435   0.150   7.180 -0.0901 -0.7623 -0.2841
 6317SOL     OW30583   3.417   0.223   2.378 -0.1101 -0.6252  0.3074
 6317SOL    HW130584   3.422   0.130   2.396 -3.1632 -1.1512 -1.6184
 6317SOL    HW230585   3.509   0.240   2.397  0.1500 -0.0523 -1.4403
 6318SOL     OW30586   2.784   2.296   3.824 -0.1795 -0.3973 -0.6932
 6318SOL    HW130587   2.751   2.260   3.906 -1.0014 -2.1341 -1.7817
 6318SOL    HW230588   2.704   2.310   3.774 -0.2218  0.2111 -0.4524
 6319SOL     OW30589   0.005   2.061   4.688 -0.1988  0.3344  0.4597
 6319SOL    HW130590   4.686   2.080   4.610  0.3029 -1.6437 -0.3568
 6319SOL    HW230591   0.094   2.054   4.655 -0.1388  4.1608 -0.1939
 6320SOL     OW30592   0.509   0.666   4.262 -0.6401  0.2708 -0.2756
 6320SOL    HW130593   0.590   0.648   4.310  0.0482 -0.3977 -1.7022
 6320SOL    HW230594   0.523   0.758   4.237  2.8386  0.3552  1.9843
 6321SOL     OW30595   4.246   1.470   2.988 -0.6384 -0.0108 -0.2223
 6321SOL    HW130596   4.302   1.508   3.056  0.7402 -1.7012 -0.4134
 6321SOL    HW230597   4.167   1.467   3.043 -1.1593  0.7725 -0.9170
 6322SOL     OW30598   4.281   1.172   7.529 -0.6999 -0.1274 -0.1830
 6322SOL    HW130599   4.258   1.209   7.614  2.6491  3.9547 -1.0702
 6322SOL    HW230600   4.376   1.175   7.528 -0.7919  3.7322  1.4203
 6323SOL     OW30601   3.877   0.449  16.364 -0.0064  0.0711  0.0370
 6323SOL    HW130602   3.800   0.419  16.315  0.4992  0.8253 -1.1993
 6323SOL    HW230603   3.945   0.410  16.309  0.1782  0.6869 -0.1725
 6324SOL     OW30604   0.653   4.489   8.402 -0.6015  0.2228 -0.2810
 6324SOL    HW130605   0.579   4.439   8.368 -1.2726 -0.0874  1.6221
 6324SOL    HW230606   0.717   4.482   8.331 -0.6802  0.0052 -0.3303
 6325SOL     OW30607   2.254   1.243   0.126  0.6287  0.1371 -0.1802
 6325SOL    HW130608   2.180   1.286   0.084  1.0043 -0.2087 -1.2130
 6325SOL    HW230609   2.256   1.158   0.082  1.9278 -1.0081  2.0505
 6326SOL     OW30610   3.876   3.791   6.219  0.0866  0.4646 -0.0874
 6326SOL    HW130611   3.837   3.817   6.302 -0.9955 -0.0505 -0.4303
 6326SOL    HW230612   3.882   3.695   6.223 -1.3697  0.4463  1.4763
 6327SOL     OW30613   3.868   1.287   1.622 -0.0596  0.1472  0.3095
 6327SOL    HW130614   3.826   1.286   1.536  0.6617  0.2167 -0.0400
 6327SOL    HW230615   3.954   1.261   1.588  0.0762 -0.9296  1.4442
 6328SOL     OW30616   3.265   1.330   3.525  0.0453  0.1150  0.5217
 6328SOL    HW130617   3.236   1.252   3.572 -1.1565  0.1474 -0.1486
 6328SOL    HW230618   3.355   1.299   3.516  0.3766  0.6756  1.9445
 6329SOL     OW30619   2.349   4.042   9.232  0.2925  0.1548 -0.8823
 6329SOL    HW130620   2.339   3.959   9.278  1.2746  0.4108 -0.2027
 6329SOL    HW230621   2.399   4.013   9.156 -1.6624 -3.3897 -0.7961
 6330SOL     OW30622   1.002   1.309   5.910 -0.1211  0.1594  0.3662
 6330SOL    HW130623   1.026   1.400   5.928  0.4088 -0.0405  0.6749
 6330SOL    HW230624   1.051   1.253   5.970  0.8637 -0.2229 -0.8033
 6331SOL     OW30625   1.710   0.879  10.746 -0.4093  0.0493  0.2896
 6331SOL    HW130626   1.701   0.934  10.824 -0.0028 -0.7155  0.8755
 6331SOL    HW230627   1.701   0.948  10.679 -1.5207  0.2714  0.6620
 6332SOL     OW30628   2.589   1.897   0.163  0.5129  0.0729  0.1464
 6332SOL    HW130629   2.494   1.911   0.158  0.2105 -2.0409  0.2367
 6332SOL    HW230630   2.595   1.804   0.142 -1.5374  0.0170 -0.2031
 6333SOL     OW30631   2.809   1.848   1.645  0.0549 -0.4941 -0.0415
 6333SOL    HW130632   2.798   1.848   1.550  0.1292 -1.5254 -0.0439
 6333SOL    HW230633   2.901   1.829   1.662  0.2836  0.6599  0.0138
 6334SOL     OW30634   1.217   0.610   6.863  0.3084 -0.7024 -0.7369
 6334SOL    HW130635   1.231   0.638   6.773  0.3096  0.0319 -0.5049
 6334SOL    HW230636   1.297   0.563   6.888 -0.3871 -3.6330 -3.9961
 6335SOL     OW30637   4.587   3.009   7.292 -0.2215  0.6442  0.0027
 6335SOL    HW130638   4.505   3.052   7.317  0.2241 -0.4414  3.2792
 6335SOL    HW230639   4.588   3.032   7.199  0.4742  0.3646 -0.0542
 6336SOL     OW30640   2.950   0.737   4.301  0.0134 -0.2478 -0.2214
 6336SOL    HW130641   2.902   0.725   4.382  0.7905 -1.5851  0.0389
 6336SOL    HW230642   3.015   0.805   4.318 -0.5135  0.2170 -0.0816
 6337SOL     OW30643   1.077   3.087   2.093 -0.0431 -0.4574  0.5777
 6337SOL    HW130644   1.156   3.137   2.075 -1.7492  0.8618 -3.1500
 6337SOL    HW230645   1.022   3.154   2.133  0.6171  0.5550 -0.2393
 6338SOL     OW30646   3.835   3.996  13.547  0.3285  0.7007  0.8075
 6338SOL    HW130647   3.788   4.073  13.514  0.9167  0.1685 -1.2605
 6338SOL    HW230648   3.788   3.937  13.488  2.0110 -0.2260  0.3756
 6339SOL     OW30649   4.452   3.878  10.050 -0.2767 -0.2921 -0.0121
 6339SOL    HW130650   4.512   3.907  10.118 -0.1072  1.2319 -0.8261
 6339SOL    HW230651   4.457   3.941   9.978 -1.5485 -1.5833 -1.2467
 6340SOL     OW30652   1.461   1.067   0.670  0.0944  0.2424 -0.3771
 6340SOL    HW130653   1.505   1.130   0.727  0.6681  0.7314 -1.3692
 6340SOL    HW230654   1.416   1.129   0.613 -0.1170 -0.4900 -0.9967
 6341SOL     OW30655   0.668   4.491   0.884  0.0558 -0.1428 -0.2622
 6341SOL    HW130656   0.716   4.561   0.839  0.3341 -1.5371 -2.1382
 6341SOL    HW230657   0.578   4.517   0.862  0.0558  1.4184  1.5467
 6342SOL     OW30658   4.420   4.473  15.679 -0.1907 -0.4153  0.3183
 6342SOL    HW130659   4.448   4.556  15.719 -0.1314 -0.2957  0.0321
 6342SOL    HW230660   4.370   4.510  15.605 -1.1120  1.8353  2.0616
 6343SOL     OW30661   2.458   0.146   8.454 -0.0850  0.2080  0.1345
 6343SOL    HW130662   2.520   0.116   8.388  1.7556  1.4786  1.3004
 6343SOL    HW230663   2.517   0.203   8.503  0.5437 -0.4467  0.1462
 6344SOL     OW30664   2.423   2.040   8.389 -0.1716 -0.8475  0.1938
 6344SOL    HW130665   2.486   1.970   8.404  0.1144 -0.5263  0.5043
 6344SOL    HW230666   2.375   2.014   8.310  1.1216 -0.4737 -0.7077
 6345SOL     OW30667   0.632   3.039  15.556  0.3220  0.0151  0.3468
 6345SOL    HW130668   0.697   2.970  15.543 -1.0192 -0.7659 -2.2165
 6345SOL    HW230669   0.567   2.994  15.610  2.7237 -0.5386  2.7948
 6346SOL     OW30670   2.313   4.189  17.076 -0.4277  0.1289  0.2556
 6346SOL    HW130671   2.239   4.248  17.067  0.6472  1.0186 -2.6918
 6346SOL    HW230672   2.389   4.237  17.110 -0.5198  0.3406  0.1583
 6347SOL     OW30673   3.440   1.262   8.747 -0.2312  0.0622  0.0093
 6347SOL    HW130674   3.403   1.232   8.664 -3.0616  2.2581  0.4548
 6347SOL    HW230675   3.369   1.264   8.812 -2.3636 -2.9223 -2.2574
 6348SOL     OW30676   0.280   2.123   4.802 -0.1551 -0.2257  0.0065
 6348SOL    HW130677   0.335   2.185   4.850  0.7222 -0.8951 -0.1441
 6348SOL    HW230678   0.195   2.163   4.820  0.5790  0.7037  1.3823
 6349SOL     OW30679   2.033   1.515   5.863  0.0972  0.3052 -0.0286
 6349SOL    HW130680   1.953   1.493   5.910 -0.6307  1.0098 -0.9349
 6349SOL    HW230681   2.077   1.431   5.858 -0.5511 -0.1471  1.6934
 6350SOL     OW30682   2.003   4.472   5.065 -0.1138  0.3805  0.2861
 6350SOL    HW130683   2.050   4.517   4.995 -1.0811  3.6897  1.8042
 6350SOL    HW230684   2.011   4.533   5.137 -0.9305  0.8459 -0.0226
 6351SOL     OW30685   2.606   1.246   5.016  0.3982  0.0333 -0.3358
 6351SOL    HW130686   2.571   1.296   5.090 -0.4747  0.0280 -0.7392
 6351SOL    HW230687   2.585   1.157   5.043 -1.1842  0.0102 -1.6772
 6352SOL     OW30688   0.267   1.349   9.132 -0.1075  0.2289 -0.1740
 6352SOL    HW130689   0.258   1.438   9.098  0.2690 -0.1447 -1.2444
 6352SOL    HW230690   0.335   1.314   9.074 -1.8632 -0.4124 -1.8497
 6353SOL     OW30691   3.608   2.219   6.235 -0.3569 -0.0398 -0.1924
 6353SOL    HW130692   3.632   2.127   6.238 -3.1707 -0.7689 -0.5773
 6353SOL    HW230693   3.607   2.249   6.326 -2.0334 -1.7126  0.3251
 6354SOL     OW30694   1.386   3.558   8.455 -0.4422  0.0531  0.0068
 6354SOL    HW130695   1.419   3.506   8.383  1.3305 -0.2823  1.0518
 6354SOL    HW230696   1.453   3.539   8.521  0.1120 -1.4921 -1.0193
 6355SOL     OW30697   1.556   1.013   9.598 -0.2731 -0.4378 -0.0643
 6355SOL    HW130698   1.634   1.016   9.544  0.6892  1.4836  1.4355
 6355SOL    HW230699   1.543   0.918   9.596 -2.3330 -0.1746  0.7167
 6356SOL     OW30700   3.698   0.340  16.147  0.1374  0.2620 -0.4684
 6356SOL    HW130701   3.721   0.249  16.126  1.5754  0.6002 -0.4073
 6356SOL    HW230702   3.704   0.382  16.061  1.5501  0.0320 -0.4853
 6357SOL     OW30703   1.996   4.339   2.360 -0.1609  0.1277  0.0932
 6357SOL    HW130704   1.955   4.330   2.274  0.6326  0.4873 -0.3293
 6357SOL    HW230705   2.066   4.275   2.350  0.8481  1.1969  0.3165
 6358SOL     OW30706   0.833   3.901   9.607 -0.7738 -0.4016  0.4591
 6358SOL    HW130707   0.879   3.817   9.614  1.8359  1.0931  1.1248
 6358SOL    HW230708   0.763   3.880   9.669 -1.2794  0.6050  0.2173
 6359SOL     OW30709   1.766   3.045   1.787 -0.4654  0.0648  0.4917
 6359SOL    HW130710   1.786   2.962   1.830 -1.2944 -0.3763  0.0402
 6359SOL    HW230711   1.845   3.051   1.733 -0.0594  1.9248  1.3034
 6360SOL     OW30712   4.252   4.494   2.617  0.5098 -0.1566 -0.1033
 6360SOL    HW130713   4.235   4.421   2.557  0.4158 -1.4192  1.4536
 6360SOL    HW230714   4.278   4.555   2.549 -1.3907 -1.1937 -1.7619
 6361SOL     OW30715   1.993   1.731   5.448  0.2691 -0.2333  0.1896
 6361SOL    HW130716   1.947   1.697   5.525 -2.8917  0.1552 -1.5456
 6361SOL    HW230717   2.057   1.783   5.497 -0.8009  1.4852 -0.2345
 6362SOL     OW30718   0.824   2.390   2.215  0.3070  0.2269 -0.4474
 6362SOL    HW130719   0.906   2.345   2.238  0.7974  1.0272 -0.6182
 6362SOL    HW230720   0.851   2.481   2.225 -1.3707  0.9039 -2.2675
 6363SOL     OW30721   0.186   0.031   3.791  0.0939  0.0951 -0.2190
 6363SOL    HW130722   0.176   4.674   3.768  1.4214 -0.3176  0.8394
 6363SOL    HW230723   0.168   0.075   3.709  0.6755 -0.2855 -0.5541
 6364SOL     OW30724   0.881   0.668   5.859 -0.0532  0.3332 -0.2051
 6364SOL    HW130725   0.793   0.679   5.823  0.5571  1.1146 -1.4627
 6364SOL    HW230726   0.902   0.586   5.815 -0.4828 -0.6481  1.4189
 6365SOL     OW30727   4.363   1.585   5.442 -0.2734 -0.1077  0.3831
 6365SOL    HW130728   4.338   1.642   5.369 -0.8318  0.8007  1.2811
 6365SOL    HW230729   4.449   1.547   5.425  0.5322  2.0659 -0.4113
 6366SOL     OW30730   4.009   0.355  12.562 -0.0457  0.1129  0.1408
 6366SOL    HW130731   3.956   0.275  12.565  0.9025 -0.4914  0.6485
 6366SOL    HW230732   4.015   0.373  12.656  2.2461  0.2113 -0.0152
 6367SOL     OW30733   3.119   3.544   4.291 -0.0536 -0.2378 -0.0621
 6367SOL    HW130734   3.144   3.584   4.208 -1.1224  1.4874  0.4557
 6367SOL    HW230735   3.183   3.473   4.290  2.0568  1.6991 -1.8126
 6368SOL     OW30736   0.616   0.955   2.483 -0.0283 -0.2920  0.6653
 6368SOL    HW130737   0.618   1.050   2.470  0.8261 -0.3801  0.1909
 6368SOL    HW230738   0.584   0.959   2.573  0.2087  0.2727  0.7238
 6369SOL     OW30739   3.395   3.815   5.282 -0.1622 -0.2155  0.0133
 6369SOL    HW130740   3.466   3.760   5.315 -1.0076 -0.2147  1.8599
 6369SOL    HW230741   3.398   3.778   5.194 -2.0166 -0.9020  0.2600
 6370SOL     OW30742   1.485   0.834   8.836 -0.2122  0.3333  0.6554
 6370SOL    HW130743   1.402   0.843   8.882  0.7218 -1.4789  2.6574
 6370SOL    HW230744   1.488   0.907   8.773 -1.6382  1.3289  1.7677
 6371SOL     OW30745   0.644   2.134   4.833 -0.0275  0.0210 -0.2728
 6371SOL    HW130746   0.670   2.062   4.776 -1.4552 -0.5872 -0.1614
 6371SOL    HW230747   0.597   2.084   4.900  0.1821  0.7636  0.4312
 6372SOL     OW30748   1.372   1.575   4.584  0.1228 -0.1890  0.0732
 6372SOL    HW130749   1.296   1.517   4.574 -0.8848  1.2266 -0.4053
 6372SOL    HW230750   1.346   1.656   4.541  2.3291  0.0641 -0.8215
 6373SOL     OW30751   4.483   2.886   7.039  0.5702  0.2719 -0.1770
 6373SOL    HW130752   4.510   2.830   7.112  0.2165 -1.1317 -1.1149
 6373SOL    HW230753   4.401   2.922   7.074  1.6210  1.5666  0.9220
 6374SOL     OW30754   4.515   1.185   6.099 -0.1859 -0.4293  0.0856
 6374SOL    HW130755   4.567   1.229   6.167 -0.6208  1.0306 -0.5334
 6374SOL    HW230756   4.590   1.135   6.064  0.3823  1.3766 -1.2804
 6375SOL     OW30757   2.529   4.717   2.831  0.1481 -0.3111 -0.6015
 6375SOL    HW130758   2.571   4.651   2.776 -2.5609  0.6662 -3.8082
 6375SOL    HW230759   2.469   0.021   2.768 -1.2929  0.2793  1.1341
 6376SOL     OW30760   3.640   1.481   7.299 -0.3271 -0.1681 -0.4914
 6376SOL    HW130761   3.698   1.551   7.271  1.9264 -1.6622  0.4559
 6376SOL    HW230762   3.691   1.468   7.379 -0.2699  1.2549 -0.2976
 6377SOL     OW30763   1.957   0.202   1.735 -0.2621 -0.0551 -0.1239
 6377SOL    HW130764   1.925   0.289   1.710  1.5376  1.0232  1.3790
 6377SOL    HW230765   2.023   0.236   1.795  0.1188 -1.2870  0.1593
 6378SOL     OW30766   2.623   3.641   8.808  0.1242 -0.3534  0.2160
 6378SOL    HW130767   2.539   3.602   8.832 -1.1334  2.3151  0.1017
 6378SOL    HW230768   2.606   3.681   8.723  1.9891  2.1286  1.0345
 6379SOL     OW30769   3.828   2.475   3.560  0.1888 -0.1194  0.0590
 6379SOL    HW130770   3.857   2.412   3.626 -1.7597  2.1754  3.1667
 6379SOL    HW230771   3.736   2.454   3.540  0.3085 -1.3674  0.8228
 6380SOL     OW30772   1.947   3.264   6.470  0.5226 -0.1835  0.1300
 6380SOL    HW130773   1.924   3.248   6.562 -0.1596 -1.6746 -0.3077
 6380SOL    HW230774   2.043   3.268   6.471  0.5547 -1.0334  0.2287
 6381SOL     OW30775   2.916   0.751   9.123 -0.1539  0.2725  0.1574
 6381SOL    HW130776   2.825   0.764   9.149  0.6454  0.1520  3.0132
 6381SOL    HW230777   2.945   0.696   9.197 -2.9304 -0.3454  0.7811
 6382SOL     OW30778   2.198   1.130   7.831 -0.0349 -0.1815 -0.2740
 6382SOL    HW130779   2.261   1.123   7.902  0.5840 -2.4472 -1.0482
 6382SOL    HW230780   2.139   1.057   7.849  1.3127 -0.7136  1.9963
 6383SOL     OW30781   3.586   3.449   7.389 -0.3265  0.4952  0.4849
 6383SOL    HW130782   3.591   3.390   7.464 -1.7282 -1.3385 -0.8234
 6383SOL    HW230783   3.646   3.519   7.411 -0.5263  1.3450 -1.6678
 6384SOL     OW30784   1.841   0.694   2.186  0.3676  0.4524 -0.0223
 6384SOL    HW130785   1.933   0.722   2.191  0.4978 -0.0479  0.3919
 6384SOL    HW230786   1.791   0.768   2.152 -3.7035 -0.7371  3.5142
 6385SOL     OW30787   1.082   4.412   3.654  0.3750 -0.2830 -0.1679
 6385SOL    HW130788   1.056   4.358   3.579 -0.0929 -0.6795  0.2745
 6385SOL    HW230789   1.169   4.378   3.674  0.0852 -0.3257  1.0089
 6386SOL     OW30790   0.602   2.380   4.345  0.7158  0.0115 -0.4090
 6386SOL    HW130791   0.610   2.458   4.399 -0.0487  1.9410 -3.0913
 6386SOL    HW230792   0.593   2.311   4.411 -0.6668 -0.7756 -1.4123
 6387SOL     OW30793   2.784   1.693   9.702  0.6355  0.0722 -0.4115
 6387SOL    HW130794   2.800   1.656   9.615  0.4308 -0.6562 -0.1387
 6387SOL    HW230795   2.869   1.737   9.709  1.1011 -0.8953  0.0101
 6388SOL     OW30796   4.678   2.180   2.728 -0.0066  0.1316  0.2423
 6388SOL    HW130797   4.616   2.253   2.728  1.4234  1.3439  0.4031
 6388SOL    HW230798   4.722   2.191   2.644  1.0818  0.4847  0.8550
 6389SOL     OW30799   2.547   4.706  13.055  0.6121 -0.2519 -0.6795
 6389SOL    HW130800   2.496   0.017  13.121 -0.0887 -1.2276 -0.5438
 6389SOL    HW230801   2.633   0.013  13.057  0.1995  0.6054 -1.0460
 6390SOL     OW30802   2.118   0.885   8.675 -0.7394  0.1013  0.5738
 6390SOL    HW130803   2.085   0.885   8.585 -0.3523  1.2721  0.4308
 6390SOL    HW230804   2.038   0.904   8.725 -1.2559  0.8445 -0.5317
 6391SOL     OW30805   2.066   2.583   9.150 -0.6438 -0.5354 -0.4021
 6391SOL    HW130806   2.135   2.621   9.097  1.1665  0.0421  2.3901
 6391SOL    HW230807   2.116   2.542   9.220 -0.6509 -0.3382 -0.2812
 6392SOL     OW30808   0.351   1.142  13.634  0.1851  0.0658 -0.0171
 6392SOL    HW130809   0.390   1.091  13.704 -1.4511 -0.2383  0.6698
 6392SOL    HW230810   0.409   1.114  13.563 -1.2697  1.3422 -1.7282
 6393SOL     OW30811   0.354   0.064   4.275  0.4624  0.0297  0.1273
 6393SOL    HW130812   0.334   4.731   4.211  0.7821  0.1387 -0.0895
 6393SOL    HW230813   0.305   0.141   4.245 -3.0405 -2.7666 -1.3624
 6394SOL     OW30814   3.265   0.636  16.089  0.0708 -0.4654  0.3669
 6394SOL    HW130815   3.233   0.726  16.084  2.7851  0.5083  0.7061
 6394SOL    HW230816   3.340   0.645  16.029 -1.1342 -2.5716 -1.4723
 6395SOL     OW30817   2.370   4.196   9.444  0.3563  0.4394  0.4749
 6395SOL    HW130818   2.281   4.163   9.453  0.6754 -0.6782 -0.4579
 6395SOL    HW230819   2.388   4.148   9.363 -0.9975  0.1967  0.3187
 6396SOL     OW30820   3.290   3.122  11.485  0.0899 -0.4726 -0.6583
 6396SOL    HW130821   3.376   3.103  11.449 -0.0163 -0.9848 -0.6398
 6396SOL    HW230822   3.273   3.214  11.466  0.6368 -0.0720  0.7397
 6397SOL     OW30823   2.377   1.746   3.657 -0.4722  0.8510  0.2094
 6397SOL    HW130824   2.433   1.797   3.715 -0.2019  0.8782 -0.0723
 6397SOL    HW230825   2.442   1.679   3.633  0.1219  1.7675 -0.7286
 6398SOL     OW30826   3.882   0.064   3.833 -0.3569 -0.2735  0.2523
 6398SOL    HW130827   3.803   0.039   3.881  0.1164 -1.8434  0.1999
 6398SOL    HW230828   3.839   0.097   3.755 -2.1844  1.2705  1.9054
 6399SOL     OW30829   0.645   4.136   7.539  0.4642  0.3024  0.0421
 6399SOL    HW130830   0.588   4.201   7.498 -2.4918 -2.6573 -0.5179
 6399SOL    HW230831   0.650   4.082   7.460 -0.7761 -0.2187  0.3152
 6400SOL     OW30832   2.161   0.823   4.962  0.0605 -0.7221  0.6611
 6400SOL    HW130833   2.161   0.734   4.999 -0.1262 -1.0403 -0.0892
 6400SOL    HW230834   2.073   0.851   4.986 -0.8908 -2.4411 -0.8208
 6401SOL     OW30835   3.993   1.008   2.229  0.7033  0.2739  0.4665
 6401SOL    HW130836   3.982   1.014   2.324  0.8579 -1.5436  0.5991
 6401SOL    HW230837   4.080   0.969   2.233  0.7150  0.1237 -1.3012
 6402SOL     OW30838   4.190   4.187  10.685 -0.1909 -0.2815 -0.3290
 6402SOL    HW130839   4.154   4.099  10.673  1.1547 -1.2341  2.5235
 6402SOL    HW230840   4.119   4.220  10.741  0.3466  0.1283  0.1035
 6403SOL     OW30841   3.475   2.788  17.684 -0.1320  0.3434 -0.3026
 6403SOL    HW130842   3.411   2.859  17.696 -0.0008  0.1916  1.3035
 6403SOL    HW230843   3.560   2.825  17.707  0.7770 -2.0235  0.1795
 6404SOL     OW30844   4.692   0.959  14.850 -0.1715 -0.3243 -0.0657
 6404SOL    HW130845   4.705   0.909  14.770  0.0055  0.1852 -0.3534
 6404SOL    HW230846   0.040   0.940  14.894 -0.1344  0.9480  0.4193
 6405SOL     OW30847   4.524   1.851  14.990  0.5212 -0.0881  0.3727
 6405SOL    HW130848   4.499   1.803  15.069  0.7645 -0.2732  0.3375
 6405SOL    HW230849   4.617   1.854  15.008  0.3731  1.7014  0.7861
 6406SOL     OW30850   3.351   0.785   7.148  0.2690  0.2343  0.2842
 6406SOL    HW130851   3.274   0.748   7.191  0.2913  1.9254  1.7853
 6406SOL    HW230852   3.324   0.877   7.151  0.7847  0.4054 -0.1785
 6407SOL     OW30853   4.132   2.609   2.364  0.6731 -0.8672  0.2151
 6407SOL    HW130854   4.216   2.653   2.380  1.2040 -1.8485  0.0989
 6407SOL    HW230855   4.084   2.644   2.439  1.1928 -1.2032  0.7028
 6408SOL     OW30856   3.389   0.553   9.039 -0.2400 -0.0465  0.2164
 6408SOL    HW130857   3.478   0.542   9.071 -0.0781  0.9977  0.1223
 6408SOL    HW230858   3.382   0.487   8.970  1.7704  1.6025 -1.5465
 6409SOL     OW30859   3.868   0.435  12.272 -0.3498 -0.5321  0.0807
 6409SOL    HW130860   3.832   0.355  12.311 -1.7787  1.0156  1.9019
 6409SOL    HW230861   3.795   0.497  12.271 -1.4519 -1.8110  0.4301
 6410SOL     OW30862   0.815   3.011   5.834  0.0049  0.0706 -0.2397
 6410SOL    HW130863   0.786   3.052   5.753  0.8373  0.5833 -0.2764
 6410SOL    HW230864   0.743   3.009   5.898  0.2759 -0.5404  0.0469
 6411SOL     OW30865   1.587   3.257   0.703  0.5578 -0.5115 -0.2068
 6411SOL    HW130866   1.529   3.291   0.635 -1.4876  2.0666  2.8234
 6411SOL    HW230867   1.550   3.295   0.782 -0.6488 -0.2189 -0.9093
 6412SOL     OW30868   1.398   0.744  17.548 -0.4223 -0.7167 -0.2052
 6412SOL    HW130869   1.313   0.720  17.586  0.5207 -0.2210  2.1929
 6412SOL    HW230870   1.448   0.749  17.629 -0.3619 -0.5686 -0.2524
 6413SOL     OW30871   4.474   4.562   4.468  0.1425 -0.5643 -0.0438
 6413SOL    HW130872   4.479   4.553   4.373 -1.4020 -1.2813 -0.0485
 6413SOL    HW230873   4.505   4.653   4.475 -1.8070 -0.1812  3.6180
 6414SOL     OW30874   0.273   3.703   4.131  0.5562  0.0114  0.2956
 6414SOL    HW130875   0.252   3.677   4.221 -2.0354 -0.5097 -0.4585
 6414SOL    HW230876   0.220   3.643   4.078  4.3963 -3.3500  0.2810
 6415SOL     OW30877   4.461   0.954   3.565  0.2540  0.2601  0.7845
 6415SOL    HW130878   4.503   0.998   3.491  1.5572 -1.5953  0.4467
 6415SOL    HW230879   4.537   0.932   3.618 -0.0836 -0.8489  0.8123
 6416SOL     OW30880   0.153   1.576   3.954 -0.1085  0.0134 -0.5996
 6416SOL    HW130881   0.085   1.587   3.887  0.5651  0.3357 -1.2257
 6416SOL    HW230882   0.106   1.606   4.032  0.7901 -1.5376  0.5294
 6417SOL     OW30883   2.072   1.830  12.792  0.0222  0.0749  0.4976
 6417SOL    HW130884   2.111   1.750  12.757  1.1627  1.4360 -1.3604
 6417SOL    HW230885   2.014   1.793  12.859 -0.7444 -0.0449 -0.2276
 6418SOL     OW30886   2.374   3.788  13.124 -0.2816  0.4003 -0.2548
 6418SOL    HW130887   2.324   3.738  13.189  1.3133  0.3493  0.9261
 6418SOL    HW230888   2.423   3.724  13.071  0.0916 -1.0702  1.8826
 6419SOL     OW30889   1.668   0.009   8.916 -0.7417  0.7679  1.0572
 6419SOL    HW130890   1.616   0.080   8.955  0.2353  1.8095  0.4797
 6419SOL    HW230891   1.686   4.682   8.987 -0.9066 -0.0702  0.3651
 6420SOL     OW30892   2.570   3.251  11.948 -0.3322  0.0517 -0.9816
 6420SOL    HW130893   2.545   3.343  11.959  0.8077  0.0976  1.0934
 6420SOL    HW230894   2.539   3.219  12.032  1.1903 -1.7956 -1.1259
 6421SOL     OW30895   0.808   2.775   1.160  0.9859  0.0065  0.0607
 6421SOL    HW130896   0.752   2.825   1.219  2.3536  0.4316  1.0024
 6421SOL    HW230897   0.776   2.802   1.074  2.6701 -0.9319 -0.8635
 6422SOL     OW30898   1.203   4.199   6.833  0.2192  0.6727 -0.0621
 6422SOL    HW130899   1.262   4.232   6.765  0.4739 -0.0100 -0.1739
 6422SOL    HW230900   1.205   4.107   6.807  0.5542 -0.0318  2.4947
 6423SOL     OW30901   4.264   0.693   2.124 -0.0899  0.4079 -0.5712
 6423SOL    HW130902   4.205   0.623   2.095  0.9195 -1.0119  0.8246
 6423SOL    HW230903   4.334   0.639   2.160  0.5333  1.0376 -0.8408
 6424SOL     OW30904   0.129   0.615   8.823 -0.3278 -0.4209 -0.4334
 6424SOL    HW130905   0.044   0.658   8.815 -0.5023 -0.8867 -1.0113
 6424SOL    HW230906   0.186   0.691   8.809  0.9639 -1.5552 -1.3438
 6425SOL     OW30907   1.266   1.136   5.827  0.0024 -0.0118 -0.1494
 6425SOL    HW130908   1.342   1.086   5.857 -1.0415 -0.2486  2.1045
 6425SOL    HW230909   1.307   1.221   5.839  1.5773 -0.5909 -1.4450
 6426SOL     OW30910   2.326   0.347  10.575  0.1279 -0.1588 -0.1268
 6426SOL    HW130911   2.250   0.300  10.540 -0.6920 -0.7111  2.3602
 6426SOL    HW230912   2.345   0.411  10.507  1.7280 -1.7976 -1.2088
 6427SOL     OW30913   4.454   0.587   4.070 -0.0289 -0.0603 -0.0123
 6427SOL    HW130914   4.478   0.555   3.982 -1.8312  0.5194 -0.7157
 6427SOL    HW230915   4.539   0.588   4.115 -0.2717  1.6781  0.3839
 6428SOL     OW30916   0.008   0.439  12.376  0.3152  0.2140  0.2340
 6428SOL    HW130917   4.717   0.490  12.453 -1.5283  0.2504 -0.4079
 6428SOL    HW230918   4.677   0.370  12.384 -0.8358  1.1962 -0.7190
 6429SOL     OW30919   4.229   3.981   9.348  0.6629  0.3520 -0.2302
 6429SOL    HW130920   4.252   3.907   9.404 -0.5968 -0.1176 -0.3215
 6429SOL    HW230921   4.185   3.937   9.275  0.8919 -0.1305 -0.0791
 6430SOL     OW30922   3.175   4.208   3.084  0.0264  0.2981 -0.3022
 6430SOL    HW130923   3.085   4.186   3.106  0.2395  1.4255  1.6871
 6430SOL    HW230924   3.209   4.119   3.087 -1.7691 -0.4098 -0.7692
 6431SOL     OW30925   1.582   1.008  16.631  0.1048  0.6808  0.0764
 6431SOL    HW130926   1.544   1.078  16.577 -0.9563  0.3352  0.3892
 6431SOL    HW230927   1.613   0.945  16.567 -1.0768 -1.0632  1.2159
 6432SOL     OW30928   1.878   3.911   8.057  0.1421  0.4568 -0.9516
 6432SOL    HW130929   1.797   3.918   8.108  0.4425  0.1721 -0.4343
 6432SOL    HW230930   1.842   3.864   7.982 -0.3760 -1.5824  0.5752
 6433SOL     OW30931   1.841   3.260   6.744 -0.6063  0.1059 -0.2959
 6433SOL    HW130932   1.865   3.346   6.778  0.0814  0.7876 -2.5049
 6433SOL    HW230933   1.784   3.232   6.816  0.0707  0.9045  0.5499
 6434SOL     OW30934   3.864   0.610   2.841 -0.2141 -1.1245 -0.3302
 6434SOL    HW130935   3.943   0.580   2.796  0.0464  0.2653 -0.8279
 6434SOL    HW230936   3.795   0.565   2.792  0.8293 -0.4396 -2.4403
 6435SOL     OW30937   0.176   1.470  15.074  0.3862 -0.0894  0.1064
 6435SOL    HW130938   0.208   1.485  15.163 -1.5516  0.7096  0.6648
 6435SOL    HW230939   0.082   1.486  15.081  0.4295  0.6366 -0.9666
 6436SOL     OW30940   1.277   2.756  10.992 -0.1520 -0.8604  0.3660
 6436SOL    HW130941   1.242   2.758  10.902  0.9525 -1.7498 -0.0805
 6436SOL    HW230942   1.194   2.786  11.030 -0.3160 -2.2050  1.0856
 6437SOL     OW30943   0.265   1.787   8.149 -0.0411 -0.0493  0.2270
 6437SOL    HW130944   0.318   1.707   8.145  0.0680 -0.0006  0.8289
 6437SOL    HW230945   0.201   1.757   8.214  1.3251 -1.9546  0.6855
 6438SOL     OW30946   1.891   0.917  16.428  0.2596 -0.2464  0.3955
 6438SOL    HW130947   1.887   0.984  16.496 -0.2598 -0.2324  0.3527
 6438SOL    HW230948   1.906   0.976  16.354 -1.2819  0.2814  0.5213
 6439SOL     OW30949   2.802   3.127   1.956 -0.5965 -0.5327  0.1455
 6439SOL    HW130950   2.882   3.079   1.938 -0.1145 -0.2066  1.4538
 6439SOL    HW230951   2.791   3.120   2.051 -1.4665  3.1318  0.3200
 6440SOL     OW30952   3.299   2.384  13.004 -0.1093  0.5006 -0.3672
 6440SOL    HW130953   3.385   2.380  13.046 -0.2487  2.2667  0.1175
 6440SOL    HW230954   3.298   2.471  12.962 -1.1478  1.3969  1.5020
 6441SOL     OW30955   2.628   4.254  14.295  0.1920  0.4791 -0.3668
 6441SOL    HW130956   2.696   4.259  14.228 -1.1986 -1.3700 -1.9319
 6441SOL    HW230957   2.683   4.276  14.370 -1.7793  0.3351  1.1030
 6442SOL     OW30958   4.332   4.657   8.097 -0.4451 -0.1827  0.0215
 6442SOL    HW130959   4.285   4.709   8.033 -0.4605  0.2853  0.4123
 6442SOL    HW230960   4.269   4.652   8.170 -0.8780  1.6956 -0.2335
 6443SOL     OW30961   4.570   1.435   8.337 -0.1372 -0.0133 -0.3808
 6443SOL    HW130962   4.573   1.526   8.368 -1.2012 -0.2685  0.4418
 6443SOL    HW230963   4.662   1.413   8.351 -0.5850 -1.3402  0.4758
 6444SOL     OW30964   4.321   4.375   4.283  0.1252  0.2716 -0.2965
 6444SOL    HW130965   4.288   4.465   4.272 -2.6322 -0.7313 -0.3743
 6444SOL    HW230966   4.243   4.322   4.300  0.0595 -0.0191 -1.5226
 6445SOL     OW30967   3.488   0.146   8.365 -0.3606  0.1848  0.1224
 6445SOL    HW130968   3.453   0.219   8.313 -1.8731 -2.4315 -2.5193
 6445SOL    HW230969   3.571   0.184   8.393  0.7320 -2.7137  0.7698
 6446SOL     OW30970   3.068   1.301   1.860  0.1499  0.0255 -0.0645
 6446SOL    HW130971   3.007   1.244   1.813 -0.6513 -1.4202  2.7056
 6446SOL    HW230972   3.028   1.386   1.846  1.2430  0.4726 -0.5030
 6447SOL     OW30973   1.480   1.776   9.838 -0.1896  0.1851 -0.1750
 6447SOL    HW130974   1.534   1.699   9.819  0.8294  1.2210 -1.4464
 6447SOL    HW230975   1.542   1.824   9.893  1.3971  2.0236 -3.5533
 6448SOL     OW30976   3.975   2.117   3.170  0.0729 -0.3533  0.0206
 6448SOL    HW130977   3.951   2.038   3.219  0.4146 -0.7107 -0.3816
 6448SOL    HW230978   3.961   2.071   3.087  2.6034 -0.7805 -0.1516
 6449SOL     OW30979   0.779   0.804   3.107  0.1041  0.2742  0.0899
 6449SOL    HW130980   0.780   0.710   3.126  0.2952  0.0232 -1.1796
 6449SOL    HW230981   0.801   0.798   3.014 -2.4876 -2.4353 -0.3603
 6450SOL     OW30982   1.160   0.344   7.972  0.1440  0.3110  0.5048
 6450SOL    HW130983   1.137   0.252   7.964 -0.3728  0.5239 -0.5428
 6450SOL    HW230984   1.177   0.360   8.065  0.2201 -0.3734  0.6016
 6451SOL     OW30985   3.184   3.629  11.671  0.2950  0.3320 -0.5634
 6451SOL    HW130986   3.173   3.535  11.658  1.4186  0.2309 -0.8572
 6451SOL    HW230987   3.172   3.632  11.766 -0.9783  1.4050 -0.7658
 6452SOL     OW30988   4.502   1.619   3.159 -0.1725 -0.3376  0.4819
 6452SOL    HW130989   4.533   1.707   3.138 -0.8821 -0.0073  0.7997
 6452SOL    HW230990   4.458   1.628   3.244  1.8989  2.8778  1.2143
 6453SOL     OW30991   3.353   4.298  13.269  0.3505 -0.6478  0.1087
 6453SOL    HW130992   3.281   4.236  13.258 -1.8347  2.0296 -0.6731
 6453SOL    HW230993   3.431   4.242  13.267  1.3856  0.7836  0.0932
 6454SOL     OW30994   4.451   1.820   4.155 -0.2649 -0.0959 -0.1581
 6454SOL    HW130995   4.380   1.756   4.160 -0.5047  0.1143 -0.9761
 6454SOL    HW230996   4.491   1.805   4.242 -1.3455  0.3152  0.4039
 6455SOL     OW30997   3.568   4.128  13.288 -0.0342  0.4378  0.2292
 6455SOL    HW130998   3.577   4.165  13.376  0.6684  0.5672  0.1027
 6455SOL    HW230999   3.583   4.036  13.313  1.9002  0.1325 -2.0645
 6456SOL     OW31000   0.584   4.513   7.683 -0.4927 -0.2800 -0.3829
 6456SOL    HW131001   0.512   4.498   7.621 -1.1953 -0.4223  0.4524
 6456SOL    HW231002   0.558   4.449   7.749  1.6206 -1.1790 -0.4564
 6457SOL     OW31003   0.370   1.818  14.778  0.3207  0.5769  0.7571
 6457SOL    HW131004   0.396   1.907  14.800  3.6951 -0.2234  0.0719
 6457SOL    HW231005   0.416   1.798  14.696 -1.0438  0.9777 -0.1081
 6458SOL     OW31006   0.216   4.209   5.398 -0.4213  0.3896 -0.4520
 6458SOL    HW131007   0.276   4.257   5.341  0.7865 -0.5254  0.0239
 6458SOL    HW231008   0.131   4.242   5.371 -0.9385  0.2607  1.0215
 6459SOL     OW31009   1.610   4.125   1.101  0.2035 -0.9791  0.1031
 6459SOL    HW131010   1.582   4.094   1.015 -1.1006 -1.1519  0.5885
 6459SOL    HW231011   1.537   4.174   1.137 -0.6899 -1.6729 -0.7759
 6460SOL     OW31012   1.764   3.117   8.807 -0.7114  0.6442 -0.0090
 6460SOL    HW131013   1.820   3.108   8.884  0.8043 -0.1442 -1.2234
 6460SOL    HW231014   1.756   3.024   8.785 -1.7605  0.8967 -0.7170
 6461SOL     OW31015   3.714   1.037   5.465 -0.3337  0.0481 -0.8868
 6461SOL    HW131016   3.686   1.040   5.374 -0.3560 -0.7594 -0.8998
 6461SOL    HW231017   3.778   1.109   5.467 -0.7624  0.3191  3.0544
 6462SOL     OW31018   4.440   1.169  13.397  1.1298 -0.1060  0.7240
 6462SOL    HW131019   4.490   1.221  13.334  2.4748 -2.1817  0.0637
 6462SOL    HW231020   4.350   1.191  13.376  0.9567 -1.8826 -0.4090
 6463SOL     OW31021   0.670   4.354   4.528 -0.5416 -0.3075  0.6312
 6463SOL    HW131022   0.751   4.384   4.486 -1.0930  1.0767  0.5315
 6463SOL    HW231023   0.661   4.430   4.586 -0.2625  0.7083 -0.6496
 6464SOL     OW31024   2.973   3.686   3.505 -0.4054 -0.1671  0.4804
 6464SOL    HW131025   2.945   3.744   3.575 -2.0358 -0.0793 -0.2535
 6464SOL    HW231026   3.057   3.728   3.484 -2.3005  2.8417 -1.0556
 6465SOL     OW31027   0.664   0.507  11.888 -0.0367  0.0170  0.5282
 6465SOL    HW131028   0.622   0.593  11.894  0.4093  0.2171  0.8518
 6465SOL    HW231029   0.650   0.486  11.796  0.0513 -1.4547  0.8555
 6466SOL     OW31030   2.667   2.394   1.913 -0.3994  0.1317 -0.0971
 6466SOL    HW131031   2.634   2.431   1.831  0.4376 -0.6325 -0.7738
 6466SOL    HW231032   2.762   2.381   1.909 -0.3721  1.3019 -3.1441
 6467SOL     OW31033   3.422   1.923   1.778 -0.1775 -0.1000  0.2239
 6467SOL    HW131034   3.333   1.887   1.785 -1.2437  2.0765 -2.1224
 6467SOL    HW231035   3.451   1.922   1.869  0.9727  0.7497 -0.1420
 6468SOL     OW31036   3.862   2.630   4.646 -0.2957 -0.2961 -0.2682
 6468SOL    HW131037   3.818   2.646   4.562 -1.0301 -2.9954 -0.3791
 6468SOL    HW231038   3.809   2.691   4.697  1.7824  0.4009  1.0411
 6469SOL     OW31039   1.066   4.351   8.723 -0.3715 -0.2054 -0.0722
 6469SOL    HW131040   1.058   4.428   8.779  2.0132  2.0960 -2.8281
 6469SOL    HW231041   1.019   4.375   8.643 -1.7270 -1.4058  0.3806
 6470SOL     OW31042   0.477   3.255   9.293 -0.3410  0.1225 -0.1274
 6470SOL    HW131043   0.481   3.345   9.262 -0.6533 -0.0358 -0.6311
 6470SOL    HW231044   0.441   3.212   9.215 -0.9258  1.0477 -0.3585
 6471SOL     OW31045   3.362   1.066   7.826  0.1624  0.1368  0.0811
 6471SOL    HW131046   3.309   1.028   7.897 -0.4516  0.2307 -0.3271
 6471SOL    HW231047   3.318   1.147   7.800 -2.6721 -0.2367  3.5379
 6472SOL     OW31048   2.362   2.398   5.935  0.0845  0.1760 -0.4255
 6472SOL    HW131049   2.410   2.323   5.970 -0.4441  0.0604  0.0517
 6472SOL    HW231050   2.418   2.467   5.971  0.9158 -0.5864 -0.2522
 6473SOL     OW31051   0.240   1.525  14.451  0.3519 -0.2207 -0.1938
 6473SOL    HW131052   0.269   1.548  14.539 -1.2893  2.2170 -0.2754
 6473SOL    HW231053   0.319   1.515  14.398  0.2912  1.6146 -0.6396
 6474SOL     OW31054   2.119   4.409   5.930 -0.8241 -0.6297 -0.0939
 6474SOL    HW131055   2.162   4.348   5.990 -0.9359 -0.7374 -0.1248
 6474SOL    HW231056   2.186   4.413   5.861 -0.0759 -1.3518  0.5974
 6475SOL     OW31057   3.064   2.547   3.669  0.2622  0.4364  0.4597
 6475SOL    HW131058   3.114   2.624   3.697 -0.1394  0.9946 -0.3282
 6475SOL    HW231059   2.986   2.599   3.649  0.5239  0.3678 -0.7339
 6476SOL     OW31060   3.943   2.317   0.720 -0.3155  0.6067 -0.0087
 6476SOL    HW131061   3.999   2.311   0.797 -1.3730 -3.5108  0.4255
 6476SOL    HW231062   3.938   2.413   0.716 -0.5534  0.6863  2.8165
 6477SOL     OW31063   1.485   1.267   5.357 -0.5177 -0.2506  0.4272
 6477SOL    HW131064   1.412   1.305   5.309  1.2766  0.9565 -1.3218
 6477SOL    HW231065   1.551   1.320   5.313 -0.5192  1.1085  2.0537
 6478SOL     OW31066   4.171   1.106   4.160 -0.0884 -0.5854  0.1107
 6478SOL    HW131067   4.186   1.065   4.075  4.2191 -2.2684  1.6591
 6478SOL    HW231068   4.154   1.032   4.218 -0.9826 -0.1340  0.4187
 6479SOL     OW31069   0.529   1.005  13.770 -0.3809 -0.1886 -0.0834
 6479SOL    HW131070   0.518   0.917  13.734 -2.1735  0.0624 -0.1722
 6479SOL    HW231071   0.610   1.038  13.731 -0.0811 -0.8712 -0.0376
 6480SOL     OW31072   3.433   1.068  10.229 -0.4033 -0.5032 -0.1589
 6480SOL    HW131073   3.420   1.100  10.140  3.4411  0.4119 -0.3873
 6480SOL    HW231074   3.385   0.985  10.235 -3.2209  1.0199 -1.7600
 6481SOL     OW31075   0.094   1.343   8.780 -0.1882 -0.1538 -0.2204
 6481SOL    HW131076   0.112   1.382   8.694 -1.2742 -0.5703 -0.6400
 6481SOL    HW231077   0.122   1.423   8.824  3.2244 -0.6248 -1.4988
 6482SOL     OW31078   3.047   0.888   6.986  0.3994 -0.2331 -0.1203
 6482SOL    HW131079   3.054   0.984   6.987 -4.0630  0.1334 -1.6656
 6482SOL    HW231080   2.956   0.884   7.015 -0.5744  0.6411 -3.0054
 6483SOL     OW31081   0.351   4.132   2.806  0.2552 -0.0693  0.1441
 6483SOL    HW131082   0.294   4.209   2.802 -0.3889 -0.5207  0.7346
 6483SOL    HW231083   0.413   4.166   2.871 -1.0437 -1.1528  1.9492
 6484SOL     OW31084   0.371   4.141  13.982  0.2988 -0.7125  0.0344
 6484SOL    HW131085   0.433   4.068  13.982  1.2450  0.0871 -0.6966
 6484SOL    HW231086   0.291   4.100  13.950 -0.5563  1.5104 -0.6729
 6485SOL     OW31087   1.813   2.570  10.352 -0.4469 -0.1338  0.2922
 6485SOL    HW131088   1.813   2.571  10.448  1.1923  1.9668  0.2836
 6485SOL    HW231089   1.906   2.552  10.338 -0.5589 -0.5780  0.1485
 6486SOL     OW31090   0.415   3.708   6.631  0.4552  0.0931  0.3170
 6486SOL    HW131091   0.357   3.675   6.700 -0.5773 -0.6721 -0.9171
 6486SOL    HW231092   0.355   3.703   6.557  0.4075  1.3234  0.2698
 6487SOL     OW31093   1.573   0.639   2.303  0.2678  0.1991  0.6471
 6487SOL    HW131094   1.653   0.691   2.289  0.8477 -1.2990 -1.6220
 6487SOL    HW231095   1.605   0.560   2.347  0.6064  0.4674  0.8847
 6488SOL     OW31096   4.339   0.030   5.171  0.3940 -0.1143 -0.1727
 6488SOL    HW131097   4.335   4.699   5.240 -2.7840 -0.6472 -0.8540
 6488SOL    HW231098   4.427   0.019   5.135  1.1042 -2.5121  2.3001
 6489SOL     OW31099   4.148   2.039   1.969 -0.6299  0.3789  0.6043
 6489SOL    HW131100   4.142   2.135   1.966  1.2269  0.4530 -1.0475
 6489SOL    HW231101   4.142   2.027   1.874  0.8850 -1.7769  0.7853
 6490SOL     OW31102   1.678   1.486  11.674  0.4021 -0.0947 -0.2154
 6490SOL    HW131103   1.617   1.544  11.628  0.6626  0.3595  0.0093
 6490SOL    HW231104   1.651   1.403  11.635  0.0929 -0.1853  0.1912
 6491SOL     OW31105   3.163   4.669   3.144 -0.8266  0.0357 -0.2002
 6491SOL    HW131106   3.159   4.682   3.050 -0.6933  0.7605 -0.1037
 6491SOL    HW231107   3.215   4.588   3.141 -2.1415 -0.9083  2.2336
 6492SOL     OW31108   0.233   4.132   4.792 -0.7041 -0.0278 -0.3854
 6492SOL    HW131109   0.142   4.107   4.776 -0.1494 -1.0969 -1.9054
 6492SOL    HW231110   0.278   4.064   4.741 -1.5503 -1.6551  1.0428
 6493SOL     OW31111   2.636   1.633   5.875 -0.4993  0.3454 -0.3436
 6493SOL    HW131112   2.682   1.701   5.925 -2.0432  0.1030  1.3575
 6493SOL    HW231113   2.641   1.557   5.932 -0.4343 -1.1732 -2.3527
 6494SOL     OW31114   4.429   1.536   4.802  0.3641 -0.4459  0.5952
 6494SOL    HW131115   4.419   1.614   4.747  2.8394  0.8840  2.0586
 6494SOL    HW231116   4.521   1.513   4.792 -0.0706 -1.4965 -1.0832
 6495SOL     OW31117   2.195   2.208   5.418 -0.5641 -0.8472 -0.4947
 6495SOL    HW131118   2.167   2.161   5.339  1.7236  1.0946 -2.4758
 6495SOL    HW231119   2.247   2.276   5.374 -2.6780 -0.5148 -2.4472
 6496SOL     OW31120   4.319   3.467   8.555 -0.2307 -0.5960  0.1940
 6496SOL    HW131121   4.282   3.461   8.467  0.1509  2.5033 -0.1810
 6496SOL    HW231122   4.247   3.422   8.599  0.9186 -2.4667  0.1651
 6497SOL     OW31123   1.028   3.780  14.082  0.0424 -0.1448 -0.7370
 6497SOL    HW131124   0.963   3.711  14.099 -1.9421  1.3619 -2.3015
 6497SOL    HW231125   1.052   3.809  14.170  2.4442  2.6165 -2.3362
 6498SOL     OW31126   0.492   1.965   7.232 -0.0664 -0.3137 -0.1215
 6498SOL    HW131127   0.520   1.887   7.280 -1.0463 -0.5385  0.0892
 6498SOL    HW231128   0.417   1.984   7.288 -0.3842 -0.1386 -0.6106
 6499SOL     OW31129   4.600   1.733  16.554  0.5265  0.5493  0.0758
 6499SOL    HW131130   4.608   1.764  16.644  0.1927 -2.0490  1.0036
 6499SOL    HW231131   4.639   1.645  16.560 -1.4372 -0.4351 -1.6472
 6500SOL     OW31132   0.072   3.821   0.789  0.1957  0.4428 -0.1818
 6500SOL    HW131133   0.021   3.740   0.801  1.6020 -0.0037  2.5417
 6500SOL    HW231134   0.025   3.883   0.844 -1.4044  0.9124 -2.0461
 6501SOL     OW31135   4.212   3.664   8.096 -0.1131  0.2045 -0.4361
 6501SOL    HW131136   4.166   3.746   8.083 -0.2452  0.0104 -1.2006
 6501SOL    HW231137   4.300   3.693   8.120 -0.2645  0.6067 -0.3799
 6502SOL     OW31138   1.571   3.413   9.885 -0.2283 -0.0992 -0.5124
 6502SOL    HW131139   1.606   3.331   9.921 -0.8815 -0.2053 -0.1121
 6502SOL    HW231140   1.634   3.467   9.933  0.6107 -1.7008  0.1876
 6503SOL     OW31141   4.264   3.084   9.214  0.7796 -0.1875  0.8333
 6503SOL    HW131142   4.184   3.135   9.224  0.7493  0.1813 -1.1730
 6503SOL    HW231143   4.238   2.992   9.208  0.7030 -0.1886  1.2433
 6504SOL     OW31144   0.138   2.351   4.176  0.3164 -0.3171 -0.4901
 6504SOL    HW131145   0.160   2.394   4.258  1.1252 -1.8590  0.1090
 6504SOL    HW231146   0.232   2.348   4.157  0.5132 -2.2519  0.7153
 6505SOL     OW31147   3.333   0.571   5.822 -0.0269  0.1853  0.3463
 6505SOL    HW131148   3.383   0.629   5.765  1.7276  0.4651  2.1520
 6505SOL    HW231149   3.335   0.487   5.776  2.0528  0.0908  0.6009
 6506SOL     OW31150   2.841   1.710   2.363  0.5550 -0.1908 -0.5493
 6506SOL    HW131151   2.755   1.741   2.392 -0.4735 -0.4341 -3.4390
 6506SOL    HW231152   2.816   1.630   2.317 -0.9279 -0.6951  1.1242
 6507SOL     OW31153   2.267   3.659   4.588  0.0480  0.1370 -0.0632
 6507SOL    HW131154   2.225   3.575   4.571 -0.4946 -0.4150  3.8538
 6507SOL    HW231155   2.308   3.648   4.674 -1.5224  0.9589  0.8068
 6508SOL     OW31156   1.613   1.675   3.104 -0.1039 -0.6545  0.7678
 6508SOL    HW131157   1.519   1.681   3.122 -0.8339  0.7382 -3.3655
 6508SOL    HW231158   1.621   1.737   3.032 -3.0922  0.6872  1.5807
 6509SOL     OW31159   4.257   2.160   9.307  0.3275 -0.3389 -0.1731
 6509SOL    HW131160   4.173   2.191   9.274 -0.1518 -1.0491  0.3891
 6509SOL    HW231161   4.274   2.243   9.351 -0.7736 -0.1286 -0.1494
 6510SOL     OW31162   3.327   2.998  17.739  0.8449 -0.5181  0.0294
 6510SOL    HW131163   3.237   2.985  17.709  1.2238 -1.8464 -0.5356
 6510SOL    HW231164   3.315   3.084   0.039 -0.2929 -0.5011 -0.3773
 6511SOL     OW31165   2.869   3.991   6.159  0.5115 -0.1064 -0.0715
 6511SOL    HW131166   2.848   3.905   6.195  3.2517  0.3628  2.6120
 6511SOL    HW231167   2.958   4.010   6.189  0.3494 -0.2684  0.5060
 6512SOL     OW31168   3.408   0.338   4.127  0.1890 -0.3304 -0.4945
 6512SOL    HW131169   3.405   0.277   4.200  0.0228 -0.1333 -0.3356
 6512SOL    HW231170   3.488   0.386   4.149  0.9777 -1.0645 -1.7523
 6513SOL     OW31171   2.612   0.999  10.970  0.3260  0.0631  0.2392
 6513SOL    HW131172   2.583   1.060  10.903  0.0594  1.2523  1.4453
 6513SOL    HW231173   2.628   1.055  11.046  0.5380  0.5399 -0.1552
 6514SOL     OW31174   1.882   2.101   6.809 -0.4634 -0.3369 -0.4351
 6514SOL    HW131175   1.937   2.078   6.734  0.8863 -0.4245  0.5959
 6514SOL    HW231176   1.834   2.019   6.819 -1.0950  0.0269 -0.4556
 6515SOL     OW31177   0.897   0.680   8.684 -0.3103 -0.0448  0.1020
 6515SOL    HW131178   0.949   0.665   8.762 -0.9874  3.2048  1.1931
 6515SOL    HW231179   0.949   0.746   8.639  0.5285 -0.9175 -0.1935
 6516SOL     OW31180   3.944   1.018  12.275 -0.3747 -0.4166 -0.1040
 6516SOL    HW131181   3.931   1.111  12.253  0.7842  0.0775  1.3261
 6516SOL    HW231182   3.863   0.978  12.242 -1.0726  0.6351  0.3064
 6517SOL     OW31183   3.994   0.115   1.793  0.3314 -0.2272  0.1505
 6517SOL    HW131184   4.040   0.181   1.844 -0.7070  0.1933  0.5487
 6517SOL    HW231185   3.953   0.175   1.730  1.9018  0.6067 -0.0803
 6518SOL     OW31186   4.041   3.100   9.987 -0.1579 -0.0261  0.0494
 6518SOL    HW131187   4.084   3.162   9.928 -1.0333  2.4828  2.0174
 6518SOL    HW231188   4.083   3.132  10.067  0.6996  0.5791 -0.6434
 6519SOL     OW31189   4.200   0.514   6.886 -0.2169 -0.3597 -0.2996
 6519SOL    HW131190   4.119   0.480   6.847 -1.1495  3.6190 -1.8061
 6519SOL    HW231191   4.268   0.486   6.825 -1.9859 -1.6571 -1.6990
 6520SOL     OW31192   3.989   0.109   6.627  0.0143 -0.3088  0.1242
 6520SOL    HW131193   3.911   0.156   6.596  0.9533 -0.3964 -2.3463
 6520SOL    HW231194   3.989   0.123   6.722 -1.3990 -1.7271  0.3307
 6521SOL     OW31195   3.751   0.895  12.124  0.4296 -0.1141 -0.3418
 6521SOL    HW131196   3.666   0.933  12.145  1.9426  2.7601  0.6006
 6521SOL    HW231197   3.739   0.861  12.035 -2.5306  2.0863 -0.7710
 6522SOL     OW31198   0.417   4.037   7.770 -0.8241 -0.0228 -0.7228
 6522SOL    HW131199   0.497   3.986   7.761  0.3249  1.3347  1.9750
 6522SOL    HW231200   0.415   4.107   7.705  0.1477 -1.0424 -1.8397
 6523SOL     OW31201   3.349   2.390   7.848 -0.1801  0.7241 -0.4774
 6523SOL    HW131202   3.336   2.462   7.910 -1.0836  1.4029 -1.4728
 6523SOL    HW231203   3.290   2.409   7.775 -1.5065 -4.3998 -0.7366
 6524SOL     OW31204   2.734   1.341  15.370  0.2552 -0.3274  0.3356
 6524SOL    HW131205   2.812   1.309  15.416  2.0025  0.1936 -2.2510
 6524SOL    HW231206   2.677   1.277  15.411 -0.5450  0.0063 -0.2647
 6525SOL     OW31207   4.570   2.083  13.384  0.5234 -0.1172  0.0167
 6525SOL    HW131208   4.611   2.122  13.307 -1.3003  0.0321 -0.8573
 6525SOL    HW231209   4.623   2.125  13.452  1.9163  1.6679 -2.1513
 6526SOL     OW31210   2.805   3.390   3.031  0.2007  0.4923 -0.7227
 6526SOL    HW131211   2.724   3.353   3.067  1.3713 -1.9041 -0.5640
 6526SOL    HW231212   2.878   3.336   3.061 -1.8572 -1.0026  1.5994
 6527SOL     OW31213   1.139   2.380  17.418  0.7423 -0.1182 -0.0230
 6527SOL    HW131214   1.181   2.294  17.413 -1.7839 -1.2699 -1.7005
 6527SOL    HW231215   1.213   2.438  17.437  0.9018 -0.0402 -0.9046
 6528SOL     OW31216   1.247   1.948   2.220  0.8064  0.4626 -0.3642
 6528SOL    HW131217   1.169   1.998   2.244  2.4808  1.6015  2.6872
 6528SOL    HW231218   1.226   1.859   2.249  2.7365  0.1525  0.0829
 6529SOL     OW31219   2.688   2.737   1.379  0.3981  0.1040 -0.4410
 6529SOL    HW131220   2.657   2.669   1.319  0.2043  1.1600 -1.5395
 6529SOL    HW231221   2.782   2.739   1.358  1.2355  2.5414  3.6053
 6530SOL     OW31222   2.023   3.803   3.497 -0.1221  0.0376 -0.2718
 6530SOL    HW131223   2.109   3.816   3.538 -0.5395 -0.0499  0.6417
 6530SOL    HW231224   2.048   3.738   3.432 -0.3496  0.4725 -0.7978
 6531SOL     OW31225   2.329   1.455   6.817 -0.2869 -0.0457 -0.3665
 6531SOL    HW131226   2.275   1.386   6.780 -0.6602 -0.3378  0.6999
 6531SOL    HW231227   2.401   1.408   6.859 -0.1285 -0.7686 -1.4693
 6532SOL     OW31228   3.888   0.780  12.849 -0.4114  0.1500  0.2206
 6532SOL    HW131229   3.952   0.729  12.800  1.1791  1.8649  0.5322
 6532SOL    HW231230   3.809   0.769  12.795 -2.0797  2.2358  2.2257
 6533SOL     OW31231   1.968   4.399   1.049 -0.6005  0.1918 -0.5687
 6533SOL    HW131232   2.061   4.382   1.057 -1.0246 -1.7990  0.2179
 6533SOL    HW231233   1.918   4.351   1.116 -0.5449 -1.0603 -1.4225
 6534SOL     OW31234   3.450   0.365   7.157 -0.0121  0.0375  0.5094
 6534SOL    HW131235   3.522   0.371   7.219  0.2024 -1.1716  0.3765
 6534SOL    HW231236   3.382   0.423   7.190  0.7423  1.9949 -1.3179
 6535SOL     OW31237   2.949   1.692   0.086 -0.1366  0.2769  0.2981
 6535SOL    HW131238   2.942   1.650   0.000 -3.0020 -0.6358  1.0018
 6535SOL    HW231239   2.963   1.785   0.066 -0.2232  0.1971 -0.1352
 6536SOL     OW31240   2.033   2.955   4.355  0.1151 -0.5360  0.2293
 6536SOL    HW131241   2.023   3.001   4.438 -3.5341 -2.7618  1.0075
 6536SOL    HW231242   2.071   3.026   4.303  0.8765  0.2644  1.8989
 6537SOL     OW31243   2.565   3.903   7.949  0.0981  0.5997 -0.0352
 6537SOL    HW131244   2.607   3.976   7.905  0.2677  0.9162  0.6464
 6537SOL    HW231245   2.647   3.855   7.962  0.5262  1.8840  1.9668
 6538SOL     OW31246   0.548   3.483   6.494  0.2022 -0.3275  0.0635
 6538SOL    HW131247   0.548   3.492   6.399  0.1099 -2.7787 -0.1591
 6538SOL    HW231248   0.510   3.565   6.526  0.1713  0.0889 -1.0325
 6539SOL     OW31249   1.479   2.919  12.922  0.5437 -0.1832 -0.1010
 6539SOL    HW131250   1.426   2.985  12.966 -1.2692 -1.6881 -0.0300
 6539SOL    HW231251   1.546   2.972  12.880 -0.8407  1.2897 -0.4367
 6540SOL     OW31252   3.740   2.242  16.265  0.2256 -0.2047 -0.1890
 6540SOL    HW131253   3.783   2.324  16.290  1.9898 -1.3381  0.5273
 6540SOL    HW231254   3.653   2.273  16.287 -0.3498 -1.1723 -1.0605
 6541SOL     OW31255   2.117   2.549   3.317 -0.2764  0.0557  0.3751
 6541SOL    HW131256   2.049   2.490   3.349 -0.8292  0.0244 -0.8295
 6541SOL    HW231257   2.155   2.485   3.257 -0.9238  0.2577 -0.2593
 6542SOL     OW31258   0.159   3.267   5.900  0.2656  0.5183 -0.2123
 6542SOL    HW131259   0.250   3.237   5.909  0.3289  1.2283  1.5653
 6542SOL    HW231260   0.155   3.273   5.805  0.3609  0.3781 -0.2248
 6543SOL     OW31261   1.333   4.256   6.592  0.0959  0.0886  0.2166
 6543SOL    HW131262   1.253   4.240   6.542 -0.5893 -1.8775  1.9240
 6543SOL    HW231263   1.380   4.174   6.579 -0.0294  0.0444  0.0440
 6544SOL     OW31264   1.765   4.722   6.508  0.6617  0.3253  0.1464
 6544SOL    HW131265   1.676   4.686   6.500  0.6555  0.6734 -1.3236
 6544SOL    HW231266   1.813   4.646   6.542 -2.2881 -1.4283  0.4646
 6545SOL     OW31267   2.956   1.062   4.209  0.3099 -0.0266  0.4864
 6545SOL    HW131268   2.920   1.006   4.141  1.3346 -1.5228  1.1707
 6545SOL    HW231269   2.905   1.038   4.286  0.9676 -0.9279  0.6422
 6546SOL     OW31270   1.869   0.954   7.003  0.4700  0.1868 -0.3603
 6546SOL    HW131271   1.874   1.002   7.086  1.7474 -1.5812  0.5795
 6546SOL    HW231272   1.803   1.007   6.958 -0.2163  1.3369  2.0153
 6547SOL     OW31273   2.571   1.845   1.762  0.0659 -0.5709 -0.0566
 6547SOL    HW131274   2.654   1.865   1.720 -0.8089  0.8034 -1.1368
 6547SOL    HW231275   2.598   1.842   1.854  0.9397 -1.5084 -0.3414
 6548SOL     OW31276   1.558   1.500  14.750 -0.3333  0.7720 -0.1950
 6548SOL    HW131277   1.615   1.568  14.785 -1.6167  1.6031  0.3069
 6548SOL    HW231278   1.571   1.505  14.655  0.0229 -0.0003 -0.1841
 6549SOL     OW31279   2.436   4.480   4.804  0.1466 -0.1660  0.2732
 6549SOL    HW131280   2.414   4.391   4.831  0.0966 -0.2317  0.0106
 6549SOL    HW231281   2.424   4.451   4.714 -0.6630 -2.9507  1.2795
 6550SOL     OW31282   3.959   1.879   1.806 -0.1274  0.1278  0.1025
 6550SOL    HW131283   3.989   1.790   1.788  1.3144  0.4907  0.6984
 6550SOL    HW231284   3.919   1.861   1.891 -0.4286  0.2287 -0.0209
 6551SOL     OW31285   4.086   1.088   3.872 -0.0549  0.2008  0.2664
 6551SOL    HW131286   4.008   1.037   3.847 -1.0740  1.6070  0.5872
 6551SOL    HW231287   4.135   1.086   3.791 -2.6649 -0.2818 -1.3068
 6552SOL     OW31288   0.796   4.398   9.874 -0.1360 -0.1135 -0.7933
 6552SOL    HW131289   0.789   4.315   9.828 -0.5139  0.6137 -2.0391
 6552SOL    HW231290   0.874   4.383   9.927 -1.8749 -4.0447  0.6246
 6553SOL     OW31291   1.150   0.021  12.656  0.0510  0.3042  0.4566
 6553SOL    HW131292   1.076   4.711  12.696  1.2968 -2.7094 -0.6594
 6553SOL    HW231293   1.192   0.056  12.735 -0.1449  0.9892  0.2607
 6554SOL     OW31294   3.203   4.719  17.273 -0.0314  0.5793 -0.5662
 6554SOL    HW131295   3.234   4.631  17.249 -0.5170 -0.6722  3.3860
 6554SOL    HW231296   3.184   4.698  17.364  0.7750  0.7871 -0.3459
 6555SOL     OW31297   3.958   4.210   7.853  0.2582  0.5655 -0.1062
 6555SOL    HW131298   3.928   4.280   7.795 -1.9722  0.9905  1.5687
 6555SOL    HW231299   3.941   4.241   7.942 -1.6399 -4.0607  1.1464
 6556SOL     OW31300   2.545   2.627   1.075  0.3571 -0.2962 -0.0824
 6556SOL    HW131301   2.487   2.701   1.093 -0.5535 -1.0356  0.0115
 6556SOL    HW231302   2.484   2.559   1.103  2.1816 -1.3012  1.5116
 6557SOL     OW31303   2.359   2.264   6.780  0.0804 -0.2593  0.0045
 6557SOL    HW131304   2.405   2.348   6.773 -1.2817  0.3724 -1.7309
 6557SOL    HW231305   2.370   2.249   6.873 -0.2294  0.3818  0.1472
 6558SOL     OW31306   1.714   0.498   9.824 -0.4598  0.6171 -0.0127
 6558SOL    HW131307   1.672   0.420   9.787 -0.8249  0.9681 -0.3412
 6558SOL    HW231308   1.637   0.554   9.834 -0.9017 -0.2814  1.6663
 6559SOL     OW31309   2.492   3.769  15.214 -0.0640 -0.2384 -0.1889
 6559SOL    HW131310   2.478   3.853  15.257 -0.6381  0.2980 -1.4479
 6559SOL    HW231311   2.587   3.757  15.214 -0.2446 -1.7158  0.9375
 6560SOL     OW31312   3.828   1.912  14.829  0.1099 -0.0705 -0.5504
 6560SOL    HW131313   3.835   1.977  14.899 -0.2543 -0.0716 -0.5151
 6560SOL    HW231314   3.804   1.828  14.868 -1.3046  1.3792  1.6852
 6561SOL     OW31315   2.777   0.511   5.300 -0.2120 -0.3270 -0.3685
 6561SOL    HW131316   2.779   0.520   5.204 -2.5604  1.1464 -0.2919
 6561SOL    HW231317   2.863   0.475   5.320  0.2868  2.0822  1.7656
 6562SOL     OW31318   0.003   3.215   5.486  0.1371 -0.0779  0.9328
 6562SOL    HW131319   4.656   3.196   5.439  0.2733  0.9959  0.2523
 6562SOL    HW231320   4.721   3.153   5.557  0.2209 -0.3204  0.7419
 6563SOL     OW31321   1.937   4.552   6.933 -0.2767  0.4235  0.0234
 6563SOL    HW131322   1.955   4.486   7.000  1.6030  1.6848  0.7615
 6563SOL    HW231323   1.876   4.607   6.982 -0.6101  0.3153 -0.2693
 6564SOL     OW31324   4.536   3.990   7.924  0.1984 -0.2499  0.2450
 6564SOL    HW131325   4.507   4.081   7.920  1.8944  0.3921  2.3072
 6564SOL    HW231326   4.533   3.962   7.833 -0.1372  1.5726 -0.3105
 6565SOL     OW31327   2.634   0.159   4.647  0.9174  0.0726 -0.1771
 6565SOL    HW131328   2.552   0.111   4.639  0.6302  0.5361 -0.0112
 6565SOL    HW231329   2.625   0.231   4.585  2.5007 -0.0450 -0.5523
 6566SOL     OW31330   2.982   3.668   8.190 -0.3133  0.6622  0.2623
 6566SOL    HW131331   2.912   3.617   8.230  0.5683 -0.6091  0.1789
 6566SOL    HW231332   2.969   3.755   8.229 -2.2451 -0.0780  1.2509
 6567SOL     OW31333   3.234   3.804   3.529 -0.1986 -0.1186 -0.5779
 6567SOL    HW131334   3.303   3.819   3.464  0.9460 -3.6282 -0.2035
 6567SOL    HW231335   3.249   3.880   3.585 -0.7078  0.1001 -0.7433
 6568SOL     OW31336   3.895   3.208   6.112  0.5627  0.4965 -0.2359
 6568SOL    HW131337   3.885   3.179   6.203 -0.3696  0.0210 -0.4844
 6568SOL    HW231338   3.856   3.132   6.069 -0.5682  1.1799 -0.4163
 6569SOL     OW31339   4.026   0.952   6.118  0.0315  0.1146 -0.1676
 6569SOL    HW131340   4.111   0.990   6.139 -0.7511  1.8639 -0.1841
 6569SOL    HW231341   4.050   0.886   6.053 -1.6835  0.5894 -1.2853
 6570SOL     OW31342   1.145   4.459   9.602 -0.0419 -1.1382  0.3642
 6570SOL    HW131343   1.109   4.546   9.620  0.4892 -0.6796 -0.7797
 6570SOL    HW231344   1.236   4.476   9.579  0.4894 -1.5258  2.1341
 6571SOL     OW31345   3.232   1.726   3.985 -0.4675 -0.0926 -0.0186
 6571SOL    HW131346   3.180   1.801   4.013 -0.4201  0.7289 -2.1146
 6571SOL    HW231347   3.206   1.661   4.049 -0.6686 -1.1911 -1.2149
 6572SOL     OW31348   1.558   3.174   3.680 -0.0167  0.1334  0.3184
 6572SOL    HW131349   1.625   3.108   3.697 -0.5693 -0.5365 -0.0861
 6572SOL    HW231350   1.532   3.158   3.589  0.4753 -1.0604  0.3789
 6573SOL     OW31351   4.331   1.532   7.070  0.2488 -0.1798  0.2843
 6573SOL    HW131352   4.288   1.611   7.104 -1.1277 -0.4731 -0.8120
 6573SOL    HW231353   4.260   1.469   7.063 -0.8082  0.8704  1.4304
 6574SOL     OW31354   0.233   3.243   5.633  0.3840  0.5042  0.6723
 6574SOL    HW131355   0.264   3.155   5.613 -0.7566  0.1294  0.5417
 6574SOL    HW231356   0.157   3.246   5.575  0.4194  2.0645  0.7059
 6575SOL     OW31357   1.684   1.881   8.679 -0.3319  0.4033  0.4332
 6575SOL    HW131358   1.659   1.934   8.755 -0.1276 -0.2707  0.9687
 6575SOL    HW231359   1.716   1.952   8.624 -0.4736 -1.1660 -1.6499
 6576SOL     OW31360   0.055   0.026   2.960 -0.7326 -0.1776 -0.1258
 6576SOL    HW131361   4.719   4.720   3.010  0.9876 -1.7065  1.0188
 6576SOL    HW231362   0.017   0.106   2.923  0.5586  0.8104  0.7024
 6577SOL     OW31363   1.213   0.118   9.461 -0.2875  0.1347  0.2158
 6577SOL    HW131364   1.293   0.147   9.418 -0.6852  0.2495 -0.4495
 6577SOL    HW231365   1.165   0.101   9.380  0.9831  0.9381 -0.7100
 6578SOL     OW31366   3.526   3.215   7.640  0.3506 -0.8148  0.4253
 6578SOL    HW131367   3.551   3.186   7.552  0.8229  0.0243  0.2821
 6578SOL    HW231368   3.434   3.191   7.644 -0.5408  2.5771  0.3655
 6579SOL     OW31369   3.786   3.450  12.484  0.5450 -0.6653 -0.0820
 6579SOL    HW131370   3.859   3.423  12.428  0.9164  0.4389 -0.1214
 6579SOL    HW231371   3.736   3.368  12.481 -0.3606 -0.1431  0.5864
 6580SOL     OW31372   1.646   3.290  13.020  0.0342 -0.1648  0.6405
 6580SOL    HW131373   1.627   3.349  13.092  0.2687  0.2885  0.3330
 6580SOL    HW231374   1.595   3.215  13.050  0.4338 -0.5369  0.3916
 6581SOL     OW31375   4.055   0.507  17.436 -0.0116 -0.6881 -0.1526
 6581SOL    HW131376   4.100   0.467  17.511 -0.2748 -0.3612  0.1846
 6581SOL    HW231377   4.000   0.433  17.411  1.2768 -1.5632 -0.4232
 6582SOL     OW31378   4.361   3.652   6.003  0.2505 -0.0058 -0.4918
 6582SOL    HW131379   4.381   3.635   5.911  1.0692  2.5242 -0.7863
 6582SOL    HW231380   4.268   3.674   5.999  0.2397  0.2170  1.2026
 6583SOL     OW31381   3.263   2.337  16.001 -0.9730 -0.3347 -0.1001
 6583SOL    HW131382   3.168   2.326  16.010 -0.7221 -0.4196  2.2285
 6583SOL    HW231383   3.290   2.252  16.036  0.4546 -0.7436 -2.1535
 6584SOL     OW31384   2.965   2.321   6.548  0.2320 -0.0575  0.0108
 6584SOL    HW131385   3.035   2.347   6.608 -0.2592  0.0719  0.5337
 6584SOL    HW231386   3.010   2.349   6.469  1.4848 -0.6714  0.4940
 6585SOL     OW31387   2.008   0.333   8.328 -0.7587  0.4230  0.0323
 6585SOL    HW131388   1.914   0.343   8.340 -1.1843 -0.1261 -2.7015
 6585SOL    HW231389   2.011   0.316   8.233 -5.4054 -1.0724  0.1604
 6586SOL     OW31390   0.389   2.015  16.846  0.2588 -0.2271 -0.4532
 6586SOL    HW131391   0.319   1.973  16.795  1.0022 -2.4357  0.3456
 6586SOL    HW231392   0.340   2.088  16.884  0.1561 -2.2122  3.2307
 6587SOL     OW31393   4.053   1.496  17.111  0.4344 -0.1946 -0.1511
 6587SOL    HW131394   4.080   1.422  17.057 -0.6713 -1.4026  0.9097
 6587SOL    HW231395   3.968   1.461  17.139 -0.3717  0.4707 -1.7952
 6588SOL     OW31396   0.753   4.015   0.856 -0.2774  0.5697 -0.0683
 6588SOL    HW131397   0.799   4.087   0.899 -0.1251 -0.1060  0.8996
 6588SOL    HW231398   0.697   4.068   0.799 -1.4852 -0.3068  0.2939
 6589SOL     OW31399   1.584   3.495   7.198 -0.9045  0.0612 -0.2186
 6589SOL    HW131400   1.516   3.553   7.231  0.1188 -0.7680  3.2671
 6589SOL    HW231401   1.606   3.539   7.115 -1.0635  2.5767  1.0872
 6590SOL     OW31402   0.098   3.730   7.043  0.4170 -0.3105  0.4548
 6590SOL    HW131403   0.009   3.702   7.020  1.6198 -2.7461 -1.2377
 6590SOL    HW231404   0.089   3.825   7.037 -0.5905 -0.3189  1.9654
 6591SOL     OW31405   2.895   0.033  12.058 -0.4157  0.1639 -0.2419
 6591SOL    HW131406   2.805   0.035  12.024 -0.3907  0.6885 -0.2752
 6591SOL    HW231407   2.896   0.098  12.128  0.1772  0.6056 -0.6632
 6592SOL     OW31408   3.207   4.594   3.693 -0.0097  0.0951 -0.1431
 6592SOL    HW131409   3.190   4.506   3.728 -2.3849  1.0584  1.1134
 6592SOL    HW231410   3.198   4.567   3.602 -1.9420 -0.1021  0.0985
 6593SOL     OW31411   3.991   2.458  13.835  0.4644  0.2053 -0.5701
 6593SOL    HW131412   4.078   2.471  13.872 -0.7817 -1.2744  2.8524
 6593SOL    HW231413   3.962   2.549  13.838  1.9580  0.6710 -0.3336
 6594SOL     OW31414   1.232   1.644   2.081  0.2039 -0.3235  0.1014
 6594SOL    HW131415   1.193   1.606   2.003 -0.6960  0.5686  0.1089
 6594SOL    HW231416   1.291   1.711   2.047 -2.2734  0.3427 -2.9057
 6595SOL     OW31417   4.375   3.587   5.481  0.5878  0.4572  0.2774
 6595SOL    HW131418   4.405   3.569   5.392 -1.5146  1.8567 -0.7018
 6595SOL    HW231419   4.289   3.548   5.473  0.8389  0.3885 -1.9835
 6596SOL     OW31420   1.461   1.177  16.473  0.4699  0.1315  0.3280
 6596SOL    HW131421   1.411   1.149  16.397  1.9898 -1.7810  0.0215
 6596SOL    HW231422   1.521   1.230  16.421  0.6040  0.6088  0.9757
 6597SOL     OW31423   1.621   2.661   5.998  0.1016 -1.0117 -0.3052
 6597SOL    HW131424   1.615   2.580   6.050  1.0208 -0.8200  0.0885
 6597SOL    HW231425   1.715   2.676   6.002  0.0383 -0.7937  0.3129
 6598SOL     OW31426   1.154   0.076   7.969  0.0011  0.1438 -0.2356
 6598SOL    HW131427   1.221   0.070   8.038  1.3246 -0.1888 -1.5591
 6598SOL    HW231428   1.075   0.045   8.013 -0.3343 -0.5435 -1.3239
 6599SOL     OW31429   1.970   2.578  12.421 -0.2958  0.1087  0.0435
 6599SOL    HW131430   2.007   2.492  12.404 -0.2694  0.2157 -0.4494
 6599SOL    HW231431   2.041   2.628  12.462 -0.6990  1.1297 -0.4947
 6600SOL     OW31432   0.799   1.276   8.211  0.2856  0.9930  1.0748
 6600SOL    HW131433   0.743   1.260   8.287 -1.2863  1.1135 -0.0647
 6600SOL    HW231434   0.859   1.203   8.227  0.8548  1.1346 -0.4695
 6601SOL     OW31435   3.140   1.816  17.370 -0.3135 -0.6224 -0.6910
 6601SOL    HW131436   3.185   1.851  17.294 -2.5300 -0.6010 -2.0074
 6601SOL    HW231437   3.103   1.893  17.414 -0.6381 -1.6080  0.7401
 6602SOL     OW31438   2.242   2.416   7.768 -0.1969  0.4228  0.3614
 6602SOL    HW131439   2.232   2.487   7.832  1.4123  0.0393  1.0326
 6602SOL    HW231440   2.152   2.384   7.759 -0.1987  0.6550 -0.4287
 6603SOL     OW31441   2.866   3.227   4.989 -0.4904  0.4659 -0.3142
 6603SOL    HW131442   2.912   3.148   4.959 -0.9878 -0.0247  0.2311
 6603SOL    HW231443   2.819   3.187   5.062 -1.5434  1.1982 -0.5906
 6604SOL     OW31444   0.573   0.961   5.555 -0.1562  0.6149 -0.3291
 6604SOL    HW131445   0.611   0.928   5.473  3.6961  0.3665  1.5352
 6604SOL    HW231446   0.498   1.011   5.523 -2.1666 -1.1936  1.5619
 6605SOL     OW31447   0.434   3.170   9.563 -0.8074 -0.0089  0.5433
 6605SOL    HW131448   0.511   3.202   9.610 -1.6830  0.8959  1.3666
 6605SOL    HW231449   0.440   3.209   9.475 -0.2059  1.1972  1.1226
 6606SOL     OW31450   3.648   0.714   4.802  0.4259  0.0878 -0.1530
 6606SOL    HW131451   3.644   0.721   4.706 -1.7104  2.0298  0.0595
 6606SOL    HW231452   3.699   0.634   4.805  2.1394  1.2690  1.6339
 6607SOL     OW31453   3.771   0.237   2.798 -0.2643 -0.0117 -0.1289
 6607SOL    HW131454   3.707   0.248   2.868 -1.2485 -2.0630 -0.6941
 6607SOL    HW231455   3.855   0.267   2.831 -1.0699  0.8595  1.1428
 6608SOL     OW31456   4.332   3.643   6.303  0.5668  0.2158 -0.0412
 6608SOL    HW131457   4.245   3.607   6.319  0.3913  1.0518  0.8924
 6608SOL    HW231458   4.363   3.598   6.225  3.9613  1.5164  0.5597
 6609SOL     OW31459   4.501   2.453   4.872  0.2291 -0.6673  0.3218
 6609SOL    HW131460   4.563   2.475   4.942  0.0294  1.5609 -0.1812
 6609SOL    HW231461   4.551   2.434   4.793  0.9154  1.1657  0.3157
 6610SOL     OW31462   0.327   3.686   9.743 -0.0429 -0.1737 -0.5521
 6610SOL    HW131463   0.336   3.594   9.768 -4.2795 -1.0919 -2.2759
 6610SOL    HW231464   0.362   3.689   9.654  0.4699  1.0650 -0.3053
 6611SOL     OW31465   3.452   1.670   8.534 -0.2336  0.0622  0.1066
 6611SOL    HW131466   3.444   1.615   8.612  1.4264 -0.6410 -0.2069
 6611SOL    HW231467   3.367   1.655   8.492 -1.7890  1.0537  2.9282
 6612SOL     OW31468   1.353   2.232  11.642 -0.5349  0.1610 -0.2718
 6612SOL    HW131469   1.419   2.281  11.592 -0.0837  1.4759  1.6361
 6612SOL    HW231470   1.346   2.151  11.591 -0.5239 -0.3951  0.6158
 6613SOL     OW31471   0.782   1.697   5.820  0.4681 -0.3360 -0.6400
 6613SOL    HW131472   0.709   1.647   5.782 -0.3296 -0.4734  1.0886
 6613SOL    HW231473   0.774   1.671   5.912  0.9120  1.2357 -0.1562
 6614SOL     OW31474   2.432   3.073   1.643  0.1620  1.0453 -0.2135
 6614SOL    HW131475   2.440   3.158   1.601 -0.2151  1.3520  0.3382
 6614SOL    HW231476   2.524   3.047   1.637  0.0627  0.6101  0.1498
 6615SOL     OW31477   0.276   0.107   3.128  0.7781 -0.3481  0.0340
 6615SOL    HW131478   0.195   0.095   3.079  1.3489  1.7012 -1.4097
 6615SOL    HW231479   0.280   0.020   3.167  1.5150  0.0629  0.8700
 6616SOL     OW31480   2.917   3.153  16.693  0.1562  0.2063 -0.2989
 6616SOL    HW131481   2.848   3.093  16.666 -0.0037  0.6526 -0.8876
 6616SOL    HW231482   2.990   3.092  16.685  1.7041  2.0966 -0.5380
 6617SOL     OW31483   3.168   3.745   9.343  0.0772  0.2855 -0.6275
 6617SOL    HW131484   3.181   3.819   9.403 -2.8788 -0.9501  1.5402
 6617SOL    HW231485   3.189   3.785   9.259  0.2447 -0.1092 -0.7714
 6618SOL     OW31486   2.293   3.217   0.515  0.0040 -0.4268 -0.3095
 6618SOL    HW131487   2.205   3.180   0.506 -0.3190 -0.0655  1.4475
 6618SOL    HW231488   2.307   3.222   0.609 -2.5949  0.3819  0.0262
 6619SOL     OW31489   3.605   4.631  16.360 -0.7372  0.0517 -0.0525
 6619SOL    HW131490   3.653   4.688  16.300  0.7975 -2.0614 -0.8359
 6619SOL    HW231491   3.584   4.557  16.303  2.1299 -0.0088 -1.0055
 6620SOL     OW31492   0.768   3.153   0.928  0.7031 -0.0924  0.1695
 6620SOL    HW131493   0.711   3.084   0.963  2.0145 -1.7917 -1.0234
 6620SOL    HW231494   0.715   3.185   0.856 -0.2145  0.1649  0.9689
 6621SOL     OW31495   2.842   4.374   7.068  1.2616 -0.3882 -0.1035
 6621SOL    HW131496   2.800   4.371   7.154  0.2224 -1.2839 -0.6472
 6621SOL    HW231497   2.880   4.287   7.058  1.3484 -0.6405  2.3977
 6622SOL     OW31498   2.678   2.507   8.499  0.0763 -0.3443  0.0244
 6622SOL    HW131499   2.585   2.485   8.493 -0.0187 -0.0191  0.2768
 6622SOL    HW231500   2.706   2.447   8.431  0.8398 -1.1172  1.0165
 6623SOL     OW31501   0.970   4.480   5.238  0.7066 -0.1983 -0.4412
 6623SOL    HW131502   0.955   4.447   5.149 -1.0372 -1.6815  0.4189
 6623SOL    HW231503   0.894   4.538   5.247 -0.0676 -1.4292  1.0191
 6624SOL     OW31504   3.586   3.264  12.532 -0.0972 -0.0197 -0.0005
 6624SOL    HW131505   3.529   3.269  12.609 -1.8657 -0.0048 -1.3249
 6624SOL    HW231506   3.557   3.180  12.497  1.1437 -0.3347 -0.2818
 6625SOL     OW31507   3.347   4.308   7.614  0.1132  0.3534 -0.8578
 6625SOL    HW131508   3.277   4.372   7.600  1.5255  1.9117 -0.8119
 6625SOL    HW231509   3.420   4.369   7.622  0.3820  0.0475 -0.9715
 6626SOL     OW31510   2.480   1.741   8.595  0.2953  0.4009 -0.4042
 6626SOL    HW131511   2.424   1.726   8.518 -1.1352 -2.2531  1.1770
 6626SOL    HW231512   2.570   1.729   8.565 -0.5314 -1.1380 -2.3000
 6627SOL     OW31513   0.181   0.803   7.078 -0.0782  0.5530  0.4100
 6627SOL    HW131514   0.115   0.827   7.144 -0.9247  1.8187 -0.8953
 6627SOL    HW231515   0.170   0.868   7.009 -0.9010  2.4026  2.2478
 6628SOL     OW31516   0.370   2.593   3.255 -0.7954 -0.1202  0.7197
 6628SOL    HW131517   0.457   2.604   3.293 -0.7983 -1.7711  1.2036
 6628SOL    HW231518   0.312   2.632   3.322 -0.5034  1.8982 -0.2043
 6629SOL     OW31519   3.373   2.967   7.282  1.0811 -0.0529  0.0201
 6629SOL    HW131520   3.428   2.890   7.297  1.5181  0.0197 -1.1490
 6629SOL    HW231521   3.426   3.010   7.215  0.2610  1.8020  0.5725
 6630SOL     OW31522   3.704   1.063   6.445 -0.7008 -0.6870  0.0555
 6630SOL    HW131523   3.786   1.015   6.456 -0.4150  0.3623  2.5123
 6630SOL    HW231524   3.705   1.082   6.351 -0.2990 -3.5457 -0.5220
 6631SOL     OW31525   3.503   2.761   2.830 -0.1024  0.5307  0.3044
 6631SOL    HW131526   3.480   2.737   2.920  0.8314  0.3215  0.4830
 6631SOL    HW231527   3.417   2.768   2.789  0.3386  0.6694 -0.5984
 6632SOL     OW31528   3.206   3.962   4.557  0.6445 -0.4171 -0.2714
 6632SOL    HW131529   3.206   3.900   4.630  0.6803 -0.5166 -0.3550
 6632SOL    HW231530   3.278   3.916   4.513  0.1940 -1.6917  0.3427
 6633SOL     OW31531   0.467   4.454   6.354  0.1419 -0.5224 -0.2803
 6633SOL    HW131532   0.464   4.536   6.404 -2.4267 -0.4499 -0.5472
 6633SOL    HW231533   0.538   4.407   6.398  1.2260  2.2127  0.8944
 6634SOL     OW31534   4.418   4.597   5.412 -0.0875  0.5416  0.1006
 6634SOL    HW131535   4.339   4.627   5.458  0.5656  2.3415  0.0516
 6634SOL    HW231536   4.423   4.508   5.446 -0.4337  0.1744 -0.8218
 6635SOL     OW31537   2.053   4.528   4.637  0.7581  0.0541  0.0176
 6635SOL    HW131538   2.069   4.568   4.723  0.3079  0.6926 -0.1998
 6635SOL    HW231539   1.958   4.542   4.639  0.5852 -1.1535  0.4290
 6636SOL     OW31540   4.358   1.612   9.478 -0.4080  0.0730  0.1361
 6636SOL    HW131541   4.277   1.585   9.522 -0.8495 -1.4457 -1.6055
 6636SOL    HW231542   4.416   1.543   9.509  0.5513  0.4031 -0.9276
 6637SOL     OW31543   4.030   4.627   3.735 -0.4882  0.3873 -0.1577
 6637SOL    HW131544   4.019   4.631   3.640 -2.8111  1.9812  0.1794
 6637SOL    HW231545   3.975   4.701   3.761  1.8153  1.3409  1.9581
 6638SOL     OW31546   1.605   2.608  15.770 -0.3746 -0.8395 -0.3286
 6638SOL    HW131547   1.551   2.684  15.748  2.2624  1.7496  2.0882
 6638SOL    HW231548   1.552   2.573  15.842  0.4944  1.0754  1.2489
 6639SOL     OW31549   3.283   3.527  16.773 -0.2645 -0.1804  0.1743
 6639SOL    HW131550   3.196   3.543  16.736 -0.8327 -0.5045  1.3758
 6639SOL    HW231551   3.283   3.596  16.840 -0.4933 -1.1858  1.2031
 6640SOL     OW31552   1.706   4.618  17.147 -0.5676 -0.7066  0.3915
 6640SOL    HW131553   1.626   4.669  17.159  0.4908  0.4583  2.6215
 6640SOL    HW231554   1.767   4.665  17.090 -1.2246 -0.3565 -0.0234
 6641SOL     OW31555   3.039   2.713   0.060 -0.2749  0.5145 -0.0849
 6641SOL    HW131556   3.051   2.791   0.006  3.6820 -0.8210 -1.1357
 6641SOL    HW231557   3.099   2.653   0.016  0.4661  0.3066  1.1946
 6642SOL     OW31558   3.020   0.209   5.787  0.0984  0.1825 -0.8893
 6642SOL    HW131559   2.992   0.301   5.792 -1.8786 -0.3441 -2.4915
 6642SOL    HW231560   2.997   0.172   5.872  0.7774  3.0201  0.5518
 6643SOL     OW31561   3.921   1.458   3.785 -0.7136  0.2945 -0.5268
 6643SOL    HW131562   3.879   1.517   3.848  1.6521  1.9803 -0.5095
 6643SOL    HW231563   3.979   1.415   3.848 -0.0245 -0.7281 -1.8883
 6644SOL     OW31564   0.871   4.726   4.834 -0.4743  0.4752  0.1177
 6644SOL    HW131565   0.833   0.021   4.752 -0.0630 -2.3551 -1.1074
 6644SOL    HW231566   0.964   4.721   4.813 -0.5120 -0.6093  0.1787
 6645SOL     OW31567   1.839   1.494   8.087  0.3490 -0.3335 -0.0025
 6645SOL    HW131568   1.834   1.518   8.180  0.5517  1.9871 -0.6008
 6645SOL    HW231569   1.751   1.459   8.075 -0.4486  1.1686  1.4320
 6646SOL     OW31570   2.381   2.161   2.417  0.3766  0.3200 -0.1183
 6646SOL    HW131571   2.416   2.077   2.388  3.6923  1.7157 -0.1431
 6646SOL    HW231572   2.307   2.175   2.358  0.9060  0.8413 -0.6597
 6647SOL     OW31573   2.973   2.548   3.173 -0.3244  0.2236 -0.1826
 6647SOL    HW131574   3.012   2.474   3.220 -2.0434 -0.0602  0.7921
 6647SOL    HW231575   2.881   2.525   3.190 -0.3148 -1.4881 -2.5411
 6648SOL     OW31576   2.668   0.010  15.017  0.3331  0.4047 -0.1590
 6648SOL    HW131577   2.704   0.072  14.954  1.3542 -0.4602 -0.4306
 6648SOL    HW231578   2.580   4.730  14.983 -0.3246  1.1158  1.1996
 6649SOL     OW31579   1.972   4.630   5.994 -0.4390  0.4769 -0.3206
 6649SOL    HW131580   2.026   4.708   5.991 -3.5123  2.6911  1.6222
 6649SOL    HW231581   2.030   4.560   5.963  0.4644  0.5485  1.1918
 6650SOL     OW31582   2.678   1.362  11.707  0.0930 -0.1955  0.2051
 6650SOL    HW131583   2.614   1.294  11.731  0.2375 -0.7237 -0.8980
 6650SOL    HW231584   2.640   1.450  11.707  0.1271 -0.1932 -1.7040
 6651SOL     OW31585   2.198   3.856   2.083  0.1560 -0.0470 -0.3316
 6651SOL    HW131586   2.195   3.930   2.023  0.2589  0.7089  0.6014
 6651SOL    HW231587   2.226   3.898   2.164  0.2376  1.7020 -1.2678
 6652SOL     OW31588   0.319   1.681   1.331  0.1885  0.5782 -0.4319
 6652SOL    HW131589   0.279   1.621   1.393  4.8717 -1.0944  0.9858
 6652SOL    HW231590   0.352   1.613   1.273 -2.3279  0.0719 -1.2769
 6653SOL     OW31591   0.362   2.937   3.617 -0.0165 -0.1466 -0.0255
 6653SOL    HW131592   0.408   2.965   3.538  2.0202 -3.4464 -0.0314
 6653SOL    HW231593   0.408   2.854   3.635  0.6741  0.4191  0.8398
 6654SOL     OW31594   3.130   2.751   8.870 -0.4166  0.4445  0.0870
 6654SOL    HW131595   3.077   2.780   8.944  0.3425  1.9499  0.0389
 6654SOL    HW231596   3.143   2.833   8.823  0.3132  1.1931  1.5663
 6655SOL     OW31597   2.410   3.479   3.141  0.2468 -0.4605 -0.1824
 6655SOL    HW131598   2.476   3.478   3.071 -2.6687  0.1640 -2.9016
 6655SOL    HW231599   2.373   3.564   3.119 -0.4978 -0.4204  1.2288
 6656SOL     OW31600   2.792   1.605  15.346 -0.1850 -0.7898  0.0286
 6656SOL    HW131601   2.767   1.514  15.363 -0.5687 -0.7685 -0.4365
 6656SOL    HW231602   2.773   1.608  15.253 -0.9211 -1.7707  0.1435
 6657SOL     OW31603   3.680   2.690   2.378 -0.7874 -0.1344 -0.2863
 6657SOL    HW131604   3.660   2.647   2.461  2.7053 -0.3129  0.4877
 6657SOL    HW231605   3.747   2.753   2.405 -1.9995  1.9381 -2.1464
 6658SOL     OW31606   1.023   3.515   3.828 -0.0583  0.4767  0.3997
 6658SOL    HW131607   0.951   3.527   3.765 -1.2470 -0.6274  1.5652
 6658SOL    HW231608   1.024   3.421   3.813  2.6187  0.9529 -2.3465
 6659SOL     OW31609   1.171   3.923   2.266  0.2026 -0.3375  0.1348
 6659SOL    HW131610   1.109   3.918   2.338  1.3074  3.2330  1.3465
 6659SOL    HW231611   1.183   4.018   2.275 -0.6764 -0.3762  1.6468
 6660SOL     OW31612   0.340   3.936   4.639  0.7066  0.6226 -0.7100
 6660SOL    HW131613   0.255   3.893   4.651  0.6076  1.0244  0.0507
 6660SOL    HW231614   0.400   3.862   4.628 -1.3705 -0.9056 -1.8004
 6661SOL     OW31615   3.859   1.269   3.591  0.2833 -0.1268 -0.2025
 6661SOL    HW131616   3.883   1.332   3.659 -0.8065  0.7313 -0.6069
 6661SOL    HW231617   3.803   1.322   3.534  0.3203 -0.9516 -1.0002
 6662SOL     OW31618   2.999   0.038   3.797 -0.3882  0.3189  0.1419
 6662SOL    HW131619   3.034   0.036   3.886 -0.5552 -0.9979  0.1856
 6662SOL    HW231620   3.060   4.712   3.754 -0.4724  0.2002  0.1909
 6663SOL     OW31621   2.513   0.243  10.749  0.5902  0.0330 -0.1340
 6663SOL    HW131622   2.575   0.244  10.677 -0.7657 -0.2386 -1.3042
 6663SOL    HW231623   2.437   0.266  10.696  2.4561 -1.4255 -3.4600
 6664SOL     OW31624   0.667   4.085   4.943  0.3339  0.5697 -0.6989
 6664SOL    HW131625   0.574   4.062   4.936  0.4199  0.6213 -1.9034
 6664SOL    HW231626   0.694   4.111   4.855  2.8015  0.7788  0.1061
 6665SOL     OW31627   3.161   2.394   1.645 -0.3850 -0.4239  0.0079
 6665SOL    HW131628   3.158   2.374   1.552 -0.3264  1.9700 -0.4999
 6665SOL    HW231629   3.224   2.466   1.637 -0.0694 -0.7764 -0.7031
 6666SOL     OW31630   3.682   0.680   6.651  0.2589 -0.2642 -0.1400
 6666SOL    HW131631   3.651   0.624   6.722  0.2763  1.6840  1.3823
 6666SOL    HW231632   3.740   0.741   6.696 -1.5628  0.0101  1.8411
 6667SOL     OW31633   2.413   4.461   5.189 -0.3130  0.0677 -0.2910
 6667SOL    HW131634   2.447   4.385   5.141  0.9392  0.6574 -0.3280
 6667SOL    HW231635   2.372   4.415   5.263 -2.9356  0.6474 -1.3698
 6668SOL     OW31636   3.082   3.873   2.966  0.1536 -0.4909  0.8203
 6668SOL    HW131637   3.172   3.893   2.992  0.6544 -2.3508  0.5054
 6668SOL    HW231638   3.028   3.869   3.045  1.0152 -0.6473  1.3989
 6669SOL     OW31639   0.540   3.412  13.054 -0.2694  0.7908 -0.4773
 6669SOL    HW131640   0.564   3.408  13.146 -1.2653  0.3319 -0.2331
 6669SOL    HW231641   0.607   3.354  13.019 -0.0656  0.1241  1.0321
 6670SOL     OW31642   2.341   2.177   8.604  0.3521 -0.1270 -0.1876
 6670SOL    HW131643   2.394   2.256   8.617 -1.0967  0.7459  0.3237
 6670SOL    HW231644   2.371   2.129   8.527  1.7936  0.0724  0.2438
 6671SOL     OW31645   0.219   1.503   7.601 -0.1221  0.3515  0.0891
 6671SOL    HW131646   0.296   1.560   7.595  1.0333 -1.3194 -0.7438
 6671SOL    HW231647   0.203   1.528   7.692  1.0134  1.9143 -0.1351
 6672SOL     OW31648   2.174   3.925   4.823  0.2616  0.1351 -0.0840
 6672SOL    HW131649   2.177   3.883   4.909  2.3369  0.1647 -0.1329
 6672SOL    HW231650   2.267   3.945   4.810  0.9637 -0.3130  4.2222
 6673SOL     OW31651   4.137   0.271  12.208  0.5682 -0.5573 -0.3097
 6673SOL    HW131652   4.170   0.327  12.278  1.4307 -0.5622 -0.7041
 6673SOL    HW231653   4.054   0.316  12.197  0.0379 -1.4176  0.2548
 6674SOL     OW31654   3.287   0.162   7.345 -0.6505 -0.1735 -0.4835
 6674SOL    HW131655   3.199   0.149   7.309 -1.5846 -1.0094  2.0891
 6674SOL    HW231656   3.334   0.190   7.267  1.6545  2.6885  1.9157
 6675SOL     OW31657   1.581   0.225  15.523 -0.5051 -0.0186  0.5151
 6675SOL    HW131658   1.571   0.319  15.538  0.6328 -0.0606  1.5631
 6675SOL    HW231659   1.659   0.207  15.575  0.7904  2.3064 -0.6464
 6676SOL     OW31660   1.564   1.488  11.167 -0.6885 -0.2308  0.4532
 6676SOL    HW131661   1.628   1.555  11.142 -0.3237 -1.0527 -0.7894
 6676SOL    HW231662   1.625   1.430  11.214 -0.4454  0.8607  1.4730
 6677SOL     OW31663   3.326   4.057  17.000  0.2550  0.6582  0.8390
 6677SOL    HW131664   3.383   4.118  17.045 -0.1516  1.4744  0.2523
 6677SOL    HW231665   3.320   3.982  17.059 -1.1873 -0.2857 -0.4714
 6678SOL     OW31666   2.896   1.353   5.081 -0.2341  0.3195  0.9886
 6678SOL    HW131667   2.933   1.358   4.993 -1.4435 -1.4998  0.3908
 6678SOL    HW231668   2.891   1.259   5.095 -1.1836  0.0470 -1.2161
 6679SOL     OW31669   1.046   1.213   7.985 -0.0366 -0.1633 -0.0573
 6679SOL    HW131670   0.976   1.235   7.923 -1.0287 -0.7599  0.8397
 6679SOL    HW231671   1.115   1.177   7.929  1.0873  0.5407  0.8817
 6680SOL     OW31672   3.825   2.509  10.733 -0.0864 -0.1558  0.4662
 6680SOL    HW131673   3.916   2.532  10.719 -0.2955 -0.7231 -1.8398
 6680SOL    HW231674   3.784   2.566  10.668 -0.3954 -0.5472  0.3129
 6681SOL     OW31675   0.734   3.864   1.085  0.6354 -0.4718 -0.1895
 6681SOL    HW131676   0.786   3.784   1.079  1.7171  0.1619  0.9418
 6681SOL    HW231677   0.738   3.888   0.992  2.6841 -0.2789 -0.0413
 6682SOL     OW31678   2.252   0.949   1.579 -0.2168  0.2231 -0.0609
 6682SOL    HW131679   2.233   0.879   1.642 -0.8450  0.8692  0.4744
 6682SOL    HW231680   2.162   0.979   1.570  0.0100  1.4194  1.6239
 6683SOL     OW31681   1.028   2.769  11.933 -0.2293 -0.4524 -0.1017
 6683SOL    HW131682   0.970   2.843  11.919  1.1735  0.7653  0.5464
 6683SOL    HW231683   1.027   2.726  11.847  1.2179  0.4167 -0.5527
 6684SOL     OW31684   0.026   4.136   8.882  0.2522  0.3280 -0.1060
 6684SOL    HW131685   0.003   4.200   8.815  3.3160  0.1541 -1.3635
 6684SOL    HW231686   0.112   4.104   8.852 -0.5221 -1.1214 -0.7632
 6685SOL     OW31687   1.253   4.371  11.588  0.2214 -0.1067  0.3605
 6685SOL    HW131688   1.229   4.424  11.664  3.1750  1.3900  0.2596
 6685SOL    HW231689   1.278   4.449  11.538 -0.4001  0.3860  0.8144
 6686SOL     OW31690   3.617   3.342   5.554  0.3998 -0.6766  0.1627
 6686SOL    HW131691   3.590   3.251   5.562 -0.4816 -0.4983 -0.7172
 6686SOL    HW231692   3.701   3.340   5.508  1.0483 -1.0655  1.3558
 6687SOL     OW31693   3.630   4.506   2.990  0.2836 -0.1835 -0.0767
 6687SOL    HW131694   3.723   4.494   2.969 -0.4042 -1.7262 -2.3232
 6687SOL    HW231695   3.588   4.456   2.919  0.1482  0.3812 -0.3896
 6688SOL     OW31696   0.096   2.633   2.245 -0.5852 -0.0771  0.6181
 6688SOL    HW131697   0.030   2.675   2.190  0.1316  0.5187  0.2045
 6688SOL    HW231698   0.107   2.546   2.207 -0.1852  0.5143 -0.6459
 6689SOL     OW31699   4.318   3.761   3.291  0.1769  0.1906  0.6878
 6689SOL    HW131700   4.357   3.680   3.324 -1.2421 -0.2322  1.3017
 6689SOL    HW231701   4.389   3.823   3.306  0.7952 -0.0502 -1.1503
 6690SOL     OW31702   4.589   3.280   4.024  0.3654  0.3532  0.3855
 6690SOL    HW131703   4.591   3.303   3.931 -0.3082 -0.7064  0.1119
 6690SOL    HW231704   4.496   3.280   4.043  0.3240 -1.6595  0.2038
 6691SOL     OW31705   3.924   4.223  17.110 -0.0833  0.4186  0.9061
 6691SOL    HW131706   3.856   4.197  17.046 -0.1467 -2.0863  1.9766
 6691SOL    HW231707   3.977   4.146  17.087  1.9939  1.7120  1.3954
 6692SOL     OW31708   1.498   1.028   5.991  0.4126  0.5963  0.2349
 6692SOL    HW131709   1.566   0.987   5.938  1.4369 -0.0906  2.0726
 6692SOL    HW231710   1.487   0.960   6.058  1.1317  1.4167  1.1901
 6693SOL     OW31711   1.170   0.544   3.189 -0.5337  0.1503 -0.6293
 6693SOL    HW131712   1.176   0.461   3.237  1.8873  1.2905  1.0077
 6693SOL    HW231713   1.099   0.585   3.239  0.2772 -0.6937  1.2182
 6694SOL     OW31714   4.468   4.449  16.819  0.2842  0.2074 -0.4461
 6694SOL    HW131715   4.510   4.532  16.841 -0.6488  0.3226  0.8673
 6694SOL    HW231716   4.520   4.388  16.872  0.9389 -0.5848 -2.0232
 6695SOL     OW31717   0.676   2.962   5.382 -0.3430 -0.4940  0.2716
 6695SOL    HW131718   0.766   2.934   5.366  0.4646 -0.1465  4.0324
 6695SOL    HW231719   0.692   3.012   5.462  0.1983  0.3580 -0.3705
 6696SOL     OW31720   4.673   2.396   4.665 -0.0647  0.2518 -0.1638
 6696SOL    HW131721   4.712   2.357   4.743 -2.0277 -1.6842 -0.1571
 6696SOL    HW231722   0.019   2.409   4.615  0.8154  0.4189  1.2962
 6697SOL     OW31723   1.540   2.907   1.703 -0.4576 -0.0918 -0.5877
 6697SOL    HW131724   1.626   2.950   1.708  0.6397 -2.4511  0.6407
 6697SOL    HW231725   1.512   2.929   1.791 -1.1013 -0.5455 -0.6840
 6698SOL     OW31726   1.343   2.772   3.343 -0.0091  0.2359  0.5199
 6698SOL    HW131727   1.348   2.845   3.281 -1.1502  0.5113  0.7580
 6698SOL    HW231728   1.374   2.818   3.421 -1.8735  1.8152  0.3077
 6699SOL     OW31729   4.523   3.505   8.922 -0.3239  0.0105 -0.1481
 6699SOL    HW131730   4.449   3.476   8.975  0.4744  1.2683  1.6722
 6699SOL    HW231731   4.589   3.517   8.991  1.4742 -1.0653 -1.6889
 6700SOL     OW31732   4.537   3.085   4.464 -0.5599 -0.1379 -0.0638
 6700SOL    HW131733   4.459   3.131   4.435 -0.9986 -0.5804  0.4082
 6700SOL    HW231734   4.599   3.154   4.490 -0.0226 -0.0705 -1.5378
 6701SOL     OW31735   2.631   3.287   7.045 -0.3163  0.5133 -0.3392
 6701SOL    HW131736   2.680   3.213   7.081 -1.0396  0.3464  0.2888
 6701SOL    HW231737   2.582   3.321   7.120 -1.3164  1.0014 -1.2147
 6702SOL     OW31738   2.532   0.749   6.862 -0.0508 -0.3866  0.2635
 6702SOL    HW131739   2.477   0.828   6.858  1.6129  0.7283 -0.6014
 6702SOL    HW231740   2.502   0.709   6.944  1.3431 -0.1609  0.9019
 6703SOL     OW31741   2.626   1.129   0.725  0.0094  0.0983 -0.0452
 6703SOL    HW131742   2.533   1.134   0.749 -0.1991  1.0133 -1.0412
 6703SOL    HW231743   2.634   1.046   0.678 -2.9602 -2.4458  3.8797
 6704SOL     OW31744   4.488   0.706  12.143  0.0321  0.2215  0.0835
 6704SOL    HW131745   4.580   0.709  12.169 -0.1545 -1.2544  0.8984
 6704SOL    HW231746   4.434   0.700  12.222  1.0196  2.3429  0.9318
 6705SOL     OW31747   0.582   3.493   1.775  0.5213  0.3661 -0.0151
 6705SOL    HW131748   0.666   3.461   1.806  0.5449 -1.4064 -1.9875
 6705SOL    HW231749   0.554   3.427   1.712 -0.8920  3.4328 -2.5947
 6706SOL     OW31750   3.740   1.296   1.372  0.1667 -0.2382  0.2410
 6706SOL    HW131751   3.659   1.345   1.357 -0.0977 -0.7157  0.0911
 6706SOL    HW231752   3.755   1.235   1.300  0.3448 -0.3397  0.3652
 6707SOL     OW31753   2.657   3.908   6.596 -0.1544 -0.4892 -0.0853
 6707SOL    HW131754   2.597   3.870   6.661 -0.0132 -0.3017  0.1564
 6707SOL    HW231755   2.623   3.998   6.591 -2.2982 -1.2186  1.1486
 6708SOL     OW31756   2.702   2.100   1.443  0.3341  0.5436  0.2448
 6708SOL    HW131757   2.739   2.029   1.390  1.9054  0.8037  0.9844
 6708SOL    HW231758   2.609   2.081   1.433  0.3772  0.5431 -0.1284
 6709SOL     OW31759   4.629   2.442   2.912 -0.1262  0.0300 -0.0612
 6709SOL    HW131760   4.554   2.383   2.923  0.7054 -0.7386  1.3441
 6709SOL    HW231761   4.701   2.383   2.930 -0.3841  0.0549  1.0979
 6710SOL     OW31762   4.185   0.500   3.520 -0.2309  0.9178 -0.0889
 6710SOL    HW131763   4.193   0.595   3.527 -1.6357  1.0830 -0.6899
 6710SOL    HW231764   4.095   0.485   3.491 -0.6515  1.7033  0.8095
 6711SOL     OW31765   2.169   4.589   3.563  0.4879 -0.2868  0.0725
 6711SOL    HW131766   2.218   4.662   3.600  0.5659  0.0482 -0.6963
 6711SOL    HW231767   2.157   4.616   3.472 -1.7228  0.0268  0.4529
 6712SOL     OW31768   0.404   3.271   2.774  0.3535  0.6868  0.0270
 6712SOL    HW131769   0.380   3.223   2.695  1.2928  2.8075 -1.5538
 6712SOL    HW231770   0.403   3.207   2.845  0.1938 -1.3123 -1.7784
 6713SOL     OW31771   0.514   2.330   8.284 -0.5652  0.3523 -0.2638
 6713SOL    HW131772   0.472   2.408   8.319 -1.2789 -0.8259  1.5282
 6713SOL    HW231773   0.489   2.282   8.363  1.5912 -0.5810 -0.1655
 6714SOL     OW31774   0.523   3.577   9.429 -0.5176  0.3513 -0.4842
 6714SOL    HW131775   0.616   3.596   9.417  0.1345 -1.1150  2.1405
 6714SOL    HW231776   0.503   3.544   9.342 -1.4111  1.2238 -0.6025
 6715SOL     OW31777   2.036   4.128   0.840 -0.4556 -0.0505  0.5068
 6715SOL    HW131778   2.002   4.114   0.929 -1.7491 -1.3782 -0.1992
 6715SOL    HW231779   2.125   4.094   0.845 -0.5826 -0.8230 -3.1855
 6716SOL     OW31780   3.886   4.418   7.640 -0.3468  0.1077 -0.1748
 6716SOL    HW131781   3.962   4.470   7.614  0.7131 -0.6601  1.3980
 6716SOL    HW231782   3.835   4.483   7.688 -0.2648  0.6561 -0.8334
 6717SOL     OW31783   4.676   0.603  12.598 -0.6649 -0.1491  0.2861
 6717SOL    HW131784   4.689   0.559  12.682 -2.1890 -1.7599 -0.3142
 6717SOL    HW231785   4.606   0.668  12.608  1.2345  1.3746  3.6347
 6718SOL     OW31786   0.646   3.405   8.727  0.6964  0.5084 -0.4024
 6718SOL    HW131787   0.717   3.467   8.710 -0.2201  1.2597 -1.4896
 6718SOL    HW231788   0.590   3.418   8.650 -0.1110  0.2561  0.1357
 6719SOL     OW31789   0.528   4.734   9.228  0.3830 -0.1408  0.1736
 6719SOL    HW131790   0.470   4.688   9.166  0.3225  1.8648 -1.2620
 6719SOL    HW231791   0.529   4.667   9.296 -0.9048  1.4653  1.7668
 6720SOL     OW31792   1.804   3.545  12.295  0.1966 -0.5830  0.7356
 6720SOL    HW131793   1.777   3.626  12.251  0.0641 -0.8498  0.3256
 6720SOL    HW231794   1.885   3.576  12.336  0.7609 -0.3926 -0.5150
 6721SOL     OW31795   3.817   3.639   7.802 -0.7059 -0.5038  0.1454
 6721SOL    HW131796   3.751   3.572   7.784 -0.4147 -1.3271  2.1855
 6721SOL    HW231797   3.870   3.597   7.869 -1.6853 -0.7457  0.7562
 6722SOL     OW31798   3.669   3.101   8.091 -0.0456  0.1632 -0.1092
 6722SOL    HW131799   3.580   3.132   8.070  0.1651  0.7413 -0.1666
 6722SOL    HW231800   3.682   3.084   7.997 -2.1326  2.1896 -0.7838
 6723SOL     OW31801   4.687   1.788  12.659 -0.0229  0.3603  0.0616
 6723SOL    HW131802   0.025   1.753  12.608  0.0793 -0.7453  0.9796
 6723SOL    HW231803   4.683   1.730  12.735 -0.8937 -0.4187 -0.5814
 6724SOL     OW31804   3.541   1.006   4.503  0.2479 -0.4785  0.9229
 6724SOL    HW131805   3.532   0.968   4.416 -0.6710 -0.2643  0.9255
 6724SOL    HW231806   3.635   1.021   4.493 -0.2303  1.6359 -0.4315
 6725SOL     OW31807   2.989   3.449   8.422  0.1345 -0.1505 -0.1207
 6725SOL    HW131808   2.914   3.480   8.371  0.3640 -0.5012 -0.6753
 6725SOL    HW231809   2.951   3.399   8.493 -0.9285 -0.8255 -1.1664
 6726SOL     OW31810   4.291   4.383   6.194  0.1922 -0.0681 -0.2070
 6726SOL    HW131811   4.238   4.450   6.237  1.1436 -0.7742  2.1042
 6726SOL    HW231812   4.299   4.313   6.260  1.1775 -0.1555 -0.4186
 6727SOL     OW31813   1.543   0.985  12.802 -0.2941 -0.3460 -0.0172
 6727SOL    HW131814   1.526   0.924  12.731 -0.0431 -2.0938  1.4139
 6727SOL    HW231815   1.638   0.976  12.815 -0.0296  1.7634 -0.5120
 6728SOL     OW31816   2.639   3.289  17.557  0.5117 -0.0826 -0.1289
 6728SOL    HW131817   2.565   3.285  17.497  0.1920  2.3723  0.1018
 6728SOL    HW231818   2.611   3.221  17.618  0.1537 -1.9233 -2.3883
 6729SOL     OW31819   0.400   1.866   4.225  0.2000 -0.2546 -0.2748
 6729SOL    HW131820   0.324   1.906   4.183  0.8818 -0.1099 -1.3823
 6729SOL    HW231821   0.401   1.772   4.210 -0.7907 -0.6598  2.2644
 6730SOL     OW31822   2.519   0.603   6.262  0.2507  0.2743 -0.6899
 6730SOL    HW131823   2.577   0.589   6.187  2.6890 -1.0228  1.4347
 6730SOL    HW231824   2.583   0.638   6.324  2.6654 -1.6066 -2.1588
 6731SOL     OW31825   3.834   0.161  12.341  0.2139 -0.6842 -0.6525
 6731SOL    HW131826   3.914   0.108  12.333  1.2291  0.5433  1.4132
 6731SOL    HW231827   3.775   0.088  12.356  0.4408 -0.6043  0.5814
 6732SOL     OW31828   4.596   0.651   4.974 -0.2387 -0.3803 -0.2066
 6732SOL    HW131829   4.618   0.673   4.884  3.9133 -1.3222  0.5891
 6732SOL    HW231830   4.502   0.666   4.973 -0.1051  0.3960 -0.9077
 6733SOL     OW31831   0.940   4.052   8.991 -0.3340  0.4596  0.1186
 6733SOL    HW131832   0.914   4.003   9.069 -0.4230  1.3890  0.6818
 6733SOL    HW231833   0.907   4.136   9.024  0.7660  1.0850 -0.3852
 6734SOL     OW31834   1.919   2.805  10.849 -0.8513  0.8406 -0.2075
 6734SOL    HW131835   1.968   2.778  10.927  0.2134  0.8781 -0.8734
 6734SOL    HW231836   1.873   2.881  10.884 -0.5033  1.4672 -1.1339
 6735SOL     OW31837   1.389   4.720   4.910  0.2431  0.1760  0.3700
 6735SOL    HW131838   1.374   0.013   5.001  0.0237  0.8643  0.1182
 6735SOL    HW231839   1.467   4.665   4.911 -0.8780 -1.4322 -1.4310
 6736SOL     OW31840   1.907   0.447  10.020  0.0966 -0.2000 -0.2454
 6736SOL    HW131841   1.878   0.370  10.070 -1.5182  0.1812 -0.6218
 6736SOL    HW231842   1.836   0.470   9.961 -0.8231 -1.1350  0.5070
 6737SOL     OW31843   2.092   2.683   3.919 -0.0657 -0.1432 -0.4094
 6737SOL    HW131844   2.013   2.698   3.970 -0.5552 -1.1965 -0.8654
 6737SOL    HW231845   2.126   2.603   3.960  1.7147 -0.9418 -3.4637
 6738SOL     OW31846   3.385   2.917  13.977 -0.1989  0.5109  0.2260
 6738SOL    HW131847   3.368   2.927  13.884  1.7796  1.4167 -0.0484
 6738SOL    HW231848   3.367   3.004  14.013 -0.4748 -0.0841  1.5333
 6739SOL     OW31849   0.810   1.858   5.177 -0.0152  0.4663  0.1538
 6739SOL    HW131850   0.761   1.936   5.204 -0.4436  0.2083  0.1251
 6739SOL    HW231851   0.893   1.898   5.153  0.5029 -0.9475 -0.4518
 6740SOL     OW31852   1.976   1.240  17.736  0.4023 -0.3806 -0.1658
 6740SOL    HW131853   1.946   1.326   0.027  1.1145 -0.2352  0.1226
 6740SOL    HW231854   1.897   1.194   0.026  0.4913 -0.2836  0.2275
 6741SOL     OW31855   1.359   1.180  12.777 -0.1037  0.1816 -0.3581
 6741SOL    HW131856   1.403   1.097  12.798 -0.7622 -0.2917 -0.8508
 6741SOL    HW231857   1.387   1.175  12.686  4.1917 -0.0318  0.9611
 6742SOL     OW31858   2.600   0.283   4.873 -0.4144  0.0966  0.1835
 6742SOL    HW131859   2.688   0.321   4.867 -0.8610  1.4119  1.8255
 6742SOL    HW231860   2.603   0.235   4.791  1.2838  1.0476 -0.3195
 6743SOL     OW31861   1.721   1.463   7.187 -0.1837 -0.5328  0.1518
 6743SOL    HW131862   1.710   1.443   7.094  0.3137 -1.1917  0.2303
 6743SOL    HW231863   1.808   1.502   7.196  0.5256 -2.3622  1.1332
 6744SOL     OW31864   3.917   2.747  17.592 -0.2320  0.1293  0.0871
 6744SOL    HW131865   3.881   2.808  17.656 -0.3828  0.3768 -0.2351
 6744SOL    HW231866   3.862   2.673  17.615  2.0871 -1.3062  1.0459
 6745SOL     OW31867   0.858   3.037   4.681  0.1386  0.6032 -0.2058
 6745SOL    HW131868   0.854   3.024   4.776  0.2429  0.8061 -0.1748
 6745SOL    HW231869   0.917   2.964   4.663  0.4359  0.7021  0.3471
 6746SOL     OW31870   4.614   3.906   8.330 -0.4795 -0.4885  0.1733
 6746SOL    HW131871   4.542   3.968   8.321 -0.9611 -0.7038  2.5766
 6746SOL    HW231872   4.651   3.921   8.417 -0.1227  1.1505 -0.2699
 6747SOL     OW31873   0.497   4.473  16.272 -0.2122  0.7235  0.2175
 6747SOL    HW131874   0.551   4.538  16.228 -2.1235  2.5166  0.5400
 6747SOL    HW231875   0.552   4.395  16.260 -1.6483 -0.3884  0.8310
 6748SOL     OW31876   4.718   2.960   8.126  0.1855  0.3203  0.3742
 6748SOL    HW131877   4.624   2.975   8.126  0.1114 -0.0938  1.5791
 6748SOL    HW231878   0.020   3.027   8.183 -0.5429  2.2104 -1.3795
 6749SOL     OW31879   3.795   2.121   5.387  0.0689  0.2348  0.6873
 6749SOL    HW131880   3.801   2.030   5.358 -2.3694  0.4557 -0.5665
 6749SOL    HW231881   3.783   2.101   5.480  0.1859  0.0336  0.6603
 6750SOL     OW31882   1.327   0.980   9.140  0.3559 -0.3784  0.6479
 6750SOL    HW131883   1.419   1.004   9.149  0.0581  1.1872 -0.4948
 6750SOL    HW231884   1.286   1.036   9.206  0.4068  1.3538 -0.7939
 6751SOL     OW31885   3.541   1.446   2.512  0.1183 -0.2296 -0.5360
 6751SOL    HW131886   3.516   1.367   2.559 -1.9566  1.2783  0.9185
 6751SOL    HW231887   3.465   1.449   2.454 -1.7703 -1.2222  1.9114
 6752SOL     OW31888   2.097   1.985   2.330 -0.0108 -0.2166  0.8017
 6752SOL    HW131889   2.093   2.077   2.356  0.2970  0.0033  0.0854
 6752SOL    HW231890   2.008   1.973   2.298  0.4450  0.3810 -0.7013
 6753SOL     OW31891   3.578   1.093   7.081  0.5852 -0.0166 -0.6029
 6753SOL    HW131892   3.541   1.165   7.132  2.1251 -0.1946  0.7541
 6753SOL    HW231893   3.632   1.154   7.032 -0.0755  1.5597  0.6118
 6754SOL     OW31894   0.011   1.925   0.719  0.5328 -0.0808  0.6833
 6754SOL    HW131895   4.672   1.874   0.687 -1.4786  2.0581  1.9101
 6754SOL    HW231896   0.087   1.903   0.666  0.2655 -0.8546  0.6295
 6755SOL     OW31897   3.489   0.154  15.142  0.0834 -0.1303  0.2379
 6755SOL    HW131898   3.456   0.243  15.147 -0.0868 -0.1168 -1.1734
 6755SOL    HW231899   3.408   0.104  15.138 -0.7903  1.2373  0.8899
 6756SOL     OW31900   2.583   4.363  17.061  0.9009 -0.3403 -0.3515
 6756SOL    HW131901   2.654   4.407  17.014  0.6389  0.6058  0.1500
 6756SOL    HW231902   2.615   4.273  17.054 -0.6589 -0.9723  0.5006
 6757SOL     OW31903   1.608   2.033   6.358 -0.4706  0.9292 -0.0952
 6757SOL    HW131904   1.619   2.128   6.362 -2.7583  1.1170  1.6481
 6757SOL    HW231905   1.645   2.007   6.442  0.6702  0.1817 -0.8189
 6758SOL     OW31906   4.127   3.416   3.483  0.1757  0.7384 -0.0043
 6758SOL    HW131907   4.205   3.421   3.429  1.3283  1.5259  1.7412
 6758SOL    HW231908   4.175   3.405   3.565 -2.9204  1.6469  1.9295
 6759SOL     OW31909   0.982   1.745  15.505  0.0620  0.5904 -0.0139
 6759SOL    HW131910   0.917   1.733  15.436  0.2017  1.9415 -0.3777
 6759SOL    HW231911   1.016   1.833  15.488  0.4760  0.1620 -1.4295
 6760SOL     OW31912   0.273   3.688  13.176 -0.5606  0.4562  0.1757
 6760SOL    HW131913   0.228   3.773  13.182  0.3776  0.9544  0.1768
 6760SOL    HW231914   0.238   3.635  13.247 -3.0568  1.3866 -0.3322
 6761SOL     OW31915   1.013   4.694   8.487 -0.3418 -0.4378  0.8778
 6761SOL    HW131916   0.935   4.639   8.499 -1.9829  2.8536  5.3381
 6761SOL    HW231917   1.065   4.657   8.558 -1.8104 -0.7321  1.8156
 6762SOL     OW31918   0.764   4.110   8.698  0.1762 -0.0267 -0.3420
 6762SOL    HW131919   0.721   4.025   8.710 -1.5255  0.8883  0.0499
 6762SOL    HW231920   0.825   4.107   8.771  0.9544 -1.5535 -1.0634
 6763SOL     OW31921   1.274   1.936   8.462 -0.0497 -0.3003 -0.1908
 6763SOL    HW131922   1.335   1.862   8.455 -0.6434 -0.6703 -1.5569
 6763SOL    HW231923   1.304   1.974   8.544  0.5449 -1.3883  0.0999
 6764SOL     OW31924   2.523   2.949   1.075 -0.0907  0.3417  0.1838
 6764SOL    HW131925   2.504   2.919   0.986  2.5015 -1.4543  0.2412
 6764SOL    HW231926   2.446   2.917   1.123  1.1780 -2.0911  0.5928
 6765SOL     OW31927   0.153   1.477   3.208  0.1446 -0.2453  0.2507
 6765SOL    HW131928   0.146   1.573   3.205  1.8332 -0.0931  1.1614
 6765SOL    HW231929   0.067   1.449   3.176 -0.6851  2.4251  0.1455
 6766SOL     OW31930   0.293   2.343   2.345  0.0159 -0.2221 -0.2633
 6766SOL    HW131931   0.313   2.254   2.316  0.7503 -0.3984  0.7866
 6766SOL    HW231932   0.383   2.367   2.368 -0.7316  2.0087  0.2970
 6767SOL     OW31933   4.109   1.171   6.511  0.0681  0.3514 -0.8034
 6767SOL    HW131934   4.186   1.165   6.454  1.5740  0.7348  1.1949
 6767SOL    HW231935   4.136   1.220   6.588 -1.4255  1.8052 -1.1933
 6768SOL     OW31936   1.694   3.336   3.996 -0.0041 -0.3419 -0.4562
 6768SOL    HW131937   1.622   3.293   4.043 -0.2569  0.2700 -0.2835
 6768SOL    HW231938   1.760   3.269   4.011 -2.9628 -3.4065 -0.9234
 6769SOL     OW31939   4.694   3.902  16.878 -0.4016 -0.2866 -0.3247
 6769SOL    HW131940   4.608   3.869  16.852  0.4336 -1.3835 -1.7460
 6769SOL    HW231941   4.693   3.899  16.973  0.3501 -0.1469 -0.3118
 6770SOL     OW31942   3.165   3.834   5.413 -0.0531  0.7635  0.3118
 6770SOL    HW131943   3.250   3.826   5.371 -0.8471  1.8514 -1.5106
 6770SOL    HW231944   3.128   3.747   5.396 -0.6166  1.4024 -1.7048
 6771SOL     OW31945   2.541   2.163  12.695 -0.2298 -0.3176 -0.2065
 6771SOL    HW131946   2.636   2.161  12.706 -0.1806 -1.3351 -0.8369
 6771SOL    HW231947   2.519   2.211  12.615 -1.3320 -1.1293 -0.3960
 6772SOL     OW31948   1.952   2.655  10.633 -0.2156  0.2002 -0.2034
 6772SOL    HW131949   1.959   2.583  10.695 -2.0632  0.3778  0.2208
 6772SOL    HW231950   1.939   2.725  10.697 -0.6114 -0.2291  0.1861
 6773SOL     OW31951   0.173   0.632  14.851 -0.0764  0.3001 -0.2689
 6773SOL    HW131952   0.123   0.674  14.781  0.4971  1.3662 -0.0342
 6773SOL    HW231953   0.164   0.540  14.827  0.0129 -0.4578  2.6707
 6774SOL     OW31954   2.681   0.527   2.835  0.3083 -0.5184 -0.5818
 6774SOL    HW131955   2.595   0.506   2.871  0.2392 -3.2684 -2.3274
 6774SOL    HW231956   2.740   0.469   2.884 -0.1036  0.5361  1.1575
 6775SOL     OW31957   2.393   1.114   8.003  0.0728  0.6816 -0.5545
 6775SOL    HW131958   2.461   1.048   8.016 -0.9598 -0.4164 -0.6348
 6775SOL    HW231959   2.378   1.128   8.096  0.7213  2.1372 -0.6775
 6776SOL     OW31960   2.006   4.186   4.496  0.2782 -0.3564  0.0390
 6776SOL    HW131961   1.964   4.268   4.469  2.2567 -0.2872 -2.8710
 6776SOL    HW231962   2.035   4.159   4.409 -0.4728 -1.2635  0.0785
 6777SOL     OW31963   2.075   4.126   8.038 -0.1634  0.1205 -0.0667
 6777SOL    HW131964   2.129   4.048   8.031  0.6583  0.6649  0.2596
 6777SOL    HW231965   2.014   4.102   8.108 -0.1824 -0.4357 -0.2719
 6778SOL     OW31966   3.199   0.192  10.808  0.5106  0.2808  0.2281
 6778SOL    HW131967   3.108   0.203  10.782  0.4631 -2.2166 -0.6210
 6778SOL    HW231968   3.185   0.155  10.896  0.9365 -1.4370 -0.4200
 6779SOL     OW31969   2.432   1.727   5.693 -0.1356  0.1333  0.6835
 6779SOL    HW131970   2.494   1.796   5.669  0.6959 -0.2874  1.6458
 6779SOL    HW231971   2.483   1.689   5.764  1.7616 -1.8606 -1.7778
 6780SOL     OW31972   4.025   3.353   8.038  0.4930 -0.1471 -0.0505
 6780SOL    HW131973   4.066   3.431   8.001  1.0487  0.1739  1.2264
 6780SOL    HW231974   4.078   3.295   7.984  0.4936  0.3602 -0.5961
 6781SOL     OW31975   4.304   2.401   1.638 -0.3242  0.5366 -0.5696
 6781SOL    HW131976   4.391   2.394   1.679 -1.1387 -1.4431  0.8722
 6781SOL    HW231977   4.319   2.347   1.561  0.0951 -0.0165 -0.1073
 6782SOL     OW31978   3.860   3.194   8.481 -0.1842 -0.2191  0.1006
 6782SOL    HW131979   3.876   3.196   8.386  2.2340  0.8239  0.5248
 6782SOL    HW231980   3.852   3.288   8.499  0.7739 -0.1299  0.0969
 6783SOL     OW31981   1.744   1.491   4.966  0.4971  0.5365 -0.2383
 6783SOL    HW131982   1.684   1.559   4.998 -0.1975  0.8717 -2.2827
 6783SOL    HW231983   1.760   1.522   4.877  1.4729  1.0250  0.1072
 6784SOL     OW31984   2.862   4.523   3.492  0.1437  0.4524  0.3101
 6784SOL    HW131985   2.837   4.556   3.578  1.8395 -0.5663  1.1930
 6784SOL    HW231986   2.782   4.543   3.442  0.0731 -1.2273 -0.2393
 6785SOL     OW31987   3.287   4.383   2.897  0.2326  0.1949 -0.1431
 6785SOL    HW131988   3.374   4.400   2.934 -0.1170  2.0130 -0.1739
 6785SOL    HW231989   3.251   4.317   2.955  1.9535  0.0310  0.7556
 6786SOL     OW31990   2.704   0.945   0.320  0.3901 -0.3524  0.6044
 6786SOL    HW131991   2.744   0.866   0.357 -0.3028 -0.8919  0.2011
 6786SOL    HW231992   2.735   0.946   0.229 -1.6689  1.2677 -0.0806
 6787SOL     OW31993   1.479   2.220   6.594  0.0926  1.0037 -0.0386
 6787SOL    HW131994   1.569   2.207   6.623  0.3741  0.6971 -1.0713
 6787SOL    HW231995   1.486   2.288   6.527 -2.3947 -1.3920 -2.7042
 6788SOL     OW31996   0.138   3.099  12.827  0.2457  0.4201 -0.2057
 6788SOL    HW131997   0.224   3.133  12.853  0.2923 -0.2494  0.4996
 6788SOL    HW231998   0.107   3.169  12.770 -1.4821 -0.0916  0.1322
 6789SOL     OW31999   1.985   3.618   2.754 -0.3144  0.3704  0.1026
 6789SOL    HW132000   1.992   3.644   2.662  0.6690 -0.2730 -0.0028
 6789SOL    HW232001   1.965   3.704   2.790  0.6949  0.7236 -0.1751
 6790SOL     OW32002   0.423   3.577   2.471  0.0510 -0.2626  0.3284
 6790SOL    HW132003   0.446   3.494   2.428  0.5449  0.9378 -1.7492
 6790SOL    HW232004   0.380   3.541   2.548 -0.8963  0.1518 -0.0094
 6791SOL     OW32005   4.591   2.395   9.504  0.1975  0.6976  0.4702
 6791SOL    HW132006   4.607   2.478   9.549 -2.7418  0.4267  1.9601
 6791SOL    HW232007   4.679   2.358   9.515 -1.2051 -2.9693 -0.3956
 6792SOL     OW32008   3.342   4.122  14.357 -0.4292  0.5179  0.0088
 6792SOL    HW132009   3.266   4.066  14.340  0.5412 -0.8281  0.1614
 6792SOL    HW232010   3.385   4.121  14.272  0.7827 -0.3698  0.6347
 6793SOL     OW32011   2.996   1.532   1.768 -0.2358  0.5152  0.3935
 6793SOL    HW132012   3.082   1.550   1.731 -0.1563  0.6218  0.6316
 6793SOL    HW232013   2.979   1.601   1.832 -0.9802  0.5383  0.1716
 6794SOL     OW32014   2.912   1.953  14.174 -0.2391 -0.2675 -0.0224
 6794SOL    HW132015   2.981   1.943  14.108 -1.1692  2.3220 -1.3892
 6794SOL    HW232016   2.938   2.018  14.239 -0.5304 -0.7190  0.5498
 6795SOL     OW32017   3.113   1.789  11.319  0.9072 -0.0077  0.0411
 6795SOL    HW132018   3.079   1.712  11.365  0.0182 -0.0774 -0.7333
 6795SOL    HW232019   3.078   1.765  11.233 -2.9546 -0.0618  1.6386
 6796SOL     OW32020   4.060   2.439   4.418 -0.1994 -0.3275 -0.1052
 6796SOL    HW132021   4.021   2.477   4.496 -0.2558 -1.1971  0.2870
 6796SOL    HW232022   4.137   2.496   4.408  0.5386 -1.5015 -1.1414
 6797SOL     OW32023   0.378   3.067   2.546  0.1577  0.7055  0.0188
 6797SOL    HW132024   0.338   3.003   2.604 -0.3723  0.2912 -0.8084
 6797SOL    HW232025   0.411   3.016   2.472  2.3713  2.1012  0.0247
 6798SOL     OW32026   1.830   4.139   3.840 -0.4844 -0.0687 -0.3454
 6798SOL    HW132027   1.853   4.100   3.924  0.5698 -1.6376 -1.3400
 6798SOL    HW232028   1.918   4.126   3.805 -0.4523 -0.1595 -0.2309
 6799SOL     OW32029   2.297   1.835   4.285  0.5039  0.7520 -0.1978
 6799SOL    HW132030   2.306   1.746   4.318 -0.5880  0.5404 -0.4787
 6799SOL    HW232031   2.203   1.853   4.289 -0.0887 -2.1324 -1.5393
 6800SOL     OW32032   0.795   1.692   8.577  0.1335 -0.4266 -0.5093
 6800SOL    HW132033   0.821   1.783   8.564 -0.8468  0.0563  0.8905
 6800SOL    HW232034   0.836   1.648   8.503  0.6296 -2.8673  1.2085
 6801SOL     OW32035   3.221   2.530  17.651  0.0079  0.1098 -0.1569
 6801SOL    HW132036   3.302   2.494  17.687  0.5549  0.0267 -1.4727
 6801SOL    HW232037   3.253   2.553  17.563  1.5425  0.6767  0.5389
 6802SOL     OW32038   1.763   2.754   0.542 -0.5566 -0.1940  0.5520
 6802SOL    HW132039   1.753   2.705   0.624 -1.0603 -2.0798 -0.6234
 6802SOL    HW232040   1.771   2.685   0.476 -1.6809 -1.0684  1.3312
 6803SOL     OW32041   3.548   2.857  13.312 -0.4567 -0.0063 -0.1972
 6803SOL    HW132042   3.589   2.886  13.230  0.1472 -0.2793  0.0120
 6803SOL    HW232043   3.518   2.767  13.298  1.0643 -0.2862 -1.6748
 6804SOL     OW32044   4.218   1.990   2.653 -0.0567 -0.6098 -0.0074
 6804SOL    HW132045   4.243   2.075   2.618  1.5227 -1.0389  0.0880
 6804SOL    HW232046   4.306   1.955   2.668  0.3704  1.0221  1.2046
 6805SOL     OW32047   3.392   1.819   9.560 -0.2792  0.1805  0.0203
 6805SOL    HW132048   3.318   1.829   9.620 -0.8584  0.9675 -0.8334
 6805SOL    HW232049   3.458   1.832   9.629 -1.3562  0.6238  0.9675
 6806SOL     OW32050   2.948   3.490   6.877 -0.3467  0.0817 -0.6127
 6806SOL    HW132051   2.935   3.399   6.906  2.2545  0.4749  1.7436
 6806SOL    HW232052   3.030   3.479   6.830  0.0527 -0.0182  0.1034
 6807SOL     OW32053   0.543   2.685   7.922  0.1810 -0.6324  0.0970
 6807SOL    HW132054   0.638   2.683   7.916  0.3078  1.3112  1.5372
 6807SOL    HW232055   0.525   2.661   7.831  0.9402 -1.0560  0.0557
 6808SOL     OW32056   2.681   1.107   8.819  0.7924  0.5762 -0.4039
 6808SOL    HW132057   2.662   1.017   8.792  1.4925  0.2357  0.2516
 6808SOL    HW232058   2.669   1.107   8.914  0.7319 -0.9344 -0.4160
 6809SOL     OW32059   1.037   0.549  13.548  0.3807  0.0862 -1.0592
 6809SOL    HW132060   0.959   0.559  13.494  0.7898 -0.1387 -1.6836
 6809SOL    HW232061   1.006   0.580  13.634 -2.7834 -1.6283 -1.5792
 6810SOL     OW32062   2.931   2.197  10.115  0.7970  0.5733  0.1046
 6810SOL    HW132063   3.003   2.225  10.171  0.5239 -0.0383  0.7726
 6810SOL    HW232064   2.871   2.170  10.185 -0.5889 -1.4076 -1.8653
 6811SOL     OW32065   2.994   4.100   8.955  0.4261  0.0185  0.3133
 6811SOL    HW132066   2.919   4.096   8.896 -0.0626  1.1889  0.8420
 6811SOL    HW232067   3.068   4.106   8.894  2.1259 -0.4701  2.3202
 6812SOL     OW32068   2.471   1.335   0.531  0.4374 -0.2083  0.4158
 6812SOL    HW132069   2.474   1.279   0.453  0.9835 -0.2721  0.4838
 6812SOL    HW232070   2.418   1.282   0.591  1.1286 -0.9605  0.3529
 6813SOL     OW32071   0.087   0.686   6.396 -0.0354  0.8448 -0.1517
 6813SOL    HW132072   0.161   0.649   6.348 -1.5639 -1.6083 -0.6028
 6813SOL    HW232073   0.133   0.718   6.474 -0.2971  0.8082  0.0184
 6814SOL     OW32074   3.794   4.693   7.709 -0.5876 -0.1241 -0.7242
 6814SOL    HW132075   3.716   4.714   7.658 -1.3931 -3.0914 -0.7072
 6814SOL    HW232076   3.864   4.694   7.643  0.3993 -0.3037  0.3145
 6815SOL     OW32077   1.135   2.645   6.703 -0.0777  0.6984 -0.3276
 6815SOL    HW132078   1.079   2.569   6.688 -0.4743  0.5555  1.9339
 6815SOL    HW232079   1.224   2.617   6.680  0.1404  1.4116 -0.3466
 6816SOL     OW32080   0.893   2.571   8.256  0.3119  0.2154  0.5551
 6816SOL    HW132081   0.845   2.530   8.184 -0.0255  2.2054 -0.3408
 6816SOL    HW232082   0.863   2.659   8.235 -1.0786 -0.6259 -1.0296
 6817SOL     OW32083   4.523   1.787   3.811 -0.9567  0.3156  0.1225
 6817SOL    HW132084   4.546   1.702   3.848 -0.3101 -0.2155 -1.4858
 6817SOL    HW232085   4.458   1.758   3.747 -0.7825  0.8903 -0.3170
 6818SOL     OW32086   0.166   0.400  12.753  0.2910  0.0893 -0.4115
 6818SOL    HW132087   0.105   0.340  12.710  1.8343 -1.2402 -0.7362
 6818SOL    HW232088   0.110   0.470  12.786  0.4906  0.2349 -0.3794
 6819SOL     OW32089   2.773   2.475   8.762  0.4925 -0.2323  0.0859
 6819SOL    HW132090   2.728   2.553   8.793 -0.8860 -0.4896 -1.2598
 6819SOL    HW232091   2.742   2.467   8.671  0.1547  0.0719  0.1740
 6820SOL     OW32092   1.744   0.153   3.509  0.0336  0.2661 -0.0705
 6820SOL    HW132093   1.671   0.200   3.549  1.8136  2.0837  1.0544
 6820SOL    HW232094   1.742   0.199   3.424 -1.7411 -0.4789 -0.4331
 6821SOL     OW32095   0.233   2.867   8.042 -0.2823 -0.3966 -0.0968
 6821SOL    HW132096   0.146   2.895   8.069  0.4903  1.2397  0.6584
 6821SOL    HW232097   0.248   2.800   8.109  0.5255 -0.5101 -0.3849
 6822SOL     OW32098   2.452   1.575   1.823  0.0605 -0.1453  0.0702
 6822SOL    HW132099   2.513   1.508   1.789 -1.2620 -0.7108 -1.1814
 6822SOL    HW232100   2.471   1.654   1.772  0.5355 -1.0283 -1.1279
 6823SOL     OW32101   0.304   0.217  10.366 -0.0585 -0.2853 -0.3656
 6823SOL    HW132102   0.307   0.311  10.383  4.2932 -0.5581  0.2193
 6823SOL    HW232103   0.354   0.220  10.285 -1.6023 -0.6864 -1.3409
 6824SOL     OW32104   2.031   1.657   8.768  0.2112  0.7710 -0.2851
 6824SOL    HW132105   2.015   1.629   8.858 -1.3496  0.1153 -0.7717
 6824SOL    HW232106   2.073   1.741   8.788 -0.9530  0.8247  1.9128
 6825SOL     OW32107   3.080   0.269   7.964 -0.0796  0.1583  0.3693
 6825SOL    HW132108   3.042   0.307   7.884  0.8206 -0.9716 -0.6069
 6825SOL    HW232109   3.068   0.345   8.020 -2.6234  1.1909 -1.5682
 6826SOL     OW32110   0.027   4.135   3.266  0.4004 -0.3482 -0.3537
 6826SOL    HW132111   0.057   4.073   3.333 -0.0708  2.3677  2.3464
 6826SOL    HW232112   0.080   4.102   3.193  1.1603 -0.6417  0.3370
 6827SOL     OW32113   1.284   2.844   8.941 -0.4103 -0.8329 -0.1156
 6827SOL    HW132114   1.206   2.798   8.970  0.0646 -2.0435 -0.7829
 6827SOL    HW232115   1.341   2.811   9.011  1.1559  0.8551 -0.5804
 6828SOL     OW32116   2.059   2.530  15.940 -0.0883 -0.4119 -0.7170
 6828SOL    HW132117   2.041   2.469  15.869 -2.7621  1.6780 -1.8058
 6828SOL    HW232118   1.976   2.574  15.959  0.1366 -0.1777 -0.2735
 6829SOL     OW32119   3.481   1.348   4.261  0.9328 -0.0265  0.5085
 6829SOL    HW132120   3.488   1.420   4.198 -1.2632  0.5859  0.9673
 6829SOL    HW232121   3.468   1.399   4.341 -2.1860  0.6485 -0.4298
 6830SOL     OW32122   2.484   2.386   0.146 -0.2776 -0.2729  0.6771
 6830SOL    HW132123   2.482   2.318   0.214  0.8793  0.2806  1.2738
 6830SOL    HW232124   2.555   2.445   0.172 -2.1049  2.0731  0.2796
 6831SOL     OW32125   0.201   1.998   0.291  0.6063  0.3185 -0.0266
 6831SOL    HW132126   0.197   2.085   0.250 -1.4539  0.2691  0.0501
 6831SOL    HW232127   0.271   1.968   0.234  1.1368  1.2762  0.1082
 6832SOL     OW32128   3.541   0.711   0.879  0.3951 -0.4076  0.6674
 6832SOL    HW132129   3.538   0.620   0.907  1.3125 -0.2582  1.2186
 6832SOL    HW232130   3.535   0.702   0.784 -2.3579 -1.3930  0.9205
 6833SOL     OW32131   1.223   3.534   0.841  0.0507  0.1004 -0.3633
 6833SOL    HW132132   1.193   3.536   0.931  1.7257  0.0883  0.1926
 6833SOL    HW232133   1.156   3.481   0.797  0.1137 -0.2427 -0.0418
 6834SOL     OW32134   2.713   2.890   9.271 -0.0487 -0.3552 -0.2241
 6834SOL    HW132135   2.762   2.812   9.294 -0.3694 -0.7722 -0.9619
 6834SOL    HW232136   2.627   2.850   9.271 -0.4044  0.3905  1.2466
 6835SOL     OW32137   1.358   1.532   2.664  0.5255  0.1618 -0.0610
 6835SOL    HW132138   1.397   1.463   2.717 -1.6752 -0.9432  0.1528
 6835SOL    HW232139   1.426   1.597   2.648  2.2687 -1.7664 -0.4099
 6836SOL     OW32140   0.893   1.668   3.988 -0.7724  0.3640  0.7941
 6836SOL    HW132141   0.826   1.723   4.029 -0.4088  1.0303  0.5082
 6836SOL    HW232142   0.963   1.731   3.968 -1.3095 -0.2208 -3.0052
 6837SOL     OW32143   2.761   2.671   5.247 -0.5006  0.1298  0.0104
 6837SOL    HW132144   2.737   2.582   5.271 -0.2057 -0.5409 -2.2240
 6837SOL    HW232145   2.843   2.690   5.292 -0.1557 -2.7951  0.5994
 6838SOL     OW32146   0.640   4.337   5.085 -0.3560 -0.1420 -0.3455
 6838SOL    HW132147   0.654   4.245   5.060  1.0685  0.1425 -0.6406
 6838SOL    HW232148   0.676   4.377   5.006  1.6080  0.2602  0.7588
 6839SOL     OW32149   4.462   2.089   6.381 -0.4410 -0.3646  0.0123
 6839SOL    HW132150   4.538   2.061   6.432  0.4506  0.6463 -0.7380
 6839SOL    HW232151   4.408   2.012   6.396 -2.6407  1.0020 -0.7856
 6840SOL     OW32152   1.821   2.314   8.698 -0.2369 -0.3678  0.2318
 6840SOL    HW132153   1.822   2.309   8.793  0.1492 -0.3466  0.2312
 6840SOL    HW232154   1.885   2.247   8.673  0.0008  0.2466 -0.8037
 6841SOL     OW32155   1.342   3.456   8.079  0.7522  0.3338  0.2056
 6841SOL    HW132156   1.421   3.485   8.034  0.9309 -1.1822 -0.4470
 6841SOL    HW232157   1.283   3.528   8.061  0.5790 -0.0407 -0.7049
 6842SOL     OW32158   3.954   2.744   2.190  0.3712  0.3557  0.1978
 6842SOL    HW132159   4.021   2.702   2.245 -0.4833 -0.4718  0.6208
 6842SOL    HW232160   3.991   2.832   2.191  0.0418  0.5072 -3.1577
 6843SOL     OW32161   2.978   3.079   1.397 -0.1308  0.2732  0.4234
 6843SOL    HW132162   2.954   3.005   1.453  1.5711 -1.5120 -1.2143
 6843SOL    HW232163   2.913   3.147   1.414 -1.2371 -0.6281 -0.2390
 6844SOL     OW32164   2.074   2.387   0.345 -0.2320  0.0899  0.0509
 6844SOL    HW132165   2.108   2.475   0.330  2.2639 -1.1353 -1.5174
 6844SOL    HW232166   2.051   2.361   0.256  0.3689 -0.2182 -0.0127
 6845SOL     OW32167   4.478   2.451   2.188  0.0959  0.4402 -0.2518
 6845SOL    HW132168   4.538   2.458   2.114  2.8900 -2.3190  1.7634
 6845SOL    HW232169   4.442   2.363   2.177  3.7772 -1.0938 -0.2885
 6846SOL     OW32170   1.487   2.837   3.584 -0.2693  0.2091 -0.4454
 6846SOL    HW132171   1.522   2.748   3.589 -1.8730 -0.3976  0.0327
 6846SOL    HW232172   1.437   2.841   3.666 -0.8243  1.7842 -0.8642
 6847SOL     OW32173   0.165   2.177  16.589 -0.5892  0.2699 -1.2341
 6847SOL    HW132174   0.078   2.154  16.622 -0.2234  0.6361 -0.0032
 6847SOL    HW232175   0.206   2.184  16.675  0.0756 -0.9406 -1.4479
 6848SOL     OW32176   1.906   3.357  15.505  0.5103  0.4245  0.2712
 6848SOL    HW132177   1.886   3.270  15.470  0.1847  0.8846 -0.6968
 6848SOL    HW232178   1.820   3.399  15.499  0.1685 -0.6744 -2.6875
 6849SOL     OW32179   2.742   3.015   8.447 -0.0056 -0.2922  0.4356
 6849SOL    HW132180   2.698   2.939   8.485 -0.8474  0.5325  1.1055
 6849SOL    HW232181   2.816   2.971   8.405 -1.5068 -2.0131 -0.4078
 6850SOL     OW32182   3.746   1.988   6.227 -0.2295 -0.2649  0.6480
 6850SOL    HW132183   3.737   1.921   6.159  1.1799  1.8074 -1.5621
 6850SOL    HW232184   3.833   1.968   6.261  0.2101 -1.2486 -1.0901
 6851SOL     OW32185   0.152   3.814   8.958  0.4579 -0.0839 -0.3800
 6851SOL    HW132186   0.207   3.882   8.921  0.2070 -1.5337 -3.4253
 6851SOL    HW232187   0.094   3.779   8.890  1.1185  0.4196 -1.1949
 6852SOL     OW32188   2.835   2.404   5.311  0.5731  0.1528 -0.1527
 6852SOL    HW132189   2.873   2.392   5.398  0.5242  1.5556  0.0661
 6852SOL    HW232190   2.884   2.340   5.260  0.5277  3.7021 -4.6735
 6853SOL     OW32191   1.492   1.000   8.543  0.6254  0.1484 -0.4614
 6853SOL    HW132192   1.568   1.046   8.578  1.7081 -0.9624 -1.3481
 6853SOL    HW232193   1.457   1.069   8.487 -1.1178  0.2898  0.7972
 6854SOL     OW32194   1.412   3.257   6.241  0.4708 -0.3548 -0.3359
 6854SOL    HW132195   1.412   3.338   6.189 -0.9965 -0.2149 -0.0996
 6854SOL    HW232196   1.502   3.249   6.273  0.4010  1.0933  0.2308
 6855SOL     OW32197   0.425   3.827   9.468  0.3558  0.3244 -0.0464
 6855SOL    HW132198   0.404   3.861   9.381  1.6397  0.0863 -0.4460
 6855SOL    HW232199   0.452   3.738   9.446 -0.0377 -0.3655  2.3162
 6856SOL     OW32200   2.036   3.354   5.504 -0.0443 -0.0124  0.4728
 6856SOL    HW132201   2.006   3.264   5.519 -0.8553  0.0916 -0.5112
 6856SOL    HW232202   1.951   3.398   5.505 -0.3509 -0.5700 -0.9737
 6857SOL     OW32203   4.389   0.251  10.848 -0.1784 -0.0672 -0.2020
 6857SOL    HW132204   4.427   0.176  10.804 -0.7025  1.0173 -2.4903
 6857SOL    HW232205   4.454   0.254  10.918 -0.8186 -1.5150  0.4521
 6858SOL     OW32206   0.073   2.065   2.002  0.2161 -0.0357  0.4557
 6858SOL    HW132207   0.092   2.145   2.052 -0.2322  0.5639 -0.3222
 6858SOL    HW232208   0.115   2.090   1.919 -1.3454 -2.8021 -1.1468
 6859SOL     OW32209   1.077   0.692   9.861 -0.8784 -0.5249  0.3038
 6859SOL    HW132210   1.070   0.691   9.766 -0.6906  2.1307  0.2782
 6859SOL    HW232211   1.163   0.729   9.879  0.4869 -2.4177 -2.2689
 6860SOL     OW32212   3.135   4.689   2.888 -0.0355 -0.0345  0.6424
 6860SOL    HW132213   3.154   0.044   2.862 -1.1047  0.5216  1.7766
 6860SOL    HW232214   3.177   4.652   2.810 -1.0744 -1.0506  0.5709
 6861SOL     OW32215   4.344   4.254   4.028  0.2968 -1.1190  0.0348
 6861SOL    HW132216   4.429   4.285   3.998 -1.2946  2.7042 -0.5929
 6861SOL    HW232217   4.340   4.306   4.108 -1.3059  0.1742 -0.8835
 6862SOL     OW32218   1.122   2.802  13.820 -0.5526 -0.0202  0.5573
 6862SOL    HW132219   1.090   2.757  13.741  0.7099  2.8438 -1.6070
 6862SOL    HW232220   1.089   2.891  13.820 -0.1800  0.1072  1.4367
 6863SOL     OW32221   1.633   2.693   8.336  0.1811  0.1443  0.2148
 6863SOL    HW132222   1.538   2.701   8.338  0.2111 -0.0778  2.1069
 6863SOL    HW232223   1.659   2.701   8.427 -0.7635  0.1253  0.4859
 6864SOL     OW32224   1.254   3.296   2.044  0.3204 -0.0889  0.1646
 6864SOL    HW132225   1.336   3.265   2.005 -1.6211 -0.7144 -3.3528
 6864SOL    HW232226   1.287   3.379   2.079  0.4309  0.3275 -0.9440
 6865SOL     OW32227   4.082   4.157  14.094 -0.1767 -0.9421 -0.0947
 6865SOL    HW132228   4.045   4.232  14.140  1.0549 -0.2520 -0.2382
 6865SOL    HW232229   4.154   4.201  14.049 -0.6096 -1.3093 -1.1475
 6866SOL     OW32230   0.890   1.092  17.397 -0.1799  0.2289  0.1246
 6866SOL    HW132231   0.907   1.053  17.482 -0.3410  1.7495  0.8588
 6866SOL    HW232232   0.888   1.010  17.347  2.9620 -0.8679  1.8094
 6867SOL     OW32233   3.578   3.497   6.098  0.5850  0.3750 -0.8760
 6867SOL    HW132234   3.619   3.568   6.050 -1.6326  2.7963  0.7660
 6867SOL    HW232235   3.581   3.434   6.026 -1.6155 -1.5959  0.7095
 6868SOL     OW32236   2.798   2.711   6.090  0.3614  0.4125  0.2217
 6868SOL    HW132237   2.764   2.799   6.108 -2.2038 -0.5550  0.0255
 6868SOL    HW232238   2.839   2.683   6.172 -1.2679 -1.3041  0.4494
 6869SOL     OW32239   2.165   0.860   5.628 -0.4101  0.8062 -0.3279
 6869SOL    HW132240   2.131   0.770   5.621  1.5006  0.2484 -2.2661
 6869SOL    HW232241   2.234   0.884   5.567 -1.6757  1.9342 -1.3116
 6870SOL     OW32242   1.995   2.028  13.564 -0.1156  0.7739  0.2896
 6870SOL    HW132243   1.954   2.113  13.581  1.4518  1.6825 -0.5029
 6870SOL    HW232244   2.084   2.034  13.597 -0.6822  0.4735  1.9097
 6871SOL     OW32245   0.290   2.842   1.738 -0.3677  0.1434  0.1767
 6871SOL    HW132246   0.245   2.915   1.698  0.2429 -0.9155 -2.4049
 6871SOL    HW232247   0.261   2.856   1.828  1.7060 -2.0428  1.2104
 6872SOL     OW32248   4.688   3.809   4.467  0.0327  0.4428  0.0756
 6872SOL    HW132249   0.036   3.776   4.431  0.7657  0.9926  1.2437
 6872SOL    HW232250   4.642   3.828   4.386 -0.3308  0.0425  0.1879
 6873SOL     OW32251   3.445   4.023  16.768  0.1115  0.4768 -0.6343
 6873SOL    HW132252   3.373   4.050  16.711  1.3286 -1.1938 -2.9435
 6873SOL    HW232253   3.396   4.024  16.850  2.0012 -1.2923  0.5116
 6874SOL     OW32254   1.800   0.463  11.117 -0.2263 -0.6994  0.1570
 6874SOL    HW132255   1.867   0.455  11.050 -1.7686 -1.1912 -1.3428
 6874SOL    HW232256   1.746   0.390  11.088 -1.0211 -0.0870  0.0868
 6875SOL     OW32257   3.430   0.601   4.922  0.6188 -0.4639  0.2375
 6875SOL    HW132258   3.454   0.520   4.877  2.5826  0.2010  0.0970
 6875SOL    HW232259   3.504   0.653   4.890 -0.8094  0.9615 -0.7488
 6876SOL     OW32260   3.194   3.188   4.286 -0.2380 -0.3585  0.4217
 6876SOL    HW132261   3.254   3.116   4.268  0.1677 -0.0960  0.7390
 6876SOL    HW232262   3.241   3.266   4.316  0.8239 -0.2972 -1.4015
 6877SOL     OW32263   3.760   1.701  15.899  0.2279  0.1450 -0.4120
 6877SOL    HW132264   3.775   1.629  15.838 -0.4598 -2.0372  1.9639
 6877SOL    HW232265   3.844   1.714  15.944 -0.6781  0.1728  1.3088
 6878SOL     OW32266   2.438   0.026   9.419  0.2268 -0.1125  0.4421
 6878SOL    HW132267   2.379   4.687   9.430 -1.7114  1.4413  0.3555
 6878SOL    HW232268   2.460   0.052   9.509  2.0226  1.1014 -0.3456
 6879SOL     OW32269   0.655   4.276   6.474  0.2658  0.1244 -0.3298
 6879SOL    HW132270   0.645   4.222   6.395  1.1060  0.2085 -0.4944
 6879SOL    HW232271   0.641   4.211   6.542  0.8862  2.2753  1.8629
 6880SOL     OW32272   3.083   0.922   5.958  0.6545  0.9666  0.2817
 6880SOL    HW132273   3.032   0.865   6.017 -0.4209  0.4494 -1.1481
 6880SOL    HW232274   3.036   0.901   5.877  1.8503 -0.3628 -0.0627
 6881SOL     OW32275   2.674   0.908   7.478  0.2868  0.1001  0.1024
 6881SOL    HW132276   2.603   0.949   7.429  0.8807  0.9730 -0.0459
 6881SOL    HW232277   2.726   0.984   7.506 -1.0033  0.2539  2.0229
 6882SOL     OW32278   2.804   1.136   7.562  0.0721  0.2578  0.0812
 6882SOL    HW132279   2.800   1.129   7.658  1.4796 -0.7777  0.0571
 6882SOL    HW232280   2.729   1.194   7.549  0.7541  0.9346 -0.7920
 6883SOL     OW32281   3.819   2.693  15.933  0.6295 -0.1142  0.1051
 6883SOL    HW132282   3.808   2.757  16.003  0.9316  0.8056 -0.6884
 6883SOL    HW232283   3.729   2.696  15.900 -0.0862  0.2905  2.1048
 6884SOL     OW32284   2.274   0.545   6.711 -0.7947  0.6442 -0.3671
 6884SOL    HW132285   2.247   0.625   6.665 -1.0034  0.8849  0.1794
 6884SOL    HW232286   2.210   0.481   6.680  0.1820 -0.5200  0.0405
 6885SOL     OW32287   1.579   0.472   9.303 -0.2894  0.3198  0.4093
 6885SOL    HW132288   1.625   0.551   9.333  0.4638  0.6584 -1.6252
 6885SOL    HW232289   1.589   0.468   9.208  2.5838 -0.7017  0.7494
 6886SOL     OW32290   4.250   4.707   7.756 -0.1330  0.1632  1.0085
 6886SOL    HW132291   4.338   4.688   7.726 -1.0212 -0.0832 -1.4264
 6886SOL    HW232292   4.235   0.062   7.725 -0.9953  0.0794  1.1672
 6887SOL     OW32293   2.510   3.405   1.991  0.1128  0.0066 -0.3549
 6887SOL    HW132294   2.425   3.447   1.979  0.3759  0.1761 -1.5746
 6887SOL    HW232295   2.542   3.436   2.076  0.7991  0.0423 -0.6259
 6888SOL     OW32296   3.793   2.125  17.486 -0.0868  0.2405 -0.2553
 6888SOL    HW132297   3.827   2.125  17.576  0.5549  0.7469 -0.4938
 6888SOL    HW232298   3.705   2.161  17.493 -0.3853 -0.4297 -0.5992
 6889SOL     OW32299   1.742   4.095   2.485  0.0143 -0.4639  0.3441
 6889SOL    HW132300   1.802   4.045   2.428 -1.2631 -0.7384 -0.7587
 6889SOL    HW232301   1.665   4.038   2.490 -1.5335  1.7097  1.0648
 6890SOL     OW32302   3.992   2.228  12.132  0.1652 -0.3838  0.5718
 6890SOL    HW132303   4.067   2.244  12.075 -0.4625  0.9255  0.1042
 6890SOL    HW232304   3.910   2.223  12.082  1.4405  1.2654 -1.6685
 6891SOL     OW32305   3.433   0.417  10.318 -0.2143 -0.1714  0.0378
 6891SOL    HW132306   3.427   0.397  10.411  0.3151 -1.7836 -0.2845
 6891SOL    HW232307   3.389   0.340  10.282 -0.7564  0.5671 -0.8666
 6892SOL     OW32308   2.777   0.856   3.368  0.7602  0.3981  0.2525
 6892SOL    HW132309   2.846   0.910   3.408  2.9413 -1.5634 -0.8875
 6892SOL    HW232310   2.780   0.876   3.274 -1.2403  1.3006  0.3811
 6893SOL     OW32311   2.573   2.763   4.554  0.1563 -0.0901  0.1630
 6893SOL    HW132312   2.485   2.729   4.541 -0.2444  0.9420  0.1139
 6893SOL    HW232313   2.600   2.721   4.636  1.2281  0.1649 -0.0614
 6894SOL     OW32314   1.335   1.503   0.754 -0.1410  0.6898  0.0092
 6894SOL    HW132315   1.427   1.526   0.766  0.2330 -0.5210 -0.5272
 6894SOL    HW232316   1.293   1.588   0.768 -1.1021  0.2703 -0.3278
 6895SOL     OW32317   2.369   2.879   5.660  0.0981 -0.0710 -0.7175
 6895SOL    HW132318   2.424   2.826   5.603 -0.7880 -1.5804 -0.1656
 6895SOL    HW232319   2.358   2.826   5.739  0.1138  0.5042 -0.3279
 6896SOL     OW32320   1.501   1.848   9.339 -0.6935 -0.2894  0.0154
 6896SOL    HW132321   1.558   1.878   9.268  2.0629 -1.8675  1.6029
 6896SOL    HW232322   1.536   1.765   9.371 -1.3585 -0.4819  0.2508
 6897SOL     OW32323   4.222   1.278   3.446 -0.2828 -0.0138  0.0257
 6897SOL    HW132324   4.143   1.225   3.430  0.0983 -0.5366 -0.1420
 6897SOL    HW232325   4.281   1.261   3.372 -0.4594  1.1980 -0.3888
 6898SOL     OW32326   0.184   0.673   5.438 -0.2055  0.6550  0.1336
 6898SOL    HW132327   0.207   0.731   5.365  0.5464  1.6193  1.1131
 6898SOL    HW232328   0.095   0.701   5.461 -0.6125 -0.9598  0.5085
 6899SOL     OW32329   4.641   4.440   8.458 -0.0972 -0.1894  0.4136
 6899SOL    HW132330   4.629   4.413   8.367 -0.3760 -1.7813  0.9207
 6899SOL    HW232331   4.552   4.458   8.488 -0.3141 -0.5741 -0.0060
 6900SOL     OW32332   4.501   0.795   2.497 -0.0361  0.1695 -0.5568
 6900SOL    HW132333   4.561   0.825   2.565  0.0819 -2.0896  0.3627
 6900SOL    HW232334   4.523   0.850   2.422  0.3805  0.0228 -0.5471
 6901SOL     OW32335   0.686   0.856   7.560 -0.2461 -0.1392  0.2952
 6901SOL    HW132336   0.616   0.895   7.612  0.0526  1.6602 -0.6589
 6901SOL    HW232337   0.764   0.878   7.612 -0.4909  0.3109  0.4735
 6902SOL     OW32338   3.768   1.107  12.513  0.6148  0.8709  0.5975
 6902SOL    HW132339   3.852   1.067  12.490 -0.8683 -0.8048 -1.9916
 6902SOL    HW232340   3.802   1.177  12.568 -2.1449  1.0068  2.1275
 6903SOL     OW32341   0.092   0.312   9.129 -0.0731 -0.2520  0.6161
 6903SOL    HW132342   0.039   0.341   9.203 -3.7144  0.1761 -2.1243
 6903SOL    HW232343   0.133   0.395   9.105 -0.0087 -0.4942 -0.1022
 6904SOL     OW32344   3.924   2.264  16.024 -0.0805  0.9747  0.3401
 6904SOL    HW132345   3.867   2.282  16.100  1.2824  1.4155  1.2554
 6904SOL    HW232346   3.960   2.351  16.006 -0.5221  0.3891 -3.3815
 6905SOL     OW32347   1.102   4.605   3.877 -0.1308  0.3252 -0.6061
 6905SOL    HW132348   1.098   4.546   3.801  0.6930  1.6110 -1.6484
 6905SOL    HW232349   1.064   4.687   3.845  0.0977  0.2737 -1.0148
 6906SOL     OW32350   4.568   2.394   7.863  0.5925 -0.4546  0.0341
 6906SOL    HW132351   4.622   2.471   7.881  0.3166 -0.4799  0.9726
 6906SOL    HW232352   4.603   2.337   7.932  1.3943 -1.7570 -1.4536
 6907SOL     OW32353   3.191   3.218   3.265  0.0178  0.2095 -0.3318
 6907SOL    HW132354   3.238   3.268   3.198 -1.7501  0.3427 -1.4837
 6907SOL    HW232355   3.247   3.236   3.340  0.4696 -4.0071  0.3244
 6908SOL     OW32356   1.502   3.453   3.795  0.0306 -0.5858  0.0923
 6908SOL    HW132357   1.562   3.411   3.857 -0.3219 -0.6778  0.3743
 6908SOL    HW232358   1.421   3.405   3.809  1.0709 -1.5524  2.7570
 6909SOL     OW32359   2.123   4.479   4.406 -0.3724  0.2149 -0.3748
 6909SOL    HW132360   2.109   4.571   4.384  2.6729  0.9384  0.8405
 6909SOL    HW232361   2.105   4.475   4.500 -1.2757 -2.9710 -0.6745
 6910SOL     OW32362   4.083   4.483   2.351  0.6079  0.2165 -0.1239
 6910SOL    HW132363   4.008   4.505   2.406 -0.3461  1.4401 -1.9352
 6910SOL    HW232364   4.114   4.406   2.400  1.1895  1.3832  1.3303
 6911SOL     OW32365   2.493   2.846  12.855 -0.6704  0.5638  0.5327
 6911SOL    HW132366   2.556   2.912  12.824 -1.6365  0.7684 -0.9856
 6911SOL    HW232367   2.519   2.780  12.791 -0.6260 -0.1379  1.2896
 6912SOL     OW32368   3.627   1.557   3.078 -0.4435 -0.6070  0.4704
 6912SOL    HW132369   3.685   1.620   3.035 -2.9626  1.4733  0.0906
 6912SOL    HW232370   3.671   1.478   3.048 -0.1729 -0.9066  1.6536
 6913SOL     OW32371   3.375   3.511   3.396 -0.1539  1.1409  0.4193
 6913SOL    HW132372   3.395   3.429   3.350 -1.7796  1.9868 -1.7473
 6913SOL    HW232373   3.376   3.486   3.488  0.8028 -1.3888 -0.2700
 6914SOL     OW32374   2.755   4.645   4.274  0.0985 -0.4224 -0.2601
 6914SOL    HW132375   2.692   4.600   4.218 -0.3717  1.0477 -0.8977
 6914SOL    HW232376   2.835   4.604   4.240 -1.2523  0.2708 -4.2597
 6915SOL     OW32377   2.627   2.199   1.127  0.2948  0.4811  0.5901
 6915SOL    HW132378   2.670   2.236   1.049 -1.4807 -1.8198 -1.4895
 6915SOL    HW232379   2.647   2.271   1.186  1.0462  0.5198  0.2937
 6916SOL     OW32380   3.016   2.987   1.901  0.0986  0.2533  0.3192
 6916SOL    HW132381   3.004   2.928   1.976  0.5680  0.2441  0.3887
 6916SOL    HW232382   3.039   2.923   1.833  0.9402  1.4778 -0.5352
 6917SOL     OW32383   2.736   2.366   4.229  0.5237  0.6097  0.0550
 6917SOL    HW132384   2.660   2.386   4.284  0.9053 -2.6887  1.7587
 6917SOL    HW232385   2.785   2.448   4.217  0.6917  0.3243 -1.2430
 6918SOL     OW32386   4.515   3.935   3.265 -0.0027  0.0618  0.5075
 6918SOL    HW132387   4.581   3.972   3.206  0.5142 -1.5764  0.0564
 6918SOL    HW232388   4.457   4.011   3.278 -1.7537 -1.0792 -0.5232
 6919SOL     OW32389   1.178   3.383   8.913  0.4607 -0.1432 -0.0541
 6919SOL    HW132390   1.117   3.338   8.855 -2.7533  1.0056  2.4691
 6919SOL    HW232391   1.135   3.385   8.998  0.5699  0.4203 -0.0112
 6920SOL     OW32392   4.656   3.847   5.270 -0.2680  0.2165  0.4900
 6920SOL    HW132393   4.588   3.824   5.206 -0.0299  1.8344 -0.3370
 6920SOL    HW232394   4.604   3.891   5.338  1.7756 -2.3918  3.7196
 6921SOL     OW32395   1.184   0.212   9.777 -0.0992  0.1621  0.7342
 6921SOL    HW132396   1.099   0.240   9.743  0.2404  1.1551  0.7046
 6921SOL    HW232397   1.177   0.252   9.864 -0.5925  0.9566  0.3273
 6922SOL     OW32398   3.271   3.294   0.396 -0.1145  0.4362 -0.3759
 6922SOL    HW132399   3.311   3.337   0.321 -1.2051  1.3070 -0.4761
 6922SOL    HW232400   3.183   3.293   0.357 -0.5553  1.6798  0.5468
 6923SOL     OW32401   1.399   1.140   2.032 -0.4705 -0.1723 -0.0135
 6923SOL    HW132402   1.335   1.146   1.961 -2.5258 -3.3500  1.5396
 6923SOL    HW232403   1.387   1.226   2.073 -0.7536 -0.6859  0.9793
 6924SOL     OW32404   0.427   0.950  15.585  0.5700 -0.1113 -0.3198
 6924SOL    HW132405   0.372   1.017  15.626  0.4777  0.4882 -1.4314
 6924SOL    HW232406   0.495   1.007  15.549  0.1311 -0.0276 -1.0154
 6925SOL     OW32407   3.241   2.912   5.060 -0.1437 -0.2250 -0.0551
 6925SOL    HW132408   3.318   2.864   5.088  0.5441 -0.0315 -1.6242
 6925SOL    HW232409   3.246   2.993   5.111  0.6616  0.2870 -0.9586
 6926SOL     OW32410   4.611   1.118   2.110 -0.5825  0.2778 -0.1163
 6926SOL    HW132411   4.650   1.072   2.036  4.5794  2.0087  1.4888
 6926SOL    HW232412   4.554   1.177   2.060  0.7338 -0.2061 -2.1794
 6927SOL     OW32413   4.123   2.431   3.554 -0.0169  0.5503  0.2312
 6927SOL    HW132414   4.170   2.493   3.609  0.6751  0.7179 -0.5413
 6927SOL    HW232415   4.060   2.392   3.615  0.4363  1.0632  1.0257
 6928SOL     OW32416   0.496   3.220   7.936  0.0117 -0.3556 -0.0643
 6928SOL    HW132417   0.543   3.237   7.855  0.2565  0.0253  0.1566
 6928SOL    HW232418   0.509   3.126   7.951 -0.0403  0.0210  2.3130
 6929SOL     OW32419   2.579   3.739   8.545  0.5647  0.5447 -0.5027
 6929SOL    HW132420   2.602   3.652   8.510  0.3442  0.0128  0.6826
 6929SOL    HW232421   2.491   3.754   8.510  0.8737  0.2349 -1.4151
 6930SOL     OW32422   0.740   3.378   9.162  0.5724 -0.3093 -0.3321
 6930SOL    HW132423   0.698   3.324   9.095 -0.7066 -0.6194  0.7213
 6930SOL    HW232424   0.733   3.321   9.239  3.3464 -1.5867 -1.0205
 6931SOL     OW32425   4.555   1.732  15.294  0.2169 -0.3684  0.1327
 6931SOL    HW132426   4.544   1.732  15.389  1.9044  0.3576  0.3088
 6931SOL    HW232427   4.582   1.820  15.271  0.4825 -0.6068 -0.4708
 6932SOL     OW32428   0.034   0.444  11.960 -0.5013  0.1876  0.0630
 6932SOL    HW132429   0.106   0.423  11.900  1.2191 -2.3244  3.0055
 6932SOL    HW232430   0.080   0.495  12.027 -2.3291 -0.3278  1.7011
 6933SOL     OW32431   0.321   2.739   7.407  0.1740 -0.3544  0.1369
 6933SOL    HW132432   0.312   2.644   7.404  0.6795 -0.4906  2.6022
 6933SOL    HW232433   0.229   2.760   7.421  0.2807 -0.2594  0.6854
 6934SOL     OW32434   3.546   2.177   3.347 -0.3187  0.2734  0.2509
 6934SOL    HW132435   3.624   2.123   3.358 -0.1198  0.3757 -0.6267
 6934SOL    HW232436   3.517   2.160   3.257  0.2771 -2.0459  0.5114
 6935SOL     OW32437   4.218   2.098  12.954 -0.0477 -0.8840 -0.1789
 6935SOL    HW132438   4.290   2.046  12.988  0.3429 -0.8556 -0.9649
 6935SOL    HW232439   4.159   2.028  12.925 -1.5845  0.5835 -0.6261
 6936SOL     OW32440   0.862   3.554  10.537  0.3205 -0.1602  0.4337
 6936SOL    HW132441   0.858   3.551  10.441 -1.3550  2.3490  0.4281
 6936SOL    HW232442   0.942   3.503  10.548  0.3926 -0.1817 -0.1540
 6937SOL     OW32443   1.855   1.340   8.841 -0.1192 -0.1333  0.1155
 6937SOL    HW132444   1.773   1.362   8.797  0.6057 -1.3282 -1.8372
 6937SOL    HW232445   1.900   1.327   8.758  1.1740 -0.4870  0.8775
 6938SOL     OW32446   1.035   0.771   4.520  0.1417  0.2231  0.4624
 6938SOL    HW132447   0.993   0.856   4.530 -0.4850 -0.2184  1.6540
 6938SOL    HW232448   1.080   0.754   4.603  2.1798  2.2888 -0.2086
 6939SOL     OW32449   3.252   0.028   8.099  0.0018 -0.1659 -0.3525
 6939SOL    HW132450   3.222   0.047   8.010 -0.7973 -1.0083 -0.2670
 6939SOL    HW232451   3.326   0.089   8.094 -0.5634  0.4462 -1.1802
 6940SOL     OW32452   1.420   1.331   6.946  0.2584 -0.5500 -0.6901
 6940SOL    HW132453   1.328   1.352   6.962  0.5440 -1.0179  1.5069
 6940SOL    HW232454   1.456   1.420   6.943  0.3191 -0.5846 -0.9467
 6941SOL     OW32455   4.171   0.363  14.307 -0.6459  0.0707 -0.2032
 6941SOL    HW132456   4.108   0.433  14.321 -1.3845 -0.2054 -2.1239
 6941SOL    HW232457   4.120   0.283  14.315  0.5126 -0.6546  0.0190
 6942SOL     OW32458   4.260   1.570  17.262  0.1079  0.2120 -0.5088
 6942SOL    HW132459   4.177   1.550  17.219 -1.0260  0.9395  1.3496
 6942SOL    HW232460   4.312   1.594  17.185  1.1889 -3.2683 -0.8305
 6943SOL     OW32461   0.164   1.752   3.186  0.0072  0.2538 -0.3898
 6943SOL    HW132462   0.096   1.820   3.187  2.6503  2.9103 -2.5606
 6943SOL    HW232463   0.239   1.791   3.230  0.2097 -0.3522 -0.1969
 6944SOL     OW32464   3.965   1.446   5.727  0.0160  0.6529 -0.2701
 6944SOL    HW132465   3.980   1.355   5.701 -1.2469  0.1632  0.7342
 6944SOL    HW232466   3.870   1.447   5.734 -0.1656  2.0190 -3.0322
 6945SOL     OW32467   3.333   3.099   3.499  0.3813  1.1164 -0.2770
 6945SOL    HW132468   3.379   3.065   3.575  0.6001  0.0087 -0.9105
 6945SOL    HW232469   3.381   3.060   3.426  0.8611 -0.4516  0.8761
 6946SOL     OW32470   3.779   4.677   9.067 -0.2635  0.3717 -0.2537
 6946SOL    HW132471   3.712   4.636   9.013 -1.5625  1.4555  0.5636
 6946SOL    HW232472   3.856   4.677   9.009  0.1765  2.7499  0.3289
 6947SOL     OW32473   1.672   1.234   2.448 -0.4015 -0.2080 -0.1656
 6947SOL    HW132474   1.686   1.280   2.365  1.2038 -0.2297  0.0891
 6947SOL    HW232475   1.587   1.274   2.464 -0.5715 -0.5802 -0.1432
 6948SOL     OW32476   4.209   4.278   2.473  0.4155  0.2884 -0.5541
 6948SOL    HW132477   4.293   4.275   2.427  0.8592 -0.8717  0.3573
 6948SOL    HW232478   4.177   4.189   2.462  1.5623 -0.3070  1.0256
 6949SOL     OW32479   3.635   1.829   5.396 -0.2040 -0.8802 -0.7021
 6949SOL    HW132480   3.618   1.735   5.405 -0.0256 -0.6551  1.8577
 6949SOL    HW232481   3.698   1.836   5.467 -1.2068  0.4163  0.0431
 6950SOL     OW32482   3.588   3.965  17.148  0.1845 -0.2191  0.1837
 6950SOL    HW132483   3.619   3.899  17.086  0.8429  1.8743 -1.7532
 6950SOL    HW232484   3.585   3.913  17.228 -1.8365 -0.9416 -0.3582
 6951SOL     OW32485   3.052   2.016   5.573 -0.0024 -0.5844 -0.3304
 6951SOL    HW132486   3.032   1.925   5.551 -1.3657  0.0674 -1.7320
 6951SOL    HW232487   3.024   2.056   5.490  2.8086 -0.0118 -1.0199
 6952SOL     OW32488   4.598   0.397   3.362  0.1214  0.0782 -0.2963
 6952SOL    HW132489   4.634   0.382   3.449 -0.2736 -0.3821 -0.2119
 6952SOL    HW232490   4.660   0.455   3.319  0.8436 -1.4030 -1.2791
 6953SOL     OW32491   0.791   0.411  15.971  0.1067 -0.3661 -0.0529
 6953SOL    HW132492   0.779   0.456  15.887  3.1590 -1.6835 -1.2092
 6953SOL    HW232493   0.701   0.402  16.001  0.5627  0.3471  1.4899
 6954SOL     OW32494   1.880   4.073   9.915  0.1012  0.3665 -0.3170
 6954SOL    HW132495   1.840   4.035   9.836 -0.5168  1.4793 -0.5430
 6954SOL    HW232496   1.804   4.111   9.959  1.0678  1.5498  0.3348
 6955SOL     OW32497   3.891   3.208   2.477  0.0267  0.5951  0.1920
 6955SOL    HW132498   3.801   3.176   2.488 -0.2761  1.1788 -0.5683
 6955SOL    HW232499   3.899   3.196   2.382 -2.2775 -0.7579  0.1498
 6956SOL     OW32500   0.882   2.644   1.995  0.0641 -0.2407 -0.6879
 6956SOL    HW132501   0.906   2.715   1.935  1.8168 -1.0480 -0.9496
 6956SOL    HW232502   0.861   2.573   1.935 -0.7254  0.1664 -0.8826
 6957SOL     OW32503   4.664   4.396   6.690 -0.5605  0.3042 -0.5609
 6957SOL    HW132504   0.003   4.416   6.633 -2.2494  2.3023 -2.0555
 6957SOL    HW232505   4.710   4.369   6.769 -1.2912  0.8187  0.0433
 6958SOL     OW32506   2.911   1.682   6.866 -0.3216 -0.3084  0.8769
 6958SOL    HW132507   3.006   1.691   6.870 -0.7039  3.4226  1.0472
 6958SOL    HW232508   2.888   1.775   6.872 -1.2534 -0.4257 -0.7788
 6959SOL     OW32509   2.735   3.983   7.439 -0.1346  0.7310  0.4815
 6959SOL    HW132510   2.677   3.911   7.462  0.0650  0.7308  0.9919
 6959SOL    HW232511   2.818   3.935   7.432 -2.2308 -2.6591 -1.1082
 6960SOL     OW32512   3.846   1.412   0.059 -0.5648 -0.0699 -0.0342
 6960SOL    HW132513   3.902   1.350   0.013 -1.3302  0.6645 -1.9554
 6960SOL    HW232514   3.809   1.456  17.721  1.1798  1.3359 -0.0722
 6961SOL     OW32515   3.797   0.936   8.153  0.6852  0.3493  0.0354
 6961SOL    HW132516   3.722   0.895   8.195 -1.1058  1.5898 -1.9565
 6961SOL    HW232517   3.857   0.955   8.226  1.0355 -1.1398  0.1210
 6962SOL     OW32518   3.413   2.297   6.060 -0.2107 -0.3944 -0.3884
 6962SOL    HW132519   3.435   2.243   5.985 -2.2498 -1.5495 -0.1622
 6962SOL    HW232520   3.472   2.256   6.123  0.5150  0.0053 -0.8079
 6963SOL     OW32521   1.027   1.856   1.626  0.1041 -0.2803 -0.0881
 6963SOL    HW132522   1.095   1.802   1.586  1.2747  0.1957  1.2399
 6963SOL    HW232523   1.011   1.920   1.557  0.6577 -0.1741 -0.1173
 6964SOL     OW32524   3.904   1.478  13.142 -0.1831  0.1058  0.1811
 6964SOL    HW132525   3.880   1.550  13.200  1.1674 -1.3116  2.5219
 6964SOL    HW232526   3.872   1.403  13.193  1.7776  0.7187  2.2922
 6965SOL     OW32527   3.034   0.374  13.233  0.3686  0.3787 -0.0078
 6965SOL    HW132528   2.989   0.388  13.149 -2.2949  1.3528  1.5891
 6965SOL    HW232529   3.099   0.444  13.226  0.5478  0.1553 -0.6007
 6966SOL     OW32530   2.643   1.693   4.521 -0.2804 -0.2065 -0.2493
 6966SOL    HW132531   2.634   1.613   4.573 -3.6513  1.8720  2.3861
 6966SOL    HW232532   2.738   1.700   4.515 -0.3464 -1.0215 -1.9698
 6967SOL     OW32533   2.237   4.286   9.144  0.3895 -0.5078 -0.3009
 6967SOL    HW132534   2.278   4.206   9.177  1.7435  0.8784  1.3340
 6967SOL    HW232535   2.304   4.352   9.160 -0.0561 -0.1351  0.0189
 6968SOL     OW32536   1.399   2.406   0.099 -0.3627  0.0125  0.2087
 6968SOL    HW132537   1.323   2.357   0.069  0.1763 -1.6063  1.4660
 6968SOL    HW232538   1.457   2.401   0.023  0.7214 -2.6613  1.2116
 6969SOL     OW32539   0.170   0.537  12.175  0.3672 -0.0351 -0.3078
 6969SOL    HW132540   0.107   0.493  12.232  0.1138  1.8062  0.8509
 6969SOL    HW232541   0.224   0.572  12.246 -3.0563  2.9472  0.8643
 6970SOL     OW32542   2.034   2.786  15.449 -0.2183  0.2707  0.0704
 6970SOL    HW132543   2.094   2.810  15.379 -0.6623 -0.2023 -0.4738
 6970SOL    HW232544   2.084   2.739  15.516  1.2463  1.2268 -0.3525
 6971SOL     OW32545   4.110   3.577  13.070 -0.0217 -0.6245 -0.3280
 6971SOL    HW132546   4.111   3.504  13.131  0.7136  0.4179  0.8927
 6971SOL    HW232547   4.144   3.650  13.121 -0.6544 -0.9201  0.5002
 6972SOL     OW32548   4.039   3.042   5.115 -0.5186 -0.5171  0.0033
 6972SOL    HW132549   4.098   2.974   5.147  1.1298  1.5907  1.4236
 6972SOL    HW232550   3.957   3.000   5.087  0.1979 -1.3869 -0.8149
 6973SOL     OW32551   0.228   2.268   7.519  0.4783 -0.4985  0.0125
 6973SOL    HW132552   0.139   2.246   7.493  0.2628  2.0064 -1.3819
 6973SOL    HW232553   0.264   2.179   7.518 -0.1663 -0.7508 -0.4366
 6974SOL     OW32554   2.327   1.279  13.726 -0.0102  0.4287  0.5018
 6974SOL    HW132555   2.295   1.286  13.816  0.6609 -2.2689  0.9700
 6974SOL    HW232556   2.371   1.194  13.735 -0.1744  0.2385 -0.5304
 6975SOL     OW32557   3.542   4.092   2.852 -0.2589  0.0740  0.1517
 6975SOL    HW132558   3.452   4.080   2.822 -0.6443 -0.0338  1.3572
 6975SOL    HW232559   3.558   4.015   2.905 -1.1040 -1.0219 -1.1675
 6976SOL     OW32560   0.034   2.129  13.209 -0.3821 -0.7731  0.0686
 6976SOL    HW132561   0.067   2.064  13.147  1.4123  1.1535 -1.0025
 6976SOL    HW232562   4.700   2.162  13.152 -0.3865  1.2903  1.2665
 6977SOL     OW32563   3.864   0.379   6.017  0.3203 -0.4702 -0.8650
 6977SOL    HW132564   3.814   0.456   5.989 -1.6566 -0.8163  1.6155
 6977SOL    HW232565   3.794   0.346   6.074  0.4244 -0.1914 -0.5721
 6978SOL     OW32566   0.598   0.776  11.849  0.9298 -0.0860 -0.0203
 6978SOL    HW132567   0.510   0.813  11.840  0.8565 -0.3424 -0.3603
 6978SOL    HW232568   0.639   0.824  11.777 -0.2139 -0.2525 -0.7909
 6979SOL     OW32569   1.911   3.551   6.456 -0.7494 -0.2688  0.2373
 6979SOL    HW132570   1.928   3.461   6.482  1.2229 -0.1932 -0.7971
 6979SOL    HW232571   1.999   3.587   6.457 -0.1836 -1.6676 -0.3539
 6980SOL     OW32572   4.649   0.259  12.967  0.2276 -0.0685  0.5871
 6980SOL    HW132573   4.704   0.237  13.042  0.7447 -0.4810  0.0844
 6980SOL    HW232574   4.595   0.179  12.971  1.0991 -0.7329 -1.0515
 6981SOL     OW32575   2.446   2.272   7.042 -0.5055 -0.0631 -0.1348
 6981SOL    HW132576   2.425   2.198   7.098 -2.8946 -0.1806 -1.1907
 6981SOL    HW232577   2.420   2.339   7.105 -1.0343  0.0444 -0.4677
 6982SOL     OW32578   0.018   3.075  17.171  0.5441  0.2783 -0.2455
 6982SOL    HW132579   4.660   3.061  17.151  0.9987 -1.8422 -0.9152
 6982SOL    HW232580   0.052   2.988  17.148  3.0838  0.9822  0.7925
 6983SOL     OW32581   4.235   0.404   9.448  0.1474  0.4907 -0.2033
 6983SOL    HW132582   4.291   0.481   9.454  0.0076  0.6383 -0.8744
 6983SOL    HW232583   4.163   0.447   9.495 -0.1625  1.9319 -2.0146
 6984SOL     OW32584   3.194   3.202  16.888  0.5673  0.4243 -0.8540
 6984SOL    HW132585   3.275   3.250  16.870  1.0558  0.0887  0.4280
 6984SOL    HW232586   3.231   3.140  16.952  1.2268 -0.8260 -2.4382
 6985SOL     OW32587   3.645   1.826   8.832  0.1336  0.3994 -0.4027
 6985SOL    HW132588   3.594   1.746   8.845  1.3708 -0.3566 -0.2349
 6985SOL    HW232589   3.619   1.884   8.903  0.4197 -0.8508  0.7264
 6986SOL     OW32590   1.688   3.030  12.778  0.6424 -0.2656 -0.1110
 6986SOL    HW132591   1.728   2.979  12.708  0.7530  1.2769 -1.1799
 6986SOL    HW232592   1.656   3.106  12.729  1.6073 -0.5405 -1.1715
 6987SOL     OW32593   3.107   0.719   7.289  0.1325 -0.3207  0.1242
 6987SOL    HW132594   3.064   0.768   7.359  0.3606 -2.2660  1.6176
 6987SOL    HW232595   3.023   0.691   7.253 -0.3103  1.5319 -0.3162
 6988SOL     OW32596   4.558   4.086   5.811 -0.0826  0.3402 -0.3506
 6988SOL    HW132597   4.573   4.155   5.877  1.7422 -2.0799  1.7847
 6988SOL    HW232598   4.503   4.032   5.867  0.4412 -0.0894 -0.2487
 6989SOL     OW32599   3.415   4.120   5.934  0.3636 -0.3934 -0.0307
 6989SOL    HW132600   3.423   4.033   5.972  1.0355  0.4034  1.6452
 6989SOL    HW232601   3.502   4.150   5.962  0.1508  0.2006 -0.0056
 6990SOL     OW32602   4.661   1.353   4.467 -0.0606  0.5946  0.6617
 6990SOL    HW132603   4.652   1.303   4.387  0.6858  0.4475  0.6655
 6990SOL    HW232604   4.673   1.432   4.413  3.2533 -0.1880  0.2711
 6991SOL     OW32605   4.714   2.578   4.107  0.2152 -0.1131 -0.2739
 6991SOL    HW132606   0.035   2.502   4.123 -0.9066 -0.9672 -0.3881
 6991SOL    HW232607   4.686   2.586   4.198  0.6176 -2.1740  0.0300
 6992SOL     OW32608   3.080   4.518   5.892 -0.1052  0.5837  0.6069
 6992SOL    HW132609   3.136   4.458   5.843  0.1570  1.6912 -0.4566
 6992SOL    HW232610   3.001   4.468   5.913  0.2806 -0.3962 -0.3091
 6993SOL     OW32611   3.895   2.683   3.792  0.5592 -0.4172  0.4352
 6993SOL    HW132612   3.984   2.648   3.782  1.1825  1.0152  1.0453
 6993SOL    HW232613   3.869   2.678   3.700 -1.1744 -0.6736  0.9477
 6994SOL     OW32614   2.575   0.223  12.840  0.1976  0.1493 -0.1410
 6994SOL    HW132615   2.597   0.153  12.901 -0.3190  0.2716  0.1865
 6994SOL    HW232616   2.651   0.233  12.782  0.1527  1.7854  0.0795
 6995SOL     OW32617   0.008   4.339   6.293 -0.1656  0.6306 -0.5058
 6995SOL    HW132618   4.685   4.390   6.236  0.2984  0.0086 -1.5318
 6995SOL    HW232619   0.088   4.390   6.296  0.2546 -0.0944  0.4931
 6996SOL     OW32620   1.789   0.241   2.127  0.3019 -0.3283 -0.0578
 6996SOL    HW132621   1.726   0.181   2.088 -0.2451  0.0732  0.2046
 6996SOL    HW232622   1.864   0.187   2.152  0.7572 -0.0473 -0.8167
 6997SOL     OW32623   3.358   1.175   1.062 -0.2719 -0.2523 -0.1235
 6997SOL    HW132624   3.397   1.153   1.146  1.0616  0.3308 -0.5778
 6997SOL    HW232625   3.393   1.262   1.039 -2.1062  0.1341 -1.4369
 6998SOL     OW32626   3.167   0.509   8.804 -0.1828  0.1078  0.2871
 6998SOL    HW132627   3.183   0.470   8.890  2.2278  0.9229  0.2202
 6998SOL    HW232628   3.237   0.472   8.751  0.0210 -1.9160  1.9508
 6999SOL     OW32629   1.678   4.454   9.565  0.1881  0.1578  0.2358
 6999SOL    HW132630   1.685   4.472   9.659  1.9039 -0.6127  0.2525
 6999SOL    HW232631   1.767   4.464   9.530  0.4146  0.6293  0.9433
 7000SOL     OW32632   4.509   3.431   1.845  0.1488 -0.2051 -0.7361
 7000SOL    HW132633   4.574   3.481   1.795 -0.5695 -1.5131 -2.9914
 7000SOL    HW232634   4.428   3.481   1.850  1.1413  1.3070  0.3675
 7001SOL     OW32635   4.287   4.044   5.459 -0.0902  0.3638 -0.3795
 7001SOL    HW132636   4.239   3.967   5.490 -1.0197  0.0037 -2.7248
 7001SOL    HW232637   4.270   4.025   5.366 -0.5772 -2.0230  0.1917
 7002SOL     OW32638   0.907   0.740   6.821 -0.2969 -0.3563 -0.0085
 7002SOL    HW132639   0.854   0.742   6.742  0.8813  1.0216 -0.7419
 7002SOL    HW232640   0.844   0.725   6.891  0.3187 -0.5803  0.5016
 7003SOL     OW32641   1.999   4.246  11.936 -0.3086  0.4921  0.1382
 7003SOL    HW132642   2.014   4.340  11.944  0.5790  0.1866  2.0278
 7003SOL    HW232643   2.087   4.223  11.906 -1.0828 -1.0258 -0.9373
 7004SOL     OW32644   1.733   2.456   2.027  0.1796 -0.0037  0.0650
 7004SOL    HW132645   1.687   2.393   1.972  1.4292  0.5203 -1.5920
 7004SOL    HW232646   1.798   2.491   1.967 -0.2821 -2.2117 -1.7162
 7005SOL     OW32647   4.397   3.509   1.552 -0.2993 -0.2869  0.4959
 7005SOL    HW132648   4.467   3.537   1.493 -1.6219  0.6064 -0.6319
 7005SOL    HW232649   4.321   3.530   1.498 -0.1512  3.0932  1.5601
 7006SOL     OW32650   4.419   1.573   6.061 -0.0544  0.1722 -0.0716
 7006SOL    HW132651   4.465   1.546   5.982 -0.3209 -0.6278  0.0493
 7006SOL    HW232652   4.493   1.570   6.122 -0.2510  0.5391  0.1871
 7007SOL     OW32653   3.652   0.756   3.729 -0.1914  0.4188 -0.3178
 7007SOL    HW132654   3.739   0.750   3.690  0.7771  1.0916  1.7379
 7007SOL    HW232655   3.598   0.694   3.680  0.3709 -0.2970 -0.0257
 7008SOL     OW32656   3.214   2.053   3.545  0.0390 -0.1587 -0.8032
 7008SOL    HW132657   3.213   2.079   3.453 -0.3562 -1.6142 -1.2019
 7008SOL    HW232658   3.218   1.959   3.532 -1.7017 -0.1533 -1.3239
 7009SOL     OW32659   1.904   4.224   5.622  0.0388 -0.0000 -0.9815
 7009SOL    HW132660   1.943   4.146   5.662  3.3982  1.5879 -1.1645
 7009SOL    HW232661   1.975   4.286   5.608 -0.0310  0.1645 -0.6166
 7010SOL     OW32662   1.714   3.480   2.767 -0.5285 -1.1193 -0.0911
 7010SOL    HW132663   1.805   3.503   2.747 -0.7646  0.1594  0.2642
 7010SOL    HW232664   1.694   3.542   2.837  2.0811 -0.0361 -0.2966
 7011SOL     OW32665   4.206   3.160   6.971  0.3425  0.4437 -0.1258
 7011SOL    HW132666   4.216   3.251   6.941  0.7127 -0.7071 -3.4962
 7011SOL    HW232667   4.210   3.118   6.885  1.8207 -1.7827  1.0400
 7012SOL     OW32668   0.064   0.620   3.047 -0.0114 -1.0567  0.0092
 7012SOL    HW132669   0.040   0.660   2.963 -0.2456 -0.8817  0.1592
 7012SOL    HW232670   4.717   0.581   3.078  0.3651 -1.5288  0.4024
 7013SOL     OW32671   1.763   0.423   6.188 -0.2248  0.1443  0.3959
 7013SOL    HW132672   1.848   0.409   6.229  0.9256  2.7557 -1.0991
 7013SOL    HW232673   1.754   0.338   6.145  0.7858  0.1050  0.2624
 7014SOL     OW32674   1.231   2.532  16.506  0.1778 -0.0915 -0.2021
 7014SOL    HW132675   1.136   2.529  16.518 -0.0977 -0.1724 -2.2680
 7014SOL    HW232676   1.260   2.576  16.585  0.2899  1.1463 -0.9459
 7015SOL     OW32677   2.525   1.834   8.940 -0.1894  0.3554  0.2716
 7015SOL    HW132678   2.591   1.842   8.871  0.0370  2.2675  0.6885
 7015SOL    HW232679   2.468   1.765   8.907 -0.9067  0.1634  1.9019
 7016SOL     OW32680   2.045   4.477   3.776 -0.4577 -0.3695  0.1953
 7016SOL    HW132681   2.090   4.499   3.694 -0.1925 -0.4145  0.3290
 7016SOL    HW232682   1.960   4.468   3.732 -1.0249  2.1400  0.7305
 7017SOL     OW32683   3.394   0.296  10.986  0.2635 -0.3690 -0.2071
 7017SOL    HW132684   3.429   0.207  10.979 -2.1814 -1.7051  4.3967
 7017SOL    HW232685   3.348   0.289  10.902  0.1160 -2.2835  0.0371
 7018SOL     OW32686   4.191   3.619   4.086  0.1739  0.1537  0.1667
 7018SOL    HW132687   4.155   3.662   4.009 -0.5114  0.8209  0.8540
 7018SOL    HW232688   4.268   3.674   4.100  0.6894 -0.7939  1.0294
 7019SOL     OW32689   3.931   0.564   2.182  0.2620 -0.5242 -0.2731
 7019SOL    HW132690   4.006   0.529   2.134  0.5983 -0.2660  0.0620
 7019SOL    HW232691   3.871   0.584   2.110 -0.0347 -0.0802  0.0949
 7020SOL     OW32692   3.413   1.541   4.849  0.5930 -0.5376  0.3851
 7020SOL    HW132693   3.318   1.540   4.856  0.6279  1.3589  0.9180
 7020SOL    HW232694   3.446   1.536   4.938  1.0852  2.7971  0.3824
 7021SOL     OW32695   0.456   1.948   0.186  0.2881  0.9145  0.2917
 7021SOL    HW132696   0.476   1.996   0.106 -1.0717  0.8491 -0.0824
 7021SOL    HW232697   0.539   1.905   0.209 -0.4649 -0.1258  1.0889
 7022SOL     OW32698   2.529   1.278   6.892 -0.1452 -0.2118  0.7370
 7022SOL    HW132699   2.619   1.262   6.862 -0.7681 -0.9300 -0.7690
 7022SOL    HW232700   2.542   1.294   6.985 -0.8575 -2.1036  1.1547
 7023SOL     OW32701   4.052   3.331   9.245 -0.6870 -0.1895 -0.0917
 7023SOL    HW132702   3.992   3.353   9.316 -0.5077 -1.0531  0.3351
 7023SOL    HW232703   3.979   3.323   9.185 -0.8663  2.6018 -0.2068
 7024SOL     OW32704   0.377   3.734   5.559  0.2022  0.0807 -0.8388
 7024SOL    HW132705   0.284   3.754   5.551 -0.3599 -1.9056  0.8337
 7024SOL    HW232706   0.375   3.639   5.549 -0.4930 -0.0494  0.5823
 7025SOL     OW32707   2.564   0.540   3.284 -0.3979  0.4281 -0.3077
 7025SOL    HW132708   2.566   0.624   3.330  0.9213 -0.0573  0.5308
 7025SOL    HW232709   2.640   0.540   3.226  0.8093  1.4893  1.2507
 7026SOL     OW32710   1.349   1.568  12.288 -0.3812  0.3117 -0.3970
 7026SOL    HW132711   1.345   1.569  12.383  0.7072 -0.8110 -0.3410
 7026SOL    HW232712   1.321   1.656  12.265  1.1753  1.0575  0.5923
 7027SOL     OW32713   0.789   0.904   4.523  0.0282  0.1460  0.3921
 7027SOL    HW132714   0.748   0.965   4.463 -0.0596 -0.3930 -0.0990
 7027SOL    HW232715   0.782   0.825   4.469  1.8333 -0.9508  1.7901
 7028SOL     OW32716   0.940   3.067  15.729 -0.0470 -0.6038  0.3387
 7028SOL    HW132717   0.909   3.157  15.736 -1.0041 -0.9672  0.9232
 7028SOL    HW232718   0.887   3.022  15.795  1.3612 -1.9715  0.5536
 7029SOL     OW32719   1.074   0.225   5.478  0.1744 -0.2349  0.7098
 7029SOL    HW132720   1.059   0.192   5.566 -0.5145 -0.0427  0.6650
 7029SOL    HW232721   1.078   0.149   5.420  0.8585 -2.4781  3.7009
 7030SOL     OW32722   0.802   3.969   4.277 -0.3451 -0.4948  0.1616
 7030SOL    HW132723   0.802   4.059   4.245  1.0530 -0.5321  0.0562
 7030SOL    HW232724   0.707   3.956   4.280 -0.2745 -1.4783 -1.6608
 7031SOL     OW32725   2.673   4.546   7.556  0.1512 -0.2466 -0.1000
 7031SOL    HW132726   2.585   4.546   7.518 -0.3358 -0.5681  1.0340
 7031SOL    HW232727   2.656   4.587   7.641 -3.6232 -3.3437  0.6350
 7032SOL     OW32728   1.209   4.082   9.562 -0.5015 -0.5631  0.6386
 7032SOL    HW132729   1.184   4.074   9.470  0.3841 -2.5488  0.5778
 7032SOL    HW232730   1.294   4.125   9.559 -0.6998 -0.2198 -0.1455
 7033SOL     OW32731   1.453   0.573   6.155  0.8564  1.2548  0.7291
 7033SOL    HW132732   1.437   0.619   6.072  2.4537 -1.2154 -0.9515
 7033SOL    HW232733   1.529   0.517   6.138 -0.4316 -0.1625 -0.3509
 7034SOL     OW32734   1.164   1.952   4.239 -0.3345  0.9009 -0.1574
 7034SOL    HW132735   1.241   1.972   4.186 -2.1011  2.4624 -2.1391
 7034SOL    HW232736   1.100   1.948   4.167 -0.1041  1.7149 -0.3960
 7035SOL     OW32737   4.364   3.361   4.448  0.7030 -0.5156 -0.1834
 7035SOL    HW132738   4.280   3.317   4.435 -0.2230  0.8538  1.1987
 7035SOL    HW232739   4.371   3.421   4.374 -3.4685  0.2067  0.0002
 7036SOL     OW32740   2.218   4.437  13.423  0.1448  0.1682  0.8472
 7036SOL    HW132741   2.185   4.510  13.371 -0.3448  0.4550  1.5781
 7036SOL    HW232742   2.294   4.409  13.371 -1.1415  1.0576 -1.5123
 7037SOL     OW32743   2.224   2.976   9.250 -0.3057  0.4619  0.0410
 7037SOL    HW132744   2.316   2.997   9.262 -0.7367  1.1271  2.1126
 7037SOL    HW232745   2.188   2.946   9.334  0.4945 -1.1946 -0.2028
 7038SOL     OW32746   1.968   2.131   7.349  0.3332  0.2831  0.0395
 7038SOL    HW132747   2.029   2.062   7.374  0.1484 -0.3327 -1.2651
 7038SOL    HW232748   1.906   2.126   7.422  0.3169 -3.0430 -0.2298
 7039SOL     OW32749   2.730   1.937   7.875 -0.2152  0.5673  0.2252
 7039SOL    HW132750   2.796   1.969   7.936 -1.4647  2.0182  0.8076
 7039SOL    HW232751   2.652   1.918   7.927 -1.1327  1.9039 -0.6732
 7040SOL     OW32752   4.122   1.501   3.554  0.2585 -0.1332  0.6584
 7040SOL    HW132753   4.063   1.473   3.625 -0.1941  1.4174  0.8781
 7040SOL    HW232754   4.149   1.410   3.541 -3.4395 -0.9182 -1.4683
 7041SOL     OW32755   2.489   1.617   3.051  0.6742 -0.3818  0.2025
 7041SOL    HW132756   2.516   1.700   3.091  1.3346 -1.0642  1.1564
 7041SOL    HW232757   2.405   1.642   3.013  1.4277  0.8414 -0.6400
 7042SOL     OW32758   1.324   4.513   2.945  0.7037  0.2008 -0.5887
 7042SOL    HW132759   1.382   4.455   2.994  2.0721  0.5494 -1.7777
 7042SOL    HW232760   1.308   4.582   3.010  0.0742  1.1734 -1.7713
 7043SOL     OW32761   1.560   4.280   2.577  0.0294  0.4209  0.1760
 7043SOL    HW132762   1.635   4.223   2.560  0.0919  0.2718  0.9650
 7043SOL    HW232763   1.566   4.287   2.672  0.2968  2.7627 -0.0159
 7044SOL     OW32764   3.338   3.825  12.409  0.2575 -0.4074 -0.0177
 7044SOL    HW132765   3.427   3.835  12.443  0.6162 -0.4251 -0.9474
 7044SOL    HW232766   3.278   3.872  12.467 -0.5004 -2.9248  1.2377
 7045SOL     OW32767   4.127   2.701  13.226 -0.1786  0.8391  0.4431
 7045SOL    HW132768   4.179   2.770  13.184  1.6079  0.2743  1.7147
 7045SOL    HW232769   4.086   2.649  13.156  1.3823 -0.7467  0.6859
 7046SOL     OW32770   3.523   2.285   5.435 -0.0077  0.1968  0.3449
 7046SOL    HW132771   3.541   2.269   5.528  2.6104  1.0674 -0.0215
 7046SOL    HW232772   3.612   2.270   5.403  0.8898  2.2556  1.8763
 7047SOL     OW32773   0.571   2.619   4.152  0.4116  0.1471  0.5217
 7047SOL    HW132774   0.477   2.641   4.151  0.1358 -1.0653  0.1601
 7047SOL    HW232775   0.578   2.578   4.238 -2.0180 -2.6305 -0.6065
 7048SOL     OW32776   3.575   1.495   0.193 -0.2201  0.1253 -0.4484
 7048SOL    HW132777   3.528   1.542   0.125 -0.7475  0.2911  0.0250
 7048SOL    HW232778   3.661   1.473   0.156 -0.2642  0.9823 -1.0516
 7049SOL     OW32779   0.571   2.804   1.771 -0.4335 -0.3021  0.6793
 7049SOL    HW132780   0.478   2.828   1.769 -0.5997 -0.9748  0.4449
 7049SOL    HW232781   0.600   2.894   1.783 -0.7243  0.0381 -1.1656
 7050SOL     OW32782   0.535   1.859   5.763  0.5511 -0.0159 -0.5388
 7050SOL    HW132783   0.486   1.909   5.829 -0.7346 -0.1938 -1.3482
 7050SOL    HW232784   0.625   1.879   5.789  0.9413 -1.3965 -0.8386
 7051SOL     OW32785   4.191   1.921   5.943 -0.2968  0.0635  0.2836
 7051SOL    HW132786   4.201   1.980   5.868  0.3108  1.6081  1.5982
 7051SOL    HW232787   4.146   1.850   5.896 -0.2822 -0.2882  0.8090
 7052SOL     OW32788   0.558   2.340   2.268  0.3552  1.0309  0.2166
 7052SOL    HW132789   0.521   2.284   2.200 -2.0668  1.1427  1.4612
 7052SOL    HW232790   0.651   2.328   2.246 -0.0545  0.0034 -0.9612
 7053SOL     OW32791   4.668   1.684   2.155 -0.0508  0.4768 -0.3988
 7053SOL    HW132792   4.622   1.624   2.214  1.6200 -3.0568 -2.6791
 7053SOL    HW232793   0.007   1.633   2.120 -0.7727  0.1838 -1.4879
 7054SOL     OW32794   0.804   0.138   3.757 -0.0346 -0.0206  0.3399
 7054SOL    HW132795   0.803   0.083   3.835  2.9079 -0.5316  0.0100
 7054SOL    HW232796   0.740   0.104   3.696  0.5131  0.9398 -0.7740
 7055SOL     OW32797   3.837   1.326   2.987 -0.6524 -0.3570  0.4443
 7055SOL    HW132798   3.762   1.267   2.983  0.1693 -1.1917 -2.1218
 7055SOL    HW232799   3.877   1.308   2.902  0.4501 -2.0917  1.3219
 7056SOL     OW32800   2.805   1.682  17.573  0.6009  0.5726  0.0122
 7056SOL    HW132801   2.776   1.658  17.485  0.8835 -1.2635  0.4203
 7056SOL    HW232802   2.724   1.671  17.621  1.2285  1.2932  1.2308
 7057SOL     OW32803   3.876   4.236   0.406  0.0637 -0.4752 -0.2030
 7057SOL    HW132804   3.924   4.206   0.328  0.9702  2.5492 -0.7936
 7057SOL    HW232805   3.913   4.175   0.470  3.0908  0.6089 -0.8991
 7058SOL     OW32806   2.135   0.689  16.166 -0.0222 -0.1853  0.1117
 7058SOL    HW132807   2.087   0.747  16.107  0.6277  1.8033  1.5468
 7058SOL    HW232808   2.218   0.670  16.121  0.0110  0.5059 -0.1238
 7059SOL     OW32809   1.315   2.276   7.625  0.6783  0.0093  0.4337
 7059SOL    HW132810   1.264   2.301   7.548 -0.9796  0.0631  1.5568
 7059SOL    HW232811   1.241   2.280   7.686 -0.4118 -0.6328 -0.8561
 7060SOL     OW32812   0.839   1.837   5.597  0.5346 -0.5723  1.1834
 7060SOL    HW132813   0.904   1.780   5.555  1.2440  1.2161 -0.1432
 7060SOL    HW232814   0.800   1.791   5.671 -0.4919 -0.7968  0.5118
 7061SOL     OW32815   0.814   3.653   4.174  0.4930 -0.1483 -0.2108
 7061SOL    HW132816   0.765   3.616   4.248 -2.2761 -0.9346 -2.4347
 7061SOL    HW232817   0.888   3.689   4.222  1.4764 -1.5542 -0.6901
 7062SOL     OW32818   1.507   0.601   6.945  0.2966 -0.1717  0.3598
 7062SOL    HW132819   1.583   0.560   6.905 -0.3402  0.4442 -1.4685
 7062SOL    HW232820   1.490   0.551   7.025 -0.6279 -0.2616  0.1035
 7063SOL     OW32821   0.226   1.813   6.769 -0.6136 -0.1140 -0.0144
 7063SOL    HW132822   0.157   1.747   6.758 -0.1920 -0.5161 -0.2804
 7063SOL    HW232823   0.185   1.899   6.772 -1.2256 -0.4073  0.0978
 7064SOL     OW32824   0.735   4.613   6.282  0.1811 -0.0486  0.3182
 7064SOL    HW132825   0.807   4.550   6.272  0.8624  0.6955  0.5260
 7064SOL    HW232826   0.705   4.608   6.191  1.0331  1.5924 -0.0547
 7065SOL     OW32827   1.767   1.945   5.543 -0.2490 -0.3824  0.5796
 7065SOL    HW132828   1.794   1.868   5.492  0.3474 -0.4463  0.9808
 7065SOL    HW232829   1.850   1.969   5.584  0.0716  0.5209 -0.6202
 7066SOL     OW32830   2.598   0.525  10.380  0.6137  0.3752 -0.2032
 7066SOL    HW132831   2.607   0.569  10.465  0.7495  1.8061 -0.9420
 7066SOL    HW232832   2.509   0.549  10.355  0.8188  3.1053  1.6729
 7067SOL     OW32833   0.741   3.963  11.568  0.1329  0.2290 -0.1650
 7067SOL    HW132834   0.648   3.961  11.590  0.8264 -2.8935  2.4519
 7067SOL    HW232835   0.759   4.050  11.604  0.4841  0.6231 -1.2913
 7068SOL     OW32836   3.753   3.152  12.112 -0.2364  0.1469  0.0831
 7068SOL    HW132837   3.698   3.158  12.034 -1.4739 -0.2543  0.9225
 7068SOL    HW232838   3.830   3.102  12.083 -0.9132 -0.9082  0.0746
 7069SOL     OW32839   2.449   4.651  11.085  0.5241 -0.3289 -0.6605
 7069SOL    HW132840   2.506   4.688  11.018  0.3167 -0.0102 -0.6612
 7069SOL    HW232841   2.424   4.725  11.139 -0.1727 -0.1016 -1.2850
 7070SOL     OW32842   0.098   0.312  13.553 -0.0000  0.0885 -0.0352
 7070SOL    HW132843   0.062   0.256  13.622  2.3640 -1.5387 -0.1133
 7070SOL    HW232844   0.141   0.383  13.600 -0.1753  0.0303  0.2105
 7071SOL     OW32845   1.506   3.540   4.960  0.3920  0.7440 -0.0533
 7071SOL    HW132846   1.507   3.504   4.871  1.3023  3.2706 -1.0698
 7071SOL    HW232847   1.415   3.566   4.967 -0.3049 -1.4883 -0.6677
 7072SOL     OW32848   1.055   1.563   7.482 -0.4107 -0.3577  0.2551
 7072SOL    HW132849   0.983   1.502   7.499  0.2416 -1.8034 -2.1063
 7072SOL    HW232850   1.083   1.523   7.400  0.4542  0.9846 -0.1004
 7073SOL     OW32851   1.921   0.112   2.479  0.4947 -0.0034  0.2197
 7073SOL    HW132852   1.861   0.150   2.544 -2.3127 -0.1036 -2.2838
 7073SOL    HW232853   1.986   0.069   2.534  1.5169  0.6841 -0.4496
 7074SOL     OW32854   0.211   2.476   8.814 -0.1911 -0.4711 -0.4757
 7074SOL    HW132855   0.237   2.386   8.796  0.4393 -0.0937 -1.4599
 7074SOL    HW232856   0.129   2.484   8.766 -2.0368  0.1369  2.7922
 7075SOL     OW32857   1.403   1.073   5.508 -0.4254  0.2461 -0.4980
 7075SOL    HW132858   1.342   1.133   5.552 -0.4542  1.2912 -1.9606
 7075SOL    HW232859   1.450   1.134   5.451 -0.2680 -0.7198 -1.3918
 7076SOL     OW32860   1.535   0.985   4.429 -0.0013 -0.1438 -0.2021
 7076SOL    HW132861   1.571   1.007   4.515  1.1603 -2.0593 -0.2082
 7076SOL    HW232862   1.475   1.060   4.432 -0.1291 -0.2539  0.0120
 7077SOL     OW32863   0.812   2.015   3.801  0.1900  0.6947  0.1085
 7077SOL    HW132864   0.750   2.059   3.743  1.0685  1.9383  0.1147
 7077SOL    HW232865   0.758   1.944   3.836  3.2799 -0.8945  1.6167
 7078SOL     OW32866   3.413   1.104  17.118 -0.3198  0.2990 -0.0704
 7078SOL    HW132867   3.412   1.163  17.042  2.2050  0.6507  0.1748
 7078SOL    HW232868   3.435   1.020  17.078  0.7300  0.2364  0.6403
 7079SOL     OW32869   2.255   1.728   3.990 -0.2299 -0.1646 -0.1475
 7079SOL    HW132870   2.335   1.767   4.024 -1.2500 -0.8601  3.0418
 7079SOL    HW232871   2.256   1.653   4.049  2.4746  0.7488  0.9584
 7080SOL     OW32872   3.746   2.936  17.723  0.0292  0.2039 -0.1992
 7080SOL    HW132873   3.756   3.031  17.713  0.6436  0.0520 -0.9826
 7080SOL    HW232874   3.748   2.943   0.080  1.7319 -1.1795 -0.1487
 7081SOL     OW32875   4.447   1.521   2.289 -0.6602 -0.0086  0.0244
 7081SOL    HW132876   4.459   1.427   2.307  0.7547  0.5028  1.7497
 7081SOL    HW232877   4.446   1.544   2.382  0.0740 -0.1349  0.0625
 7082SOL     OW32878   3.010   1.060  13.123  0.0981  0.1302 -0.2563
 7082SOL    HW132879   3.019   1.116  13.200  0.9617  0.7323 -0.8071
 7082SOL    HW232880   3.086   1.084  13.071 -1.0767  1.4721 -1.3388
 7083SOL     OW32881   4.556   1.993   7.791 -0.6813 -0.4223  0.3827
 7083SOL    HW132882   4.640   1.996   7.837 -1.0706 -1.2783  1.1498
 7083SOL    HW232883   4.518   1.909   7.818  1.9055 -0.7373  3.0015
 7084SOL     OW32884   1.658   0.647  10.617 -0.2822 -0.1271  0.6745
 7084SOL    HW132885   1.676   0.732  10.657  0.7205 -0.4255  0.8607
 7084SOL    HW232886   1.708   0.583  10.668 -0.3717 -0.0789  0.8229
 7085SOL     OW32887   4.086   0.366  16.218 -0.4169  0.1191 -0.7607
 7085SOL    HW132888   4.144   0.439  16.238 -1.1944 -0.1213  2.3122
 7085SOL    HW232889   4.088   0.365  16.122  0.8919  2.0240 -0.7408
 7086SOL     OW32890   4.285   2.160   8.495 -0.1736  0.1294 -0.6039
 7086SOL    HW132891   4.331   2.187   8.415 -0.2932 -0.0442 -0.7307
 7086SOL    HW232892   4.306   2.226   8.560  0.4827 -0.8854  0.2249
 7087SOL     OW32893   3.219   4.538   7.830  0.7445 -0.3629  0.0586
 7087SOL    HW132894   3.171   4.519   7.749 -1.1647  1.0862  0.8501
 7087SOL    HW232895   3.159   4.501   7.895  1.7886 -2.0642  0.0557
 7088SOL     OW32896   0.277   1.475   7.887  0.0448 -0.2522  0.2341
 7088SOL    HW132897   0.341   1.528   7.934 -0.1008  0.0548  0.0892
 7088SOL    HW232898   0.236   1.420   7.954 -0.1055 -0.8715 -0.3611
 7089SOL     OW32899   2.748   1.860   3.482 -0.3823 -0.3767 -0.1472
 7089SOL    HW132900   2.773   1.885   3.393 -1.8590  0.6511 -0.2634
 7089SOL    HW232901   2.752   1.948   3.518 -0.0521  0.3988 -2.0981
 7090SOL     OW32902   4.506   3.462   4.651  0.5215  0.2025  0.2086
 7090SOL    HW132903   4.476   3.407   4.723 -0.8857 -1.2335 -1.4851
 7090SOL    HW232904   4.442   3.424   4.592  1.0710 -0.5230  0.0817
 7091SOL     OW32905   3.314   2.198   8.027 -0.2624 -0.0729 -0.5422
 7091SOL    HW132906   3.342   2.254   7.954 -0.6724 -1.0960 -1.4862
 7091SOL    HW232907   3.401   2.203   8.068 -0.8498 -2.6175  0.9430
 7092SOL     OW32908   3.238   3.913  10.023  0.2625  0.2889  0.0844
 7092SOL    HW132909   3.201   3.862  10.095 -0.3169  2.1092  1.0778
 7092SOL    HW232910   3.169   3.935   9.960  1.0196  2.3199 -0.0455
 7093SOL     OW32911   0.820   2.596   7.274  0.2089  0.2485  0.4477
 7093SOL    HW132912   0.767   2.658   7.223  0.2500 -0.8004 -0.8687
 7093SOL    HW232913   0.906   2.607   7.235 -0.0645 -0.1143 -0.2629
 7094SOL     OW32914   2.470   3.368  15.154  0.6891 -0.4339 -0.3178
 7094SOL    HW132915   2.475   3.407  15.241 -0.3695 -0.9155 -0.0315
 7094SOL    HW232916   2.440   3.282  15.183 -1.3672 -0.4754 -2.5489
 7095SOL     OW32917   2.602   0.761   4.544 -0.0881  0.1602 -0.2899
 7095SOL    HW132918   2.623   0.733   4.633 -0.1389  0.4199 -0.1947
 7095SOL    HW232919   2.534   0.695   4.531 -0.2897  0.0499  1.3267
 7096SOL     OW32920   3.274   0.236   5.032 -0.0395  0.1156  0.4628
 7096SOL    HW132921   3.224   0.198   5.104  0.0792 -0.5733  0.1744
 7096SOL    HW232922   3.232   0.215   4.949 -1.6715  1.7050  0.8740
 7097SOL     OW32923   3.301   3.499   6.222 -0.1842  0.3682 -0.4179
 7097SOL    HW132924   3.324   3.424   6.276 -3.4808  0.8458  1.6578
 7097SOL    HW232925   3.391   3.521   6.201  0.6859 -1.6804  1.2491
 7098SOL     OW32926   3.568   2.906   9.667  0.4753  0.5394  0.4660
 7098SOL    HW132927   3.604   2.849   9.599  0.0945  1.1803 -0.2807
 7098SOL    HW232928   3.560   2.988   9.618 -1.8718  0.5951  0.9340
 7099SOL     OW32929   3.219   3.711   2.114 -0.2021  0.0091  0.3952
 7099SOL    HW132930   3.284   3.641   2.123  0.5501  0.7002  0.2865
 7099SOL    HW232931   3.271   3.789   2.096  0.0708 -0.7666 -2.1526
 7100SOL     OW32932   1.976   3.672   2.474  0.2135  0.0092  0.0579
 7100SOL    HW132933   1.911   3.631   2.417  0.0049 -0.2760  0.5003
 7100SOL    HW232934   2.055   3.655   2.422  0.7255  1.3210  0.4101
 7101SOL     OW32935   1.177   2.247   0.030  0.1194  0.1080 -0.4651
 7101SOL    HW132936   1.156   2.161   0.065  1.1268 -0.1215 -0.4224
 7101SOL    HW232937   1.161   2.246  17.675 -1.2275 -2.7210 -0.1901
 7102SOL     OW32938   1.513   2.603   4.463  0.1476  0.2889 -0.2026
 7102SOL    HW132939   1.433   2.579   4.417 -0.2072  2.0109 -0.4829
 7102SOL    HW232940   1.530   2.677   4.404 -0.8577  0.2586 -0.5287
 7103SOL     OW32941   0.720   1.803   7.516 -0.0040  0.0864  0.2991
 7103SOL    HW132942   0.703   1.709   7.526  1.0378 -0.3580 -2.1787
 7103SOL    HW232943   0.633   1.824   7.482 -0.1623 -0.8565  0.1117
 7104SOL     OW32944   4.491   1.148   5.702 -0.2098  0.0819  0.1956
 7104SOL    HW132945   4.486   1.053   5.694  0.8449  0.1809 -1.5459
 7104SOL    HW232946   4.581   1.157   5.733  0.1750 -1.3076 -0.5370
 7105SOL     OW32947   1.229   2.955  12.700  0.3463 -0.1310 -0.1736
 7105SOL    HW132948   1.157   2.959  12.763  0.5559 -0.6144  0.0905
 7105SOL    HW232949   1.262   2.868  12.722 -1.8013 -0.7527  0.5940
 7106SOL     OW32950   2.579   2.268   6.141  0.0143  0.5081 -0.7808
 7106SOL    HW132951   2.539   2.316   6.213 -0.6858 -0.5181 -0.4842
 7106SOL    HW232952   2.621   2.334   6.086  0.2969  1.0946  0.1472
 7107SOL     OW32953   2.557   2.483   5.362  0.0265  0.7701 -0.0682
 7107SOL    HW132954   2.632   2.437   5.326 -0.8034  0.5328 -1.4822
 7107SOL    HW232955   2.600   2.514   5.442  0.0035  0.8148 -0.0730
 7108SOL     OW32956   2.579   3.102   2.925  0.3130 -0.1983  0.3813
 7108SOL    HW132957   2.601   3.173   2.986 -0.6360  0.4664 -0.0536
 7108SOL    HW232958   2.562   3.028   2.983  0.6169 -0.5526  0.0234
 7109SOL     OW32959   3.102   3.212  17.430  0.1611  0.1569 -0.2149
 7109SOL    HW132960   3.076   3.264  17.354 -0.1706  1.9075  1.1090
 7109SOL    HW232961   3.035   3.144  17.425  1.2907 -1.3017  4.2822
 7110SOL     OW32962   3.121   2.398  11.568 -0.5864 -0.0565 -0.5930
 7110SOL    HW132963   3.192   2.391  11.632 -2.3835 -3.2680  1.0160
 7110SOL    HW232964   3.171   2.391  11.486  1.4192 -3.1712  0.9162
 7111SOL     OW32965   2.765   2.298  17.288  0.2330  0.4363  0.3298
 7111SOL    HW132966   2.732   2.362  17.351 -1.8144 -0.2948  0.0242
 7111SOL    HW232967   2.684   2.265  17.247  0.8480  1.0858 -1.4051
 7112SOL     OW32968   0.056   1.389  13.544 -0.5481  0.4409  0.0608
 7112SOL    HW132969   4.714   1.442  13.566 -0.5462  0.5254 -0.1349
 7112SOL    HW232970   0.006   1.328  13.490 -0.4822  0.7881 -0.3951
 7113SOL     OW32971   0.850   1.707   3.266 -0.3263 -0.3427 -0.0164
 7113SOL    HW132972   0.907   1.633   3.246 -1.0632 -0.3826 -1.9414
 7113SOL    HW232973   0.837   1.753   3.183  1.2834 -0.2032 -0.1964
 7114SOL     OW32974   1.837   2.067   2.913 -0.1862  0.3367 -0.3683
 7114SOL    HW132975   1.833   2.128   2.987 -0.0513 -0.5991  0.3998
 7114SOL    HW232976   1.875   2.113   2.838  0.1842 -0.2941 -0.5640
 7115SOL     OW32977   1.381   0.559   6.560  0.2677 -0.2925 -0.0856
 7115SOL    HW132978   1.415   0.470   6.562  2.8161  0.6254 -1.5806
 7115SOL    HW232979   1.298   0.536   6.520  0.0153 -0.1159  0.3348
 7116SOL     OW32980   2.221   2.853  10.364 -0.8307  0.1654 -0.4322
 7116SOL    HW132981   2.164   2.884  10.434  0.9244 -1.0588  1.5462
 7116SOL    HW232982   2.200   2.760  10.373  1.8831 -0.4494 -0.5314
 7117SOL     OW32983   1.310   2.549  10.300 -0.3245  0.0896 -0.1583
 7117SOL    HW132984   1.358   2.512  10.374  0.5035  0.2402 -0.6173
 7117SOL    HW232985   1.335   2.641  10.304 -1.6369  0.4645 -0.6178
 7118SOL     OW32986   3.893   4.176   7.502 -0.4437  0.5435 -0.3203
 7118SOL    HW132987   3.890   4.102   7.563  0.3620  1.3993  0.7436
 7118SOL    HW232988   3.870   4.247   7.562  0.2648  0.2120  0.3329
 7119SOL     OW32989   0.415   0.380  12.144 -0.5678  0.3190 -0.8409
 7119SOL    HW132990   0.327   0.412  12.160 -0.6444 -0.2238 -0.1481
 7119SOL    HW232991   0.415   0.295  12.190  0.5375 -0.2612 -1.9086
 7120SOL     OW32992   4.308   2.321   2.619  0.5445 -0.6892 -0.0912
 7120SOL    HW132993   4.377   2.280   2.566  1.5406 -1.0722  1.4870
 7120SOL    HW232994   4.366   2.388   2.656 -1.8191  0.6712  1.1582
 7121SOL     OW32995   1.937   3.659   1.826  0.4046 -0.3358  0.6319
 7121SOL    HW132996   1.943   3.735   1.884  0.8460 -0.2591  0.4885
 7121SOL    HW232997   1.892   3.596   1.882  0.6297 -2.2149 -1.2722
 7122SOL     OW32998   2.142   4.496   6.385  0.1163 -0.1697 -0.4590
 7122SOL    HW132999   2.216   4.466   6.333  0.3928  0.8753 -0.6814
 7122SOL    HW233000   2.100   4.565   6.334 -0.2594 -0.3488 -0.3904
 7123SOL     OW33001   2.823   1.343   2.777  0.1841  0.1632 -0.3950
 7123SOL    HW133002   2.769   1.321   2.701  1.7200 -0.0373 -1.4433
 7123SOL    HW233003   2.903   1.293   2.756 -0.3085 -0.4878 -0.7263
 7124SOL     OW33004   2.299   4.359   9.642  0.3676 -0.0083 -0.1943
 7124SOL    HW133005   2.320   4.292   9.577 -2.5422 -1.7263  0.6219
 7124SOL    HW233006   2.258   4.434   9.598  1.4731  1.2661  0.9642
 7125SOL     OW33007   4.212   4.094   7.794 -0.4244 -0.6689 -0.0082
 7125SOL    HW133008   4.264   4.123   7.870 -1.0823  1.2890 -0.3108
 7125SOL    HW233009   4.123   4.107   7.828 -0.2060 -1.1687  0.7623
 7126SOL     OW33010   2.107   1.622  14.807  0.0769  0.5171 -0.1639
 7126SOL    HW133011   2.103   1.693  14.870  2.6453 -0.2278  0.8554
 7126SOL    HW233012   2.046   1.557  14.842 -0.8575  1.8915  0.7497
 7127SOL     OW33013   2.212   0.047   7.087  0.1175  0.0329 -0.5841
 7127SOL    HW133014   2.249   0.107   7.151  1.4605  0.9981 -2.2884
 7127SOL    HW233015   2.158   4.720   7.137  0.4375 -0.9085 -1.4001
 7128SOL     OW33016   1.711   3.517   5.137  0.4762 -0.1651  0.1696
 7128SOL    HW133017   1.622   3.527   5.104  0.2875  0.2748  0.8044
 7128SOL    HW233018   1.711   3.426   5.108 -1.2503  0.0987 -0.7098
 7129SOL     OW33019   1.987   0.239   4.453 -0.1456 -0.7676  0.0920
 7129SOL    HW133020   1.919   0.295   4.415  1.4211  0.2543 -1.1835
 7129SOL    HW233021   2.034   0.314   4.489  0.5185 -0.8530 -0.5991
 7130SOL     OW33022   0.514   1.208   2.017  0.5152  0.0265  0.3161
 7130SOL    HW133023   0.496   1.207   2.111  0.8625  0.0301  0.3802
 7130SOL    HW233024   0.527   1.113   2.011 -2.2288 -0.2917 -1.0158
 7131SOL     OW33025   0.391   4.220   3.391  0.3004  0.6414 -0.1102
 7131SOL    HW133026   0.451   4.289   3.364 -0.2426  1.0941 -0.1774
 7131SOL    HW233027   0.357   4.186   3.309 -0.1830 -1.6230  1.0352
 7132SOL     OW33028   1.048   0.849   1.834 -0.5395  0.0444 -0.7951
 7132SOL    HW133029   0.990   0.924   1.850 -0.4239 -0.2328  0.9425
 7132SOL    HW233030   1.048   0.794   1.912 -0.6102  2.2061  0.7298
 7133SOL     OW33031   1.787   0.282  16.982  0.7543 -0.0317  0.0571
 7133SOL    HW133032   1.721   0.347  16.960 -1.1643 -1.8138  0.5693
 7133SOL    HW233033   1.838   0.329  17.048 -0.2015  1.5127 -0.3195
 7134SOL     OW33034   0.452   1.003   2.730 -0.5741 -0.3064 -0.3898
 7134SOL    HW133035   0.438   0.909   2.721  0.0813 -0.2995 -1.4754
 7134SOL    HW233036   0.407   1.020   2.813 -0.7496 -1.5356 -0.2300
 7135SOL     OW33037   2.806   3.450  14.594 -0.2648 -0.4649  0.8615
 7135SOL    HW133038   2.858   3.374  14.620  1.4537  1.0646  1.9304
 7135SOL    HW233039   2.732   3.422  14.648 -0.8463  2.2664  1.4555
 7136SOL     OW33040   4.301   0.365   7.315  0.0567  0.1857  0.7724
 7136SOL    HW133041   4.346   0.350   7.232  0.5995 -1.5816  1.3856
 7136SOL    HW233042   4.224   0.403   7.272 -1.0142 -0.6426  1.9525
 7137SOL     OW33043   1.024   3.049  13.840  0.5370  0.1366 -0.7596
 7137SOL    HW133044   0.934   3.071  13.864  0.6309 -0.5950  0.2644
 7137SOL    HW233045   1.062   3.136  13.853  0.9960 -0.0184 -1.0512
 7138SOL     OW33046   4.447   1.155   8.880 -0.4370  0.5647  0.0418
 7138SOL    HW133047   4.435   1.206   8.800  0.5666 -0.5816 -0.8341
 7138SOL    HW233048   4.370   1.099   8.875  1.5717 -2.2143  0.3426
 7139SOL     OW33049   0.204   4.440   6.578  0.1751 -0.1445 -0.6902
 7139SOL    HW133050   0.195   4.515   6.519  1.1247 -0.5345 -1.3420
 7139SOL    HW233051   0.275   4.467   6.635 -0.1076  1.1553 -0.9653
 7140SOL     OW33052   0.520   2.743   9.980  0.0572  0.0484  0.3755
 7140SOL    HW133053   0.471   2.720  10.060  1.5521 -0.2979  1.1951
 7140SOL    HW233054   0.530   2.837   9.994  1.9852 -0.1313  0.2592
 7141SOL     OW33055   3.840   3.563   2.647 -0.3544 -0.0978  0.1409
 7141SOL    HW133056   3.788   3.603   2.578 -1.8524 -2.1074  0.0778
 7141SOL    HW233057   3.924   3.544   2.606  0.5638  2.1172  0.9973
 7142SOL     OW33058   4.158   2.077   5.218  0.0342  0.4154 -0.3924
 7142SOL    HW133059   4.066   2.103   5.221 -0.4195 -1.5040  2.3941
 7142SOL    HW233060   4.182   2.071   5.311 -0.5674 -2.0103 -0.3931
 7143SOL     OW33061   0.859   2.460   4.890  0.1722 -0.3778  0.9536
 7143SOL    HW133062   0.948   2.432   4.909 -0.3536 -1.0939  2.3787
 7143SOL    HW233063   0.806   2.406   4.949  1.8817 -0.9699  1.9284
 7144SOL     OW33064   4.300   2.952   1.811 -0.5018 -0.0583  0.7520
 7144SOL    HW133065   4.329   2.866   1.780  0.3833  0.5913 -0.2161
 7144SOL    HW233066   4.218   2.963   1.764  0.6693 -0.4919 -1.3938
 7145SOL     OW33067   1.401   0.608   1.891 -0.8283  0.9572 -0.2156
 7145SOL    HW133068   1.473   0.558   1.927  0.1585  2.1117 -0.5904
 7145SOL    HW233069   1.431   0.690   1.929  1.7340  0.2394 -0.6848
 7146SOL     OW33070   2.540   2.489   9.166  0.1441  0.7078 -0.5191
 7146SOL    HW133071   2.518   2.398   9.147  1.5955  0.2814 -0.2035
 7146SOL    HW233072   2.633   2.475   9.187  0.2430  0.4579 -1.1414
 7147SOL     OW33073   2.905   0.422   4.302 -0.0514 -0.0301 -0.2487
 7147SOL    HW133074   2.948   0.503   4.278 -0.2028  0.1843  0.1934
 7147SOL    HW233075   2.812   0.444   4.294  0.1862  0.3695 -1.7389
 7148SOL     OW33076   3.809   2.895   7.683 -0.3533  0.3215  0.1590
 7148SOL    HW133077   3.762   2.861   7.607 -1.9499  1.2179  0.7485
 7148SOL    HW233078   3.823   2.818   7.739  1.7275  0.8293  0.3223
 7149SOL     OW33079   0.416   1.118   1.100  0.6821 -0.3399  0.0138
 7149SOL    HW133080   0.508   1.114   1.072  1.2385 -0.6655  1.8655
 7149SOL    HW233081   0.442   1.180   1.169 -2.5724  1.0061  0.0118
 7150SOL     OW33082   0.763   2.339   4.068 -0.1222 -0.2183  0.4290
 7150SOL    HW133083   0.699   2.373   4.130 -0.9056 -0.8805 -0.0189
 7150SOL    HW233084   0.833   2.325   4.132  0.7106  0.9157 -0.2323
 7151SOL     OW33085   1.261   2.377  14.479  0.1379  0.0716  0.0769
 7151SOL    HW133086   1.283   2.470  14.473  0.5300 -0.0291 -0.0627
 7151SOL    HW233087   1.234   2.350  14.392  1.2932  1.3918 -0.6946
 7152SOL     OW33088   4.004   3.617   5.357 -0.1306  0.0193 -0.6467
 7152SOL    HW133089   4.051   3.536   5.376  1.0400  0.6648 -0.8195
 7152SOL    HW233090   3.922   3.576   5.330  0.1698 -0.5379 -0.7012
 7153SOL     OW33091   3.394   1.007   1.910 -0.3646 -0.0971  0.2629
 7153SOL    HW133092   3.351   1.059   1.841  0.7659  2.1344  1.2314
 7153SOL    HW233093   3.477   1.052   1.926  0.3735 -2.0308  1.7570
 7154SOL     OW33094   0.399   3.713   5.258  0.0521  0.0275 -0.4339
 7154SOL    HW133095   0.313   3.728   5.297 -0.4827 -1.3515 -1.0545
 7154SOL    HW233096   0.386   3.705   5.163  0.7926  0.3713 -0.5623
 7155SOL     OW33097   0.242   1.424   6.529  0.3907  0.1772 -0.1260
 7155SOL    HW133098   0.308   1.492   6.537  0.4917  0.2175 -1.3450
 7155SOL    HW233099   0.255   1.377   6.447  0.1077  0.8660 -0.5644
 7156SOL     OW33100   1.786   0.432  16.270  0.2785 -0.3582  0.2664
 7156SOL    HW133101   1.757   0.459  16.183 -4.7806  1.7200  2.5835
 7156SOL    HW233102   1.829   0.509  16.307 -2.8872  1.5052  0.0979
 7157SOL     OW33103   3.020   1.582   7.951 -0.1250 -0.1583 -0.2359
 7157SOL    HW133104   2.936   1.546   7.923  0.4843 -1.1852 -0.7391
 7157SOL    HW233105   3.058   1.614   7.870  0.6721 -1.5001 -0.3856
 7158SOL     OW33106   3.277   2.788  13.114 -0.6483 -0.5070 -0.6582
 7158SOL    HW133107   3.342   2.737  13.163  0.1740  0.1154 -1.0985
 7158SOL    HW233108   3.211   2.727  13.082 -1.5163 -0.6805  1.5412
 7159SOL     OW33109   4.097   1.268   8.368 -0.0268  0.2160 -0.2888
 7159SOL    HW133110   4.166   1.335   8.369 -0.8014  1.0099  1.3798
 7159SOL    HW233111   4.053   1.292   8.450  0.2805  1.6048 -0.5175
 7160SOL     OW33112   1.001   2.816   4.622  0.3786  0.2700 -0.4084
 7160SOL    HW133113   0.972   2.726   4.635  0.4404  0.4010  0.6637
 7160SOL    HW233114   1.091   2.810   4.656  0.8617 -1.1349 -1.8842
 7161SOL     OW33115   1.006   2.414   2.458  0.0290  0.5397  0.5442
 7161SOL    HW133116   0.950   2.481   2.418 -0.3807 -1.7493 -2.7499
 7161SOL    HW233117   1.032   2.453   2.541 -0.7108  0.6160  0.7398
 7162SOL     OW33118   3.646   3.861  13.345  0.1602  0.6167  0.5056
 7162SOL    HW133119   3.561   3.817  13.340  0.0952  0.7518  0.4086
 7162SOL    HW233120   3.702   3.794  13.306 -0.7008  1.2389 -1.8539
 7163SOL     OW33121   1.999   2.394   3.702  0.3737  0.2490 -0.6384
 7163SOL    HW133122   1.945   2.329   3.745  0.2262  0.5333 -0.3936
 7163SOL    HW233123   2.058   2.411   3.776  0.0729 -1.5774  0.0026
 7164SOL     OW33124   3.933   1.156   5.979  0.2653  0.1192  0.2834
 7164SOL    HW133125   3.911   1.112   5.897  1.7031 -0.7092  0.3433
 7164SOL    HW233126   3.986   1.084   6.015  0.4944  0.1653  0.0334
 7165SOL     OW33127   0.859   3.251   4.985  0.4248 -0.1057 -0.5023
 7165SOL    HW133128   0.787   3.217   5.038  1.4442  0.5721  1.3145
 7165SOL    HW233129   0.912   3.174   4.965  0.9568 -0.5335  2.6542
 7166SOL     OW33130   1.800   3.911   6.401  0.3949  0.4038  0.3067
 7166SOL    HW133131   1.868   3.911   6.468  1.4850 -3.1296 -0.7953
 7166SOL    HW233132   1.849   3.889   6.322 -1.8879 -1.1446 -0.6721
 7167SOL     OW33133   4.464   2.184   2.155  0.5282 -0.0412  0.1946
 7167SOL    HW133134   4.492   2.093   2.145 -1.0485 -0.5220  0.1750
 7167SOL    HW233135   4.436   2.201   2.065 -3.0268 -0.8459  1.1518
 7168SOL     OW33136   3.466   2.093   0.196 -0.3667  0.2613  1.2410
 7168SOL    HW133137   3.510   2.092   0.111 -0.2987  0.9075  1.2662
 7168SOL    HW233138   3.406   2.167   0.184  0.8054  1.5883  3.6039
 7169SOL     OW33139   3.389   0.226   0.917 -0.3787  0.4224  0.1420
 7169SOL    HW133140   3.372   0.150   0.973  0.7803 -1.0756 -1.5626
 7169SOL    HW233141   3.466   0.201   0.867  0.1752  2.2500  0.1061
 7170SOL     OW33142   3.368   0.949   3.637  0.2829  0.1477  0.0817
 7170SOL    HW133143   3.414   0.964   3.720 -1.5385 -0.7848  1.2577
 7170SOL    HW233144   3.344   0.858   3.653 -1.1800  0.7769  1.4818
 7171SOL     OW33145   4.264   4.071   3.418 -0.3844 -0.5459 -0.2334
 7171SOL    HW133146   4.306   4.006   3.475  1.3527  1.1517  0.4252
 7171SOL    HW233147   4.340   4.124   3.393 -0.0511 -0.0217  1.8493
 7172SOL     OW33148   3.449   2.516   3.205  0.1802 -0.2085  0.0876
 7172SOL    HW133149   3.418   2.437   3.160  0.3812  0.4994 -1.2825
 7172SOL    HW233150   3.368   2.567   3.206  1.1940  1.3363  1.9675
 7173SOL     OW33151   3.173   1.969   5.878 -0.0906  0.4881  0.0356
 7173SOL    HW133152   3.146   1.936   5.964 -1.3293 -0.1232 -0.5744
 7173SOL    HW233153   3.265   1.943   5.871 -0.0609  1.2668 -2.6012
 7174SOL     OW33154   2.163   1.436   6.287  0.1194 -0.6093  0.3511
 7174SOL    HW133155   2.140   1.390   6.206 -0.4474  0.2673  0.0075
 7174SOL    HW233156   2.149   1.362   6.346  0.0268  0.3265  1.5111
 7175SOL     OW33157   1.137   2.376   2.231  0.0016 -0.3707 -0.2518
 7175SOL    HW133158   1.088   2.412   2.306 -0.2289  0.8311 -0.9850
 7175SOL    HW233159   1.226   2.380   2.266  0.7029 -1.1311 -1.9868
 7176SOL     OW33160   4.055   2.591  14.154 -0.1814 -0.0393 -0.2470
 7176SOL    HW133161   4.041   2.499  14.133 -0.1058 -0.2206  0.5145
 7176SOL    HW233162   4.078   2.575  14.245 -1.6405 -2.5094 -0.3060
 7177SOL     OW33163   1.944   2.355   3.446 -0.3667  0.2712  0.1286
 7177SOL    HW133164   1.878   2.286   3.438 -1.1754  1.2119 -1.4072
 7177SOL    HW233165   1.969   2.354   3.538  1.4788  3.5558 -0.3551
 7178SOL     OW33166   1.011   0.678   7.502  0.3482 -0.0995 -0.0918
 7178SOL    HW133167   0.965   0.666   7.585 -0.4261  1.4400 -0.2984
 7178SOL    HW233168   1.097   0.700   7.537  0.9875 -0.8071 -1.2379
 7179SOL     OW33169   2.637   3.668   2.465  0.2703 -0.0103 -0.3126
 7179SOL    HW133170   2.705   3.716   2.513 -0.5916  0.5796  0.3153
 7179SOL    HW233171   2.572   3.683   2.534  0.3795 -0.7146 -0.0560
 7180SOL     OW33172   1.694   4.729   8.623 -0.4285  0.2150  0.1955
 7180SOL    HW133173   1.686   4.734   8.719 -0.1337 -1.2563  0.2954
 7180SOL    HW233174   1.760   0.058   8.598  0.4643 -0.6264  0.3529
 7181SOL     OW33175   0.200   1.739  12.856  0.4258 -0.0592 -0.2996
 7181SOL    HW133176   0.270   1.802  12.874 -0.2156  0.6586 -0.3554
 7181SOL    HW233177   0.179   1.692  12.937  2.0766  0.2821  0.3345
 7182SOL     OW33178   4.294   3.438  15.494  0.2200  0.0713  0.3194
 7182SOL    HW133179   4.347   3.436  15.414 -1.7727 -1.8244 -0.9541
 7182SOL    HW233180   4.351   3.386  15.550 -2.2471 -0.1902  2.5541
 7183SOL     OW33181   4.672   3.078   5.180  0.0120  0.5054  0.3179
 7183SOL    HW133182   4.713   3.019   5.243 -0.1035 -1.9912 -1.9175
 7183SOL    HW233183   0.012   3.081   5.120 -0.3061  0.9997 -0.0557
 7184SOL     OW33184   2.109   3.404   8.751 -0.3941  0.0794 -0.4433
 7184SOL    HW133185   2.118   3.351   8.830  1.3715 -1.1672 -1.4782
 7184SOL    HW233186   2.045   3.357   8.696  0.2023 -1.5939  0.2937
 7185SOL     OW33187   2.157   0.676   7.525 -0.3570  0.4291 -0.1342
 7185SOL    HW133188   2.137   0.592   7.565  0.6636  0.7353  1.0285
 7185SOL    HW233189   2.083   0.722   7.563 -1.6297 -0.3706 -1.6712
 7186SOL     OW33190   3.773   2.298  14.141 -0.5187 -0.4456 -0.0556
 7186SOL    HW133191   3.868   2.306  14.149 -0.7755  1.2698  1.2721
 7186SOL    HW233192   3.745   2.389  14.153  1.0644  0.0991 -0.4280
 7187SOL     OW33193   1.991   0.742   0.656  0.0053 -0.1838 -0.2416
 7187SOL    HW133194   2.007   0.757   0.749  1.4481 -0.2764 -0.4715
 7187SOL    HW233195   2.046   0.810   0.617  0.3184 -0.0120  0.5095
 7188SOL     OW33196   1.665   3.773  17.471 -0.0459 -0.2943  0.1225
 7188SOL    HW133197   1.613   3.752  17.394 -0.1667 -1.1364  0.4388
 7188SOL    HW233198   1.684   3.866  17.458 -0.3799 -0.3780 -0.9346
 7189SOL     OW33199   0.681   4.272  16.190 -0.2581  0.7967  0.1847
 7189SOL    HW133200   0.663   4.178  16.193 -0.1066  0.7819  0.6289
 7189SOL    HW233201   0.760   4.259  16.242 -0.4573 -0.4886  0.1626
 7190SOL     OW33202   0.589   2.025   8.471  0.1910  0.3714 -0.3312
 7190SOL    HW133203   0.509   2.034   8.419 -1.6267 -0.8877  2.2990
 7190SOL    HW233204   0.636   1.966   8.411 -2.8883 -1.4395 -0.9833
 7191SOL     OW33205   3.589   1.076  12.321  0.2030  0.2367 -0.9149
 7191SOL    HW133206   3.655   1.071  12.391  1.5049  2.0654 -1.9911
 7191SOL    HW233207   3.619   1.154  12.274  0.9490 -0.4966 -1.6464
 7192SOL     OW33208   4.445   4.271   9.446  0.2074 -0.2036  0.0607
 7192SOL    HW133209   4.429   4.239   9.357  1.4009  0.3798 -0.3675
 7192SOL    HW233210   4.527   4.228   9.471  0.1050  0.6614  1.8439
 7193SOL     OW33211   0.482   1.719  13.921  0.5492 -0.5061 -0.7174
 7193SOL    HW133212   0.542   1.717  13.996 -0.5858 -1.3365  0.1627
 7193SOL    HW233213   0.495   1.631  13.886 -0.3505 -0.7168 -0.5307
 7194SOL     OW33214   2.250   1.147   6.725  0.0414  0.5372  0.4811
 7194SOL    HW133215   2.316   1.105   6.781  0.7362 -0.0971 -0.8260
 7194SOL    HW233216   2.177   1.087   6.734  0.4107  0.2421  1.6421
 7195SOL     OW33217   1.190   0.385   0.769 -0.0717  1.1990  0.0416
 7195SOL    HW133218   1.264   0.445   0.776  1.8919 -1.2263 -0.0192
 7195SOL    HW233219   1.241   0.304   0.769 -1.6668  0.2032  0.4909
 7196SOL     OW33220   3.457   4.622   9.261 -0.5029 -0.1469  0.1748
 7196SOL    HW133221   3.460   4.706   9.306 -2.5276 -0.8652  1.5966
 7196SOL    HW233222   3.455   4.637   9.166 -2.8371  0.2292  0.2856
 7197SOL     OW33223   3.944   1.152  14.710  0.2614  0.0867  0.3931
 7197SOL    HW133224   3.852   1.176  14.697 -0.6281 -2.8893  1.1543
 7197SOL    HW233225   3.923   1.072  14.758 -0.2769  1.1999  2.0364
 7198SOL     OW33226   4.056   4.025   9.564 -0.0572  0.2517  0.0470
 7198SOL    HW133227   4.140   4.041   9.520 -0.8547  0.1229 -1.5123
 7198SOL    HW233228   4.026   4.105   9.522 -1.4441 -1.2660 -1.8666
 7199SOL     OW33229   4.462   2.290  13.971 -0.5255 -0.2881 -0.1658
 7199SOL    HW133230   4.549   2.329  13.958  0.0399 -1.4987 -0.0525
 7199SOL    HW233231   4.459   2.261  14.062  1.7978  0.4827  0.1634
 7200SOL     OW33232   2.755   2.529  10.956 -0.6734 -0.3310 -0.2580
 7200SOL    HW133233   2.824   2.478  10.912  1.5951  0.7714  2.0665
 7200SOL    HW233234   2.786   2.619  10.961  0.1812 -0.5021 -2.1934
 7201SOL     OW33235   3.597   0.431   7.764  0.0202 -0.5631  0.1426
 7201SOL    HW133236   3.529   0.433   7.698  0.9118  0.0703 -0.7493
 7201SOL    HW233237   3.584   0.342   7.799  0.6204  0.5345  3.1539
 7202SOL     OW33238   4.108   0.499   2.768  0.3131 -0.5717 -0.2732
 7202SOL    HW133239   4.151   0.517   2.851 -0.2390  0.9362 -0.2953
 7202SOL    HW233240   4.180   0.531   2.713  1.2257 -2.1140  0.0340
 7203SOL     OW33241   1.941   4.365   7.155 -0.1992 -0.6064  0.2227
 7203SOL    HW133242   2.024   4.318   7.158 -0.9949 -1.9706  0.4704
 7203SOL    HW233243   1.876   4.304   7.187 -0.2430 -1.1782 -0.9552
 7204SOL     OW33244   0.369   2.808   6.014  0.7370  0.3619  0.8592
 7204SOL    HW133245   0.439   2.744   6.004 -0.5839 -0.7310 -1.3961
 7204SOL    HW233246   0.414   2.866   6.075 -1.3354  1.9709  0.8419
 7205SOL     OW33247   4.677   0.499  12.874  0.3909  0.4625 -0.1125
 7205SOL    HW133248   4.665   0.407  12.898  2.4475 -0.3810 -2.3183
 7205SOL    HW233249   4.687   0.529  12.964  2.7233  2.2915 -0.9816
 7206SOL     OW33250   0.124   4.723  12.304  0.0427  0.4871 -0.2737
 7206SOL    HW133251   0.174   4.717  12.223  1.4064  2.4532  0.4332
 7206SOL    HW233252   0.169   0.065  12.338  1.2653 -0.4397  0.1844
 7207SOL     OW33253   2.955   1.063   0.517 -0.4106 -0.0798  0.2203
 7207SOL    HW133254   2.939   1.157   0.517 -0.2455 -0.0501 -2.4433
 7207SOL    HW233255   2.920   1.037   0.431  2.3641  0.3469 -1.0404
 7208SOL     OW33256   1.871   3.148  13.004  0.1358 -0.6479  0.2061
 7208SOL    HW133257   1.794   3.202  12.990  1.1703  1.0930  1.2516
 7208SOL    HW233258   1.830   3.090  13.068  0.5199 -0.4145  0.6635
 7209SOL     OW33259   3.371   1.268   6.158  0.4363  0.2103  0.0652
 7209SOL    HW133260   3.308   1.255   6.088  0.1610 -0.3453  0.4225
 7209SOL    HW233261   3.456   1.242   6.123  0.0440 -0.3437 -0.4668
 7210SOL     OW33262   3.243   1.533  16.282  0.3085  0.5900  0.2975
 7210SOL    HW133263   3.203   1.598  16.340 -0.3960 -0.4301  0.9684
 7210SOL    HW233264   3.310   1.580  16.234  1.0139 -0.8070 -0.0902
 7211SOL     OW33265   0.259   0.918  16.031 -0.4967  0.1145 -0.1884
 7211SOL    HW133266   0.218   0.836  16.001  0.0783 -1.0277  2.1197
 7211SOL    HW233267   0.268   0.900  16.125 -0.3787  3.0253  0.3350
 7212SOL     OW33268   2.886   1.368  12.017  0.5369  0.2568 -0.6048
 7212SOL    HW133269   2.968   1.323  11.997  1.0538  1.2641 -0.6990
 7212SOL    HW233270   2.831   1.289  12.025  1.8109 -0.5079  0.7532
 7213SOL     OW33271   2.563   0.370   7.706  0.1338  0.0958  0.0735
 7213SOL    HW133272   2.589   0.383   7.614 -1.0360 -0.4594 -0.3381
 7213SOL    HW233273   2.641   0.412   7.742  0.9973 -1.0338 -0.4595
 7214SOL     OW33274   0.868   3.999   7.278  0.3853 -0.4243 -0.1600
 7214SOL    HW133275   0.931   3.941   7.320  0.0899  0.5379  1.5835
 7214SOL    HW233276   0.898   4.085   7.308  0.7144  0.1537 -2.1435
 7215SOL     OW33277   2.413   2.300   1.352  0.3668 -0.3349 -0.6383
 7215SOL    HW133278   2.418   2.212   1.316 -1.9528 -0.6472 -0.1706
 7215SOL    HW233279   2.379   2.348   1.276 -1.1370 -0.6077 -0.1310
 7216SOL     OW33280   0.991   2.388   5.652 -0.3218 -0.3123 -0.7636
 7216SOL    HW133281   0.999   2.483   5.656  0.5631 -0.4781  1.4030
 7216SOL    HW233282   1.085   2.370   5.648 -0.2299  0.0779 -0.2721
 7217SOL     OW33283   3.201   3.359   5.996  0.2309  0.3517  0.6569
 7217SOL    HW133284   3.258   3.283   6.006 -0.4781 -0.5986 -2.8416
 7217SOL    HW233285   3.222   3.427   6.061 -0.2682  0.5811  0.5769
 7218SOL     OW33286   3.653   1.827   0.189 -0.1570  0.0043  0.7095
 7218SOL    HW133287   3.662   1.843   0.283 -2.7802 -0.0523  0.9553
 7218SOL    HW233288   3.585   1.760   0.185  1.0427 -0.9392 -3.2849
 7219SOL     OW33289   2.529   4.695  14.766 -0.4796 -0.0586  0.5148
 7219SOL    HW133290   2.442   4.676  14.730  0.4517 -2.3028 -0.4944
 7219SOL    HW233291   2.573   4.618  14.731  0.5450  0.0688  1.5412
 7220SOL     OW33292   2.972   4.161   1.636 -0.0200 -0.0153  0.1598
 7220SOL    HW133293   3.054   4.207   1.617 -0.3057  0.7015  0.6208
 7220SOL    HW233294   2.953   4.211   1.716 -1.8793  1.3140 -1.1260
 7221SOL     OW33295   4.382   2.880  10.458 -0.4611 -0.1749  0.1875
 7221SOL    HW133296   4.460   2.854  10.507  0.2014  1.3950 -0.0480
 7221SOL    HW233297   4.405   2.952  10.400  0.6769 -1.5011 -1.0180
 7222SOL     OW33298   3.919   3.343  16.490 -0.1823  0.5356  0.7699
 7222SOL    HW133299   3.953   3.352  16.579  0.7103 -2.6867  0.7606
 7222SOL    HW233300   3.968   3.264  16.466 -0.9257 -0.1829  1.5892
 7223SOL     OW33301   2.316   1.971   6.187 -0.0830 -0.2899  1.0316
 7223SOL    HW133302   2.342   1.880   6.201  0.1676 -0.2759  0.6385
 7223SOL    HW233303   2.343   2.004   6.273 -0.9517 -0.4393  1.3613
 7224SOL     OW33304   3.011   2.341  10.525 -0.8559 -0.0646  0.0043
 7224SOL    HW133305   3.063   2.345  10.444 -0.2392  0.9550  0.4595
 7224SOL    HW233306   2.925   2.328  10.485 -0.4167 -2.8423 -0.0534
 7225SOL     OW33307   2.388   4.246   4.936 -0.1312  0.0828 -0.2410
 7225SOL    HW133308   2.384   4.212   5.026  2.0072  1.4843  0.4001
 7225SOL    HW233309   2.294   4.247   4.919 -0.3568 -1.4754  0.8928
 7226SOL     OW33310   0.640   1.660   4.468  0.1771  0.3464  0.1162
 7226SOL    HW133311   0.661   1.578   4.423  0.7442  0.3782  0.3145
 7226SOL    HW233312   0.721   1.650   4.520 -0.3102 -2.3795  0.3908
 7227SOL     OW33313   2.302   1.588   2.190 -0.0587 -0.4486 -0.3373
 7227SOL    HW133314   2.331   1.498   2.208 -1.3544 -0.9502 -0.7245
 7227SOL    HW233315   2.222   1.576   2.240 -0.3780 -1.9243 -1.1759
 7228SOL     OW33316   2.895   0.840   5.788  0.0069  0.2630  0.1662
 7228SOL    HW133317   2.888   0.905   5.718 -3.2634  0.0790  0.3174
 7228SOL    HW233318   2.802   0.823   5.801 -0.4258  1.7853 -0.8557
 7229SOL     OW33319   1.648   1.992   4.158 -0.1948  0.0708  0.0013
 7229SOL    HW133320   1.657   2.075   4.206  0.3452  0.8207 -1.3786
 7229SOL    HW233321   1.682   1.932   4.224  0.3646 -0.1329 -0.4696
 7230SOL     OW33322   1.777   2.603  15.443  0.1197  0.4435  0.5126
 7230SOL    HW133323   1.764   2.653  15.362  1.9109  0.2102  0.0811
 7230SOL    HW233324   1.688   2.575  15.461 -0.9649  3.8317  0.5506
 7231SOL     OW33325   2.204   0.951   9.198 -0.1932 -0.3158  0.2468
 7231SOL    HW133326   2.110   0.970   9.197 -0.4629 -1.6882 -0.5899
 7231SOL    HW233327   2.252   1.006   9.260  1.1604  2.5352 -3.3060
 7232SOL     OW33328   4.061   0.848   3.677  0.0710 -0.4502 -1.1006
 7232SOL    HW133329   4.145   0.813   3.647  0.0699 -0.4515 -1.1021
 7232SOL    HW233330   3.994   0.782   3.692 -0.4702  0.2495 -0.4866
 7233SOL     OW33331   1.853   3.597  10.263  0.2455  0.1635 -0.4225
 7233SOL    HW133332   1.843   3.551  10.180 -0.7948  0.6607 -0.5705
 7233SOL    HW233333   1.866   3.689  10.243  1.5590 -0.1947 -1.1730
 7234SOL     OW33334   2.236   3.964   4.286  0.4007  0.2198 -0.0874
 7234SOL    HW133335   2.246   3.869   4.285  1.4751  0.3355 -0.7991
 7234SOL    HW233336   2.280   3.972   4.371  0.1875  1.2667 -0.0795
 7235SOL     OW33337   0.705   3.158  11.707 -0.1104 -0.5563  0.3285
 7235SOL    HW133338   0.618   3.195  11.691  0.4367 -0.3626 -2.2291
 7235SOL    HW233339   0.702   3.168  11.802  0.0250  0.7505  0.1961
 7236SOL     OW33340   0.228   1.459   8.567  0.4626 -0.5171  0.0492
 7236SOL    HW133341   0.232   1.553   8.584  0.4859 -0.4307 -0.4492
 7236SOL    HW233342   0.313   1.445   8.610 -0.2353  0.0114  1.6115
 7237SOL     OW33343   0.575   1.350  14.137 -0.2101  0.4343  0.1559
 7237SOL    HW133344   0.623   1.288  14.192  1.9952  1.4594 -0.5965
 7237SOL    HW233345   0.575   1.313  14.049  2.1403  0.6975  0.0242
 7238SOL     OW33346   0.007   2.024  10.583  0.5048  0.5218 -0.5579
 7238SOL    HW133347   4.660   1.980  10.559 -0.9157  1.4203  2.6673
 7238SOL    HW233348   4.714   2.114  10.595 -3.5709 -0.6834 -1.0591
 7239SOL     OW33349   1.380   2.758  10.696  0.5077 -0.3265  0.3670
 7239SOL    HW133350   1.433   2.730  10.771  0.2314 -2.2400 -0.1445
 7239SOL    HW233351   1.399   2.851  10.695 -0.1037 -0.2041  0.4086
 7240SOL     OW33352   1.952   1.320   5.029 -0.1979 -0.0671  0.3499
 7240SOL    HW133353   1.963   1.310   5.124 -1.1603  0.8913  0.5670
 7240SOL    HW233354   1.876   1.378   5.025  1.1865  1.6367 -0.8313
 7241SOL     OW33355   1.460   1.222   1.741  0.0940 -0.1520 -0.0722
 7241SOL    HW133356   1.378   1.271   1.729 -1.8061 -2.9863  1.3552
 7241SOL    HW233357   1.523   1.293   1.750 -0.2408  0.1882 -0.4155
 7242SOL     OW33358   4.281   1.025   2.671  0.1841 -0.9594 -0.4956
 7242SOL    HW133359   4.262   1.116   2.693  1.2131 -1.6365  3.1234
 7242SOL    HW233360   4.250   0.989   2.754 -0.4212  0.4743 -0.0953
 7243SOL     OW33361   0.334   0.862  11.339 -0.1571  0.6258  0.0716
 7243SOL    HW133362   0.243   0.834  11.339  0.3512 -1.0119  0.1457
 7243SOL    HW233363   0.380   0.794  11.387 -0.8011 -1.9006 -2.8948
 7244SOL     OW33364   0.508   0.806   8.022 -0.3632  0.6525  0.7425
 7244SOL    HW133365   0.493   0.720   8.059  1.7638 -0.5572 -1.2294
 7244SOL    HW233366   0.512   0.781   7.930 -1.2158 -0.7902  1.1019
 7245SOL     OW33367   3.524   2.549   1.970 -0.3210 -0.0873 -0.3738
 7245SOL    HW133368   3.546   2.529   1.879 -0.5094 -1.1977 -0.1757
 7245SOL    HW233369   3.604   2.530   2.019  0.3590  3.1505 -0.2345
 7246SOL     OW33370   1.046   3.345  13.874  0.5693  0.0109  0.1319
 7246SOL    HW133371   0.966   3.371  13.829  0.7370  0.2803 -0.0096
 7246SOL    HW233372   1.114   3.394  13.827  1.2965 -1.5890 -0.4827
 7247SOL     OW33373   1.125   2.037   6.217  0.1324 -0.9197 -0.1182
 7247SOL    HW133374   1.130   2.031   6.312 -0.6218 -0.0054 -0.0229
 7247SOL    HW233375   1.211   2.073   6.198 -0.8640  1.8722  0.7640
 7248SOL     OW33376   2.921   4.191   3.607  0.0483 -0.1978  0.0417
 7248SOL    HW133377   2.828   4.213   3.598  0.5110  1.8923  0.3906
 7248SOL    HW233378   2.956   4.205   3.519  0.0302  2.4652  0.4578
 7249SOL     OW33379   0.648   4.352   8.686 -0.6096  0.0018  0.2478
 7249SOL    HW133380   0.571   4.349   8.629 -0.2586 -1.6224 -0.1381
 7249SOL    HW233381   0.687   4.265   8.677  0.8268  0.4808  1.8719
 7250SOL     OW33382   1.728   1.360  11.346 -0.1960  0.0008  0.0984
 7250SOL    HW133383   1.713   1.288  11.407  0.6444  0.9825  1.4500
 7250SOL    HW233384   1.821   1.380  11.357 -0.5260  1.1093  0.8296
 7251SOL     OW33385   2.038   1.386   7.047  0.1420  0.2148 -0.6400
 7251SOL    HW133386   2.031   1.473   7.086 -0.2854  0.3791 -1.0787
 7251SOL    HW233387   1.974   1.343   7.105  2.7222 -1.3186  1.0903
 7252SOL     OW33388   2.927   2.359  15.742  0.5992  0.4475  0.1419
 7252SOL    HW133389   2.920   2.343  15.836 -2.1495  2.2736  0.2563
 7252SOL    HW233390   3.016   2.391  15.731  1.2032 -0.6775  1.7946
 7253SOL     OW33391   3.253   3.681   8.344  0.8957  0.1021  0.2277
 7253SOL    HW133392   3.290   3.686   8.433 -0.4696  1.0127  0.7346
 7253SOL    HW233393   3.162   3.665   8.369  1.2243 -0.0308  1.3431
 7254SOL     OW33394   3.117   1.964   6.711 -0.5830 -0.1823  0.6220
 7254SOL    HW133395   3.025   1.976   6.733 -0.5723  0.3936  0.3593
 7254SOL    HW233396   3.150   1.919   6.788 -0.8570  2.5550  2.3297
 7255SOL     OW33397   1.015   2.386   6.693  0.5185 -0.5042  0.0188
 7255SOL    HW133398   0.947   2.321   6.676  0.7903 -0.4715 -1.1772
 7255SOL    HW233399   1.092   2.329   6.693  0.4423 -0.6063  1.2353
 7256SOL     OW33400   1.990   4.202   3.564 -0.0986 -0.5582 -0.1356
 7256SOL    HW133401   2.021   4.170   3.648  0.5177  0.8191  0.1487
 7256SOL    HW233402   2.048   4.150   3.508 -0.6223 -1.9890  0.6458
 7257SOL     OW33403   2.829   1.470   8.377  0.0425  0.3415 -0.0043
 7257SOL    HW133404   2.915   1.452   8.339  0.0864  1.3549 -0.3764
 7257SOL    HW233405   2.800   1.547   8.328  0.3538  1.3340  1.3721
 7258SOL     OW33406   2.390   1.380  11.785 -0.1424  0.3668 -0.0397
 7258SOL    HW133407   2.411   1.393  11.693  0.2585  1.1950  0.1690
 7258SOL    HW233408   2.362   1.470  11.802  0.0037  0.3090  0.5065
 7259SOL     OW33409   2.485   4.388   7.212 -0.1842  0.3967 -0.0600
 7259SOL    HW133410   2.432   4.431   7.279 -0.4164 -1.7087  1.1260
 7259SOL    HW233411   2.573   4.405   7.244  0.2758 -0.7432 -0.6992
 7260SOL     OW33412   0.339   4.588   4.901  0.5411  0.7319 -0.7917
 7260SOL    HW133413   0.313   4.500   4.930 -0.9259  0.7958 -1.9222
 7260SOL    HW233414   0.383   4.621   4.979  1.9231  1.0094 -1.7102
 7261SOL     OW33415   2.201   2.228  14.085 -0.0585 -0.1517  0.0758
 7261SOL    HW133416   2.151   2.274  14.152  0.4301  0.1736  0.2253
 7261SOL    HW233417   2.165   2.140  14.091 -1.4338  0.4746  0.7897
 7262SOL     OW33418   1.812   3.700   8.404  0.2429  0.3301 -0.2215
 7262SOL    HW133419   1.768   3.767   8.455  1.3472  0.1510  0.9689
 7262SOL    HW233420   1.871   3.660   8.468 -0.0292 -0.8713 -0.7076
 7263SOL     OW33421   3.953   1.617   2.268  0.2538 -0.3454 -0.0337
 7263SOL    HW133422   3.887   1.665   2.317 -0.2420 -1.9036  0.8211
 7263SOL    HW233423   3.995   1.688   2.219  0.5937 -0.3255  0.2804
 7264SOL     OW33424   2.328   0.064   7.579  0.2197  0.0847  0.2333
 7264SOL    HW133425   2.311   0.107   7.663  2.0898 -0.1016  0.7038
 7264SOL    HW233426   2.416   0.031   7.593  0.3529 -0.3257 -1.5343
 7265SOL     OW33427   3.561   3.573   5.144  0.6183  0.4272  0.0858
 7265SOL    HW133428   3.471   3.565   5.112  1.1231 -0.4518 -1.1172
 7265SOL    HW233429   3.601   3.642   5.091  0.2571  0.5218 -0.0637
 7266SOL     OW33430   3.541   4.695   1.942  0.1152  0.4185 -0.6800
 7266SOL    HW133431   3.632   4.708   1.968 -0.2940 -0.3527  1.1876
 7266SOL    HW233432   3.522   0.043   1.900 -2.1446  1.3916  2.2509
 7267SOL     OW33433   3.090   2.644   5.375  0.4560  0.1868 -0.8850
 7267SOL    HW133434   3.040   2.689   5.443  1.6337  0.8193 -0.4400
 7267SOL    HW233435   3.068   2.551   5.387 -0.5181  0.5102 -0.1516
 7268SOL     OW33436   1.969   1.780  13.212  0.2130 -0.6057 -0.1201
 7268SOL    HW133437   1.890   1.750  13.256 -0.8232  1.4548 -0.5633
 7268SOL    HW233438   1.961   1.778  13.117  0.5937  0.8688 -0.1872
 7269SOL     OW33439   1.433   3.965   6.929 -0.1964 -0.3610 -0.4397
 7269SOL    HW133440   1.377   3.981   7.005  0.4657  1.6431 -0.3897
 7269SOL    HW233441   1.387   3.995   6.851 -1.8039  1.1903  1.0940
 7270SOL     OW33442   2.270   3.336   4.763  0.3484  0.0725  0.2657
 7270SOL    HW133443   2.189   3.370   4.724  0.5952  0.0887 -0.2253
 7270SOL    HW233444   2.261   3.385   4.845  1.0232 -0.1675  0.4815
 7271SOL     OW33445   4.127   0.779  11.053  0.0428 -0.2206  0.0267
 7271SOL    HW133446   4.138   0.767  10.959  2.0870  0.0813  0.2261
 7271SOL    HW233447   4.037   0.748  11.065  0.1476 -0.8372 -0.7503
 7272SOL     OW33448   3.814   3.866   9.297  0.1430 -0.5252 -0.2477
 7272SOL    HW133449   3.736   3.866   9.241  1.7275  0.6809 -2.4146
 7272SOL    HW233450   3.798   3.922   9.374  1.3433  2.5165 -2.1891
 7273SOL     OW33451   2.636   4.252  11.271  0.0214  0.0772 -0.1207
 7273SOL    HW133452   2.652   4.172  11.220  0.3723 -0.3249  0.6350
 7273SOL    HW233453   2.591   4.209  11.344 -2.3849  0.3952 -1.4071
 7274SOL     OW33454   3.599   0.797  15.659  0.2613  0.7147 -0.6303
 7274SOL    HW133455   3.601   0.891  15.646  1.1323  1.0746  2.0980
 7274SOL    HW233456   3.577   0.773  15.569  0.2958  0.0026 -0.4521
 7275SOL     OW33457   4.418   3.300   0.240 -0.2247 -0.5311 -0.3684
 7275SOL    HW133458   4.390   3.278   0.330  0.1162  0.3459 -0.0536
 7275SOL    HW233459   4.499   3.250   0.228  0.0232  0.2010 -1.6310
 7276SOL     OW33460   3.283   4.382   9.114  0.5403 -1.1931 -0.2367
 7276SOL    HW133461   3.244   4.372   9.027 -1.1681  0.4060  0.3453
 7276SOL    HW233462   3.218   4.339   9.169 -0.7820  0.5116 -0.4721
 7277SOL     OW33463   2.070   3.350   8.351  0.2442  0.4147 -0.4341
 7277SOL    HW133464   2.119   3.276   8.388 -1.6976  0.1855  1.6790
 7277SOL    HW233465   2.127   3.423   8.376  0.5943 -0.9263  2.7501
 7278SOL     OW33466   2.785   0.262   7.032 -0.3103  0.3203  0.0558
 7278SOL    HW133467   2.818   0.195   7.092 -0.6913  0.6679  0.6463
 7278SOL    HW233468   2.692   0.241   7.038 -0.0532 -0.8663  0.0584
 7279SOL     OW33469   1.792   4.423  17.342 -0.5471  0.6218  0.1213
 7279SOL    HW133470   1.860   4.478  17.381 -0.3973 -0.0739  0.8543
 7279SOL    HW233471   1.739   4.481  17.287 -1.0679  1.3823  1.4032
 7280SOL     OW33472   4.630   0.281   5.926 -0.0838  0.0295  0.2531
 7280SOL    HW133473   4.651   0.349   5.861 -0.0847 -0.2598 -0.0487
 7280SOL    HW233474   4.593   0.213   5.870 -0.5233  1.1734 -0.8450
 7281SOL     OW33475   2.946   0.850  12.985  0.0221 -0.1425  0.2662
 7281SOL    HW133476   3.034   0.869  12.952  0.5435 -0.2073  1.6123
 7281SOL    HW233477   2.945   0.923  13.047  0.5939  1.0859 -1.1622
 7282SOL     OW33478   1.255   1.410   4.890  0.2423  0.1365  0.7318
 7282SOL    HW133479   1.231   1.331   4.843  2.1198  0.8919 -1.5253
 7282SOL    HW233480   1.217   1.480   4.837 -0.8046 -2.0151 -1.2953
 7283SOL     OW33481   3.710   0.240   8.671 -0.1466  0.0244  0.4159
 7283SOL    HW133482   3.630   0.253   8.721  0.8923 -2.8223  2.8239
 7283SOL    HW233483   3.726   0.327   8.634  0.9873  0.6657  2.4096
 7284SOL     OW33484   3.374   3.434  15.696 -0.0745 -0.2030  0.2278
 7284SOL    HW133485   3.328   3.410  15.616  0.9558  1.0959 -0.7571
 7284SOL    HW233486   3.373   3.530  15.696 -1.5126 -0.2116 -0.8273
 7285SOL     OW33487   4.032   2.567  15.093  1.1230  0.1212  0.0591
 7285SOL    HW133488   4.044   2.608  15.008 -1.6353  1.3813  0.2711
 7285SOL    HW233489   4.085   2.616  15.155  1.3557 -0.5923  0.4197
 7286SOL     OW33490   2.132   0.107   5.944 -0.1382  0.6171 -0.2324
 7286SOL    HW133491   2.077   0.167   5.894 -1.4129  0.4566  0.9527
 7286SOL    HW233492   2.168   0.159   6.017 -1.3142  1.6364 -0.3629
 7287SOL     OW33493   3.576   2.258   6.817 -0.2297 -0.6547  0.2012
 7287SOL    HW133494   3.527   2.315   6.758  0.7528 -1.3089 -1.2390
 7287SOL    HW233495   3.552   2.170   6.788  1.2827  0.4162 -4.3423
 7288SOL     OW33496   3.291   3.011   0.525 -0.6375  0.4493  0.1407
 7288SOL    HW133497   3.371   2.958   0.526 -1.9634 -1.5605  1.5851
 7288SOL    HW233498   3.323   3.100   0.509  0.1183  0.1565  0.0319
 7289SOL     OW33499   1.031   0.569   0.590 -0.3863  0.2505 -0.5330
 7289SOL    HW133500   1.086   0.517   0.649  0.1879 -1.1629 -2.3446
 7289SOL    HW233501   0.963   0.581   0.657 -0.6453  0.3526 -0.8153
 7290SOL     OW33502   1.492   1.447   9.001 -0.2205  0.3811  0.1012
 7290SOL    HW133503   1.522   1.535   8.980 -2.1495  0.8622 -0.6386
 7290SOL    HW233504   1.576   1.406   9.023 -0.2039 -0.4946 -1.5781
 7291SOL     OW33505   4.318   1.689   3.661 -0.0633  0.2746 -0.0829
 7291SOL    HW133506   4.250   1.650   3.605 -1.3117  0.7080  1.1384
 7291SOL    HW233507   4.274   1.683   3.745  1.2876  0.6038  0.6485
 7292SOL     OW33508   3.653   0.100  14.824 -0.5319 -0.3757  0.2157
 7292SOL    HW133509   3.664   0.194  14.836 -3.4315  0.0886 -0.6923
 7292SOL    HW233510   3.733   0.073  14.779  0.4743  0.0860  1.7127
 7293SOL     OW33511   2.642   1.452   9.307  0.9286 -0.3080  0.7711
 7293SOL    HW133512   2.670   1.363   9.324  2.5282 -0.1739 -1.1151
 7293SOL    HW233513   2.563   1.466   9.359  0.5334 -0.6454  0.2584
 7294SOL     OW33514   3.621   1.354   4.572 -0.3084  0.2370 -0.1728
 7294SOL    HW133515   3.639   1.259   4.575  1.1308  0.4272 -2.8960
 7294SOL    HW233516   3.666   1.386   4.650 -1.2570 -1.1728  0.9552
 7295SOL     OW33517   0.056   4.628   8.733  0.4645  0.5326 -0.0047
 7295SOL    HW133518   0.084   4.583   8.812 -2.1487  0.1234  0.6761
 7295SOL    HW233519   0.093   4.715   8.752  0.9663  0.3994 -0.3478
 7296SOL     OW33520   4.241   0.888   6.353  0.2910 -0.2436 -0.3787
 7296SOL    HW133521   4.252   0.944   6.276  1.2517 -0.8686 -0.6952
 7296SOL    HW233522   4.303   0.930   6.413 -0.2025  1.3099 -0.9598
 7297SOL     OW33523   0.449   2.630   9.396  0.3799 -0.6621 -0.1561
 7297SOL    HW133524   0.537   2.647   9.362  0.2101  0.0106 -0.2581
 7297SOL    HW233525   0.470   2.663   9.483  0.0763 -0.7061 -0.0688
 7298SOL     OW33526   1.109   0.807   3.032  0.5076 -0.7287 -0.4287
 7298SOL    HW133527   1.166   0.730   3.027  2.8615  0.9434  0.2480
 7298SOL    HW233528   1.035   0.788   2.975  1.0721 -0.1872 -1.3412
 7299SOL     OW33529   3.289   4.038   2.750  0.4201  0.3419  0.5885
 7299SOL    HW133530   3.220   4.100   2.727 -1.6814 -1.9375  0.7380
 7299SOL    HW233531   3.249   3.955   2.721  2.5535 -0.5086  0.0766
 7300SOL     OW33532   0.447   4.026   6.453  0.0547 -0.3118  0.3844
 7300SOL    HW133533   0.386   3.986   6.392 -0.5456  0.1451  0.6899
 7300SOL    HW233534   0.401   4.107   6.474  0.3629 -0.1263  0.3542
 7301SOL     OW33535   1.565   0.099   1.512  0.0817 -0.5266  0.4603
 7301SOL    HW133536   1.556   0.144   1.596  3.6186  0.6921  0.2078
 7301SOL    HW233537   1.657   0.117   1.492  0.1858  0.8662  2.1801
 7302SOL     OW33538   4.371   3.113   9.806  0.2214  0.1772  0.2424
 7302SOL    HW133539   4.434   3.168   9.760  0.7355  0.2563  1.0329
 7302SOL    HW233540   4.289   3.128   9.759 -0.0646 -0.2685  0.5966
 7303SOL     OW33541   3.816   0.631  15.433 -0.6421  0.1616  0.1042
 7303SOL    HW133542   3.891   0.664  15.383 -0.0619 -1.7350 -0.2994
 7303SOL    HW233543   3.738   0.644  15.380  0.2348 -0.6753 -1.4090
 7304SOL     OW33544   1.520   1.594   2.439 -0.1361 -0.1165  0.3497
 7304SOL    HW133545   1.556   1.682   2.445 -2.1653  0.8387 -1.2298
 7304SOL    HW233546   1.430   1.623   2.420 -0.2659 -0.9148 -0.2838
 7305SOL     OW33547   2.604   0.759   3.916  0.4830  0.2777  0.7473
 7305SOL    HW133548   2.613   0.694   3.986 -2.1224 -2.1506 -1.1809
 7305SOL    HW233549   2.671   0.816   3.953  1.6292 -1.1660  0.8794
 7306SOL     OW33550   0.561   1.615   0.089  0.5249 -0.3045  0.2447
 7306SOL    HW133551   0.633   1.676   0.076  1.7551 -1.8667 -0.3075
 7306SOL    HW233552   0.541   1.595  17.737  1.0058  1.9058 -0.3463
 7307SOL     OW33553   0.717   4.615   6.028  0.4019 -0.1267 -0.1032
 7307SOL    HW133554   0.778   4.671   5.980  1.4676 -2.5982 -1.6482
 7307SOL    HW233555   0.695   4.548   5.963  1.7397  0.2723 -0.9692
 7308SOL     OW33556   2.680   2.973   8.835 -0.1963 -0.3348  0.0618
 7308SOL    HW133557   2.642   3.004   8.753  1.2274 -0.8910 -0.8064
 7308SOL    HW233558   2.607   2.983   8.896  1.8505 -0.4268  2.5653
 7309SOL     OW33559   1.899   0.034  16.959 -0.0916 -0.2781 -0.3989
 7309SOL    HW133560   1.868   0.122  16.983 -0.0224 -0.4980  0.4890
 7309SOL    HW233561   1.904   0.041  16.864  2.4471 -1.6860 -0.3619
 7310SOL     OW33562   2.185   1.263   5.822  0.1246 -0.1477  0.1059
 7310SOL    HW133563   2.281   1.270   5.816  0.4100 -3.0375  1.0186
 7310SOL    HW233564   2.175   1.217   5.739  0.9116 -0.9721  0.4628
 7311SOL     OW33565   0.263   3.079   6.236  0.2407  0.0464 -0.3319
 7311SOL    HW133566   0.246   3.040   6.321  0.7560  0.8587  0.1384
 7311SOL    HW233567   0.353   3.053   6.219 -0.0443 -1.6006  0.6151
 7312SOL     OW33568   1.800   3.858   0.037  0.7484  0.0076  0.1014
 7312SOL    HW133569   1.771   3.843  17.686  2.2202 -1.0240 -0.1838
 7312SOL    HW233570   1.859   3.931   0.019 -1.2814  1.1330 -1.9028
 7313SOL     OW33571   0.350   2.217  16.007  0.0960 -0.0849  0.5399
 7313SOL    HW133572   0.374   2.160  15.934 -0.1952 -0.1492  0.4944
 7313SOL    HW233573   0.276   2.172  16.047 -0.9292  1.2475  0.1754
 7314SOL     OW33574   2.082   3.264   6.172  0.4322  0.3530 -0.3470
 7314SOL    HW133575   2.168   3.295   6.200  0.5126 -0.6987  0.5778
 7314SOL    HW233576   2.085   3.173   6.144 -2.6308 -0.3967  1.7195
 7315SOL     OW33577   0.707   3.554   6.947  0.0540  0.5717 -0.7004
 7315SOL    HW133578   0.789   3.581   6.987  0.8228  0.4498 -2.2074
 7315SOL    HW233579   0.736   3.473   6.906 -2.9793 -1.1500  0.4962
 7316SOL     OW33580   0.777   1.439  17.040 -0.2952 -0.5003 -0.4320
 7316SOL    HW133581   0.790   1.483  17.124 -1.4185 -1.2332  0.1335
 7316SOL    HW233582   0.818   1.354  17.055 -1.9333 -1.4079 -1.1156
 7317SOL     OW33583   0.176   1.044  13.440  0.4466  0.5499 -0.2440
 7317SOL    HW133584   0.091   1.055  13.482  0.2144  3.1593 -1.3633
 7317SOL    HW233585   0.215   1.097  13.510  1.9106 -0.1237 -0.5605
 7318SOL     OW33586   3.368   3.583  17.587  0.6021  0.3068  0.6132
 7318SOL    HW133587   3.320   3.604  17.668 -1.5876  0.5031 -0.7345
 7318SOL    HW233588   3.444   3.641  17.594  0.0076  0.9791  1.5577
 7319SOL     OW33589   4.207   4.161   5.968  0.1648 -0.5712 -0.1024
 7319SOL    HW133590   4.252   4.218   5.905 -0.3839  1.2241  1.1420
 7319SOL    HW233591   4.259   4.081   5.957 -1.3357 -1.6541  0.8165
 7320SOL     OW33592   3.320   0.724   3.383 -0.1259 -0.4202 -0.3716
 7320SOL    HW133593   3.330   0.629   3.392 -2.8428 -0.8380 -1.7376
 7320SOL    HW233594   3.254   0.737   3.452  0.0008 -0.6585 -0.2060
 7321SOL     OW33595   1.677   1.721  15.527  0.4221 -0.1784  0.0168
 7321SOL    HW133596   1.640   1.791  15.474  0.9691 -0.5168 -0.8031
 7321SOL    HW233597   1.606   1.698  15.587 -0.2456 -0.0559 -0.7239
 7322SOL     OW33598   4.553   2.006  15.307 -1.0572 -0.0024 -0.1028
 7322SOL    HW133599   4.500   2.077  15.342  1.9860  1.9991  0.4229
 7322SOL    HW233600   4.620   2.065  15.273 -0.2698 -0.8910 -0.0833
 7323SOL     OW33601   4.493   2.361   9.207 -0.2836  0.3137  0.4154
 7323SOL    HW133602   4.530   2.398   9.287  3.2372 -1.2987 -0.4781
 7323SOL    HW233603   4.406   2.400   9.199 -0.9337 -0.8713  1.5627
 7324SOL     OW33604   1.236   1.128  16.215  0.5295  0.8151 -0.2661
 7324SOL    HW133605   1.163   1.077  16.180  0.2279 -0.5877  2.4236
 7324SOL    HW233606   1.215   1.118  16.308  3.3506  1.8401  0.4846
 7325SOL     OW33607   1.706   0.467   6.820 -0.5328 -0.9012  0.4904
 7325SOL    HW133608   1.673   0.394   6.767  2.1513  0.4434 -3.0287
 7325SOL    HW233609   1.780   0.491   6.764 -1.6628  0.1772 -0.5467
 7326SOL     OW33610   1.846   0.733   7.394  0.3506  0.7066  0.6698
 7326SOL    HW133611   1.781   0.669   7.424 -0.9000  1.4646 -0.4239
 7326SOL    HW233612   1.799   0.770   7.319  2.0967  0.4487 -0.5514
 7327SOL     OW33613   2.974   1.432   5.702  0.0527  0.0805  0.2474
 7327SOL    HW133614   3.006   1.511   5.657  0.4792  0.9707  2.0976
 7327SOL    HW233615   3.011   1.451   5.789 -0.7733  1.5521  0.2874
 7328SOL     OW33616   4.490   0.982   3.907  0.1774 -0.1315 -0.1513
 7328SOL    HW133617   4.574   0.971   3.861  0.4047  3.1119 -0.5077
 7328SOL    HW233618   4.429   0.981   3.833  0.9958 -0.9886 -0.8052
 7329SOL     OW33619   0.302   1.133  15.732 -0.1869 -0.9132 -0.3659
 7329SOL    HW133620   0.307   1.192  15.807  0.5998  0.8947 -1.8285
 7329SOL    HW233621   0.260   1.055  15.768 -1.9335 -0.5910 -1.6856
 7330SOL     OW33622   2.099   0.480   8.709 -0.1291 -0.0997  0.1122
 7330SOL    HW133623   2.149   0.419   8.655 -0.4899 -1.8688  1.7569
 7330SOL    HW233624   2.012   0.473   8.670 -0.0400 -2.9897  0.4252
 7331SOL     OW33625   0.276   1.646   3.586 -0.0618  0.5066 -0.0413
 7331SOL    HW133626   0.183   1.653   3.568 -0.0482  0.9982  0.0835
 7331SOL    HW233627   0.311   1.607   3.506 -0.4028  0.2042 -0.0430
 7332SOL     OW33628   0.183   0.771   4.879  0.3706  0.0142  0.3389
 7332SOL    HW133629   0.147   0.800   4.796 -0.1089 -0.0764  0.5166
 7332SOL    HW233630   0.130   0.828   4.936 -2.3197  1.1982 -3.3834
 7333SOL     OW33631   3.933   3.571   5.736 -0.0371  0.4957  0.9740
 7333SOL    HW133632   3.841   3.597   5.733 -0.9929 -3.2823 -2.0918
 7333SOL    HW233633   3.966   3.637   5.675 -1.3540 -0.1565 -0.4320
 7334SOL     OW33634   3.685   2.554  14.127 -0.7729  0.0530 -0.2129
 7334SOL    HW133635   3.670   2.552  14.032  0.5160  1.6862 -0.4507
 7334SOL    HW233636   3.672   2.648  14.132 -3.0618 -0.3926  2.1107
 7335SOL     OW33637   1.275   3.093  12.395 -0.3422  0.2041  0.6398
 7335SOL    HW133638   1.356   3.137  12.366 -0.3357 -1.7850 -2.3052
 7335SOL    HW233639   1.316   3.007  12.398 -3.0235 -1.1841 -3.3857
 7336SOL     OW33640   1.749   0.347   3.285 -0.3716  0.1303 -0.0676
 7336SOL    HW133641   1.671   0.371   3.235 -1.9689 -1.9480  1.4624
 7336SOL    HW233642   1.752   0.423   3.344 -1.5711  0.6429 -0.6763
 7337SOL     OW33643   4.029   3.744   8.513  0.3501 -0.2115  0.0427
 7337SOL    HW133644   4.078   3.811   8.465  0.6742  0.6339  1.5650
 7337SOL    HW233645   3.988   3.797   8.581  1.4795 -0.4655  0.9271
 7338SOL     OW33646   3.363   4.453   4.105  0.7110 -0.5163 -0.6755
 7338SOL    HW133647   3.349   4.428   4.013 -0.4809 -1.6337 -0.1978
 7338SOL    HW233648   3.326   4.376   4.149  0.7966  0.2846  0.7763
 7339SOL     OW33649   3.037   3.520   3.293  0.1311 -0.4689 -0.2693
 7339SOL    HW133650   3.036   3.428   3.319 -0.1812 -0.8526 -1.6600
 7339SOL    HW233651   3.020   3.570   3.373 -1.0601 -0.4188 -0.5572
 7340SOL     OW33652   3.231   0.371   8.300  0.2601  0.2132 -0.3869
 7340SOL    HW133653   3.293   0.407   8.362  0.4232  0.0881 -0.4771
 7340SOL    HW233654   3.287   0.353   8.224 -1.4180 -0.5646 -1.4553
 7341SOL     OW33655   1.159   1.153   6.073  0.2941  0.1014  0.3203
 7341SOL    HW133656   1.218   1.225   6.097 -0.4409  1.0178 -0.6296
 7341SOL    HW233657   1.206   1.124   5.994 -0.8844 -2.1707  0.4699
 7342SOL     OW33658   0.779   1.967   3.013  1.0224  0.1527 -0.0694
 7342SOL    HW133659   0.699   1.935   3.054  1.6114 -2.9711 -1.4013
 7342SOL    HW233660   0.816   1.886   2.979 -1.6479 -0.2832 -1.8751
 7343SOL     OW33661   1.110   3.444  10.569 -0.2605 -0.2685  0.4781
 7343SOL    HW133662   1.131   3.372  10.509  0.1720 -0.3450  0.7213
 7343SOL    HW233663   1.188   3.440  10.624 -0.1784 -0.9065  0.3134
 7344SOL     OW33664   3.490   4.718  17.432 -0.2182 -0.6233 -0.0318
 7344SOL    HW133665   3.542   4.685  17.505 -2.5424 -4.7115 -0.1963
 7344SOL    HW233666   3.467   4.627  17.411  0.1603 -0.9003  0.7535
 7345SOL     OW33667   3.976   2.592  13.006  0.3764  0.2169  0.1525
 7345SOL    HW133668   3.905   2.611  12.945 -1.0297 -0.5556  1.5401
 7345SOL    HW233669   4.014   2.511  12.971 -0.0010 -0.7597  2.0008
 7346SOL     OW33670   2.013   2.770  12.788 -0.2352 -0.5440 -0.0900
 7346SOL    HW133671   1.989   2.688  12.831  0.3761 -0.2345  0.8453
 7346SOL    HW233672   2.035   2.826  12.862  1.2575 -2.5013  0.9567
 7347SOL     OW33673   1.128   4.027  11.930  0.2374 -0.2120 -0.6016
 7347SOL    HW133674   1.088   3.951  11.971  0.0096 -0.2291 -0.8523
 7347SOL    HW233675   1.176   3.996  11.854  1.3182  3.2915 -1.3591
 7348SOL     OW33676   2.391   4.417   2.853 -0.0048  0.2637  0.1818
 7348SOL    HW133677   2.335   4.437   2.777 -2.6279  1.0595  2.3315
 7348SOL    HW233678   2.336   4.360   2.907  1.0307 -0.3295  0.5988
 7349SOL     OW33679   0.927   2.600  13.088 -0.3388 -0.0361  0.1941
 7349SOL    HW133680   0.876   2.658  13.144 -0.5080 -1.1363  1.1753
 7349SOL    HW233681   1.021   2.616  13.097  0.4878 -3.1914 -2.4631
 7350SOL     OW33682   1.996   4.553   2.535 -0.4322  0.0491 -0.6694
 7350SOL    HW133683   1.961   4.489   2.597  0.0727  0.7169  0.3269
 7350SOL    HW233684   1.984   4.504   2.454  0.5602 -0.7767 -0.3223
 7351SOL     OW33685   4.166   3.082   4.498 -0.0676  0.2520 -0.0791
 7351SOL    HW133686   4.218   3.071   4.418  0.0667  1.9769 -0.2253
 7351SOL    HW233687   4.141   3.174   4.492  0.0420  0.2058 -1.1883
 7352SOL     OW33688   2.547   0.381  15.505 -0.2028 -0.3360  0.3085
 7352SOL    HW133689   2.569   0.466  15.467  0.4795 -0.1049  1.2232
 7352SOL    HW233690   2.590   0.388  15.590  0.9479  2.1102 -0.4710
 7353SOL     OW33691   0.959   4.124   3.069  0.0841  0.6864 -0.2154
 7353SOL    HW133692   0.963   4.050   3.130 -0.0207 -0.2819 -1.3937
 7353SOL    HW233693   0.870   4.144   3.099 -1.2380 -3.5738 -1.3482
 7354SOL     OW33694   0.866   4.304   9.052 -0.0493  0.0240 -0.7106
 7354SOL    HW133695   0.777   4.328   9.025  0.1537  0.5043 -0.9617
 7354SOL    HW233696   0.898   4.383   9.096  0.5221  0.5896 -2.1175
 7355SOL     OW33697   2.418   0.447   2.910 -0.2572  0.3483 -0.4729
 7355SOL    HW133698   2.419   0.428   3.003  2.9707  1.2635 -0.3248
 7355SOL    HW233699   2.392   0.360   2.880 -0.6295 -0.2221  1.5479
 7356SOL     OW33700   3.648   0.518  11.854 -0.6864 -0.1726 -0.1621
 7356SOL    HW133701   3.603   0.560  11.927 -0.9439  1.4089 -1.2177
 7356SOL    HW233702   3.723   0.482  11.901 -1.1705  0.0678  0.7931
 7357SOL     OW33703   3.732   2.166  13.509  0.5689  0.3651 -0.0972
 7357SOL    HW133704   3.756   2.236  13.447 -1.4424  0.5573 -0.6482
 7357SOL    HW233705   3.773   2.203  13.588  3.3660  1.4005 -2.0227
 7358SOL     OW33706   1.866   4.291   5.961 -0.2096 -0.2958  0.0956
 7358SOL    HW133707   1.826   4.347   5.894 -0.8583  0.5886  1.2140
 7358SOL    HW233708   1.949   4.337   5.975  0.3655 -1.3579  0.1461
 7359SOL     OW33709   2.946   2.443   2.731  0.0452 -0.3917  0.1765
 7359SOL    HW133710   2.967   2.363   2.683 -0.7599 -0.4868 -0.0033
 7359SOL    HW233711   2.989   2.424   2.815 -0.0863 -1.1033  0.0747
 7360SOL     OW33712   3.400   1.180   2.713  0.1918  0.5366  0.5309
 7360SOL    HW133713   3.308   1.165   2.691 -0.6042 -0.0944  4.3020
 7360SOL    HW233714   3.434   1.091   2.715 -1.0846  0.0467  0.4884
 7361SOL     OW33715   4.389   3.505   7.444  0.1058 -0.1376 -0.3867
 7361SOL    HW133716   4.342   3.444   7.501  0.2402  0.4630  0.3730
 7361SOL    HW233717   4.331   3.581   7.439 -1.4441 -1.2725  0.5538
 7362SOL     OW33718   1.863   4.442   8.587 -0.2548  0.0248  0.0337
 7362SOL    HW133719   1.786   4.465   8.639 -1.2231  0.4013 -1.5673
 7362SOL    HW233720   1.927   4.506   8.619  0.3429 -0.3434 -0.4170
 7363SOL     OW33721   0.848   0.400  17.736 -0.0107 -0.2523 -0.0071
 7363SOL    HW133722   0.907   0.381   0.069 -2.0370 -1.3226  1.3670
 7363SOL    HW233723   0.843   0.495   0.008 -0.9942 -0.4226  1.0237
 7364SOL     OW33724   1.741   4.602   9.150 -0.1772  0.3222  0.0692
 7364SOL    HW133725   1.822   4.552   9.163 -0.5381  0.3927  2.6357
 7364SOL    HW233726   1.681   4.570   9.217 -0.3438  0.8364  0.1633
 7365SOL     OW33727   1.023   3.265   5.608 -0.4453 -1.1478 -0.5362
 7365SOL    HW133728   0.960   3.331   5.581  0.6172  0.6024  1.2774
 7365SOL    HW233729   1.063   3.300   5.687 -2.3944 -0.4782  0.1669
 7366SOL     OW33730   0.677   1.167   8.741 -0.6038 -0.0562 -0.3706
 7366SOL    HW133731   0.682   1.087   8.793  0.9864 -0.1833 -0.7379
 7366SOL    HW233732   0.610   1.129   8.684 -1.5472  0.4407  0.3931
 7367SOL     OW33733   1.666   1.881   6.632  0.3568  0.6576 -0.2558
 7367SOL    HW133734   1.606   1.807   6.636  2.4735 -0.9896  1.5802
 7367SOL    HW233735   1.674   1.899   6.726  2.7617 -1.1985 -0.1013
 7368SOL     OW33736   1.668   3.248   4.782 -0.1005 -0.3729 -0.0129
 7368SOL    HW133737   1.605   3.316   4.756  1.5015 -0.0562 -3.1053
 7368SOL    HW233738   1.660   3.181   4.714 -1.7433  1.5146 -1.7192
 7369SOL     OW33739   1.802   0.282  15.653  0.7430 -0.5288  0.7449
 7369SOL    HW133740   1.765   0.370  15.657  0.0934 -0.6177 -2.9558
 7369SOL    HW233741   1.859   0.300  15.578 -0.8378 -0.2221 -0.3768
 7370SOL     OW33742   0.244   0.636   1.343 -0.1370  0.4011 -0.1639
 7370SOL    HW133743   0.226   0.703   1.408 -1.0183  0.5605 -0.5791
 7370SOL    HW233744   0.160   0.635   1.298 -0.5229  0.0959  0.5678
 7371SOL     OW33745   1.138   1.111   6.365 -0.0342  0.1626 -0.9754
 7371SOL    HW133746   1.166   1.117   6.274 -1.5936 -2.9177 -1.6745
 7371SOL    HW233747   1.101   1.022   6.369 -1.9399  0.9737 -0.7803
 7372SOL     OW33748   1.028   2.175   3.912 -0.4182 -0.6383 -0.1199
 7372SOL    HW133749   0.954   2.127   3.876  0.2059 -1.8903  0.2833
 7372SOL    HW233750   1.096   2.114   3.883 -1.1443 -0.5490 -2.0404
 7373SOL     OW33751   3.651   2.310   6.472  0.5168 -0.4983  0.2247
 7373SOL    HW133752   3.712   2.383   6.478  1.6851 -1.3981 -0.7203
 7373SOL    HW233753   3.577   2.333   6.528  1.1063  1.0068  0.3632
 7374SOL     OW33754   1.638   2.957   2.162  0.3245  0.0775  0.4411
 7374SOL    HW133755   1.694   3.035   2.165  1.1046 -0.5864  3.5971
 7374SOL    HW233756   1.706   2.892   2.179  1.8499  1.2984 -1.0732
 7375SOL     OW33757   0.541   1.264   9.437  0.2325 -0.2866  0.0394
 7375SOL    HW133758   0.532   1.187   9.494  1.1847 -1.5035 -1.4482
 7375SOL    HW233759   0.451   1.280   9.408  0.8217 -0.7080 -2.0282
 7376SOL     OW33760   4.251   0.650  11.728 -0.6515  0.1607  0.2114
 7376SOL    HW133761   4.252   0.636  11.822 -1.6457 -0.5651  0.1233
 7376SOL    HW233762   4.229   0.560  11.701 -1.1520  0.7637 -1.4142
 7377SOL     OW33763   3.716   0.281   3.120  0.4026 -0.0332 -0.1389
 7377SOL    HW133764   3.654   0.322   3.180  1.6180  0.2390  0.9207
 7377SOL    HW233765   3.669   0.201   3.099 -0.2295  1.6327 -5.2858
 7378SOL     OW33766   0.687   0.010   3.513 -0.6156 -0.2719 -0.2773
 7378SOL    HW133767   0.700   4.650   3.510  3.8676  0.1961  3.0555
 7378SOL    HW233768   0.777   0.041   3.500 -0.1364 -0.1600  3.1501
 7379SOL     OW33769   2.847   4.191  17.609  0.0160  0.1422 -0.1702
 7379SOL    HW133770   2.914   4.156  17.550 -0.5037  1.8069 -1.7446
 7379SOL    HW233771   2.828   4.279  17.577  1.8952  0.2960 -0.8732
 7380SOL     OW33772   4.594   1.571  12.844 -0.1210 -0.4150  0.1636
 7380SOL    HW133773   4.679   1.528  12.855 -0.0475 -0.4496 -0.5281
 7380SOL    HW233774   4.554   1.516  12.776 -0.4952 -1.3437  1.1363
 7381SOL     OW33775   2.960   0.777   4.964 -0.4251  0.6979  0.1052
 7381SOL    HW133776   3.054   0.776   4.946 -0.2066 -0.6634  1.3197
 7381SOL    HW233777   2.953   0.857   5.017 -0.1271  1.5197 -1.1066
 7382SOL     OW33778   0.877   1.469   7.121  0.2808  0.6955 -0.2391
 7382SOL    HW133779   0.897   1.375   7.120 -1.0213  0.4245 -0.2967
 7382SOL    HW233780   0.834   1.465   7.207  1.7899 -0.5697  0.4579
 7383SOL     OW33781   0.830   0.327  17.141  0.9037  0.4933 -0.2269
 7383SOL    HW133782   0.800   0.355  17.228 -1.6748 -1.4574 -0.5040
 7383SOL    HW233783   0.771   0.367  17.077 -1.1536 -1.9753  0.1196
 7384SOL     OW33784   2.362   2.671   3.764 -0.1247  1.0424 -0.4473
 7384SOL    HW133785   2.433   2.735   3.772  1.5424 -1.0446  1.1982
 7384SOL    HW233786   2.309   2.689   3.841  0.8577  1.2445  0.1798
 7385SOL     OW33787   2.374   3.431   5.746 -0.2719  0.7011  0.3076
 7385SOL    HW133788   2.390   3.351   5.696 -0.3981  0.9687 -0.1557
 7385SOL    HW233789   2.366   3.395   5.834  1.2714  0.2247  0.2569
 7386SOL     OW33790   0.286   0.253   1.720  0.2846 -0.7973 -0.0818
 7386SOL    HW133791   0.223   0.299   1.665 -0.6373 -1.6737  0.2525
 7386SOL    HW233792   0.225   0.188   1.755 -0.2022  0.9774  2.3633
 7387SOL     OW33793   3.711   4.266  14.687 -0.6346  0.0509  0.2984
 7387SOL    HW133794   3.639   4.318  14.653  1.6718  2.3748 -1.0491
 7387SOL    HW233795   3.698   4.178  14.653  1.3143 -0.4110  0.7015
 7388SOL     OW33796   2.591   3.227  17.147  0.0764 -0.3886  0.0576
 7388SOL    HW133797   2.608   3.158  17.083 -1.1408  1.1379 -1.8723
 7388SOL    HW233798   2.682   3.247  17.169  0.4046  0.4174 -2.1081
 7389SOL     OW33799   1.482   2.480  16.411  0.0947  0.3642 -0.6015
 7389SOL    HW133800   1.479   2.427  16.331 -1.2375  0.7057 -0.7760
 7389SOL    HW233801   1.388   2.490  16.422  0.2967  2.8407 -0.9587
 7390SOL     OW33802   4.154   3.404   5.434 -0.3207 -0.7571 -0.3433
 7390SOL    HW133803   4.193   3.346   5.369 -0.4712 -1.2947  0.0500
 7390SOL    HW233804   4.166   3.349   5.511  1.3124 -1.6533 -1.2489
 7391SOL     OW33805   4.028   4.408   5.809 -0.7475  0.0805  0.8331
 7391SOL    HW133806   4.012   4.314   5.819  1.7556 -0.2858  1.2572
 7391SOL    HW233807   4.120   4.408   5.785 -0.4994 -0.8359  1.7788
 7392SOL     OW33808   2.855   2.846   3.699 -0.4537  0.4905  0.0198
 7392SOL    HW133809   2.843   2.766   3.648  0.2302 -0.2150  0.9537
 7392SOL    HW233810   2.789   2.832   3.768 -0.6216 -1.6004 -0.5447
 7393SOL     OW33811   0.981   4.260   7.325  0.3046 -0.1974  0.0054
 7393SOL    HW133812   0.908   4.321   7.317  0.1323 -0.4373 -0.2383
 7393SOL    HW233813   1.036   4.284   7.250  1.4203 -1.9170  0.2903
 7394SOL     OW33814   3.210   1.350   1.218  0.1220  0.2885  0.1662
 7394SOL    HW133815   3.259   1.311   1.290 -0.4914 -3.9978 -1.7038
 7394SOL    HW233816   3.272   1.338   1.146 -1.7847  3.4998 -2.0115
 7395SOL     OW33817   4.249   1.052  10.443 -0.2929 -0.0976 -0.1376
 7395SOL    HW133818   4.212   0.972  10.479  0.7554  0.1875  1.5657
 7395SOL    HW233819   4.241   1.101  10.525 -1.2539  0.3107 -0.4711
 7396SOL     OW33820   1.487   3.045   6.536 -0.3368  0.0705  0.3120
 7396SOL    HW133821   1.517   3.135   6.548 -1.8687  0.7913 -1.2651
 7396SOL    HW233822   1.565   2.990   6.530 -0.3793  0.1455 -0.9387
 7397SOL     OW33823   0.435   4.530  11.104 -0.3810 -0.6992  0.2363
 7397SOL    HW133824   0.430   4.513  11.010  0.5778  0.8870 -0.1080
 7397SOL    HW233825   0.372   4.603  11.113  0.5360  0.1441 -0.2165
 7398SOL     OW33826   3.592   3.387   5.832  0.1361 -0.0092  0.5267
 7398SOL    HW133827   3.597   3.482   5.824  0.5610 -0.1093 -0.3576
 7398SOL    HW233828   3.599   3.366   5.739 -4.8392 -2.3481  0.6493
 7399SOL     OW33829   0.402   4.130   2.525 -0.0594 -0.0064 -1.0213
 7399SOL    HW133830   0.449   4.177   2.594  1.6023 -0.6830 -1.6904
 7399SOL    HW233831   0.378   4.061   2.587  0.7154  0.6300 -0.0147
 7400SOL     OW33832   1.692   0.883   8.069 -0.2899 -1.0257 -1.1675
 7400SOL    HW133833   1.750   0.812   8.098 -0.7074 -1.2431 -0.8653
 7400SOL    HW233834   1.747   0.960   8.077 -1.0584 -0.6423  0.3654
 7401SOL     OW33835   1.519   1.608  12.084 -0.5101 -0.0346  0.8103
 7401SOL    HW133836   1.505   1.576  12.173 -0.8423  1.7251  1.3866
 7401SOL    HW233837   1.440   1.585  12.035 -0.3730 -0.6105  0.8498
 7402SOL     OW33838   2.414   4.098   9.989 -0.1455 -0.3982 -0.5854
 7402SOL    HW133839   2.326   4.134   9.975 -0.2588  1.2818  4.6149
 7402SOL    HW233840   2.458   4.165   9.937 -0.5978 -0.5001 -1.1027
 7403SOL     OW33841   2.732   3.096  10.991 -0.2738  0.0327  0.9169
 7403SOL    HW133842   2.774   3.159  11.050  3.4492 -2.6226  1.1480
 7403SOL    HW233843   2.667   3.069  11.056 -1.2295  1.5152  0.5736
 7404SOL     OW33844   1.212   2.093   2.725 -0.0016 -0.3475  0.2344
 7404SOL    HW133845   1.278   2.154   2.756 -0.1934  1.0031 -1.9881
 7404SOL    HW233846   1.200   2.139   2.642  1.4573  0.9451  0.7440
 7405SOL     OW33847   4.193   2.309   0.873  0.1980 -0.1026  0.6798
 7405SOL    HW133848   4.262   2.356   0.828  0.1800 -0.0422  0.7160
 7405SOL    HW233849   4.246   2.252   0.929  0.4922  0.9600  1.4830
 7406SOL     OW33850   1.181   3.953   7.082  0.2278 -0.2118 -0.2926
 7406SOL    HW133851   1.206   3.986   7.168 -2.5419 -2.0513  1.2157
 7406SOL    HW233852   1.146   4.030   7.039 -0.5503 -0.2974  0.1862
 7407SOL     OW33853   3.289   2.806   6.832 -0.5757 -0.0529 -0.1948
 7407SOL    HW133854   3.365   2.865   6.833 -0.0250 -0.7343 -1.7829
 7407SOL    HW233855   3.304   2.749   6.907  0.3404 -0.3661 -0.6152
 7408SOL     OW33856   2.452   4.324  17.592  0.0411  0.1824  0.5364
 7408SOL    HW133857   2.385   4.268  17.554  0.8404 -0.0054 -0.6079
 7408SOL    HW233858   2.503   4.329  17.511 -0.5209 -0.0532  0.1663
 7409SOL     OW33859   0.455   3.160   5.310 -0.1988 -0.3363 -0.1176
 7409SOL    HW133860   0.371   3.199   5.333  0.8732  2.6542 -1.2779
 7409SOL    HW233861   0.480   3.120   5.393  3.5118  1.7515 -0.2419
 7410SOL     OW33862   3.553   3.057   8.745 -0.1646  0.3570  0.0586
 7410SOL    HW133863   3.639   3.023   8.721 -0.9043 -0.7180 -1.0186
 7410SOL    HW233864   3.504   2.977   8.763  2.9252 -1.5595 -0.2373
 7411SOL     OW33865   2.295   1.438  14.828 -0.0773  0.1342  0.1553
 7411SOL    HW133866   2.278   1.441  14.922 -0.9842 -3.5559  0.1095
 7411SOL    HW233867   2.242   1.510  14.793  1.1336  0.8450 -0.2236
 7412SOL     OW33868   4.686   4.075  16.679  0.0830  0.2004 -0.7445
 7412SOL    HW133869   4.650   4.136  16.743  1.1127 -0.0666  0.0875
 7412SOL    HW233870   4.712   3.991  16.716  3.3063  1.5575  0.1051
 7413SOL     OW33871   0.801   0.107   2.317  0.4889  0.0677 -0.5296
 7413SOL    HW133872   0.778   0.015   2.330 -2.6138  0.7385 -1.1079
 7413SOL    HW233873   0.895   0.106   2.304  0.6802 -0.7803  0.9142
 7414SOL     OW33874   0.646   2.197   4.556 -0.4450  0.3162  0.4682
 7414SOL    HW133875   0.620   2.191   4.648 -1.2788  2.7980  0.4039
 7414SOL    HW233876   0.648   2.105   4.531 -1.1769  0.6153 -0.6950
 7415SOL     OW33877   1.386   4.321   3.552 -0.3902  0.4288 -0.0300
 7415SOL    HW133878   1.451   4.364   3.607  0.5351 -1.2626  0.1857
 7415SOL    HW233879   1.435   4.256   3.503  0.8870  1.9809 -0.8240
 7416SOL     OW33880   0.759   1.871   8.292 -0.3820  0.4050 -0.1493
 7416SOL    HW133881   0.831   1.808   8.284 -1.2969 -0.6903  0.3147
 7416SOL    HW233882   0.732   1.861   8.200 -0.9287  1.3956 -0.0971
 7417SOL     OW33883   3.485   0.904   2.697  0.2192 -0.6179 -0.5597
 7417SOL    HW133884   3.420   0.864   2.755 -2.2484  2.2910 -1.3245
 7417SOL    HW233885   3.463   0.856   2.617  0.0749 -1.9156  0.2603
 7418SOL     OW33886   3.403   3.300   8.654 -0.2808 -0.5958  0.5609
 7418SOL    HW133887   3.471   3.233   8.663  0.5329  0.1562 -0.0046
 7418SOL    HW233888   3.417   3.330   8.564  0.5004  1.2519  1.3195
 7419SOL     OW33889   4.070   3.402   7.185 -0.3405 -0.4534  0.3604
 7419SOL    HW133890   4.040   3.399   7.276 -1.7680 -1.4213 -0.1401
 7419SOL    HW233891   4.003   3.348   7.142 -0.5883  1.0831 -1.2051
 7420SOL     OW33892   1.398   3.523   2.127  0.5223  0.3612 -0.9363
 7420SOL    HW133893   1.378   3.615   2.146 -0.3235  0.4063 -2.0268
 7420SOL    HW233894   1.476   3.517   2.181  2.1042 -0.5618 -3.3401
 7421SOL     OW33895   1.581   2.323   4.927 -0.1510 -0.6322 -0.3277
 7421SOL    HW133896   1.518   2.257   4.955 -1.4662  0.4797 -0.6694
 7421SOL    HW233897   1.622   2.268   4.860  3.4802 -0.2524  1.5646
 7422SOL     OW33898   0.832   0.304   8.078 -0.2393 -0.1808 -0.1112
 7422SOL    HW133899   0.814   0.279   7.988 -1.7654  1.3950 -0.2323
 7422SOL    HW233900   0.877   0.222   8.099  1.9553  0.7473 -1.1353
 7423SOL     OW33901   4.602   4.732  16.052  0.6366 -0.3183 -0.0746
 7423SOL    HW133902   4.651   4.651  16.067 -2.7414 -2.7922 -2.2907
 7423SOL    HW233903   4.572   4.729  15.962  1.1735 -0.6295 -0.2402
 7424SOL     OW33904   1.112   4.581   0.897  0.9703  0.1608  0.0246
 7424SOL    HW133905   1.048   4.611   0.832 -0.5451  4.0300  3.3004
 7424SOL    HW233906   1.068   4.607   0.978  1.1578  2.0425 -0.4744
 7425SOL     OW33907   3.492   0.325   5.455 -0.1178 -0.6120 -0.2149
 7425SOL    HW133908   3.483   0.374   5.373  0.3149 -2.3199 -1.2860
 7425SOL    HW233909   3.495   0.238   5.417 -2.8525 -1.0057  0.4672
 7426SOL     OW33910   1.090   4.305  11.880  0.2295 -0.1718 -0.3786
 7426SOL    HW133911   1.184   4.305  11.899 -0.3371  0.2538  2.4793
 7426SOL    HW233912   1.069   4.212  11.895 -1.9830  0.5084  0.6665
 7427SOL     OW33913   2.982   4.129   1.172 -0.6133 -0.2718 -0.6845
 7427SOL    HW133914   2.894   4.109   1.140 -1.8860 -0.7405  3.0476
 7427SOL    HW233915   2.967   4.222   1.190 -1.5548 -0.6260  0.3858
 7428SOL     OW33916   4.000   2.500  15.881  0.2105 -0.1576  0.0343
 7428SOL    HW133917   3.939   2.574  15.890  0.3660  0.0875 -0.8737
 7428SOL    HW233918   4.067   2.560  15.847  0.7873 -1.2325 -0.7223
 7429SOL     OW33919   1.389   3.818   4.651 -0.1258  0.0555  0.1494
 7429SOL    HW133920   1.440   3.808   4.571  0.7173  3.3461  0.2900
 7429SOL    HW233921   1.461   3.825   4.713  1.7956  0.2968 -2.1013
 7430SOL     OW33922   4.339   2.609   5.319  0.8024 -0.4208  0.4876
 7430SOL    HW133923   4.428   2.630   5.347  0.0275  1.6727  1.3933
 7430SOL    HW233924   4.361   2.537   5.261 -0.6894 -0.3307 -0.2023
 7431SOL     OW33925   3.853   0.078  15.355  0.0991  0.1963  0.0173
 7431SOL    HW133926   3.931   0.022  15.356  0.8017  1.2019  1.1524
 7431SOL    HW233927   3.786   0.033  15.304  0.9488  0.0389 -0.9547
 7432SOL     OW33928   4.594   2.066   4.435 -0.2433  0.2693 -0.2162
 7432SOL    HW133929   4.634   2.109   4.360  1.1129  0.7790  0.8190
 7432SOL    HW233930   4.501   2.077   4.416  0.8724  3.0147 -3.9106
 7433SOL     OW33931   3.679   3.620   4.109  0.0299  0.3018 -0.2441
 7433SOL    HW133932   3.769   3.602   4.137 -0.7132 -2.7173  0.2446
 7433SOL    HW233933   3.680   3.572   4.026  0.9621 -1.6142  0.8680
 7434SOL     OW33934   4.446   3.008   2.703  0.2778 -0.4780 -0.2607
 7434SOL    HW133935   4.524   3.003   2.758 -1.7851 -0.9574  2.6938
 7434SOL    HW233936   4.380   2.977   2.766  0.6511  1.5304  1.1233
 7435SOL     OW33937   0.761   0.323   3.507  0.2989  0.5924  0.3343
 7435SOL    HW133938   0.705   0.260   3.462  2.4342 -1.6209  0.8146
 7435SOL    HW233939   0.798   0.265   3.573  0.4254 -0.9620 -1.1079
 7436SOL     OW33940   0.071   2.344   4.892 -0.1773  0.1106  0.0852
 7436SOL    HW133941   0.074   2.369   4.985 -2.6744 -1.0447  0.4717
 7436SOL    HW233942   0.144   2.394   4.854 -1.0763  1.4418  0.0988
 7437SOL     OW33943   0.873   1.763   6.220 -0.2338 -0.7181  0.5115
 7437SOL    HW133944   0.839   1.785   6.306  0.4447  1.8582  0.1264
 7437SOL    HW233945   0.963   1.742   6.243 -0.4540 -0.6480  1.4450
 7438SOL     OW33946   3.646   3.929   3.474 -0.1432  0.2855  0.5034
 7438SOL    HW133947   3.720   3.871   3.456  1.4194  1.6889  2.5207
 7438SOL    HW233948   3.575   3.869   3.450  1.6298 -0.9579 -1.6642
 7439SOL     OW33949   2.527   0.650   2.235 -0.1220  0.4974 -0.3574
 7439SOL    HW133950   2.433   0.644   2.216 -0.4093  0.5872  1.0448
 7439SOL    HW233951   2.549   0.557   2.234 -1.1525  0.2704 -1.8402
 7440SOL     OW33952   1.541   2.812   4.892  0.0585  0.6446 -0.6865
 7440SOL    HW133953   1.572   2.731   4.932  1.0903  0.8711 -1.0198
 7440SOL    HW233954   1.625   2.849   4.864  0.0866  0.9204 -0.2320
 7441SOL     OW33955   1.393   2.150   2.327  0.0407 -0.1726  0.9457
 7441SOL    HW133956   1.323   2.178   2.385 -0.8967  0.0492 -0.2929
 7441SOL    HW233957   1.358   2.066   2.299  0.6111 -1.0730  2.9433
 7442SOL     OW33958   0.733   1.093   6.994  0.3854 -0.1211 -0.0275
 7442SOL    HW133959   0.672   1.110   7.066  0.4886  0.9429 -0.1979
 7442SOL    HW233960   0.678   1.052   6.928  0.4445 -0.1265 -0.0732
 7443SOL     OW33961   2.044   2.278   9.885  0.7826  0.0336  0.0349
 7443SOL    HW133962   1.981   2.324   9.941  2.3926 -0.8855  2.6497
 7443SOL    HW233963   2.090   2.229   9.954 -0.7716 -0.7671  0.5133
 7444SOL     OW33964   2.901   3.725   3.167 -0.3475  0.1147  0.9627
 7444SOL    HW133965   2.977   3.669   3.185  0.2527  1.5513  2.9122
 7444SOL    HW233966   2.824   3.674   3.193  0.6718 -1.2500  1.3222
 7445SOL     OW33967   3.847   4.069   4.942  0.0213  0.1202  0.1209
 7445SOL    HW133968   3.800   4.149   4.916 -0.6089 -0.6599 -1.1897
 7445SOL    HW233969   3.831   4.082   5.035 -1.6786  3.1976 -0.5704
 7446SOL     OW33970   4.433   3.363   0.725  0.0125  0.3526  0.7740
 7446SOL    HW133971   4.480   3.287   0.758  0.7385  0.2736 -0.4259
 7446SOL    HW233972   4.423   3.414   0.805 -1.3260  1.8489 -0.3566
 7447SOL     OW33973   0.038   2.692  17.256 -0.5221 -0.0241  0.4709
 7447SOL    HW133974   0.045   2.732  17.169  1.1564  0.6893  0.9378
 7447SOL    HW233975   4.691   2.738  17.276  0.8506  1.9908  1.4581
 7448SOL     OW33976   3.951   2.478   7.561  0.2048  0.2345  0.1838
 7448SOL    HW133977   4.005   2.514   7.631  0.4853  0.1085  0.0314
 7448SOL    HW233978   4.011   2.494   7.487  0.1325  0.5774  0.1968
 7449SOL     OW33979   4.632   3.231   8.052  0.3226  0.0163 -0.3548
 7449SOL    HW133980   4.678   3.201   8.131 -2.0394 -2.8990 -0.0949
 7449SOL    HW233981   4.704   3.218   7.989 -0.5367  3.0777 -1.9689
 7450SOL     OW33982   1.034   0.599   9.577 -0.1223  0.1941 -0.0488
 7450SOL    HW133983   0.967   0.599   9.509  0.2040 -0.6544 -0.3671
 7450SOL    HW233984   1.062   0.691   9.579  0.8182 -0.0824 -0.7529
 7451SOL     OW33985   0.742   2.915   6.372 -0.2597 -0.1122 -0.2048
 7451SOL    HW133986   0.722   2.826   6.397 -0.9862 -0.3146 -1.5073
 7451SOL    HW233987   0.791   2.932   6.452 -0.7383 -0.0136  0.0647
 7452SOL     OW33988   3.323   4.145   5.277  0.5469 -0.1030  0.0258
 7452SOL    HW133989   3.356   4.057   5.261 -1.2510 -0.5575 -1.1166
 7452SOL    HW233990   3.400   4.193   5.309 -0.6410  0.2730  2.3237
 7453SOL     OW33991   0.361   2.062   3.466 -0.2730 -0.0299  0.7081
 7453SOL    HW133992   0.318   2.068   3.551 -2.5029  3.2463 -0.6597
 7453SOL    HW233993   0.421   2.137   3.465  3.2309 -2.8346  0.8353
 7454SOL     OW33994   3.162   3.071   6.453  0.2272 -0.2058  0.1430
 7454SOL    HW133995   3.082   3.075   6.401 -0.8200  0.0966  1.7833
 7454SOL    HW233996   3.227   3.020   6.404  1.5597  3.4654 -1.9426
 7455SOL     OW33997   3.167   1.754   7.738  0.5121 -0.1109 -0.0701
 7455SOL    HW133998   3.219   1.826   7.774  0.5392  0.8262 -1.9663
 7455SOL    HW233999   3.196   1.772   7.648  2.2070 -0.4569  0.3943
 7456SOL     OW34000   1.347   1.469   9.890  0.0893  0.4397 -0.2601
 7456SOL    HW134001   1.287   1.423   9.949  0.7751 -1.8020 -1.2861
 7456SOL    HW234002   1.291   1.534   9.847  1.3644  0.6171 -1.6401
 7457SOL     OW34003   3.029   3.240   0.266 -0.0425  0.8100 -0.2256
 7457SOL    HW134004   3.027   3.145   0.275  1.3084  0.8939  1.0438
 7457SOL    HW234005   2.945   3.264   0.304 -0.7987  1.4703 -2.3374
 7458SOL     OW34006   0.230   0.299   3.706  0.2977  0.3921 -0.3742
 7458SOL    HW134007   0.310   0.322   3.658  0.3422  0.5950 -0.2019
 7458SOL    HW234008   0.246   0.214   3.746  0.9142  0.1616 -1.1016
 7459SOL     OW34009   4.190   3.237   8.414 -0.3386  0.2670  0.3153
 7459SOL    HW134010   4.187   3.169   8.348 -2.6260 -0.2270  0.9016
 7459SOL    HW234011   4.197   3.316   8.360 -1.2519  1.8144  2.4282
 7460SOL     OW34012   1.636   0.752   9.290  0.2316  0.1794 -0.3488
 7460SOL    HW134013   1.557   0.753   9.235  0.5710  1.2844 -0.8078
 7460SOL    HW234014   1.601   0.763   9.379  0.8658  1.1951 -0.2262
 7461SOL     OW34015   0.930   1.153   9.502  0.3919  0.9723 -0.4555
 7461SOL    HW134016   0.978   1.234   9.484  2.0793  0.1953  0.6031
 7461SOL    HW234017   0.875   1.185   9.574 -2.4227  0.5352 -2.3826
 7462SOL     OW34018   4.187   1.181   5.286  0.4999 -0.2435 -1.0589
 7462SOL    HW134019   4.181   1.267   5.328 -1.8531 -0.6603 -0.5463
 7462SOL    HW234020   4.111   1.178   5.229 -0.5011  1.5766  0.1845
 7463SOL     OW34021   1.300   2.992   2.431  0.5836  0.4618  0.4999
 7463SOL    HW134022   1.334   3.070   2.386  0.3093  0.8207  0.9103
 7463SOL    HW234023   1.381   2.942   2.442 -0.6406 -1.4052  0.9378
 7464SOL     OW34024   2.403   3.916   5.938 -0.6425  0.1029  0.1172
 7464SOL    HW134025   2.351   3.886   6.013 -0.1279  0.8953  0.7925
 7464SOL    HW234026   2.400   3.836   5.886  1.5711 -0.9675  1.6110
 7465SOL     OW34027   0.098   2.107  10.830 -0.0478 -0.3944  0.0196
 7465SOL    HW134028   0.026   2.064  10.876 -0.8202  0.3077 -0.5109
 7465SOL    HW234029   0.100   2.058  10.747  0.6406  0.0959 -0.2537
 7466SOL     OW34030   3.349   2.777  11.450  0.2322 -0.0629 -0.2513
 7466SOL    HW134031   3.333   2.867  11.480 -0.5562  0.0615 -1.0503
 7466SOL    HW234032   3.384   2.740  11.531 -1.7112 -1.0657  0.1300
 7467SOL     OW34033   4.639   3.138   3.442 -0.2596 -0.2923 -0.2515
 7467SOL    HW134034   4.702   3.094   3.499 -0.5757 -1.6198 -0.9173
 7467SOL    HW234035   4.701   3.206   3.416  0.7715 -0.0646  2.8637
 7468SOL     OW34036   3.699   2.038  15.942 -0.3946  0.3062  0.3754
 7468SOL    HW134037   3.738   2.122  15.966  0.5552 -0.4037  1.3086
 7468SOL    HW234038   3.770   1.992  15.896  0.2209 -0.9916  2.6086
 7469SOL     OW34039   2.082   1.093  17.118  0.1101  0.0241 -0.2012
 7469SOL    HW134040   2.016   1.157  17.145  0.5003  0.3469 -0.0125
 7469SOL    HW234041   2.119   1.137  17.042  1.1957  0.0041  0.3159
 7470SOL     OW34042   2.484   2.457  12.293 -0.1486 -1.2853  0.3011
 7470SOL    HW134043   2.429   2.526  12.255  0.6545 -1.4498 -1.1542
 7470SOL    HW234044   2.449   2.466  12.382 -1.5912  0.8346 -0.4760
 7471SOL     OW34045   4.175   1.687   3.913  0.9156  0.0910  0.2470
 7471SOL    HW134046   4.081   1.671   3.926  1.0054 -1.6712 -1.2045
 7471SOL    HW234047   4.210   1.656   3.996  0.1433  1.2703  1.0047
 7472SOL     OW34048   0.189   3.966   4.115 -0.5658  0.0388  0.5049
 7472SOL    HW134049   0.217   3.992   4.203  1.9070  0.0027 -0.2586
 7472SOL    HW234050   0.234   3.881   4.116  0.6187  0.6746  0.7073
 7473SOL     OW34051   0.565   3.838  11.818  0.2751  0.1148  1.0581
 7473SOL    HW134052   0.533   3.748  11.828 -1.1841  0.6629  1.2204
 7473SOL    HW234053   0.655   3.834  11.786 -0.0061  3.7143 -0.2342
 7474SOL     OW34054   2.530   2.899   3.815  0.3027  0.0840  0.6436
 7474SOL    HW134055   2.448   2.949   3.813  1.4156  1.8001 -1.2860
 7474SOL    HW234056   2.593   2.970   3.818 -0.9277  1.1193  2.8486
 7475SOL     OW34057   3.004   1.093   1.376 -0.3155  0.4431  0.0391
 7475SOL    HW134058   3.070   1.024   1.373 -1.4432 -0.6200 -0.5070
 7475SOL    HW234059   2.997   1.119   1.284 -0.6626 -0.3670 -0.1595
 7476SOL     OW34060   3.442   0.501   2.438 -0.6728  0.5068  0.0739
 7476SOL    HW134061   3.517   0.507   2.379 -2.2611 -0.5049 -2.0497
 7476SOL    HW234062   3.418   0.408   2.433 -0.2084  0.3446  0.9023
 7477SOL     OW34063   4.103   3.834   2.742  0.1226 -0.1483  0.1574
 7477SOL    HW134064   4.016   3.822   2.779  0.5938  0.6895  1.5496
 7477SOL    HW234065   4.145   3.756   2.779  2.5749  0.0741 -2.1674
 7478SOL     OW34066   4.599   0.865   2.225 -0.4163 -0.2927  0.0223
 7478SOL    HW134067   4.688   0.897   2.240  0.0807 -1.9907  0.7642
 7478SOL    HW234068   4.555   0.940   2.184  0.6746  1.3137  1.8228
 7479SOL     OW34069   1.447   1.270   1.045  0.2317 -0.1114 -0.4339
 7479SOL    HW134070   1.519   1.282   0.983  1.5684  1.8860  1.5141
 7479SOL    HW234071   1.451   1.355   1.088  2.7789 -1.3324  1.7534
 7480SOL     OW34072   2.137   4.103  15.754  0.0797 -0.0199  0.0536
 7480SOL    HW134073   2.136   4.192  15.790  2.3579 -0.4311  1.1335
 7480SOL    HW234074   2.230   4.083  15.759  0.0531  0.0575  0.8165
 7481SOL     OW34075   0.495   3.527   9.154  0.0687 -0.4982  0.2784
 7481SOL    HW134076   0.470   3.510   9.063 -0.2187 -0.1263  0.2871
 7481SOL    HW234077   0.584   3.561   9.144  0.6039 -1.2522  2.4870
 7482SOL     OW34078   1.025   2.671   5.153 -0.1198 -0.9714 -0.2268
 7482SOL    HW134079   1.113   2.685   5.120 -0.4946 -0.1701 -0.8795
 7482SOL    HW234080   1.045   2.631   5.238  0.2365 -1.3990 -0.5090
 7483SOL     OW34081   4.612   0.040   6.812  0.3339 -0.2886 -0.0675
 7483SOL    HW134082   4.681   0.054   6.747 -0.4249  0.6400 -0.6765
 7483SOL    HW234083   4.643   4.724   6.886 -1.4083  0.0231  0.8607
 7484SOL     OW34084   4.031   2.219  12.624 -0.2605 -0.1487  0.0155
 7484SOL    HW134085   4.111   2.167  12.621 -0.5097 -0.6438  1.5930
 7484SOL    HW234086   3.989   2.175  12.550 -1.7457  2.7904 -0.8916
 7485SOL     OW34087   1.308   3.542   3.523 -0.0443  0.4764  0.0458
 7485SOL    HW134088   1.289   3.458   3.565  1.2017  0.0170 -0.2985
 7485SOL    HW234089   1.403   3.534   3.513  0.0614  0.4802  0.9620
 7486SOL     OW34090   0.095   2.705   1.008  0.3589 -0.2037  0.2723
 7486SOL    HW134091   0.077   2.691   0.915  1.9157  0.9631 -0.2033
 7486SOL    HW234092   0.095   2.619   1.050  1.7467 -0.0339  0.6185
 7487SOL     OW34093   0.477   1.458  16.354 -0.4694 -0.1701  0.2383
 7487SOL    HW134094   0.556   1.411  16.380  1.1917  0.1270 -4.3076
 7487SOL    HW234095   0.514   1.524  16.294 -0.9852 -1.4857 -1.5139
 7488SOL     OW34096   3.082   2.561   0.982 -0.4835  0.0098  0.3541
 7488SOL    HW134097   3.117   2.644   0.948 -2.2474 -0.4796 -2.6567
 7488SOL    HW234098   2.989   2.582   0.981  0.0392  2.2709 -1.0861
 7489SOL     OW34099   3.943   0.604   5.311  0.4209 -0.4849  0.0744
 7489SOL    HW134100   3.955   0.569   5.399  0.7872 -3.0258 -1.0149
 7489SOL    HW234101   3.986   0.690   5.316  0.2681 -0.4484  0.7129
 7490SOL     OW34102   3.561   0.109   2.973 -0.0124 -0.0581 -0.2155
 7490SOL    HW134103   3.582   0.016   2.983  0.7700  0.0546 -0.7584
 7490SOL    HW234104   3.485   0.123   2.918 -1.9542 -2.2821  1.8644
 7491SOL     OW34105   2.631   4.134   8.375 -0.1461  0.7057  0.3238
 7491SOL    HW134106   2.620   4.066   8.442  2.9270 -1.4432 -1.3573
 7491SOL    HW234107   2.584   4.084   8.308 -1.6605  0.2383  1.7284
 7492SOL     OW34108   3.854   2.224  16.599  0.1651  0.5883  0.2479
 7492SOL    HW134109   3.893   2.144  16.565 -0.2708  0.0096  1.1008
 7492SOL    HW234110   3.915   2.291  16.569  1.8928 -0.6214  1.0230
 7493SOL     OW34111   1.748   3.355   9.426 -0.3198 -0.3413  0.1331
 7493SOL    HW134112   1.710   3.365   9.513  1.8593  1.1308  0.9210
 7493SOL    HW234113   1.820   3.295   9.443  1.7401  2.8056  2.6321
 7494SOL     OW34114   1.990   4.529   9.546  0.0537 -0.0522 -0.5493
 7494SOL    HW134115   2.052   4.593   9.581 -0.8181  0.2626  0.4210
 7494SOL    HW234116   2.011   4.449   9.593  0.8388 -0.7006 -1.9922
 7495SOL     OW34117   0.055   0.955   0.027 -0.2741  0.0181 -0.5556
 7495SOL    HW134118   4.703   0.960  17.726 -0.7200  1.5112  0.6306
 7495SOL    HW234119   0.064   1.043   0.063  2.0590 -0.0201 -1.0287
 7496SOL     OW34120   4.711   2.564   8.296 -0.0234 -0.3280  0.1196
 7496SOL    HW134121   4.699   2.641   8.352 -2.3503 -1.0033  0.5518
 7496SOL    HW234122   4.627   2.561   8.250 -0.7652 -0.9692  1.5125
 7497SOL     OW34123   3.229   2.921   1.315 -0.0413  0.1747 -0.6252
 7497SOL    HW134124   3.151   2.925   1.259 -0.5150  0.8762  0.0715
 7497SOL    HW234125   3.301   2.905   1.254 -0.4130 -3.3489 -0.1138
 7498SOL     OW34126   2.385   4.032  15.307  0.0434 -0.3827  0.6642
 7498SOL    HW134127   2.311   4.013  15.364 -1.5563  1.8472 -0.6553
 7498SOL    HW234128   2.349   4.097  15.247 -0.2410  1.0701  2.4062
 7499SOL     OW34129   0.572   3.216  12.688  0.0054  0.8308  0.0210
 7499SOL    HW134130   0.607   3.153  12.752  0.3419  1.6150  0.6018
 7499SOL    HW234131   0.489   3.238  12.729 -0.4448  0.5787 -0.7509
 7500SOL     OW34132   2.351   0.998   4.915  0.3183  0.0426 -0.5906
 7500SOL    HW134133   2.299   1.066   4.958 -2.4926 -1.4354 -1.6761
 7500SOL    HW234134   2.284   0.932   4.933 -0.1999  0.6366 -0.3631
 7501SOL     OW34135   4.117   2.885   4.670 -0.4889 -0.1690  0.2868
 7501SOL    HW134136   4.022   2.893   4.659 -0.6088  0.1682  1.4925
 7501SOL    HW234137   4.148   2.965   4.627 -1.7979  0.9924  1.4472
 7502SOL     OW34138   2.443   2.070   5.967 -0.1593  0.1894  0.7371
 7502SOL    HW134139   2.379   2.035   6.029 -0.0253 -1.4890 -0.0802
 7502SOL    HW234140   2.507   2.108   6.028  0.8499  1.8897 -1.3802
 7503SOL     OW34141   2.588   1.531   7.229 -0.0105 -0.4926 -0.0771
 7503SOL    HW134142   2.657   1.502   7.169 -0.1690 -1.1266  0.0452
 7503SOL    HW234143   2.569   1.455   7.283 -1.1705  0.7516  1.2478
 7504SOL     OW34144   0.748   3.238  12.947 -0.2315  0.0448  0.5672
 7504SOL    HW134145   0.811   3.186  12.897  0.8342  0.9839  0.9384
 7504SOL    HW234146   0.813   3.295  12.988  0.2015  0.8875 -1.3135
 7505SOL     OW34147   3.031   0.704   7.834  0.0172 -0.0704  0.0427
 7505SOL    HW134148   3.077   0.676   7.755  1.9593 -1.6627  1.7497
 7505SOL    HW234149   3.031   0.631   7.897 -0.3654 -0.8485 -0.8657
 7506SOL     OW34150   1.850   1.174   4.805  0.7989 -0.0797 -0.3528
 7506SOL    HW134151   1.877   1.228   4.879  2.3371  2.2028 -2.5575
 7506SOL    HW234152   1.898   1.094   4.826 -2.1997 -1.4900  1.1055
 7507SOL     OW34153   2.607   4.689   5.018 -0.1511  0.5639 -0.2795
 7507SOL    HW134154   2.587   0.015   5.088 -0.5388 -1.3451  1.2688
 7507SOL    HW234155   2.609   0.003   4.935 -0.0030 -1.0722 -1.2597
 7508SOL     OW34156   0.443   1.077  11.481 -0.3290  0.4322  0.2961
 7508SOL    HW134157   0.427   1.009  11.417  2.2835 -0.0169  0.1323
 7508SOL    HW234158   0.443   1.144  11.412  0.5110  0.8932  0.7355
 7509SOL     OW34159   1.709   3.004   6.929  0.6381 -0.3024 -0.6221
 7509SOL    HW134160   1.760   3.046   6.998 -2.8197  0.7541  1.2838
 7509SOL    HW234161   1.778   2.951   6.890 -1.1548 -1.8397 -1.7247
 7510SOL     OW34162   1.087   3.634   3.036  0.6747 -0.3797  0.0607
 7510SOL    HW134163   1.038   3.605   3.113  0.3958  0.3042  0.1397
 7510SOL    HW234164   1.023   3.696   3.002  1.7886  0.2307 -0.9745
 7511SOL     OW34165   0.367   2.713  10.221  0.6355 -0.0037 -0.2687
 7511SOL    HW134166   0.310   2.658  10.275 -0.2071  0.5611 -0.5826
 7511SOL    HW234167   0.408   2.777  10.280 -0.2310 -0.1111  0.4555
 7512SOL     OW34168   0.247   3.832  11.166 -0.2276 -0.2499 -0.2731
 7512SOL    HW134169   0.179   3.869  11.111  0.4505 -1.1793 -1.7434
 7512SOL    HW234170   0.295   3.911  11.191 -0.2297  0.3395 -2.1280
 7513SOL     OW34171   4.147   2.294   7.690 -0.3164  0.2673 -0.1336
 7513SOL    HW134172   4.198   2.261   7.764  0.7656 -0.5285 -1.2430
 7513SOL    HW234173   4.107   2.217   7.651 -3.0044  1.7852 -0.3966
 7514SOL     OW34174   4.515   2.131   6.737  0.2719 -0.3331 -0.3031
 7514SOL    HW134175   4.532   2.037   6.745  0.0809 -0.0924  2.9214
 7514SOL    HW234176   4.600   2.175   6.741 -0.4660  1.1649 -1.0592
 7515SOL     OW34177   1.475   2.015   4.979  0.4858  0.2212 -0.0153
 7515SOL    HW134178   1.466   1.988   4.887  0.6069  1.8920 -0.5306
 7515SOL    HW234179   1.543   1.961   5.017  1.9378  1.6785 -0.5464
 7516SOL     OW34180   4.227   4.103   6.969 -0.3427  0.3044  0.2885
 7516SOL    HW134181   4.265   4.058   7.044  1.7658 -0.5505 -1.2972
 7516SOL    HW234182   4.182   4.179   7.006  1.4681  1.0347  0.9677
 7517SOL     OW34183   1.186   1.828   1.313  0.6353 -0.8099 -0.3055
 7517SOL    HW134184   1.127   1.889   1.357  1.1606 -1.6988  1.6035
 7517SOL    HW234185   1.217   1.879   1.238 -1.4746 -1.8005 -1.8692
 7518SOL     OW34186   2.178   2.373  17.072 -0.0776  0.4852 -0.9187
 7518SOL    HW134187   2.174   2.323  16.990  1.2719  1.2359 -1.4631
 7518SOL    HW234188   2.230   2.450  17.048 -0.4357  0.7696 -0.7761
 7519SOL     OW34189   2.096   1.618   5.228 -0.5217  0.4522 -0.0713
 7519SOL    HW134190   2.034   1.638   5.298  0.3279  2.2584  0.1596
 7519SOL    HW234191   2.177   1.587   5.267 -0.6854 -1.2729 -1.1128
 7520SOL     OW34192   3.761   1.907   7.035  0.2468  0.4662 -0.0387
 7520SOL    HW134193   3.680   1.901   6.985 -0.4362 -0.6458  1.2158
 7520SOL    HW234194   3.816   1.875   6.964 -1.1485 -0.5881 -0.6325
 7521SOL     OW34195   2.665   3.866  13.121  0.0101  0.5941 -0.5560
 7521SOL    HW134196   2.590   3.832  13.073  0.1572 -0.6124  0.0622
 7521SOL    HW234197   2.649   3.832  13.209  0.1715  1.5413 -0.1628
 7522SOL     OW34198   2.163   3.312   5.141  0.5028  0.1094 -0.1113
 7522SOL    HW134199   2.169   3.219   5.120  1.5258 -0.1362  1.2523
 7522SOL    HW234200   2.232   3.333   5.204  1.5449  1.1805 -1.6048
 7523SOL     OW34201   1.522   1.595  11.458  0.4208 -0.3670  0.1036
 7523SOL    HW134202   1.427   1.598  11.448  0.5590 -0.4202 -1.1761
 7523SOL    HW234203   1.548   1.542  11.383  2.4932  1.2095 -0.2645
 7524SOL     OW34204   4.167   4.201   0.419 -0.3342 -0.2218  0.0755
 7524SOL    HW134205   4.150   4.115   0.380  0.2527 -0.2049 -0.2222
 7524SOL    HW234206   4.238   4.231   0.363  0.1556  1.1870  1.4439
 7525SOL     OW34207   3.837   3.082   4.424  0.2651 -0.0311 -0.8886
 7525SOL    HW134208   3.932   3.073   4.431  0.1902 -0.3429 -0.2648
 7525SOL    HW234209   3.814   3.020   4.355 -1.8068  0.6797 -0.8449
 7526SOL     OW34210   0.262   1.824   5.499 -0.4125 -0.1642 -0.0584
 7526SOL    HW134211   0.338   1.881   5.488 -0.1906 -0.7589 -1.5919
 7526SOL    HW234212   0.309   1.745   5.528  1.5393  1.4141  1.1195
 7527SOL     OW34213   4.306   3.838   7.776 -0.0204 -0.3183 -0.3880
 7527SOL    HW134214   4.288   3.777   7.847  1.4709 -2.0049 -1.4605
 7527SOL    HW234215   4.271   3.923   7.803  0.5480 -0.4248  0.6694
 7528SOL     OW34216   0.974   3.244   1.336 -0.2041  0.2084  0.1732
 7528SOL    HW134217   1.057   3.284   1.310 -0.5731  0.0813 -1.2351
 7528SOL    HW234218   0.979   3.154   1.304 -1.5958 -0.1534  0.9524
 7529SOL     OW34219   1.280   3.221   3.078  0.0797  0.9886 -0.3380
 7529SOL    HW134220   1.243   3.263   3.001  1.3046  1.8779 -0.4401
 7529SOL    HW234221   1.318   3.293   3.128  2.4243  0.5905 -1.5320
 7530SOL     OW34222   0.229   3.339   8.628 -0.0036 -0.2716  0.4895
 7530SOL    HW134223   0.150   3.329   8.681  0.7165 -2.9510  1.0320
 7530SOL    HW234224   0.209   3.412   8.569  0.6753 -0.1553  0.4084
 7531SOL     OW34225   2.243   0.185  12.179  0.3567  0.6966 -0.1213
 7531SOL    HW134226   2.255   0.100  12.138  0.0378  1.0075 -0.8640
 7531SOL    HW234227   2.312   0.162  12.242  0.0062  0.6792  0.2586
 7532SOL     OW34228   0.729   3.006  13.122 -0.1727  0.2109 -0.6173
 7532SOL    HW134229   0.806   2.958  13.153  0.1950  0.4464 -1.1789
 7532SOL    HW234230   0.755   3.028  13.033 -0.0301  0.6289 -0.4751
 7533SOL     OW34231   0.045   2.351  14.614 -0.0459 -1.0101  1.0257
 7533SOL    HW134232   0.016   2.429  14.566 -1.2671 -0.4991  2.6058
 7533SOL    HW234233   0.070   2.389  14.698 -1.2822 -1.7825  1.7357
 7534SOL     OW34234   0.712   3.428  11.265  0.1189  0.5268  0.5766
 7534SOL    HW134235   0.717   3.382  11.349  1.5425  1.6177  1.0835
 7534SOL    HW234236   0.619   3.449  11.261 -0.1747 -0.9596 -0.8718
 7535SOL     OW34237   2.795   3.030   2.213 -0.1291  0.1690  0.2298
 7535SOL    HW134238   2.866   2.994   2.266  0.5096  0.1927 -0.6152
 7535SOL    HW234239   2.772   2.953   2.161  1.0842  0.9515 -1.4608
 7536SOL     OW34240   1.645   0.626   8.771 -0.1561 -0.2716 -0.5993
 7536SOL    HW134241   1.588   0.697   8.800  1.2674  0.2502  0.9277
 7536SOL    HW234242   1.646   0.578   8.854 -2.0809 -0.6721 -0.8189
 7537SOL     OW34243   2.003   3.582   3.938  0.0909  0.6960 -0.3418
 7537SOL    HW134244   1.972   3.565   3.849  0.2298 -0.6682 -0.1397
 7537SOL    HW234245   2.027   3.674   3.929 -2.5094  1.0417 -3.4519
 7538SOL     OW34246   0.986   4.367   4.718 -0.2658  0.1256  0.3574
 7538SOL    HW134247   0.992   4.297   4.653 -0.4681  0.0326  0.4403
 7538SOL    HW234248   1.078   4.392   4.726  0.5687 -3.5281  2.1869
 7539SOL     OW34249   3.428   0.867   2.303  0.0985  0.3733  0.2517
 7539SOL    HW134250   3.419   0.815   2.223  0.2155  0.1247  0.4010
 7539SOL    HW234251   3.355   0.848   2.362  0.6478 -0.5886  0.6283
 7540SOL     OW34252   2.287   3.516   7.182  0.2267 -0.5530  1.0192
 7540SOL    HW134253   2.308   3.567   7.104  1.5035 -3.9962 -0.9061
 7540SOL    HW234254   2.302   3.424   7.158  1.2869 -0.5030  1.4983
 7541SOL     OW34255   0.715   3.801   3.179  0.2903 -0.0524 -1.0867
 7541SOL    HW134256   0.773   3.766   3.111  0.0062 -3.5999  0.4492
 7541SOL    HW234257   0.779   3.835   3.242  1.1094 -0.7268 -1.5442
 7542SOL     OW34258   1.706   3.510  17.213  0.3502 -0.3025  0.0929
 7542SOL    HW134259   1.636   3.573  17.229  0.8516  0.2018  0.2907
 7542SOL    HW234260   1.718   3.518  17.118  1.3690  1.4739  0.3775
 7543SOL     OW34261   3.732   2.267  10.713 -0.2761 -0.2876  0.3127
 7543SOL    HW134262   3.809   2.213  10.733 -0.6585 -1.0099 -0.1534
 7543SOL    HW234263   3.746   2.360  10.733 -0.9358 -0.1950  0.3140
 7544SOL     OW34264   3.057   1.710   9.757 -0.4820  0.6709  0.3758
 7544SOL    HW134265   3.028   1.638   9.813  0.1402 -0.3121 -0.5528
 7544SOL    HW234266   3.151   1.707   9.775  0.2444  1.8826 -3.2009
 7545SOL     OW34267   4.350   3.011  12.320 -0.5684 -0.0651  0.2469
 7545SOL    HW134268   4.346   3.022  12.415  0.6629  1.2055  0.1542
 7545SOL    HW234269   4.323   3.100  12.296 -0.0308  0.5164  1.8269
 7546SOL     OW34270   3.283   1.978   8.333 -0.0730 -0.3642 -0.7555
 7546SOL    HW134271   3.332   2.050   8.294 -0.7702  1.3132  1.4524
 7546SOL    HW234272   3.196   2.018   8.341  0.6131  1.1324 -0.6421
 7547SOL     OW34273   3.112   3.777  10.220  0.0373 -0.2937  0.4110
 7547SOL    HW134274   3.038   3.729  10.183  0.6554 -1.9354  1.2803
 7547SOL    HW234275   3.082   3.795  10.309  0.3910 -0.7116  0.6161
 7548SOL     OW34276   2.931   2.440   1.238  0.5625  0.1131  0.0587
 7548SOL    HW134277   2.840   2.429   1.267  0.6586  1.4608  0.8620
 7548SOL    HW234278   2.948   2.534   1.237 -0.6395  0.3593  2.4925
 7549SOL     OW34279   1.201   1.958   6.639  0.2219 -0.0892  0.2188
 7549SOL    HW134280   1.137   1.901   6.595 -0.9671  2.0271 -0.7927
 7549SOL    HW234281   1.267   1.953   6.569  0.7360  1.5664  0.6010
 7550SOL     OW34282   2.649   4.389   8.991  0.5790  0.2242  0.0086
 7550SOL    HW134283   2.649   4.329   9.065  0.1068 -0.0165 -0.1844
 7550SOL    HW234284   2.641   4.332   8.914  2.4202  0.5290 -0.4166
 7551SOL     OW34285   0.244   0.363  15.584  0.6570 -0.5189 -0.3472
 7551SOL    HW134286   0.203   0.376  15.669  1.4729 -2.4470  0.3462
 7551SOL    HW234287   0.334   0.357  15.617  0.4003 -1.4928  0.1729
 7552SOL     OW34288   3.198   2.693   1.966  0.1382 -0.1996  0.1401
 7552SOL    HW134289   3.143   2.751   2.019  1.6246  0.8870  0.4873
 7552SOL    HW234290   3.278   2.745   1.959  0.7355 -1.2095 -0.5425
 7553SOL     OW34291   4.707   1.461   4.812 -0.7763 -0.4819 -0.1514
 7553SOL    HW134292   4.723   1.414   4.731  2.3768 -0.6820  0.5730
 7553SOL    HW234293   4.661   1.388   4.853 -0.2279 -1.6249 -1.6107
 7554SOL     OW34294   1.142   4.652   4.816 -0.3980 -0.0860 -0.0486
 7554SOL    HW134295   1.188   4.569   4.821  1.4226  0.9800  0.9360
 7554SOL    HW234296   1.209   4.708   4.857  0.8869 -0.6120 -1.4513
 7555SOL     OW34297   4.469   4.234   3.326  0.2384 -0.3637  0.1443
 7555SOL    HW134298   4.563   4.220   3.330  0.1540 -0.4821  1.6247
 7555SOL    HW234299   4.458   4.271   3.238 -3.4882 -3.3362 -0.6565
 7556SOL     OW34300   3.865   3.469  15.185 -0.3037  0.1785 -0.0267
 7556SOL    HW134301   3.785   3.518  15.203  0.1280  1.3114 -1.2401
 7556SOL    HW234302   3.907   3.488  15.269  0.9072 -3.1011  0.1298
 7557SOL     OW34303   0.232   3.353   5.010 -0.1906  0.2797 -0.2623
 7557SOL    HW134304   0.274   3.416   4.951 -0.3794  2.2467  1.6681
 7557SOL    HW234305   0.247   3.392   5.096 -2.6090  2.3868 -0.7904
 7558SOL     OW34306   2.287   2.524   8.780 -0.0386 -0.3819 -0.0401
 7558SOL    HW134307   2.254   2.459   8.841 -0.6929 -1.9945 -2.0990
 7558SOL    HW234308   2.203   2.554   8.744 -0.1782  0.1369  0.7274
 7559SOL     OW34309   2.718   0.959   3.058 -0.6077 -0.0489 -0.2312
 7559SOL    HW134310   2.777   1.030   3.081 -0.8352 -0.1941  0.8161
 7559SOL    HW234311   2.631   0.992   3.081 -0.7605  1.3985 -2.8657
 7560SOL     OW34312   0.370   1.955  12.780 -0.0052  0.2320  0.1293
 7560SOL    HW134313   0.282   1.991  12.771  0.1048  0.1384 -1.2214
 7560SOL    HW234314   0.404   1.958  12.691 -0.2909 -3.1538 -0.1010
 7561SOL     OW34315   0.818   2.445   8.687  0.1072 -0.6224  0.2157
 7561SOL    HW134316   0.814   2.530   8.730 -1.1237 -0.4019 -0.3067
 7561SOL    HW234317   0.781   2.451   8.598  1.4165  1.9914 -0.1278
 7562SOL     OW34318   2.901   0.530  10.576  0.1027  0.1712 -0.1671
 7562SOL    HW134319   2.917   0.578  10.494  1.2890  1.4661  0.8144
 7562SOL    HW234320   2.815   0.566  10.598 -0.0750 -0.8416  0.7947
 7563SOL     OW34321   4.401   1.825   8.965  0.1408  0.1456  0.2901
 7563SOL    HW134322   4.319   1.835   9.012  0.6928  0.1891  1.2393
 7563SOL    HW234323   4.453   1.889   9.015 -0.1032 -0.4720  1.3315
 7564SOL     OW34324   0.016   0.201   8.903 -0.1299 -0.0948  0.1846
 7564SOL    HW134325   4.666   0.242   8.889 -0.1166  0.9657  3.2038
 7564SOL    HW234326   0.046   0.237   8.986 -1.7740 -1.9639  1.5879
 7565SOL     OW34327   3.607   1.728  16.733 -0.6157 -0.1797  0.1353
 7565SOL    HW134328   3.660   1.756  16.658 -0.7803 -0.0770  0.0586
 7565SOL    HW234329   3.607   1.633  16.721 -0.6960 -0.2955  1.0760
 7566SOL     OW34330   2.822   3.806   2.602  0.2659 -0.0018 -0.2981
 7566SOL    HW134331   2.910   3.768   2.606 -0.6091 -2.0972 -1.1096
 7566SOL    HW234332   2.838   3.900   2.595  2.6549 -0.1356  3.0148
 7567SOL     OW34333   2.671   3.210   4.312 -0.1367 -0.4826  0.1793
 7567SOL    HW134334   2.750   3.254   4.343 -0.5050  0.0210  0.4040
 7567SOL    HW234335   2.710   3.129   4.279 -3.4866 -1.7553 -0.5999
 7568SOL     OW34336   2.802   3.084  11.959 -0.2736 -0.2835 -0.2512
 7568SOL    HW134337   2.714   3.116  11.937 -0.8970 -1.6223  0.3140
 7568SOL    HW234338   2.788   3.025  12.033  1.5358 -0.8372 -0.3536
 7569SOL     OW34339   3.828   4.640   8.123  1.0046  0.3469 -0.3353
 7569SOL    HW134340   3.829   4.698   8.046  1.4511  1.6000  0.5991
 7569SOL    HW234341   3.855   4.705   8.188 -1.4208  1.6525 -0.6532
 7570SOL     OW34342   3.242   1.941   4.901  0.1131  0.2033 -0.3704
 7570SOL    HW134343   3.228   1.977   4.989 -0.6577  2.0351 -1.2475
 7570SOL    HW234344   3.156   1.908   4.874 -0.7203  2.6857 -0.7041
 7571SOL     OW34345   0.483   3.737   4.545 -0.0521 -0.2047 -0.1189
 7571SOL    HW134346   0.518   3.655   4.579  1.9710  0.7259  0.0086
 7571SOL    HW234347   0.564   3.786   4.531  0.3062 -0.6175  0.5110
 7572SOL     OW34348   2.555   3.453   1.421  0.9716 -0.4073  0.3308
 7572SOL    HW134349   2.551   3.513   1.496  0.0400 -1.2550  0.9669
 7572SOL    HW234350   2.461   3.435   1.412  0.2652  2.4941  1.8103
 7573SOL     OW34351   0.868   0.134   6.931  0.3203 -0.5908 -0.2083
 7573SOL    HW134352   0.775   0.113   6.922 -0.3171  2.5139 -0.8910
 7573SOL    HW234353   0.862   0.212   6.986 -0.9177 -1.5219  0.9765
 7574SOL     OW34354   3.038   1.377   0.706 -0.2923  0.6425 -0.4993
 7574SOL    HW134355   3.081   1.378   0.620  0.4620  0.8807 -0.1182
 7574SOL    HW234356   2.948   1.368   0.674 -1.2784 -0.6771  2.6400
 7575SOL     OW34357   1.776   1.698   2.062 -0.3239  0.1631  0.2910
 7575SOL    HW134358   1.845   1.632   2.054  2.6364  3.2207  0.8777
 7575SOL    HW234359   1.802   1.736   2.145  0.9666 -1.2497  0.5297
 7576SOL     OW34360   4.240   2.556   3.970  0.2683  0.0875  0.1957
 7576SOL    HW134361   4.176   2.525   4.035  0.0471  1.0151  0.4150
 7576SOL    HW234362   4.307   2.488   3.972  0.3655  0.1729 -0.2195
 7577SOL     OW34363   1.215   3.116   9.683 -0.3659  0.7067  0.2681
 7577SOL    HW134364   1.284   3.113   9.749  0.6449 -1.3631 -0.9186
 7577SOL    HW234365   1.265   3.129   9.603  0.1787 -0.5926  0.3964
 7578SOL     OW34366   1.087   1.879  10.575 -0.1516  0.8022  0.0553
 7578SOL    HW134367   1.152   1.925  10.628 -0.9989  0.8196  1.0725
 7578SOL    HW234368   1.109   1.919  10.491  1.1032 -0.1925 -0.0845
 7579SOL     OW34369   3.313   2.092  11.593 -0.4206 -0.4453 -0.2618
 7579SOL    HW134370   3.326   2.035  11.518 -2.6074 -1.3200  0.0078
 7579SOL    HW234371   3.235   2.054  11.634 -1.4126  0.9371 -0.8308
 7580SOL     OW34372   4.260   0.264   7.974 -0.3633  0.0059  0.4570
 7580SOL    HW134373   4.249   0.283   8.067  0.6922 -2.1286  1.0158
 7580SOL    HW234374   4.205   0.185   7.970 -1.5035  0.6490  3.1962
 7581SOL     OW34375   3.032   0.697  14.308 -0.0170 -0.4158 -0.0839
 7581SOL    HW134376   2.995   0.640  14.376 -2.5984 -1.8600 -2.6642
 7581SOL    HW234377   2.961   0.680  14.247 -0.2916  1.3462 -0.2381
 7582SOL     OW34378   4.538   2.588   0.928 -0.4623  0.4424 -0.1450
 7582SOL    HW134379   4.596   2.517   0.957  0.1946  1.6607  1.5145
 7582SOL    HW234380   4.592   2.667   0.933 -0.6585  0.5528  0.2053
 7583SOL     OW34381   0.424   3.679   1.857 -0.3169 -0.0815  0.3300
 7583SOL    HW134382   0.388   3.678   1.768 -0.4252 -2.3537  0.3838
 7583SOL    HW234383   0.501   3.624   1.845  0.4721  0.9771  0.5279
 7584SOL     OW34384   2.684   0.362   6.616 -0.1223 -0.2400 -0.3477
 7584SOL    HW134385   2.727   0.388   6.534  0.4229 -1.7853 -0.5392
 7584SOL    HW234386   2.633   0.442   6.630 -1.8556 -1.4283 -0.0068
 7585SOL     OW34387   2.864   3.547   4.305 -0.3512 -0.6067 -0.3975
 7585SOL    HW134388   2.960   3.546   4.303 -0.3093  0.4842  1.1023
 7585SOL    HW234389   2.843   3.457   4.330  1.1359 -0.4437  1.4695
 7586SOL     OW34390   4.270   2.615   9.440  0.5363  0.3883  0.4411
 7586SOL    HW134391   4.207   2.678   9.476  1.4121  0.8492  1.1734
 7586SOL    HW234392   4.344   2.675   9.440  1.6619 -0.9742  0.7784
 7587SOL     OW34393   3.700   0.906   3.180  0.0857  0.7063  0.0193
 7587SOL    HW134394   3.731   0.816   3.178  0.3764  0.8190 -0.8974
 7587SOL    HW234395   3.677   0.917   3.272  1.2230  1.6175  0.1983
 7588SOL     OW34396   4.199   3.139   1.977 -0.1594 -0.5894  0.0867
 7588SOL    HW134397   4.149   3.163   1.899  0.6252 -1.8956 -0.8184
 7588SOL    HW234398   4.255   3.077   1.931 -1.1693 -0.8008 -0.8600
 7589SOL     OW34399   2.305   2.617   2.621 -0.2457 -0.1460  0.1454
 7589SOL    HW134400   2.295   2.605   2.526 -1.6676 -0.4674  0.3379
 7589SOL    HW234401   2.321   2.525   2.642  0.3264 -0.7551 -2.8285
 7590SOL     OW34402   0.194   4.135  15.101  0.4847  0.0376 -0.5825
 7590SOL    HW134403   0.131   4.206  15.091  0.6150  0.1903 -0.3252
 7590SOL    HW234404   0.234   4.137  15.014  0.0670  1.2852 -0.7490
 7591SOL     OW34405   0.141   4.401  12.169  0.3185  0.4113  1.0392
 7591SOL    HW134406   0.048   4.387  12.149  1.0031 -0.8936 -1.1596
 7591SOL    HW234407   0.125   4.409  12.264 -0.5533  1.7294  0.7904
 7592SOL     OW34408   1.068   2.637  13.367  0.5040 -0.0030 -0.9274
 7592SOL    HW134409   1.159   2.627  13.392 -0.5742 -1.7638  2.3127
 7592SOL    HW234410   1.074   2.579  13.292 -2.9830  0.2102 -1.3966
 7593SOL     OW34411   0.919   3.177   7.971 -0.4023  0.3598 -0.4676
 7593SOL    HW134412   0.857   3.208   7.905  1.6591  4.4509 -0.5068
 7593SOL    HW234413   0.961   3.110   7.918 -0.8990 -0.2514 -0.0779
 7594SOL     OW34414   0.046   1.229   0.103 -0.3720  0.1346  0.2303
 7594SOL    HW134415   0.078   1.233   0.193  0.2982  0.5977 -0.0363
 7594SOL    HW234416   4.691   1.261   0.105 -0.4407 -0.0341 -0.2042
 7595SOL     OW34417   0.680   1.229  16.400  0.9014 -0.8758  0.5757
 7595SOL    HW134418   0.761   1.258  16.358  1.4155 -1.4033  1.2056
 7595SOL    HW234419   0.706   1.166  16.467 -1.0505 -2.2309  0.0538
 7596SOL     OW34420   0.813   1.793  15.277 -0.2905  0.1836  0.3741
 7596SOL    HW134421   0.842   1.754  15.195 -1.4287 -0.0593  0.0897
 7596SOL    HW234422   0.718   1.779  15.279 -0.7816  3.0737 -1.4908
 7597SOL     OW34423   3.398   2.584   6.218  0.1727  0.4243 -0.1063
 7597SOL    HW134424   3.493   2.596   6.223  0.3504 -0.6899 -0.7009
 7597SOL    HW234425   3.381   2.493   6.195  1.1361  0.4476 -0.9317
 7598SOL     OW34426   1.929   2.638   3.147  0.3195  0.0656  0.0694
 7598SOL    HW134427   1.991   2.627   3.219  0.3376  0.1983  0.0737
 7598SOL    HW234428   1.925   2.733   3.140  0.4193  0.0449 -0.2857
 7599SOL     OW34429   2.335   3.225   4.515 -0.2205 -0.5535  0.1756
 7599SOL    HW134430   2.258   3.280   4.524 -0.2686 -0.3544 -1.4641
 7599SOL    HW234431   2.366   3.236   4.605  1.1447  0.8964 -0.4622
 7600SOL     OW34432   0.741   3.163   2.815 -0.3378 -0.0766  0.2355
 7600SOL    HW134433   0.694   3.220   2.876 -2.2197 -1.0745 -0.2626
 7600SOL    HW234434   0.819   3.216   2.803  0.1508 -0.6429  0.9374
 7601SOL     OW34435   3.549   1.726   0.661  0.3074 -0.4082 -0.1393
 7601SOL    HW134436   3.580   1.637   0.647 -2.1972 -1.3605  0.4249
 7601SOL    HW234437   3.455   1.718   0.643 -0.6808  2.7413  3.4701
 7602SOL     OW34438   3.440   4.204  10.933  0.3737  0.1046  0.2854
 7602SOL    HW134439   3.358   4.197  10.984  1.2058  1.5804  1.8290
 7602SOL    HW234440   3.419   4.270  10.868 -1.4920 -0.9010 -0.1531
 7603SOL     OW34441   2.233   3.854   9.447 -0.4255 -0.0285 -0.1829
 7603SOL    HW134442   2.308   3.795   9.454 -0.9291 -0.4953  1.2731
 7603SOL    HW234443   2.162   3.792   9.437  1.8347 -2.1254 -3.2500
 7604SOL     OW34444   3.506   2.101  15.707  0.3000 -0.3213  0.1919
 7604SOL    HW134445   3.485   2.159  15.781  1.4355 -0.0153  0.2813
 7604SOL    HW234446   3.552   2.034  15.757 -1.6848 -1.3740  0.5997
 7605SOL     OW34447   0.325   1.077   7.331 -0.2151 -0.5068  0.0682
 7605SOL    HW134448   0.256   1.010   7.337 -0.3942 -0.3251  0.0322
 7605SOL    HW234449   0.298   1.140   7.397 -0.6047 -1.4579  0.8076
 7606SOL     OW34450   2.234   3.790  10.394  0.6593 -0.4882 -0.6060
 7606SOL    HW134451   2.206   3.699  10.387 -0.2275 -0.1957 -0.8771
 7606SOL    HW234452   2.274   3.813  10.310  0.6221  1.8032 -0.0008
 7607SOL     OW34453   3.450   4.187   2.515 -0.5687  0.4756 -0.0747
 7607SOL    HW134454   3.388   4.155   2.581 -0.1716  0.2415  0.1880
 7607SOL    HW234455   3.486   4.102   2.490 -0.0213  0.8274 -0.4653
 7608SOL     OW34456   3.260   2.362   5.663  0.6251 -0.0440  0.3242
 7608SOL    HW134457   3.227   2.292   5.718 -0.4194  1.0447  1.0871
 7608SOL    HW234458   3.292   2.432   5.721 -0.1976  0.2960  0.3755
 7609SOL     OW34459   2.749   3.352   7.561 -0.2819  0.0427 -0.0950
 7609SOL    HW134460   2.774   3.435   7.521  0.3573  0.1055  0.4370
 7609SOL    HW234461   2.772   3.370   7.652  1.1335 -2.0680 -0.0222
 7610SOL     OW34462   2.471   4.382  13.282  0.5952  0.2433 -0.0774
 7610SOL    HW134463   2.562   4.395  13.307  0.0600 -1.1438  2.6029
 7610SOL    HW234464   2.458   4.294  13.317  0.0323  0.7299  0.9356
 7611SOL     OW34465   0.961   0.204   4.166  0.0388 -0.3050  0.2624
 7611SOL    HW134466   1.027   0.251   4.218  0.7152  0.8606 -1.6822
 7611SOL    HW234467   0.934   0.273   4.105 -1.2130 -0.1858  0.9536
 7612SOL     OW34468   3.696   1.800   2.617 -0.4360  0.1655 -0.2788
 7612SOL    HW134469   3.711   1.787   2.523 -1.6552 -0.0304 -0.4573
 7612SOL    HW234470   3.766   1.866   2.618  0.8612 -1.1857 -2.0329
 7613SOL     OW34471   2.519   0.036   6.775 -0.0745  0.0506 -0.0241
 7613SOL    HW134472   2.428   0.042   6.804 -0.7416  2.0241 -2.6201
 7613SOL    HW234473   2.578   0.040   6.851  1.2883  0.6100 -1.1128
 7614SOL     OW34474   3.904   2.273  11.311 -0.0397  0.5845  0.3810
 7614SOL    HW134475   3.896   2.194  11.364 -0.6037  0.4781  0.1305
 7614SOL    HW234476   3.939   2.231  11.233 -0.1466  0.3089  0.4802
 7615SOL     OW34477   2.987   4.271   8.566  0.1991 -0.9052 -0.7026
 7615SOL    HW134478   3.013   4.259   8.657 -1.3416 -0.4159 -0.1982
 7615SOL    HW234479   3.067   4.308   8.528  0.3401 -3.4967 -2.9322
 7616SOL     OW34480   2.956   4.340   2.842  0.1592  0.5295 -0.3523
 7616SOL    HW134481   3.034   4.365   2.890 -0.2653 -0.3742  0.8237
 7616SOL    HW234482   2.897   4.329   2.917 -0.7161  0.1253 -1.0941
 7617SOL     OW34483   4.489   0.347   7.836 -0.0029 -0.3395 -0.1308
 7617SOL    HW134484   4.447   0.282   7.891  0.5422 -0.7307 -0.1797
 7617SOL    HW234485   4.462   0.431   7.874  0.4429  1.7532 -4.2921
 7618SOL     OW34486   0.016   3.447   9.486  0.0098  0.0573 -0.2454
 7618SOL    HW134487   0.072   3.380   9.447  1.0387 -0.0043  1.3435
 7618SOL    HW234488   0.063   3.530   9.498 -0.9860  0.5978 -0.0388
 7619SOL     OW34489   2.222   1.962   1.228 -0.2993 -0.0069 -0.3561
 7619SOL    HW134490   2.280   2.032   1.198 -2.3837  2.2431  0.8671
 7619SOL    HW234491   2.268   1.885   1.196  0.9875  0.5022  0.2789
 7620SOL     OW34492   0.488   1.029  16.377  0.1211  0.0540 -0.4508
 7620SOL    HW134493   0.442   1.048  16.294  0.4255 -1.0264 -0.8637
 7620SOL    HW234494   0.551   1.100  16.377  0.2043 -0.0236 -0.0361
 7621SOL     OW34495   2.576   4.364  17.370  0.3118 -0.1361 -0.2796
 7621SOL    HW134496   2.663   4.391  17.400  0.3556  1.0490 -1.4817
 7621SOL    HW234497   2.592   4.350  17.277  2.0502  1.4365 -0.2329
 7622SOL     OW34498   0.260   0.975   0.261  0.1180 -0.2031  0.0003
 7622SOL    HW134499   0.275   1.040   0.193 -0.8163  0.9755  0.9214
 7622SOL    HW234500   0.237   0.901   0.205 -1.7595  1.2349 -1.1271
 7623SOL     OW34501   2.426   0.950   5.574 -0.2274  0.1295 -0.0934
 7623SOL    HW134502   2.384   1.036   5.570 -2.5837 -1.1351 -2.2430
 7623SOL    HW234503   2.474   0.948   5.492  1.0623  0.4698  0.6554
 7624SOL     OW34504   4.280   0.257   2.528  0.0905 -0.0896 -0.1234
 7624SOL    HW134505   4.342   0.330   2.526  1.6920 -1.4331  0.6557
 7624SOL    HW234506   4.220   0.296   2.465 -1.0644 -4.6730 -1.8818
 7625SOL     OW34507   2.429   1.391  11.519  1.0513  0.2514 -0.1471
 7625SOL    HW134508   2.497   1.333  11.486  2.0978  0.9807  0.7378
 7625SOL    HW234509   2.424   1.462  11.456  1.4916  0.4205  0.0131
 7626SOL     OW34510   2.941   0.791   0.108 -0.1978 -0.5309 -0.5484
 7626SOL    HW134511   3.018   0.839   0.077 -0.6976  1.5989  1.4902
 7626SOL    HW234512   2.870   0.854   0.118 -1.7567 -2.3693  0.0223
 7627SOL     OW34513   4.330   0.455   3.259 -0.2304  0.3033  0.2399
 7627SOL    HW134514   4.287   0.428   3.341 -0.4593  0.6850  0.2450
 7627SOL    HW234515   4.407   0.399   3.257 -0.3936  0.1444 -1.8003
 7628SOL     OW34516   2.022   2.272   7.688  0.0103 -0.2791 -0.0402
 7628SOL    HW134517   2.034   2.227   7.605  1.0885 -0.6469  0.3182
 7628SOL    HW234518   1.988   2.201   7.743 -0.7706  0.9600  1.0651
 7629SOL     OW34519   4.343   3.872   7.304  0.2514  0.0137  0.5317
 7629SOL    HW134520   4.311   3.962   7.297  1.5682  0.6019  2.1710
 7629SOL    HW234521   4.264   3.835   7.343 -0.0327  0.3042  0.2347
 7630SOL     OW34522   2.444   2.672   8.214 -0.7487  0.1960 -0.5705
 7630SOL    HW134523   2.521   2.707   8.259  0.3018 -1.6631 -0.9728
 7630SOL    HW234524   2.390   2.752   8.206 -1.0349  0.1222  0.6292
 7631SOL     OW34525   0.324   1.634   5.888  0.0353  0.2075 -0.3825
 7631SOL    HW134526   0.231   1.617   5.902 -0.4994  4.4299  1.1149
 7631SOL    HW234527   0.331   1.653   5.794 -1.9445 -0.6802 -0.7133
 7632SOL     OW34528   0.045   0.604  10.244  0.2831  0.9113  0.2226
 7632SOL    HW134529   4.713   0.616  10.177  1.3533 -0.6208 -1.1613
 7632SOL    HW234530   0.006   0.533  10.296  0.3766  0.8850  0.2568
 7633SOL     OW34531   3.878   0.142   4.193 -0.2797  0.1772  0.7986
 7633SOL    HW134532   3.885   0.211   4.127 -0.8281  0.9845  1.5882
 7633SOL    HW234533   3.802   0.092   4.162  0.7073 -0.6727 -0.2529
 7634SOL     OW34534   4.463   4.435   6.461 -0.2979 -0.1461 -0.5088
 7634SOL    HW134535   4.419   4.359   6.421 -0.2065  0.8005 -2.4100
 7634SOL    HW234536   4.529   4.387   6.511  0.5964  1.4555 -0.1473
 7635SOL     OW34537   0.576   1.129  11.823  0.2742  0.2564  0.0406
 7635SOL    HW134538   0.632   1.183  11.879  0.2867  1.5145 -1.1874
 7635SOL    HW234539   0.647   1.085  11.777 -0.6642  0.0121 -1.1526
 7636SOL     OW34540   3.773   2.118   2.089  0.4669 -0.8563 -0.5744
 7636SOL    HW134541   3.809   2.197   2.050 -1.2942  0.0782 -0.2795
 7636SOL    HW234542   3.840   2.097   2.155 -0.2768 -1.4033  0.0133
 7637SOL     OW34543   2.217   4.277   8.853  0.5308  0.9542  0.2771
 7637SOL    HW134544   2.259   4.359   8.827  3.5164 -0.3675  0.9849
 7637SOL    HW234545   2.209   4.287   8.947 -0.7986 -0.2114  0.2956
 7638SOL     OW34546   3.184   2.823   8.281 -0.3300  0.4053  0.6068
 7638SOL    HW134547   3.235   2.839   8.201 -2.5086 -1.7895 -1.2063
 7638SOL    HW234548   3.114   2.887   8.274 -1.8217 -1.5234 -1.7459
 7639SOL     OW34549   0.479   1.807   6.546  0.0603 -0.2472 -0.2620
 7639SOL    HW134550   0.391   1.839   6.566 -0.5744 -1.2810 -1.3370
 7639SOL    HW234551   0.514   1.783   6.632 -1.0613 -0.1656  0.2202
 7640SOL     OW34552   2.190   0.652   6.100  0.1650 -0.2694  0.2910
 7640SOL    HW134553   2.173   0.663   6.006 -0.3622  1.2927  0.5617
 7640SOL    HW234554   2.202   0.744   6.125 -1.3649 -0.4503  1.6549
 7641SOL     OW34555   1.650   0.797   6.627 -0.3038 -0.2735  0.0112
 7641SOL    HW134556   1.559   0.783   6.653 -0.5675 -0.9173 -1.2581
 7641SOL    HW234557   1.681   0.706   6.634 -0.7436 -0.6550 -2.9957
 7642SOL     OW34558   2.790   1.513  17.118 -0.7065  0.1961  0.0989
 7642SOL    HW134559   2.874   1.516  17.072 -0.1287 -0.3760  1.1370
 7642SOL    HW234560   2.733   1.492  17.043  0.4461 -0.0569 -0.6990
 7643SOL     OW34561   0.959   2.285   4.249 -0.1399 -0.1301  0.0195
 7643SOL    HW134562   1.042   2.309   4.289 -0.2542 -1.5513  1.0934
 7643SOL    HW234563   0.939   2.209   4.304 -1.7917  1.2159  1.2884
 7644SOL     OW34564   3.709   3.233  17.652 -0.5050 -0.7647 -0.4716
 7644SOL    HW134565   3.617   3.259  17.653  0.0110  1.0298 -1.2869
 7644SOL    HW234566   3.747   3.298  17.594  0.8759 -0.5021  0.7251
 7645SOL     OW34567   1.784   4.459   8.179  0.7097  0.3722 -0.3050
 7645SOL    HW134568   1.749   4.403   8.248 -0.0409  1.1091 -0.0839
 7645SOL    HW234569   1.833   4.524   8.230 -1.1725  0.4223  1.4122
 7646SOL     OW34570   3.652   1.619  16.401 -0.0843 -0.2067  0.0558
 7646SOL    HW134571   3.743   1.649  16.392 -0.1928  0.8922  2.6920
 7646SOL    HW234572   3.607   1.704  16.405  0.1676 -0.0825  0.2505
 7647SOL     OW34573   3.488   3.873   6.014 -0.7536  0.5808 -0.1893
 7647SOL    HW134574   3.471   3.823   5.934 -0.1752  0.3135 -0.1402
 7647SOL    HW234575   3.582   3.878   6.000 -0.9384 -1.0350 -1.9198
 7648SOL     OW34576   3.029   2.008   7.743 -0.2960 -0.3241 -0.2709
 7648SOL    HW134577   3.045   1.914   7.729  0.9277 -0.3569  1.4335
 7648SOL    HW234578   2.984   2.006   7.828 -2.9244 -0.3397 -1.6642
 7649SOL     OW34579   0.575   3.758   3.632  0.3385 -0.4392  0.3739
 7649SOL    HW134580   0.557   3.808   3.553  1.1330  0.3532  0.6971
 7649SOL    HW234581   0.594   3.833   3.688  1.5139 -0.8551  0.5433
 7650SOL     OW34582   3.876   1.782   0.039  0.3597 -0.4651  0.8224
 7650SOL    HW134583   3.836   1.772  17.692 -1.5073 -0.5723  1.6993
 7650SOL    HW234584   3.797   1.812   0.085  0.8607  0.8094  0.8495
 7651SOL     OW34585   1.525   1.302   4.999 -0.1449 -0.4580 -0.3143
 7651SOL    HW134586   1.603   1.357   4.991  0.3552 -0.7386  2.7374
 7651SOL    HW234587   1.455   1.353   4.958 -0.2815 -1.8553 -1.8215
 7652SOL     OW34588   1.440   0.317  12.619  0.2854 -0.2069  0.0532
 7652SOL    HW134589   1.360   0.330  12.668  0.8809  1.3199  0.6253
 7652SOL    HW234590   1.410   0.239  12.573 -2.6595  0.7319  0.3898
 7653SOL     OW34591   1.048   0.719   4.249  0.2991  0.1457 -0.3931
 7653SOL    HW134592   1.031   0.775   4.325 -0.9607 -0.9039  0.1013
 7653SOL    HW234593   1.134   0.752   4.221 -0.4855  0.3134 -2.6574
 7654SOL     OW34594   2.110   1.946   2.922 -0.0648 -0.2020  0.2296
 7654SOL    HW134595   2.098   2.017   2.984 -0.0219  0.0754 -0.0806
 7654SOL    HW234596   2.117   1.992   2.838 -2.4696 -0.7105 -0.2245
 7655SOL     OW34597   2.403   3.035   4.321  0.0979  0.3659 -0.0419
 7655SOL    HW134598   2.349   3.064   4.395  0.1483  1.5800 -0.4768
 7655SOL    HW234599   2.478   3.095   4.320  1.1811 -0.9706  1.0115
 7656SOL     OW34600   3.922   2.064   1.597  0.8646 -0.0167 -1.1546
 7656SOL    HW134601   3.943   1.997   1.662 -0.8391  0.1893 -0.3997
 7656SOL    HW234602   3.978   2.135   1.627  1.6032 -0.7814 -0.7189
 7657SOL     OW34603   4.144   1.338  14.741  0.1585 -0.5571 -0.4583
 7657SOL    HW134604   4.078   1.270  14.738 -0.9982  0.6776 -3.0051
 7657SOL    HW234605   4.116   1.413  14.793  3.1000 -0.4992  1.0705
 7658SOL     OW34606   3.122   1.815   7.425  0.2792 -0.1956  0.2150
 7658SOL    HW134607   3.030   1.830   7.446  0.6454  1.3838  0.6704
 7658SOL    HW234608   3.156   1.901   7.451  2.2794 -1.7157  2.5941
 7659SOL     OW34609   4.260   2.332   7.071  0.0109  0.5725 -0.2682
 7659SOL    HW134610   4.265   2.262   7.005 -1.6195  0.0306  0.1800
 7659SOL    HW234611   4.191   2.309   7.133 -0.3668 -0.4399 -1.0731
 7660SOL     OW34612   0.058   0.662   3.516 -0.2570  0.5520  0.2878
 7660SOL    HW134613   0.097   0.609   3.446 -0.8768  0.4855 -0.0078
 7660SOL    HW234614   0.135   0.654   3.573  1.0248  1.2348 -1.3569
 7661SOL     OW34615   4.362   0.226  15.721 -0.2208 -0.0481  0.0730
 7661SOL    HW134616   4.348   0.287  15.649 -2.6113  0.5929  1.0879
 7661SOL    HW234617   4.301   0.156  15.701  1.1013 -1.1992  0.0955
 7662SOL     OW34618   2.593   2.867   2.421 -0.4002  0.2565 -0.1718
 7662SOL    HW134619   2.639   2.826   2.494 -0.2274 -0.2064 -0.5477
 7662SOL    HW234620   2.568   2.790   2.371  1.1547 -1.0090  1.0151
 7663SOL     OW34621   3.773   0.733   5.544  0.2037 -0.6707  0.4212
 7663SOL    HW134622   3.864   0.752   5.569 -0.0979  0.2215  0.8671
 7663SOL    HW234623   3.744   0.817   5.508  0.8690 -0.9180 -0.6944
 7664SOL     OW34624   3.739   3.270   4.190 -0.1872  0.0926  0.7365
 7664SOL    HW134625   3.695   3.295   4.271 -0.0111 -0.7567  1.0950
 7664SOL    HW234626   3.686   3.197   4.157 -1.9585  1.6558  0.1361
 7665SOL     OW34627   1.274   3.175   5.175  0.2254 -0.4086 -0.0449
 7665SOL    HW134628   1.360   3.133   5.178  0.6311  0.3787 -0.5878
 7665SOL    HW234629   1.247   3.180   5.266 -0.5114  3.0203 -0.4555
 7666SOL     OW34630   4.629   0.376   9.345 -0.4851 -0.5725 -0.2288
 7666SOL    HW134631   4.645   0.352   9.436 -1.1502 -2.7748 -0.6978
 7666SOL    HW234632   4.563   0.312   9.319  2.2709 -3.0427 -1.2830
 7667SOL     OW34633   3.358   2.955   4.226  0.3502 -0.2603 -0.1071
 7667SOL    HW134634   3.301   2.946   4.150 -1.3569  0.0685  1.1335
 7667SOL    HW234635   3.445   2.966   4.187  0.4546 -2.5272 -0.5022
 7668SOL     OW34636   3.601   0.558   8.251  0.0962 -0.2551 -0.4229
 7668SOL    HW134637   3.579   0.555   8.158  1.1964  0.0088 -0.6983
 7668SOL    HW234638   3.606   0.650   8.275 -0.8102 -0.2933 -0.1051
 7669SOL     OW34639   3.908   0.439   4.074 -0.7976 -0.5265 -0.2716
 7669SOL    HW134640   3.931   0.530   4.095  0.4565 -1.3073  1.6322
 7669SOL    HW234641   3.999   0.413   4.060 -0.3216  0.9907  0.0366
 7670SOL     OW34642   1.566   1.433   5.696 -0.0431  0.2104 -0.4326
 7670SOL    HW134643   1.525   1.502   5.748  0.3259 -0.6596  1.0150
 7670SOL    HW234644   1.485   1.404   5.653  0.2484 -0.9131 -0.2268
 7671SOL     OW34645   3.246   0.401  16.242 -0.0194 -0.4972 -0.6358
 7671SOL    HW134646   3.241   0.481  16.190 -0.8517  0.2601  0.6168
 7671SOL    HW234647   3.219   0.421  16.331  0.5500 -1.1879 -0.3079
 7672SOL     OW34648   3.734   0.986   2.750  0.2193 -0.2177  0.3323
 7672SOL    HW134649   3.660   0.931   2.725 -2.1638  3.6055 -1.0402
 7672SOL    HW234650   3.702   1.018   2.835  0.4870  1.1211 -0.0651
 7673SOL     OW34651   3.754   4.141   3.062 -0.7283  0.2883  0.2536
 7673SOL    HW134652   3.799   4.120   2.981 -1.3528  0.3158 -0.1008
 7673SOL    HW234653   3.663   4.157   3.037 -0.9014 -3.6678 -1.6406
 7674SOL     OW34654   2.003   2.078   1.827  0.0382 -0.7695  0.0368
 7674SOL    HW134655   2.079   2.021   1.830  1.6291  1.4553  2.2340
 7674SOL    HW234656   1.925   2.022   1.827  0.9568 -2.0092 -0.8337
 7675SOL     OW34657   2.885   0.105  16.377 -0.6727 -0.2334  0.6719
 7675SOL    HW134658   2.817   0.171  16.388 -0.8815 -0.2711 -0.4513
 7675SOL    HW234659   2.890   0.050  16.456 -2.3859  0.2703  1.1335
 7676SOL     OW34660   1.014   2.739   8.992  0.2248  0.7003  0.0795
 7676SOL    HW134661   0.998   2.791   9.071 -1.1177  0.2829  0.0806
 7676SOL    HW234662   0.979   2.803   8.931 -1.5861 -0.6517 -0.2761
 7677SOL     OW34663   1.171   0.910   7.638  0.6931 -0.0008 -0.0134
 7677SOL    HW134664   1.238   0.932   7.574 -0.0334 -1.0929 -1.1540
 7677SOL    HW234665   1.222   0.865   7.706  1.2697  0.1033 -0.3735
 7678SOL     OW34666   1.275   1.957  10.748 -0.6300 -0.7477 -0.2611
 7678SOL    HW134667   1.329   1.896  10.797  1.6849  0.3693 -1.4354
 7678SOL    HW234668   1.313   2.039  10.779  0.0325 -0.6736 -1.2851
 7679SOL     OW34669   3.429   2.288   3.952  0.3947 -0.2602  0.0831
 7679SOL    HW134670   3.383   2.264   3.872  0.2183 -0.8362  0.3567
 7679SOL    HW234671   3.386   2.373   3.961  0.6334  0.0569 -1.6662
 7680SOL     OW34672   3.940   4.303   3.193 -0.1928 -0.2726 -0.5382
 7680SOL    HW134673   4.000   4.229   3.193  0.6993  0.4680 -1.8876
 7680SOL    HW234674   3.873   4.254   3.146  0.2856 -1.5195  0.0864
 7681SOL     OW34675   3.974   4.503   8.944 -0.1719  0.2323  0.3912
 7681SOL    HW134676   3.928   4.433   8.898 -2.1281  1.5846  0.2878
 7681SOL    HW234677   3.926   4.503   9.028 -0.2029  1.3516  0.3736
 7682SOL     OW34678   0.672   2.924   2.945  0.0479 -0.1511  0.9341
 7682SOL    HW134679   0.747   2.901   2.999  0.6088 -1.7682 -0.5245
 7682SOL    HW234680   0.700   3.009   2.911  0.6255  0.0494  1.9075
 7683SOL     OW34681   4.117   2.595   4.684  0.1508 -0.0606 -0.3705
 7683SOL    HW134682   4.022   2.581   4.685  0.2059 -0.4121 -0.2475
 7683SOL    HW234683   4.114   2.691   4.681  1.2056  0.0001  0.5943
 7684SOL     OW34684   1.497   3.176  13.295  0.0789 -0.3283 -0.3209
 7684SOL    HW134685   1.549   3.107  13.253 -0.3117 -2.3651  2.5427
 7684SOL    HW234686   1.434   3.198  13.227 -1.3411 -0.3802  0.9794
 7685SOL     OW34687   2.213   2.924   3.893 -0.1204 -0.4574 -0.0068
 7685SOL    HW134688   2.240   2.910   3.983 -0.4078 -0.5388  0.0675
 7685SOL    HW234689   2.164   2.843   3.881  1.3700 -1.4939  1.0775
 7686SOL     OW34690   1.439   2.708   9.993  0.3418  0.4617 -0.4428
 7686SOL    HW134691   1.457   2.788  10.043  1.1687 -0.9666  1.5336
 7686SOL    HW234692   1.485   2.639  10.040 -2.4340 -0.8540  0.3295
 7687SOL     OW34693   3.253   0.301  10.534 -0.1010  0.1721 -0.4201
 7687SOL    HW134694   3.241   0.233  10.600  2.0487 -0.5478 -0.7572
 7687SOL    HW234695   3.290   0.367  10.593  0.7845  1.2291 -2.1625
 7688SOL     OW34696   1.144   0.445   2.426  0.1560  0.1984  0.1658
 7688SOL    HW134697   1.091   0.522   2.404 -0.3742  0.6990  3.1726
 7688SOL    HW234698   1.192   0.422   2.346  0.7520 -1.0831  0.8887
 7689SOL     OW34699   3.558   1.252  12.070  0.5011  1.0575 -0.9197
 7689SOL    HW134700   3.529   1.319  12.007  0.2422  1.1551 -0.6985
 7689SOL    HW234701   3.589   1.191  12.003 -0.6866 -1.1200  0.5218
 7690SOL     OW34702   4.627   4.080  14.761  0.1970 -0.0883 -0.1220
 7690SOL    HW134703   4.551   4.120  14.803 -0.5648 -1.0837 -0.5687
 7690SOL    HW234704   4.626   3.995  14.804  0.7765 -0.6017 -1.1237
 7691SOL     OW34705   2.133   2.167   5.163  0.1394  0.1104 -0.1686
 7691SOL    HW134706   2.113   2.131   5.077 -0.5497  0.9290 -0.3467
 7691SOL    HW234707   2.169   2.251   5.136  2.9336 -0.5190  1.6130
 7692SOL     OW34708   0.850   3.254  17.659  0.3248  0.3415 -0.3196
 7692SOL    HW134709   0.828   3.174  17.706  2.0056  0.7132  1.0863
 7692SOL    HW234710   0.942   3.271  17.680  0.7611 -1.1808 -1.0096
 7693SOL     OW34711   1.135   3.405   8.286 -0.3196 -0.4433  0.3920
 7693SOL    HW134712   1.129   3.319   8.328  0.6914 -0.8445 -0.2855
 7693SOL    HW234713   1.174   3.381   8.202 -0.9905 -0.8340  0.1978
 7694SOL     OW34714   3.728   0.707   6.354 -0.3682  0.2265 -0.2576
 7694SOL    HW134715   3.686   0.624   6.371  0.9711 -0.3866  0.0910
 7694SOL    HW234716   3.782   0.709   6.433 -0.9344 -0.8308  0.1427
 7695SOL     OW34717   2.280   0.652   8.806 -0.1131  0.0443 -0.6220
 7695SOL    HW134718   2.223   0.580   8.779  0.9086 -0.4239 -1.4946
 7695SOL    HW234719   2.268   0.706   8.728 -3.0887 -0.2285 -0.3603
 7696SOL     OW34720   0.600   3.512  17.314 -0.7144  0.0590  0.6908
 7696SOL    HW134721   0.664   3.551  17.254 -0.3754  1.4482  1.9750
 7696SOL    HW234722   0.650   3.445  17.361  1.8371  1.5207  0.0822
 7697SOL     OW34723   2.088   2.335   6.626  0.3899 -0.1412 -0.3658
 7697SOL    HW134724   2.071   2.332   6.720 -1.5040  1.2542 -0.6671
 7697SOL    HW234725   2.157   2.269   6.629 -0.8593 -1.4690 -0.8185
 7698SOL     OW34726   1.693   3.143   5.760 -0.1107  0.2758 -0.4551
 7698SOL    HW134727   1.659   3.079   5.822  1.5976 -0.3722 -0.1682
 7698SOL    HW234728   1.654   3.224   5.792 -1.7288 -0.5551 -0.3165
 7699SOL     OW34729   1.557   3.509  13.162 -0.2893 -0.1577 -0.4073
 7699SOL    HW134730   1.602   3.543  13.239 -0.4067  0.1713 -0.4852
 7699SOL    HW234731   1.486   3.572  13.153 -0.9610 -0.7104  1.1678
 7700SOL     OW34732   1.128   2.346  13.622  0.3798  0.3593  0.2260
 7700SOL    HW134733   1.109   2.438  13.609 -1.0819  0.2226  1.4310
 7700SOL    HW234734   1.198   2.330  13.559  0.9529  1.3575  0.6292
 7701SOL     OW34735   0.901   0.847   3.345  0.3747 -0.1825  0.3785
 7701SOL    HW134736   0.954   0.927   3.349  0.6881 -0.3125 -1.2583
 7701SOL    HW234737   0.860   0.849   3.259 -0.2924  2.7822  0.7552
 7702SOL     OW34738   1.461   3.977   0.842  0.4023 -0.3190  0.4001
 7702SOL    HW134739   1.462   3.881   0.836 -2.2095 -0.0442 -4.2574
 7702SOL    HW234740   1.516   3.994   0.765  2.9656  0.0189  2.2736
 7703SOL     OW34741   2.250   2.367   9.730  0.1843 -0.0090  0.0764
 7703SOL    HW134742   2.286   2.283   9.701 -0.2566  0.0742 -0.6936
 7703SOL    HW234743   2.190   2.330   9.795  2.3523  1.5221  2.9501
 7704SOL     OW34744   0.280   3.434   7.612 -0.1573  0.0917  0.2146
 7704SOL    HW134745   0.201   3.459   7.660  0.7539 -0.2511  1.8824
 7704SOL    HW234746   0.261   3.476   7.527  1.8961  0.6998  0.0625
 7705SOL     OW34747   1.912   1.392   4.224 -0.3123 -0.0229 -0.3117
 7705SOL    HW134748   1.933   1.484   4.206  1.8115 -0.1167  1.6236
 7705SOL    HW234749   1.849   1.372   4.155  1.0788 -0.0775 -1.5588
 7706SOL     OW34750   3.270   2.454   4.708 -0.0395 -0.0133 -0.4120
 7706SOL    HW134751   3.268   2.479   4.615  0.9077  1.8916  0.0712
 7706SOL    HW234752   3.195   2.396   4.709 -0.0256  0.0234  1.5560
 7707SOL     OW34753   2.366   3.871  10.168  0.0916  0.3094 -0.3326
 7707SOL    HW134754   2.429   3.807  10.134 -2.3095 -2.1893 -0.1030
 7707SOL    HW234755   2.379   3.937  10.101 -2.3864  2.1160  0.9726
 7708SOL     OW34756   0.640   0.754  10.687 -0.0125 -0.8093  0.3570
 7708SOL    HW134757   0.649   0.833  10.634 -2.0257  0.5378  1.9912
 7708SOL    HW234758   0.700   0.769  10.760  0.2411 -2.4172  0.4669
 7709SOL     OW34759   2.201   2.469   5.614 -0.0025 -0.5660  0.1528
 7709SOL    HW134760   2.176   2.542   5.672  0.9865 -0.2800  0.2231
 7709SOL    HW234761   2.153   2.476   5.532 -0.5582 -2.4082  0.3201
 7710SOL     OW34762   0.008   1.203   5.783 -0.6262 -0.8207  0.5408
 7710SOL    HW134763   0.025   1.160   5.867 -0.0758 -1.2007  0.2298
 7710SOL    HW234764   0.048   1.286   5.808 -2.6629 -0.2876  2.0671
 7711SOL     OW34765   2.880   1.448   2.222  0.1223  0.3464  0.3629
 7711SOL    HW134766   2.969   1.419   2.204 -0.1810  0.3228 -1.0900
 7711SOL    HW234767   2.829   1.441   2.141 -2.6663  0.3480  2.1166
 7712SOL     OW34768   3.649   2.696  10.602 -0.9812 -0.1865  0.4223
 7712SOL    HW134769   3.699   2.777  10.603 -1.3683  0.0577 -0.3233
 7712SOL    HW234770   3.622   2.692  10.694 -1.5455 -3.1305  0.1442
 7713SOL     OW34771   0.511   3.807   4.250 -0.0886  0.6155  0.1749
 7713SOL    HW134772   0.507   3.737   4.316 -0.3329  0.0557 -0.4303
 7713SOL    HW234773   0.469   3.752   4.184 -0.3937  0.8645  0.1624
 7714SOL     OW34774   0.426   2.804   5.442 -0.2646 -0.4641  0.0363
 7714SOL    HW134775   0.371   2.796   5.364  0.5969  0.1413 -0.6492
 7714SOL    HW234776   0.506   2.836   5.400 -0.4246  1.3342  1.1099
 7715SOL     OW34777   0.109   4.113   6.065  0.2515 -0.2465 -0.4357
 7715SOL    HW134778   0.183   4.086   6.120 -1.1504 -0.9696  1.0785
 7715SOL    HW234779   0.033   4.096   6.121  0.7490 -2.5233 -0.4503
 7716SOL     OW34780   3.489   0.534   3.660  0.8885 -0.2363 -0.0641
 7716SOL    HW134781   3.484   0.448   3.701 -0.3710 -1.2934 -2.4323
 7716SOL    HW234782   3.400   0.553   3.628  0.5301 -1.7153  0.0511
 7717SOL     OW34783   2.124   3.413   4.542  0.0388 -0.5197  0.1352
 7717SOL    HW134784   2.042   3.403   4.591 -0.5509 -0.9039 -0.9209
 7717SOL    HW234785   2.085   3.385   4.459 -2.5651  2.1473  0.4540
 7718SOL     OW34786   1.461   0.921   6.239  0.3095 -0.4554 -0.7574
 7718SOL    HW134787   1.521   0.847   6.255 -0.6604 -0.6153  2.1407
 7718SOL    HW234788   1.515   0.996   6.263 -0.1990 -0.8689  1.6965
 7719SOL     OW34789   3.455   4.242  16.405 -0.3630 -0.5986 -0.0447
 7719SOL    HW134790   3.450   4.317  16.346 -1.9300 -1.6266 -1.2290
 7719SOL    HW234791   3.373   4.235  16.454 -0.3136 -0.5769  0.0408
 7720SOL     OW34792   4.202   2.318  12.001  0.2888 -0.3412 -0.0859
 7720SOL    HW134793   4.204   2.388  11.935  2.7291  1.0022  1.3752
 7720SOL    HW234794   4.226   2.367  12.080 -1.6052 -1.5374  1.2142
 7721SOL     OW34795   3.846   2.192   4.906  0.0576 -0.2182 -0.2356
 7721SOL    HW134796   3.828   2.252   4.834  0.1255  1.8732  1.4797
 7721SOL    HW234797   3.897   2.244   4.968  0.2923 -0.7091 -0.0224
 7722SOL     OW34798   1.822   1.322   1.730  0.4899 -0.6237 -0.1316
 7722SOL    HW134799   1.892   1.370   1.774 -0.6913 -0.0138  1.0637
 7722SOL    HW234800   1.758   1.392   1.718  0.4160 -0.9339 -1.6014
 7723SOL     OW34801   4.521   2.801   6.716  0.2113 -0.1698  0.2137
 7723SOL    HW134802   4.556   2.865   6.777 -0.8975  0.5859  0.0461
 7723SOL    HW234803   4.600   2.777   6.667  0.2475  0.8486 -0.2105
 7724SOL     OW34804   2.922   3.941   6.697 -0.0260 -0.5526  0.2524
 7724SOL    HW134805   2.960   3.853   6.700  1.2158  0.0159  1.4713
 7724SOL    HW234806   2.840   3.920   6.653 -0.1770 -1.4430  0.9448
 7725SOL     OW34807   0.767   1.098   9.236  0.5156 -1.3151  0.1388
 7725SOL    HW134808   0.701   1.049   9.285 -1.3996  0.7139 -0.3903
 7725SOL    HW234809   0.832   1.122   9.302  0.7576  1.6921 -1.2003
 7726SOL     OW34810   2.086   1.156   4.602  0.4077 -0.1019  0.1389
 7726SOL    HW134811   2.069   1.092   4.672  1.1754  1.9270  2.1935
 7726SOL    HW234812   2.015   1.131   4.543  1.5569 -2.3970 -0.2896
 7727SOL     OW34813   2.114   2.678   2.349 -0.4355  0.0995  0.0442
 7727SOL    HW134814   2.098   2.753   2.405 -0.0330 -0.6606  1.1647
 7727SOL    HW234815   2.136   2.725   2.268 -1.2128 -0.3292 -0.4188
 7728SOL     OW34816   2.455   2.702   6.651 -0.4351  0.3352  0.2269
 7728SOL    HW134817   2.543   2.669   6.669  0.4453  2.5742  0.0258
 7728SOL    HW234818   2.436   2.751   6.731 -2.4939 -1.1840  0.6605
 7729SOL     OW34819   3.900   2.240  17.244  0.1763  1.0730 -0.1802
 7729SOL    HW134820   3.827   2.228  17.183 -0.1732 -0.9311  0.6423
 7729SOL    HW234821   3.860   2.194  17.318  1.6980 -0.0487 -0.0614
 7730SOL     OW34822   0.785   3.753   4.934 -0.5950  0.2638 -0.0333
 7730SOL    HW134823   0.782   3.677   4.993 -1.6645  0.7625  0.5506
 7730SOL    HW234824   0.847   3.802   4.988  3.1324 -2.2300 -2.1065
 7731SOL     OW34825   2.542   1.523   0.741  0.3107 -0.2530 -0.3276
 7731SOL    HW134826   2.476   1.577   0.697  1.9714  3.1435  1.3855
 7731SOL    HW234827   2.538   1.452   0.677 -3.9949  2.6673 -3.3102
 7732SOL     OW34828   3.513   0.093   5.032 -0.0490  0.1036  0.0704
 7732SOL    HW134829   3.526   0.043   4.952 -1.9983  0.7338 -0.6383
 7732SOL    HW234830   3.418   0.108   5.034 -0.2990 -1.4542 -0.4847
 7733SOL     OW34831   2.515   1.949   4.535 -0.2293  0.2974 -0.1255
 7733SOL    HW134832   2.514   1.853   4.538  0.3665  0.2383 -1.9530
 7733SOL    HW234833   2.552   1.974   4.619  0.8890 -0.8075 -0.2851
 7734SOL     OW34834   0.675   1.567   2.090 -0.0797 -0.1579  0.1653
 7734SOL    HW134835   0.657   1.644   2.037 -0.0151 -1.2852 -1.4777
 7734SOL    HW234836   0.627   1.593   2.169  2.9026  1.7968  1.3148
 7735SOL     OW34837   1.413   1.273   6.176  0.7936 -0.2600 -0.7689
 7735SOL    HW134838   1.484   1.273   6.239  1.6219 -0.0731 -1.7118
 7735SOL    HW234839   1.454   1.245   6.095  3.0129 -1.6411  0.8439
 7736SOL     OW34840   2.997   1.268  10.894 -0.0309 -0.3016 -0.2099
 7736SOL    HW134841   3.084   1.288  10.858  0.4331 -2.1219 -0.1097
 7736SOL    HW234842   2.997   1.172  10.892  0.8468 -0.2694 -1.7484
 7737SOL     OW34843   3.264   2.439   4.444  0.2328  0.2823 -0.0415
 7737SOL    HW134844   3.280   2.352   4.409 -0.0556  0.4442 -0.5975
 7737SOL    HW234845   3.343   2.489   4.422 -0.3463  0.9650 -0.5868
 7738SOL     OW34846   2.362   0.878   6.514  0.5565 -0.4477  0.9706
 7738SOL    HW134847   2.302   0.837   6.576 -0.1653 -1.6106 -0.4802
 7738SOL    HW234848   2.413   0.947   6.557  1.3059 -0.1347 -0.3934
 7739SOL     OW34849   1.925   3.190  10.391 -0.3406 -0.9342 -0.2686
 7739SOL    HW134850   1.859   3.144  10.444  0.5792 -0.8121  0.9801
 7739SOL    HW234851   2.004   3.139  10.410 -0.1223  0.2456  1.9490
 7740SOL     OW34852   0.135   2.138   5.194 -0.4501  0.0109  0.0920
 7740SOL    HW134853   0.101   2.117   5.107  0.6730 -0.4373 -0.2338
 7740SOL    HW234854   0.136   2.233   5.183  4.0513 -0.2886 -1.9277
 7741SOL     OW34855   1.610   3.046  14.685 -0.0694  0.2980  0.0393
 7741SOL    HW134856   1.677   3.112  14.706  1.0451 -0.6836 -0.4060
 7741SOL    HW234857   1.568   3.085  14.608  0.2526 -0.7691 -0.6842
 7742SOL     OW34858   0.249   0.727   0.984 -0.2595  0.2038 -0.6388
 7742SOL    HW134859   0.180   0.711   1.048  0.2063 -0.9369 -0.4207
 7742SOL    HW234860   0.250   0.647   0.931  0.7930 -1.2271  1.5475
 7743SOL     OW34861   0.425   0.626   4.916 -0.4537  0.0523  0.3107
 7743SOL    HW134862   0.435   0.705   4.970  0.9019 -0.2315  0.4580
 7743SOL    HW234863   0.345   0.656   4.872 -1.0624 -1.1017  0.6202
 7744SOL     OW34864   1.740   2.740   7.605 -0.0270  0.4700  0.3126
 7744SOL    HW134865   1.753   2.667   7.665 -4.1997 -0.6166 -0.1325
 7744SOL    HW234866   1.703   2.809   7.660 -2.3121  0.5768 -1.3425
 7745SOL     OW34867   2.194   1.193   2.778  0.2846  0.2399 -0.1941
 7745SOL    HW134868   2.122   1.205   2.841  1.4081  2.0661  0.7354
 7745SOL    HW234869   2.228   1.108   2.807 -0.2061 -0.7637 -2.6122
 7746SOL     OW34870   3.578   2.449  12.911 -0.1530 -0.5041  0.3199
 7746SOL    HW134871   3.646   2.508  12.877 -0.7401 -0.2594 -0.4128
 7746SOL    HW234872   3.625   2.367  12.900 -1.0837 -0.9457 -0.2541
 7747SOL     OW34873   4.079   3.298   2.807  0.3015 -0.0354 -0.4358
 7747SOL    HW134874   4.174   3.297   2.797  0.2611 -0.1252 -0.7913
 7747SOL    HW234875   4.070   3.368   2.743 -0.1960  0.3280  0.0295
 7748SOL     OW34876   4.222   2.081   5.490  0.5621 -0.5181 -0.0120
 7748SOL    HW134877   4.270   2.066   5.571  0.5545  1.3409  0.3259
 7748SOL    HW234878   4.133   2.097   5.520  1.0750  2.4746 -0.1295
 7749SOL     OW34879   0.035   1.664   4.174  0.6391 -0.4337  0.6573
 7749SOL    HW134880   4.683   1.666   4.215 -0.2484 -1.5314 -1.1748
 7749SOL    HW234881   0.074   1.750   4.190 -1.5969  0.6198  0.3999
 7750SOL     OW34882   0.945   4.473  12.111 -0.1183 -0.3133  0.1583
 7750SOL    HW134883   0.954   4.395  12.057 -0.6948  0.6469 -1.3205
 7750SOL    HW234884   0.867   4.465  12.165 -0.1807  1.5759  0.3346
 7751SOL     OW34885   0.376   4.720   4.002  0.2018 -0.1379 -0.1353
 7751SOL    HW134886   0.316   0.021   3.937 -0.0446 -0.8165 -0.2841
 7751SOL    HW234887   0.439   4.674   3.946 -0.8437  0.6269 -1.9184
 7752SOL     OW34888   0.085   0.723  11.391 -0.1257  0.1464  0.1076
 7752SOL    HW134889   0.007   0.736  11.445 -1.0814  0.1449 -1.2374
 7752SOL    HW234890   0.048   0.743  11.304 -0.3616 -0.5191  0.0559
 7753SOL     OW34891   1.209   1.314   9.626  0.8759 -0.0951 -0.0567
 7753SOL    HW134892   1.125   1.353   9.603 -0.8083 -2.4038  2.2079
 7753SOL    HW234893   1.257   1.374   9.683  1.7868  0.0597 -0.9880
 7754SOL     OW34894   1.188   1.954  10.350 -0.4825 -0.0072  0.4528
 7754SOL    HW134895   1.152   1.946  10.261 -1.2693  2.0073  0.5804
 7754SOL    HW234896   1.230   1.868  10.348 -3.3139 -1.3648 -1.4002
 7755SOL     OW34897   2.538   3.238  15.983 -0.3170  0.0870 -0.2214
 7755SOL    HW134898   2.588   3.175  16.034  1.9618  0.6664 -1.7636
 7755SOL    HW234899   2.520   3.305  16.050  0.7410 -0.2497  0.3937
 7756SOL     OW34900   3.801   1.372   1.876 -0.5686  0.4226 -0.2975
 7756SOL    HW134901   3.809   1.351   1.782 -0.5338 -1.0516  0.0393
 7756SOL    HW234902   3.889   1.405   1.894 -0.4052 -0.5829  0.7308
 7757SOL     OW34903   0.718   0.010  10.263  0.1785  0.5290  0.3373
 7757SOL    HW134904   0.797   0.036  10.309 -0.2905  1.8141  0.4348
 7757SOL    HW234905   0.676   4.672  10.308 -0.5358  0.4071 -0.5245
 7758SOL     OW34906   0.328   1.957   5.951  0.2222  0.6806 -0.2757
 7758SOL    HW134907   0.285   1.878   5.920  2.1848 -0.4687 -0.0572
 7758SOL    HW234908   0.250   2.012   5.962 -0.9409 -1.1989  0.8328
 7759SOL     OW34909   2.880   1.117  15.682 -0.0458 -0.2341 -0.1390
 7759SOL    HW134910   2.881   1.159  15.595 -0.5846  0.1592  0.0479
 7759SOL    HW234911   2.892   1.197  15.733  0.3065  0.3696 -1.1501
 7760SOL     OW34912   0.933   3.562   3.244 -0.5433  0.0495 -0.3369
 7760SOL    HW134913   0.968   3.602   3.323 -1.5840 -0.8737  0.5823
 7760SOL    HW234914   0.860   3.512   3.281  2.1710 -2.6077  1.3877
 7761SOL     OW34915   0.230   0.416   6.496 -0.4213  0.0606 -0.0679
 7761SOL    HW134916   0.256   0.480   6.429  0.2911 -2.5777 -2.3056
 7761SOL    HW234917   0.139   0.400   6.470 -0.6614  1.6430 -0.2458
 7762SOL     OW34918   4.606   3.107   5.694 -0.9767  0.3786  0.2777
 7762SOL    HW134919   4.581   3.110   5.786 -0.7083  3.8059  0.2288
 7762SOL    HW234920   4.562   3.182   5.654 -1.2508 -0.7971 -1.6656
 7763SOL     OW34921   1.452   3.076  15.259 -0.2102 -0.1566 -0.4387
 7763SOL    HW134922   1.460   3.151  15.317 -2.6176  0.4980 -0.9386
 7763SOL    HW234923   1.538   3.084  15.218  0.4773 -0.6163  0.9287
 7764SOL     OW34924   4.502   0.203   7.507 -1.0446 -0.1896  0.2022
 7764SOL    HW134925   4.596   0.217   7.490 -0.9858 -0.2558  0.4674
 7764SOL    HW234926   4.507   0.127   7.565 -0.5622 -2.8833 -3.3632
 7765SOL     OW34927   4.715   4.616   2.323 -0.6476 -0.2458  0.2029
 7765SOL    HW134928   4.663   4.691   2.353 -2.1165 -0.6440 -1.3821
 7765SOL    HW234929   0.069   4.644   2.342 -1.0313  1.5950 -0.6651
 7766SOL     OW34930   3.185   0.894   6.293 -0.3732  0.1071  0.6178
 7766SOL    HW134931   3.112   0.945   6.259  0.5791  0.9966 -0.0891
 7766SOL    HW234932   3.132   0.821   6.325  0.9279 -2.2742 -2.6775
 7767SOL     OW34933   4.460   1.989   1.584 -0.0960  0.7612 -0.1348
 7767SOL    HW134934   4.415   2.045   1.521 -1.4345 -0.6116 -0.3921
 7767SOL    HW234935   4.384   1.951   1.627  1.5345 -1.4007  0.8111
 7768SOL     OW34936   4.701   0.317   6.427  0.1948 -0.6222  0.1942
 7768SOL    HW134937   4.726   0.339   6.337  0.1221  0.2917  0.3980
 7768SOL    HW234938   4.610   0.289   6.415  0.9999 -2.8370 -0.7015
 7769SOL     OW34939   4.369   4.303   5.483 -0.0566 -0.7248 -0.1355
 7769SOL    HW134940   4.327   4.217   5.472  0.4110 -0.9182 -0.3952
 7769SOL    HW234941   4.447   4.256   5.511 -0.5599 -1.8158 -0.5562
 7770SOL     OW34942   2.376   2.106   1.079  0.2960  0.3351 -0.2415
 7770SOL    HW134943   2.375   2.074   0.989 -2.0495 -1.4050  0.3751
 7770SOL    HW234944   2.465   2.139   1.091  0.4747  0.0887 -0.8964
 7771SOL     OW34945   4.222   2.677   4.364  0.1157 -0.7932  0.3456
 7771SOL    HW134946   4.203   2.760   4.407  4.1408 -0.1471  0.8341
 7771SOL    HW234947   4.158   2.651   4.297 -0.6352  0.0458  0.7410
 7772SOL     OW34948   1.569   2.842  17.215  0.5686  0.0772  0.2495
 7772SOL    HW134949   1.656   2.823  17.179  1.2745  1.5989  1.1683
 7772SOL    HW234950   1.586   2.920  17.268  0.6300 -1.3494  2.3027
 7773SOL     OW34951   3.192   1.823   4.552  0.8630  0.4602  1.3977
 7773SOL    HW134952   3.130   1.835   4.625  0.9271 -0.9490  1.6914
 7773SOL    HW234953   3.179   1.729   4.540  1.0566  0.5386  0.5698
 7774SOL     OW34954   0.829   2.551  12.656 -0.0633 -0.0824 -0.4453
 7774SOL    HW134955   0.793   2.574  12.570  1.2002 -0.3389 -1.0372
 7774SOL    HW234956   0.915   2.586  12.634  0.5623 -0.3746  1.5168
 7775SOL     OW34957   0.964   0.039   8.203 -0.0482 -0.0448  0.0713
 7775SOL    HW134958   0.995   4.705   8.263 -0.4181  0.2878  0.6498
 7775SOL    HW234959   0.907   4.725   8.145 -0.1174 -0.9758  0.9270
 7776SOL     OW34960   3.939   1.308   8.625 -0.9016  1.1918  0.1585
 7776SOL    HW134961   3.846   1.323   8.640 -1.3613  0.0313 -1.5127
 7776SOL    HW234962   3.972   1.337   8.710 -0.4155  1.3653 -0.0841
 7777SOL     OW34963   1.902   0.870   4.102 -0.3248 -0.1663  0.4528
 7777SOL    HW134964   1.831   0.927   4.130 -0.1656  0.6036 -0.7350
 7777SOL    HW234965   1.852   0.792   4.079 -0.1055  0.2886 -1.5358
 7778SOL     OW34966   2.659   2.669   0.659  0.1328 -0.3831 -0.2962
 7778SOL    HW134967   2.707   2.742   0.698  1.0077 -0.9001 -0.4080
 7778SOL    HW234968   2.591   2.716   0.612 -1.5445 -0.3545  2.1818
 7779SOL     OW34969   2.878   4.040   0.097 -0.0401 -0.4294 -0.2904
 7779SOL    HW134970   2.827   3.963   0.072  3.0168 -2.7072  0.6054
 7779SOL    HW234971   2.873   4.090   0.015 -0.0576  1.0810  0.6373
 7780SOL     OW34972   3.140   2.017   3.283 -0.2608  0.1046 -0.2757
 7780SOL    HW134973   3.139   2.008   3.188  0.7501  1.8863 -0.4668
 7780SOL    HW234974   3.080   1.947   3.307 -1.3846  1.4677  0.9124
 7781SOL     OW34975   4.232   1.075   9.778 -0.0167  0.1588 -0.7015
 7781SOL    HW134976   4.214   1.143   9.713  1.7416  2.0601  0.7881
 7781SOL    HW234977   4.203   1.119   9.858 -1.0049  0.1199 -1.0427
 7782SOL     OW34978   2.195   1.987   7.764 -0.1400 -0.1752  0.5039
 7782SOL    HW134979   2.283   2.022   7.778 -0.5007  0.5263  0.9900
 7782SOL    HW234980   2.198   1.928   7.839 -1.6136  0.9453  1.4478
 7783SOL     OW34981   0.848   0.618   2.493 -0.0457  0.1048  0.2210
 7783SOL    HW134982   0.798   0.536   2.492  0.9634 -0.4917 -1.7472
 7783SOL    HW234983   0.898   0.606   2.413 -3.3112  1.6906 -2.0340
 7784SOL     OW34984   3.854   1.886   6.676  0.0734  0.5158  0.3767
 7784SOL    HW134985   3.846   1.814   6.738 -0.4728  0.2549 -0.0035
 7784SOL    HW234986   3.815   1.848   6.597 -2.1318  0.2650  1.6042
 7785SOL     OW34987   2.944   0.951   2.480 -0.2762 -0.3295 -0.2101
 7785SOL    HW134988   2.932   1.025   2.420 -1.2256 -0.6138 -0.3806
 7785SOL    HW234989   2.950   0.880   2.416  2.6596  1.1936 -1.6130
 7786SOL     OW34990   0.815   4.296   2.884 -1.2307 -1.2079  0.1014
 7786SOL    HW134991   0.882   4.356   2.851 -1.5592 -0.6544  0.4435
 7786SOL    HW234992   0.872   4.237   2.932  1.5815  0.6435 -0.9606
 7787SOL     OW34993   3.592   0.093   4.501 -0.0821  0.3364  0.0486
 7787SOL    HW134994   3.633   0.117   4.584 -0.8757  0.6733  0.3388
 7787SOL    HW234995   3.643   0.014   4.481 -1.7666 -0.6162 -0.5279
 7788SOL     OW34996   3.494   3.468   7.962  0.5890  0.7211 -0.0013
 7788SOL    HW134997   3.573   3.469   7.909  1.6435  0.9770  1.5585
 7788SOL    HW234998   3.540   3.439   8.041  1.8054 -1.9454 -1.6927
 7789SOL     OW34999   4.304   2.208   7.895 -0.9783 -0.0893  0.0673
 7789SOL    HW135000   4.393   2.200   7.928 -0.3156  1.5259 -1.3258
 7789SOL    HW235001   4.279   2.115   7.903 -1.8620  0.2766  1.5309
 7790SOL     OW35002   4.004   2.194   8.431  0.5418 -0.7708  0.3763
 7790SOL    HW135003   4.099   2.205   8.445  0.4112 -0.5414  1.0976
 7790SOL    HW235004   3.972   2.197   8.522  2.0164  2.3399  0.7958
 7791SOL     OW35005   4.339   0.261   5.371 -0.0753 -0.1465  0.3269
 7791SOL    HW135006   4.363   0.196   5.305  0.3750  1.5671 -1.1988
 7791SOL    HW235007   4.423   0.304   5.386  0.0594  0.1573 -1.2963
 7792SOL     OW35008   1.823   0.905   9.549  0.3534  0.2405  0.1012
 7792SOL    HW135009   1.836   0.953   9.631  2.3433  0.1230 -0.1475
 7792SOL    HW235010   1.842   0.817   9.582  1.2074 -0.2769 -1.7853
 7793SOL     OW35011   3.309   2.541  11.844 -0.2304  0.5497 -0.0204
 7793SOL    HW135012   3.362   2.599  11.790  0.7950 -0.3526  0.0249
 7793SOL    HW235013   3.314   2.460  11.792 -1.1753 -0.9379  2.1905
 7794SOL     OW35014   1.113   2.700   4.091  0.2423  0.5360 -0.3076
 7794SOL    HW135015   1.036   2.746   4.057  0.5287 -0.9569 -2.9665
 7794SOL    HW235016   1.097   2.611   4.058  1.6443  0.1550  0.0181
 7795SOL     OW35017   3.114   2.636   7.248  0.2249 -0.1476 -0.7057
 7795SOL    HW135018   3.125   2.726   7.279 -1.4744  0.0691 -0.7048
 7795SOL    HW235019   3.202   2.598   7.252  0.4830  0.6184  0.8972
 7796SOL     OW35020   2.316   2.742  14.594  0.3259 -0.1898  0.2114
 7796SOL    HW135021   2.290   2.674  14.656 -1.4296 -0.3039 -0.6512
 7796SOL    HW235022   2.406   2.747  14.627  0.4535  1.2122 -0.3601
 7797SOL     OW35023   0.598   3.947   1.388 -0.4116 -0.3739  0.1600
 7797SOL    HW135024   0.538   3.903   1.327  1.7512  0.0180 -2.2188
 7797SOL    HW235025   0.532   3.960   1.456 -1.4432  1.3364 -1.1250
 7798SOL     OW35026   0.214   1.050   6.644 -0.1694  0.0060 -0.0617
 7798SOL    HW135027   0.227   0.957   6.629  0.8315  0.0578  0.4946
 7798SOL    HW235028   0.147   1.069   6.579 -0.3849 -1.0865 -0.1581
 7799SOL     OW35029   0.463   2.418   8.598  0.1694  0.0397 -0.7186
 7799SOL    HW135030   0.521   2.481   8.555  1.6753 -0.5225  0.4960
 7799SOL    HW235031   0.418   2.371   8.528 -1.8424  2.0339 -0.7842
 7800SOL     OW35032   3.000   2.820   3.251 -0.5616  0.7154 -0.3745
 7800SOL    HW135033   3.070   2.852   3.195  0.0735 -0.5505 -0.2918
 7800SOL    HW235034   2.978   2.731   3.224 -0.6357  0.8887 -0.8836
 7801SOL     OW35035   4.159   2.931   2.543 -0.8321 -0.7042  0.2019
 7801SOL    HW135036   4.226   2.891   2.488 -1.5428  1.2562 -2.0749
 7801SOL    HW235037   4.159   3.021   2.510  0.3790 -0.5478  0.6211
 7802SOL     OW35038   2.436   2.104   8.905  0.1034  0.1758 -0.1274
 7802SOL    HW135039   2.523   2.123   8.872 -0.2179 -0.5500 -1.3748
 7802SOL    HW235040   2.453   2.011   8.917  0.8907  0.3460  0.0272
 7803SOL     OW35041   3.163   1.663   7.189  0.4421 -0.3210  0.1408
 7803SOL    HW135042   3.135   1.719   7.261 -2.0915  1.4217 -2.2134
 7803SOL    HW235043   3.092   1.599   7.186  0.8791 -0.8082  0.0695
 7804SOL     OW35044   2.644   2.864   2.068  0.0548  0.0194 -0.1320
 7804SOL    HW135045   2.565   2.821   2.100 -0.6126  1.0788 -0.3533
 7804SOL    HW235046   2.605   2.951   2.067 -2.7181 -1.2441 -0.9442
 7805SOL     OW35047   2.104   0.145   8.606  0.0698 -0.2544 -0.4244
 7805SOL    HW135048   2.016   0.172   8.579  0.6675 -0.3979 -2.5401
 7805SOL    HW235049   2.154   0.133   8.525  0.6821  2.0894 -0.3955
 7806SOL     OW35050   1.006   3.802   7.420 -0.2441 -0.3898 -0.2413
 7806SOL    HW135051   0.969   3.752   7.493  0.9385  0.4957  0.9567
 7806SOL    HW235052   1.091   3.762   7.404 -0.0512  0.5369 -1.5852
 7807SOL     OW35053   3.680   2.584  12.452  0.0227  0.6399  0.0705
 7807SOL    HW135054   3.643   2.670  12.431 -3.5000 -0.5891  1.2054
 7807SOL    HW235055   3.724   2.556  12.372 -0.3197  0.8959 -0.2071
 7808SOL     OW35056   2.241   0.401   8.478  0.4982 -0.5047  0.0623
 7808SOL    HW135057   2.305   0.429   8.412  0.0017 -2.1279 -1.1255
 7808SOL    HW235058   2.183   0.347   8.423  0.3635 -1.5012  1.1896
 7809SOL     OW35059   2.359   4.297  13.987  0.2250 -0.1195 -0.3028
 7809SOL    HW135060   2.312   4.356  13.928 -0.1654  1.3062  1.4525
 7809SOL    HW235061   2.313   4.219  13.956 -0.9519  0.8497 -0.9966
 7810SOL     OW35062   3.799   3.506  13.545  0.3779 -0.5897  0.4775
 7810SOL    HW135063   3.789   3.459  13.628 -2.9524  0.6516  0.7706
 7810SOL    HW235064   3.882   3.554  13.547 -0.2782  0.4979  1.3179
 7811SOL     OW35065   0.534   0.337   6.389 -0.4742  0.4996 -0.6085
 7811SOL    HW135066   0.553   0.260   6.336  2.4492  0.5279  0.3874
 7811SOL    HW235067   0.511   0.405   6.326  0.4221 -2.0656 -3.7050
 7812SOL     OW35068   2.539   0.174   2.173 -0.1746  0.2327 -0.3257
 7812SOL    HW135069   2.460   0.174   2.227 -0.3254 -0.3203 -0.5426
 7812SOL    HW235070   2.501   0.193   2.087 -0.6334 -0.0390 -0.1884
 7813SOL     OW35071   1.320   1.409   5.179  0.3601  0.3364 -0.1132
 7813SOL    HW135072   1.276   1.401   5.095  1.7963  0.7722 -0.9087
 7813SOL    HW235073   1.408   1.427   5.147  0.1263  1.9464  0.1295
 7814SOL     OW35074   1.615   3.717   0.343  0.0842 -0.5980  0.0041
 7814SOL    HW135075   1.593   3.807   0.365 -0.1631 -0.2575 -1.6778
 7814SOL    HW235076   1.595   3.677   0.427  0.8046 -1.6653 -0.3349
 7815SOL     OW35077   1.339   2.844   4.095 -0.5167 -0.3754  1.1606
 7815SOL    HW135078   1.270   2.780   4.107  0.4861 -1.6113  0.3356
 7815SOL    HW235079   1.284   2.923   4.091  1.3221  0.7630 -1.7236
 7816SOL     OW35080   3.843   2.375   1.981  0.0096 -0.6662 -0.4462
 7816SOL    HW135081   3.766   2.403   1.931 -0.1071 -0.8409 -0.3662
 7816SOL    HW235082   3.828   2.428   2.059  2.3446  1.7242 -1.6468
 7817SOL     OW35083   2.204   4.725  16.339  0.8644 -0.4700  0.5463
 7817SOL    HW135084   2.133   4.707  16.401  0.2599 -0.8489 -0.2497
 7817SOL    HW235085   2.198   0.085  16.324 -3.0583 -0.9118 -0.7312
 7818SOL     OW35086   4.492   2.802  15.332 -0.1656 -0.1652  0.0724
 7818SOL    HW135087   4.526   2.715  15.351  2.0640  1.1950  2.2469
 7818SOL    HW235088   4.421   2.796  15.396 -3.2965  2.0028 -3.1719
 7819SOL     OW35089   1.435   1.115   6.787  0.0182 -0.3862 -0.0337
 7819SOL    HW135090   1.376   1.050   6.827 -2.7163  1.2714 -1.4061
 7819SOL    HW235091   1.429   1.186   6.851  1.6774 -0.9189  0.7235
 7820SOL     OW35092   0.025   3.752   6.703  0.3571  0.5044  0.0698
 7820SOL    HW135093   4.677   3.750   6.654 -0.1602 -0.6770  1.0058
 7820SOL    HW235094   0.007   3.804   6.781  2.2932 -0.1401  0.9341
 7821SOL     OW35095   1.627   0.480   1.922  0.0836 -0.0495 -0.2137
 7821SOL    HW135096   1.607   0.423   1.996  2.9332  2.9095  2.8516
 7821SOL    HW235097   1.721   0.491   1.935  0.1217 -0.9013  0.2152
 7822SOL     OW35098   2.026   2.902   8.351 -0.6884 -0.4297 -0.3193
 7822SOL    HW135099   2.000   2.900   8.444 -1.9867 -0.3700 -0.6773
 7822SOL    HW235100   1.938   2.915   8.316 -0.9506 -0.4322  0.3285
 7823SOL     OW35101   0.630   1.018   5.804 -0.0245 -0.3328  0.3250
 7823SOL    HW135102   0.574   1.095   5.797 -1.9881 -1.8908 -1.6270
 7823SOL    HW235103   0.613   0.988   5.714  0.0109  0.7056 -0.0260
 7824SOL     OW35104   2.902   0.405   7.785  0.2625 -0.3020 -0.6901
 7824SOL    HW135105   2.852   0.475   7.745  0.3778 -0.1331 -0.5400
 7824SOL    HW235106   2.981   0.406   7.730  0.2258  1.8882 -0.6749
 7825SOL     OW35107   4.567   3.163   7.757  0.3724 -0.1646 -0.2398
 7825SOL    HW135108   4.506   3.119   7.817  0.0272 -0.1627 -0.5862
 7825SOL    HW235109   4.637   3.099   7.767 -1.1641 -1.6366  1.0858
 7826SOL     OW35110   3.007   3.303   1.819 -0.8080 -0.9489  0.0578
 7826SOL    HW135111   3.046   3.318   1.733  0.8356 -2.3779  0.5537
 7826SOL    HW235112   2.917   3.270   1.812 -0.4061 -1.7822 -1.0955
 7827SOL     OW35113   1.712   2.074   3.691  0.4175  0.0627  0.2872
 7827SOL    HW135114   1.741   2.147   3.746  0.8257  0.1225 -0.0030
 7827SOL    HW235115   1.797   2.030   3.686  1.0478  1.4021 -0.6709
 7828SOL     OW35116   2.991   4.014   7.685 -0.4261 -0.1622  0.2637
 7828SOL    HW135117   2.961   3.977   7.602  0.6338  2.2110 -1.1854
 7828SOL    HW235118   2.997   4.105   7.655 -2.5413 -0.6871 -1.8051
 7829SOL     OW35119   3.172   2.042   1.326 -0.3250  0.3040  0.1766
 7829SOL    HW135120   3.250   1.987   1.333 -0.7075 -0.3929 -1.0161
 7829SOL    HW235121   3.128   1.992   1.257 -0.4401 -0.4241  0.7824
 7830SOL     OW35122   3.876   3.296   3.026  0.0223  0.2537  0.5556
 7830SOL    HW135123   3.919   3.306   2.941 -0.5779 -0.9908  0.1038
 7830SOL    HW235124   3.911   3.214   3.061 -1.8453 -1.8775 -2.5448
 7831SOL     OW35125   1.879   2.808   5.611  0.3649  0.3510  0.0690
 7831SOL    HW135126   1.839   2.724   5.590 -0.1908  0.5995  0.1337
 7831SOL    HW235127   1.941   2.817   5.539 -2.0732  1.0487 -1.9215
 7832SOL     OW35128   1.748   4.357   5.134 -0.0548 -0.3560  0.4975
 7832SOL    HW135129   1.815   4.419   5.106  0.7442 -1.2238  0.4502
 7832SOL    HW235130   1.719   4.319   5.051 -0.8142  2.0801 -0.3393
 7833SOL     OW35131   3.118   0.829   8.511  0.0039 -0.3926 -0.3252
 7833SOL    HW135132   3.099   0.835   8.418  0.4176  1.8053 -0.2787
 7833SOL    HW235133   3.060   0.762   8.546  2.1447 -2.8722 -1.5402
 7834SOL     OW35134   1.040   0.634   5.290  0.1798  0.5689  0.4498
 7834SOL    HW135135   0.972   0.659   5.227 -0.4343 -0.2582  0.7887
 7834SOL    HW235136   1.121   0.667   5.251  1.2224 -2.7736 -0.1493
 7835SOL     OW35137   4.618   3.618   0.728  0.3627  0.3998  0.1277
 7835SOL    HW135138   4.571   3.655   0.654 -0.7081 -1.7669 -0.2788
 7835SOL    HW235139   4.624   3.526   0.703 -0.2077  0.8395 -1.6449
 7836SOL     OW35140   2.750   2.888   8.019 -0.1329  0.4433 -0.1269
 7836SOL    HW135141   2.762   2.815   8.079 -2.5477  0.1782  0.0198
 7836SOL    HW235142   2.656   2.902   8.028  0.1563  2.3281  0.0289
 7837SOL     OW35143   4.354   2.083   4.278 -0.0483 -0.5903  0.3815
 7837SOL    HW135144   4.344   2.021   4.206  0.2601  0.6835 -0.7460
 7837SOL    HW235145   4.272   2.074   4.327  0.2632 -0.4941  0.9204
 7838SOL     OW35146   3.587   4.631   8.896  0.4510  0.2324 -0.3308
 7838SOL    HW135147   3.496   4.628   8.927  0.6947  0.9984  0.4470
 7838SOL    HW235148   3.581   4.677   8.812  1.3724 -0.4878 -0.7897
 7839SOL     OW35149   3.988   2.726   1.288 -0.0992  0.2407 -0.0847
 7839SOL    HW135150   3.947   2.674   1.219  1.1519 -2.5170  1.2871
 7839SOL    HW235151   3.983   2.677   1.369  0.3762  0.3917  0.0358
 7840SOL     OW35152   0.287   3.565   6.831 -0.0210  0.5904  0.0290
 7840SOL    HW135153   0.201   3.600   6.853  0.5228  1.6549  0.4949
 7840SOL    HW235154   0.265   3.473   6.822  3.0604 -0.1144 -0.4181
 7841SOL     OW35155   4.485   4.615   3.573 -0.4689  0.2027 -0.3259
 7841SOL    HW135156   4.396   4.613   3.609 -0.4828  1.6743 -0.2696
 7841SOL    HW235157   4.508   4.706   3.590 -1.5967  0.2748  0.8410
 7842SOL     OW35158   4.675   0.825  13.180  0.1325 -0.0689 -0.1183
 7842SOL    HW135159   4.614   0.898  13.172 -1.5270 -1.3244  1.1278
 7842SOL    HW235160   4.674   0.824  13.276  3.3580  2.8755 -0.0326
 7843SOL     OW35161   1.009   3.491   7.294 -0.4580 -0.4080 -0.0069
 7843SOL    HW135162   0.961   3.414   7.265 -0.3679 -0.3425 -0.3359
 7843SOL    HW235163   0.947   3.522   7.360 -2.5519  0.8024 -2.5222
 7844SOL     OW35164   3.968   0.099   9.691  0.4784 -0.2932  0.5869
 7844SOL    HW135165   3.913   0.023   9.672 -1.1582  0.6789  1.3415
 7844SOL    HW235166   4.036   0.062   9.747 -0.9901 -1.5097  1.5766
 7845SOL     OW35167   3.311   0.773   6.883 -0.3058 -0.3412 -0.0774
 7845SOL    HW135168   3.230   0.813   6.915  0.2225 -0.1455  1.0131
 7845SOL    HW235169   3.342   0.731   6.964  1.2658 -0.3080 -0.6605
 7846SOL     OW35170   1.643   4.722   3.269  0.5301 -0.4452 -0.1587
 7846SOL    HW135171   1.701   4.727   3.194 -0.7746 -1.3343 -1.2205
 7846SOL    HW235172   1.652   4.629   3.287 -0.2988 -0.5227 -0.1565
 7847SOL     OW35173   2.055   0.901  16.729  0.4237  0.3565  0.6328
 7847SOL    HW135174   1.983   0.962  16.714  1.5391  1.6562  0.5335
 7847SOL    HW235175   2.035   0.863  16.815 -0.8753 -1.2518 -0.4009
 7848SOL     OW35176   0.450   4.574   2.939  0.0740 -0.1468 -0.2981
 7848SOL    HW135177   0.501   4.649   2.971  0.2545 -0.7355  0.8192
 7848SOL    HW235178   0.377   4.624   2.904 -0.0054  0.8072  1.1967
 7849SOL     OW35179   3.615   0.772  13.848  0.2351 -0.2595  0.4394
 7849SOL    HW135180   3.707   0.757  13.872  0.1346 -0.1426  0.8897
 7849SOL    HW235181   3.631   0.830  13.774  0.3139  2.8708  2.9401
 7850SOL     OW35182   1.656   0.258  11.028 -0.6671 -0.1433 -0.4530
 7850SOL    HW135183   1.705   0.186  11.068  0.0550 -0.3331 -1.6747
 7850SOL    HW235184   1.650   0.221  10.940  0.8692  1.9631 -1.4325
 7851SOL     OW35185   2.493   1.352   3.773 -0.0606 -0.1856  0.1145
 7851SOL    HW135186   2.551   1.357   3.849  0.2638  1.2118 -0.2386
 7851SOL    HW235187   2.410   1.379   3.811 -0.4282  0.1020 -0.9047
 7852SOL     OW35188   3.596   1.632   8.277  0.5716  0.6770  0.3491
 7852SOL    HW135189   3.672   1.691   8.277  0.8032  0.3799 -0.0131
 7852SOL    HW235190   3.576   1.642   8.371  1.6120  4.1906  0.1726
 7853SOL     OW35191   1.723   0.617  10.253  0.3626 -0.1417 -0.1909
 7853SOL    HW135192   1.721   0.544  10.315 -0.0883 -0.6072 -0.7568
 7853SOL    HW235193   1.723   0.572  10.169  0.0765  0.9618 -0.7749
 7854SOL     OW35194   1.446   3.156   2.265 -0.3730  0.3944  0.7369
 7854SOL    HW135195   1.426   3.217   2.194  0.3491 -0.6143 -0.3173
 7854SOL    HW235196   1.542   3.157   2.261 -0.4298  1.2171 -0.4875
 7855SOL     OW35197   0.437   0.307   3.240 -0.0812  0.0764  0.3175
 7855SOL    HW135198   0.387   0.238   3.198  0.9800  0.2360 -1.1980
 7855SOL    HW235199   0.426   0.300   3.335  0.5115 -1.3897  0.2662
 7856SOL     OW35200   1.326   0.255   5.694 -0.0436 -0.3633 -0.1054
 7856SOL    HW135201   1.370   0.236   5.611 -2.2152 -0.8094 -1.1512
 7856SOL    HW235202   1.357   0.179   5.743  1.6144  1.1102  1.1355
 7857SOL     OW35203   3.755   4.038   8.469 -0.2690 -0.4449 -0.5412
 7857SOL    HW135204   3.770   4.132   8.466 -0.5802 -0.3623  0.3158
 7857SOL    HW235205   3.839   4.006   8.502 -0.2317 -1.5394 -1.7008
 7858SOL     OW35206   3.522   2.227   2.307  0.3512 -0.3439  0.1726
 7858SOL    HW135207   3.439   2.181   2.295  0.1057  0.2718 -0.5422
 7858SOL    HW235208   3.548   2.240   2.216 -0.6699  0.0327 -0.0681
 7859SOL     OW35209   1.061   1.777   7.088  0.2624 -0.1309 -0.3921
 7859SOL    HW135210   1.002   1.806   7.018 -0.6141 -1.0486 -0.0359
 7859SOL    HW235211   1.047   1.685   7.108 -2.4159  0.3692  0.0990
 7860SOL     OW35212   1.307   0.007   8.234  0.1289  0.1051  0.3672
 7860SOL    HW135213   1.239   4.675   8.245 -1.7928  1.6349 -2.0695
 7860SOL    HW235214   1.378   4.689   8.197 -2.3870 -1.4539 -2.2368
 7861SOL     OW35215   1.567   4.395   3.071 -1.0641 -0.0585 -0.2393
 7861SOL    HW135216   1.585   4.454   3.145 -1.3175 -2.1066  1.4602
 7861SOL    HW235217   1.621   4.319   3.092 -1.2455 -0.1475 -0.1036
 7862SOL     OW35218   0.445   1.660   5.599  0.4944 -0.4381 -0.2448
 7862SOL    HW135219   0.479   1.739   5.640 -3.6506  0.7075  1.0070
 7862SOL    HW235220   0.505   1.592   5.631 -1.5285 -2.0019  0.2764
 7863SOL     OW35221   3.320   1.036   7.220  0.2260 -0.3156  0.6440
 7863SOL    HW135222   3.375   1.110   7.248  1.7617 -2.0688  2.3252
 7863SOL    HW235223   3.250   1.033   7.285  0.7743 -2.1809  1.1393
 7864SOL     OW35224   1.924   3.139   9.459  0.3819  0.2933 -0.0172
 7864SOL    HW135225   1.861   3.125   9.530  1.0886  0.6847  0.6830
 7864SOL    HW235226   1.915   3.050   9.424 -1.3353  0.0124  1.1069
 7865SOL     OW35227   3.749   0.144   4.755 -0.2258 -0.0282  0.5061
 7865SOL    HW135228   3.835   0.145   4.796  0.0585 -0.2098 -0.0946
 7865SOL    HW235229   3.716   0.063   4.795 -0.9392 -0.1805 -0.3887
 7866SOL     OW35230   0.311   3.959   0.728 -0.4109  0.1038 -0.3926
 7866SOL    HW135231   0.254   3.895   0.770 -2.3352  1.8123 -0.3704
 7866SOL    HW235232   0.278   4.043   0.761 -0.5258 -0.5728  1.2415
 7867SOL     OW35233   2.468   2.396  11.612  0.0916 -0.6793 -0.1390
 7867SOL    HW135234   2.479   2.460  11.542  2.0575 -0.6310  0.2152
 7867SOL    HW235235   2.407   2.338  11.566  1.5336  0.0679 -3.0390
 7868SOL     OW35236   1.564   3.890  16.204 -0.2757  0.3688 -0.1343
 7868SOL    HW135237   1.605   3.934  16.130  3.0957  0.1361  1.6200
 7868SOL    HW235238   1.643   3.839  16.216 -1.0764 -1.2133 -1.5598
 7869SOL     OW35239   2.662   2.237  12.396 -0.3488 -0.2426 -0.1885
 7869SOL    HW135240   2.592   2.300  12.379 -0.5404 -0.5517 -0.5435
 7869SOL    HW235241   2.738   2.275  12.351 -0.5972 -1.3545 -1.5474
 7870SOL     OW35242   3.963   3.446  15.990 -0.3068 -0.2907 -0.2115
 7870SOL    HW135243   4.001   3.426  15.905  1.8647 -0.3062  0.7579
 7870SOL    HW235244   4.021   3.507  16.035  2.4786 -2.3708 -0.9543
 7871SOL     OW35245   3.276   0.846   8.217  0.0702  0.0429  0.0935
 7871SOL    HW135246   3.290   0.751   8.215  0.8763  0.1311  1.0924
 7871SOL    HW235247   3.226   0.865   8.139  0.7626 -2.3720 -0.9337
 7872SOL     OW35248   0.067   3.362   7.124 -0.0796 -0.1516  0.5032
 7872SOL    HW135249   0.068   3.455   7.103 -1.0733 -0.0036  1.1222
 7872SOL    HW235250   0.108   3.360   7.210  1.8482 -1.0291 -0.4407
 7873SOL     OW35251   4.158   0.642  13.812 -0.2620  0.2220 -0.2391
 7873SOL    HW135252   4.231   0.589  13.780 -0.5825  0.6286 -1.6302
 7873SOL    HW235253   4.180   0.642  13.905 -1.0542 -0.8936 -0.0556
 7874SOL     OW35254   0.511   3.827   6.179 -0.4550  0.1047  0.0408
 7874SOL    HW135255   0.579   3.760   6.178 -0.8284 -0.2755  0.0433
 7874SOL    HW235256   0.549   3.878   6.251 -0.7488  1.4973 -0.7692
 7875SOL     OW35257   2.810   1.375   6.147 -0.3373 -0.1792  0.4313
 7875SOL    HW135258   2.836   1.466   6.130  0.0349 -0.2204  0.7809
 7875SOL    HW235259   2.859   1.368   6.229  1.4567 -0.1727 -0.6367
 7876SOL     OW35260   2.593   3.649   7.797  0.5782 -0.4420 -0.0644
 7876SOL    HW135261   2.621   3.710   7.865 -0.4843 -1.0575  0.9077
 7876SOL    HW235262   2.674   3.599   7.784  3.0178  2.8761  2.2035
 7877SOL     OW35263   0.030   1.975   7.557 -0.1122 -0.3479 -1.0042
 7877SOL    HW135264   0.027   1.955   7.651  0.5675 -2.2048 -1.3778
 7877SOL    HW235265   4.672   1.964   7.535  0.6102 -2.2176 -3.1204
 7878SOL     OW35266   4.142   2.511   3.040  0.2204 -0.2222  0.0343
 7878SOL    HW135267   4.135   2.478   3.129 -0.2249 -0.2377 -0.0073
 7878SOL    HW235268   4.198   2.587   3.057  0.0319  0.0600 -0.5943
 7879SOL     OW35269   2.456   4.059   7.504 -0.4051  0.1060 -0.1651
 7879SOL    HW135270   2.362   4.070   7.519 -0.1562  1.1083  0.6318
 7879SOL    HW235271   2.468   3.983   7.561 -1.0762  1.5449  1.9009
 7880SOL     OW35272   4.410   1.796  12.671  0.0354 -0.3505  0.0936
 7880SOL    HW135273   4.408   1.744  12.590 -1.0123 -0.3250  0.1059
 7880SOL    HW235274   4.505   1.805  12.669  0.0258  0.3763  2.9414
 7881SOL     OW35275   1.449   0.895   7.809 -0.0502  0.1153  0.1525
 7881SOL    HW135276   1.387   0.856   7.871  0.5254 -2.6190 -0.9533
 7881SOL    HW235277   1.502   0.821   7.781  0.5890 -0.7188  3.5938
 7882SOL     OW35278   0.001   0.196   4.589  0.2019 -0.6333  0.0874
 7882SOL    HW135279   0.043   0.152   4.662  1.8713  2.8751  1.2559
 7882SOL    HW235280   4.726   0.285   4.624  0.7977 -0.3137 -0.5464
 7883SOL     OW35281   3.510   4.719   7.400 -0.1870 -0.7486 -0.5554
 7883SOL    HW135282   3.549   4.709   7.314  0.8688 -0.9528 -0.0505
 7883SOL    HW235283   3.438   0.044   7.384  0.4020 -0.0067 -0.3960
 7884SOL     OW35284   4.336   3.990   2.608 -0.0879  0.5788 -0.5118
 7884SOL    HW135285   4.284   3.928   2.660 -0.1728  0.6727 -0.4847
 7884SOL    HW235286   4.361   3.934   2.534 -2.0191  0.9401 -1.4495
 7885SOL     OW35287   2.082   0.027   2.684 -0.2771  0.0904  0.5153
 7885SOL    HW135288   2.050   4.692   2.628  0.9297 -0.7526  0.8856
 7885SOL    HW235289   2.037   0.015   2.768 -1.0604 -1.2629 -0.1034
 7886SOL     OW35290   1.998   4.019   8.334 -0.6272 -0.6849  0.0263
 7886SOL    HW135291   2.016   4.010   8.428  0.9237 -1.4028 -0.3374
 7886SOL    HW235292   2.021   3.935   8.294  0.1283 -0.3883 -0.1712
 7887SOL     OW35293   2.244   2.507   0.004 -0.1363 -0.2197 -0.3198
 7887SOL    HW135294   2.195   2.428  17.722 -0.3360  0.2057 -1.5016
 7887SOL    HW235295   2.315   2.467   0.054 -0.1592 -0.1473 -0.2288
 7888SOL     OW35296   4.411   4.325   3.075  0.4227  0.2912 -0.1361
 7888SOL    HW135297   4.422   4.357   2.985 -2.3598  1.1305 -0.1798
 7888SOL    HW235298   4.335   4.375   3.104 -0.3077 -0.0259 -1.5137
 7889SOL     OW35299   2.430   3.070  10.876 -0.3738 -0.0215  0.3623
 7889SOL    HW135300   2.447   2.993  10.930  2.9443 -0.8607 -1.9114
 7889SOL    HW235301   2.449   3.133  10.945  4.6552 -1.2509  0.0466
 7890SOL     OW35302   4.486   1.868   2.394  0.0231 -0.3692 -0.5558
 7890SOL    HW135303   4.502   1.884   2.301 -2.7247  0.2755 -0.9227
 7890SOL    HW235304   4.571   1.877   2.437  0.0634 -2.0601 -0.2862
 7891SOL     OW35305   2.031   3.022   1.695  0.2194  0.8656  0.2250
 7891SOL    HW135306   2.016   3.049   1.604  1.8611 -1.7974 -0.8333
 7891SOL    HW235307   2.091   2.948   1.687 -2.1849 -1.2964  2.4012
 7892SOL     OW35308   2.414   2.110   7.952 -0.3419  0.4530 -0.1100
 7892SOL    HW135309   2.367   2.108   8.036 -1.3809 -0.6474 -0.7136
 7892SOL    HW235310   2.452   2.198   7.952  2.9983 -0.9704 -0.4456
 7893SOL     OW35311   0.971   0.277  13.175  0.3091  0.2543 -0.0604
 7893SOL    HW135312   0.970   0.199  13.230 -0.7118 -0.1659 -0.6732
 7893SOL    HW235313   0.966   0.246  13.085 -0.8148 -0.8875  0.3982
 7894SOL     OW35314   2.901   3.725  17.206  0.4973 -0.2730  0.2244
 7894SOL    HW135315   2.846   3.652  17.235 -0.0506 -0.9701 -2.5492
 7894SOL    HW235316   2.907   3.705  17.112  0.0836  0.4465  0.0399
 7895SOL     OW35317   0.243   0.413   6.113 -0.2107 -0.5038  0.1607
 7895SOL    HW135318   0.161   0.431   6.067 -0.3802  2.4451  1.5978
 7895SOL    HW235319   0.305   0.395   6.043 -2.6902 -2.3827 -1.5717
 7896SOL     OW35320   0.964   3.370  15.965 -0.0734  0.0682 -0.2146
 7896SOL    HW135321   1.042   3.413  16.001 -0.3286  1.9916 -1.9872
 7896SOL    HW235322   0.948   3.326  16.049 -0.3845 -0.8073 -0.7290
 7897SOL     OW35323   3.511   1.455   9.897 -0.1082 -0.1438 -0.2067
 7897SOL    HW135324   3.503   1.366   9.864  0.8029 -1.2670  2.5742
 7897SOL    HW235325   3.504   1.431   9.989  1.3162  1.5939  0.3611
 7898SOL     OW35326   3.980   1.657  14.690  0.4477 -0.2414  0.3232
 7898SOL    HW135327   3.891   1.644  14.722 -1.3419  1.8154 -3.8376
 7898SOL    HW235328   3.966   1.624  14.601  1.1429 -0.6671  0.3696
 7899SOL     OW35329   3.871   1.931  15.681  0.7031 -0.0157  0.5707
 7899SOL    HW135330   3.959   1.920  15.719  0.5555 -2.4956  0.2016
 7899SOL    HW235331   3.899   2.001  15.623 -0.4913  0.3552  0.4588
 7900SOL     OW35332   4.618   0.512   4.336  0.6461 -0.4689 -0.1881
 7900SOL    HW135333   4.541   0.468   4.373 -0.1754  1.4835  0.3951
 7900SOL    HW235334   4.653   0.446   4.275  0.4772 -0.8867  0.1692
 7901SOL     OW35335   3.008   1.595  11.464  0.0045  0.6004 -0.4056
 7901SOL    HW135336   2.921   1.557  11.472  0.3176  0.0856  0.5528
 7901SOL    HW235337   3.049   1.580  11.549 -2.6640  3.1432  1.3344
 7902SOL     OW35338   2.165   2.994   5.119 -0.0445 -0.6069 -0.1521
 7902SOL    HW135339   2.234   2.984   5.185 -0.2361  0.7802  0.2525
 7902SOL    HW235340   2.209   2.955   5.043 -2.7784 -2.4860 -0.7640
 7903SOL     OW35341   4.563   3.469   2.845 -0.1659 -0.6438  0.2169
 7903SOL    HW135342   4.646   3.446   2.803  0.7011 -1.0146  2.1321
 7903SOL    HW235343   4.570   3.564   2.832  1.5800 -0.9718 -1.1220
 7904SOL     OW35344   2.167   3.570  10.021 -0.9239  0.4439 -0.4899
 7904SOL    HW135345   2.242   3.614  10.062 -1.0095  0.1246  0.0076
 7904SOL    HW235346   2.098   3.630  10.049 -1.7357 -0.2295 -1.0236
 7905SOL     OW35347   4.137   0.246  11.610 -0.0217 -0.0012  0.2944
 7905SOL    HW135348   4.226   0.268  11.637  0.4281 -1.0926 -0.3125
 7905SOL    HW235349   4.137   0.290  11.525 -2.7204 -0.3390  0.1001
 7906SOL     OW35350   3.739   2.842   8.777  0.1397 -0.2198 -0.2062
 7906SOL    HW135351   3.650   2.806   8.779  0.2259 -0.3510  1.4902
 7906SOL    HW235352   3.751   2.851   8.683  0.8347 -1.7229 -0.2656
 7907SOL     OW35353   4.042   3.600   0.501  1.0529  0.4104  0.4217
 7907SOL    HW135354   4.078   3.583   0.588  1.8283  1.6154  0.3202
 7907SOL    HW235355   4.122   3.613   0.450  0.7289  0.3637 -0.0923
 7908SOL     OW35356   2.193   4.705   9.625  0.1424  0.3794  0.0777
 7908SOL    HW135357   2.282   4.706   9.660 -0.4283  1.3220  1.5294
 7908SOL    HW235358   2.164   0.055   9.661  0.6217  0.1346  1.0392
 7909SOL     OW35359   2.079   2.780   5.412 -0.0966  1.0141  0.4230
 7909SOL    HW135360   2.163   2.825   5.403  1.8658 -3.1621 -2.0511
 7909SOL    HW235361   2.024   2.840   5.362 -1.2612  0.7277  1.3598
 7910SOL     OW35362   0.021   0.817  12.177  0.0712  0.0984 -0.4171
 7910SOL    HW135363   0.066   0.779  12.102  1.8066  0.5220  0.4207
 7910SOL    HW235364   0.008   0.907  12.146 -1.3252  0.5877  1.5844
 7911SOL     OW35365   3.952   2.389   7.854  0.6786  0.1187  0.5898
 7911SOL    HW135366   4.007   2.355   7.924  1.6615  4.2328  1.7850
 7911SOL    HW235367   3.985   2.347   7.774  0.2081 -0.2182  0.5696
 7912SOL     OW35368   0.961   1.049   8.203 -0.5341 -0.1006  0.1859
 7912SOL    HW135369   1.025   1.102   8.155  0.2334 -0.9246  0.2944
 7912SOL    HW235370   0.896   1.047   8.133 -1.5693 -0.5669  1.1585
 7913SOL     OW35371   1.397   3.308  10.158  0.1701 -0.3694 -0.2193
 7913SOL    HW135372   1.350   3.230  10.187  0.4774  0.0237  1.2975
 7913SOL    HW235373   1.482   3.287  10.198  0.1063 -0.5630 -0.1859
 7914SOL     OW35374   2.990   1.892   1.158 -0.1525  0.0647 -0.0479
 7914SOL    HW135375   2.923   1.907   1.091 -2.4267 -0.9579  2.0171
 7914SOL    HW235376   3.031   1.813   1.123  0.6673  0.1523  0.7252
 7915SOL     OW35377   1.714   0.382   7.826 -0.4817  0.1002  0.0957
 7915SOL    HW135378   1.774   0.372   7.900 -1.6646 -2.1898  0.7645
 7915SOL    HW235379   1.728   0.303   7.775 -0.0579 -0.3438  0.8929
 7916SOL     OW35380   0.146   4.666  12.817  0.1824 -0.3835 -0.2175
 7916SOL    HW135381   0.228   4.713  12.801 -0.4419  0.7187 -0.1263
 7916SOL    HW235382   0.186   4.590  12.861  1.1496  0.0061 -0.4283
 7917SOL     OW35383   0.379   0.832   4.628  0.4477 -0.0029  0.2593
 7917SOL    HW135384   0.458   0.840   4.682 -0.1191 -1.2654  1.2728
 7917SOL    HW235385   0.402   0.899   4.564 -1.8271  0.3394 -0.2068
 7918SOL     OW35386   2.862   3.395  16.607 -0.3292 -0.8533 -0.5995
 7918SOL    HW135387   2.879   3.312  16.652  0.6549 -0.4913 -0.2829
 7918SOL    HW235388   2.788   3.420  16.661 -0.1565 -0.5494 -0.5041
 7919SOL     OW35389   3.980   0.447   7.654 -0.0586  0.2192  0.3323
 7919SOL    HW135390   3.918   0.468   7.585 -0.1016 -2.9238 -0.5691
 7919SOL    HW235391   4.052   0.499   7.618 -0.3484 -0.1864 -0.8283
 7920SOL     OW35392   3.317   1.311   7.480  0.2479 -0.0424 -0.1823
 7920SOL    HW135393   3.364   1.367   7.542 -1.1536 -0.1771  1.0053
 7920SOL    HW235394   3.235   1.360   7.491 -0.8671 -2.1507  0.9841
 7921SOL     OW35395   0.600   4.030  16.226  0.4546  0.6258 -0.3409
 7921SOL    HW135396   0.511   4.028  16.192  0.0154 -1.3289  0.9385
 7921SOL    HW235397   0.615   3.937  16.244 -0.8760  0.6375  0.8402
 7922SOL     OW35398   0.415   0.093   2.610 -0.4064  0.3682  0.2974
 7922SOL    HW135399   0.388   0.014   2.656 -1.5878 -0.1151 -1.2339
 7922SOL    HW235400   0.510   0.080   2.608 -0.3146  1.7207 -3.5733
 7923SOL     OW35401   3.467   0.340   9.793 -0.1285  0.0952  0.3149
 7923SOL    HW135402   3.494   0.271   9.854  1.0228 -1.7804 -2.3182
 7923SOL    HW235403   3.495   0.412   9.849  1.5666 -1.4336  1.4563
 7924SOL     OW35404   0.335   1.278   4.993 -0.0394  0.4373 -0.0667
 7924SOL    HW135405   0.351   1.303   4.902  1.7204  1.1081  0.4233
 7924SOL    HW235406   0.240   1.264   4.994  0.2627 -1.6615 -1.8651
 7925SOL     OW35407   0.574   0.254   7.929 -0.0856 -0.1705  0.4097
 7925SOL    HW135408   0.557   0.174   7.979 -1.4557  0.0167  0.2353
 7925SOL    HW235409   0.655   0.227   7.885 -0.6684 -3.9505  1.6558
 7926SOL     OW35410   1.900   1.919   0.287  0.1365  0.2478  0.2444
 7926SOL    HW135411   1.847   1.857   0.238  0.3535  1.8397 -1.9697
 7926SOL    HW235412   1.831   1.965   0.336 -0.7547 -0.4320 -0.3844
 7927SOL     OW35413   0.766   0.465   7.494  0.1678  0.1043 -0.5045
 7927SOL    HW135414   0.831   0.523   7.535 -2.5792  2.1898  0.9314
 7927SOL    HW235415   0.688   0.520   7.483  2.0081  2.8203 -0.2290
 7928SOL     OW35416   2.619   2.001  10.323 -0.0206  0.0927  0.1544
 7928SOL    HW135417   2.714   2.012  10.319  0.2059 -1.7117  0.8001
 7928SOL    HW235418   2.620   1.998  10.418 -1.6224 -0.0044  0.1677
 7929SOL     OW35419   1.974   1.616   3.569  0.2269 -0.0698 -0.0061
 7929SOL    HW135420   1.929   1.699   3.554  1.8387  0.8286  0.0484
 7929SOL    HW235421   2.057   1.623   3.522  0.8303  1.8540  1.3290
 7930SOL     OW35422   3.074   2.219   8.170 -0.0317  0.7057 -0.0436
 7930SOL    HW135423   3.084   2.308   8.204  1.7545  0.4333  0.1616
 7930SOL    HW235424   3.161   2.196   8.136  0.3670  2.0857  0.0549
 7931SOL     OW35425   0.130   1.606   7.373  0.4867 -0.2930 -0.0342
 7931SOL    HW135426   0.127   1.538   7.306 -2.5754  0.4211 -0.6383
 7931SOL    HW235427   0.147   1.564   7.457 -0.9189 -1.3120 -0.2508
 7932SOL     OW35428   1.332   0.553   4.233  0.1225  0.0822  0.0095
 7932SOL    HW135429   1.237   0.566   4.225  0.1501  0.5933  0.5425
 7932SOL    HW235430   1.359   0.638   4.267 -0.0029  0.0264  0.2469
 7933SOL     OW35431   0.163   1.931  13.107  0.5201 -0.3072 -0.4868
 7933SOL    HW135432   0.181   1.840  13.132  0.8578  0.0056  0.4243
 7933SOL    HW235433   0.242   1.970  13.145 -0.3348  0.6536  0.3294
 7934SOL     OW35434   0.161   3.854   3.689 -0.1988 -0.0162 -0.2031
 7934SOL    HW135435   0.103   3.793   3.734  0.5559 -0.5983 -0.0205
 7934SOL    HW235436   0.240   3.853   3.743 -0.2884 -0.1877 -0.0762
 7935SOL     OW35437   4.357   3.300   2.687  0.0947 -0.2986  0.3384
 7935SOL    HW135438   4.402   3.219   2.709 -2.1842 -2.0604 -1.4029
 7935SOL    HW235439   4.429   3.357   2.712 -0.0652  0.2206 -0.3726
 7936SOL     OW35440   4.533   1.448   1.167 -0.0230  0.5931 -0.2184
 7936SOL    HW135441   4.595   1.456   1.094  0.6275  0.8165  0.3555
 7936SOL    HW235442   4.543   1.528   1.218  0.8637  1.1327 -1.2128
 7937SOL     OW35443   1.490   0.796   4.976 -0.0777  0.3477 -0.3147
 7937SOL    HW135444   1.510   0.889   4.976  0.3888  0.2479 -3.6868
 7937SOL    HW235445   1.501   0.774   4.883 -1.3362  1.1941 -0.6560
 7938SOL     OW35446   1.598   3.430   2.350  0.2397 -0.1840  0.1259
 7938SOL    HW135447   1.528   3.469   2.402 -0.2412 -0.2974 -0.4476
 7938SOL    HW235448   1.661   3.502   2.350 -1.5263  1.3398 -4.2621
 7939SOL     OW35449   2.036   1.846   9.993  0.2387 -0.2413  0.3263
 7939SOL    HW135450   2.046   1.941   9.984 -0.3507 -0.3910 -1.7282
 7939SOL    HW235451   2.105   1.805   9.941 -0.8674 -1.5197 -0.1305
 7940SOL     OW35452   0.838   3.629  11.138 -0.1450 -0.1881 -0.5284
 7940SOL    HW135453   0.799   3.546  11.168 -0.9498  0.1452 -0.6497
 7940SOL    HW235454   0.824   3.675  11.221 -2.2138 -1.6431 -0.0556
 7941SOL     OW35455   0.089   2.938   5.355  0.5820  0.2280  0.1827
 7941SOL    HW135456   0.039   2.877   5.410  1.2734 -0.4905  0.0141
 7941SOL    HW235457   0.140   2.986   5.420 -1.7746  0.9446  1.4688
 7942SOL     OW35458   3.912   3.342  12.247 -0.4452 -0.0357 -0.4272
 7942SOL    HW135459   3.848   3.272  12.234 -1.0520  0.3875  0.2636
 7942SOL    HW235460   3.902   3.391  12.165 -0.1455  0.9623  0.1305
 7943SOL     OW35461   0.539   1.486  13.791 -0.0600  0.2440  0.1083
 7943SOL    HW135462   0.547   1.401  13.834  1.7162  0.2854 -0.1222
 7943SOL    HW235463   0.464   1.474  13.733 -1.2377  4.3868  0.7736
 7944SOL     OW35464   0.261   4.432  12.900  0.2126 -0.1423 -0.5434
 7944SOL    HW135465   0.271   4.341  12.928 -0.4168 -0.4748 -1.3813
 7944SOL    HW235466   0.341   4.471  12.933 -0.2042 -0.5488  0.9318
 7945SOL     OW35467   1.382   4.546   7.861 -0.2991  0.3047  0.1678
 7945SOL    HW135468   1.456   4.502   7.903  1.4195  0.9456 -2.1653
 7945SOL    HW235469   1.428   4.623   7.828  0.9950  0.0868  1.4649
 7946SOL     OW35470   1.802   3.706   5.748 -0.5347  0.1643 -0.5947
 7946SOL    HW135471   1.776   3.707   5.840 -1.4243  2.8730 -0.8580
 7946SOL    HW235472   1.788   3.795   5.714  1.0214 -0.0676 -1.8498
 7947SOL     OW35473   4.621   0.600  13.775  0.1575 -0.1461 -0.0936
 7947SOL    HW135474   4.674   0.673  13.743 -0.7542  0.9877  0.9916
 7947SOL    HW235475   4.690   0.534  13.780 -1.4890 -2.0237 -2.5092
 7948SOL     OW35476   3.387   2.706   5.136 -0.1206  0.4238 -0.1904
 7948SOL    HW135477   3.407   2.649   5.210  1.7071 -0.2163 -1.1748
 7948SOL    HW235478   3.367   2.643   5.067 -0.0407  0.9712 -0.7141
 7949SOL     OW35479   1.883   4.017  17.576  0.4146 -0.0518 -0.2098
 7949SOL    HW135480   1.892   4.050  17.487 -2.2872  0.8259 -0.1599
 7949SOL    HW235481   1.839   4.090  17.619 -0.8847 -1.7767  1.4404
 7950SOL     OW35482   3.992   4.653   5.143 -0.0054 -0.1067  0.6142
 7950SOL    HW135483   3.904   4.690   5.135 -0.6617 -1.3877  1.8922
 7950SOL    HW235484   4.015   4.697   5.225 -1.5192 -1.1257  1.5918
 7951SOL     OW35485   4.337   1.280   7.789  0.0526  0.2183  0.2057
 7951SOL    HW135486   4.324   1.198   7.836  0.6597  0.5937  1.0173
 7951SOL    HW235487   4.430   1.296   7.806  0.1369 -0.2497  0.1701
 7952SOL     OW35488   3.827   0.232  12.043 -0.1598 -0.4906  0.0584
 7952SOL    HW135489   3.801   0.319  12.075  1.8423 -0.2791  1.1528
 7952SOL    HW235490   3.887   0.213  12.115 -0.0723  0.4767  0.2431
 7953SOL     OW35491   1.284   0.436   6.303 -0.3781  0.1223  0.6600
 7953SOL    HW135492   1.315   0.347   6.318  0.2790  0.4120  1.0022
 7953SOL    HW235493   1.343   0.475   6.240  0.9015 -1.5935  0.7884
 7954SOL     OW35494   2.733   2.921   4.327 -0.5729  0.2204  0.2663
 7954SOL    HW135495   2.735   2.914   4.232 -1.0765  1.1551  0.1899
 7954SOL    HW235496   2.648   2.879   4.342 -1.0842  0.4725 -2.0507
 7955SOL     OW35497   0.544   4.497  17.571 -1.0592 -0.5510  0.1611
 7955SOL    HW135498   0.569   4.442  17.645 -0.5416 -0.5984 -0.0555
 7955SOL    HW235499   0.555   4.582  17.613 -0.7780 -0.7844  0.5576
 7956SOL     OW35500   3.689   4.698  11.729 -0.4239 -0.3011 -0.1029
 7956SOL    HW135501   3.649   4.729  11.810 -0.1257 -0.0706 -0.0445
 7956SOL    HW235502   3.652   0.026  11.666  0.4274  1.2716  0.9622
 7957SOL     OW35503   0.812   2.518   7.814 -0.2961 -0.0867 -0.4436
 7957SOL    HW135504   0.830   2.466   7.893 -0.3150 -1.0468 -1.0710
 7957SOL    HW235505   0.796   2.458   7.742 -0.8443 -0.0158 -0.3751
 7958SOL     OW35506   2.752   3.496   4.915  1.1253  0.3135 -0.1683
 7958SOL    HW135507   2.801   3.421   4.948  0.4913 -0.7863 -1.7104
 7958SOL    HW235508   2.668   3.465   4.881  1.0395  1.3604 -0.9215
 7959SOL     OW35509   3.738   2.503   0.902 -0.5717  0.1943 -0.1436
 7959SOL    HW135510   3.680   2.572   0.935 -1.8487 -0.4383 -1.1250
 7959SOL    HW235511   3.789   2.494   0.983  2.5626  0.0430 -2.1138
 7960SOL     OW35512   0.533   0.296  16.550  0.4010  0.6885 -0.5853
 7960SOL    HW135513   0.521   0.266  16.460 -0.8747  1.7180 -0.7723
 7960SOL    HW235514   0.615   0.252  16.571 -0.1356 -1.1527 -2.3216
 7961SOL     OW35515   2.009   2.903   2.442 -0.2365  0.2242 -0.0759
 7961SOL    HW135516   1.939   2.940   2.495 -0.1156 -0.0871  0.2987
 7961SOL    HW235517   2.050   2.986   2.418  1.1803 -0.1567  1.0354
 7962SOL     OW35518   4.721   1.174   4.690  0.0799  0.0552 -1.3135
 7962SOL    HW135519   4.664   1.216   4.626  0.3505  0.5860 -1.2016
 7962SOL    HW235520   0.011   1.101   4.633 -1.9393 -2.6418  1.2191
 7963SOL     OW35521   2.976   1.981  15.322  0.2682  0.3410  0.3688
 7963SOL    HW135522   2.983   2.051  15.387 -1.2942 -1.6045  2.6371
 7963SOL    HW235523   3.058   1.935  15.342  0.5083  0.8853  0.6315
 7964SOL     OW35524   3.673   1.951  12.272  0.1169  0.2470  0.1014
 7964SOL    HW135525   3.581   1.968  12.254  0.5594  1.8015 -0.6522
 7964SOL    HW235526   3.718   2.034  12.288 -0.4928  0.5434  0.2507
 7965SOL     OW35527   0.891   2.876  12.618  0.3814  0.1285 -0.2851
 7965SOL    HW135528   0.803   2.897  12.588 -1.4699 -4.7070  1.7236
 7965SOL    HW235529   0.931   2.857  12.533 -0.5659  0.5839 -0.8350
 7966SOL     OW35530   2.310   4.062  13.144  0.4546 -0.0064  0.4877
 7966SOL    HW135531   2.382   4.114  13.179  1.6041 -0.1183 -1.7055
 7966SOL    HW235532   2.347   3.974  13.137 -1.2680 -0.6407 -0.6228
 7967SOL     OW35533   2.086   2.064   6.030  0.3801 -0.1822 -0.1973
 7967SOL    HW135534   2.158   2.054   6.093  0.5854 -1.4059 -0.6232
 7967SOL    HW235535   2.126   2.136   5.981  2.6058 -0.5024  1.1376
 7968SOL     OW35536   1.785   0.541  15.940 -0.5317 -0.2588 -0.2512
 7968SOL    HW135537   1.691   0.521  15.940 -0.1565 -2.0244  0.0064
 7968SOL    HW235538   1.771   0.632  15.916  1.5603  0.2301  0.3851
 7969SOL     OW35539   3.150   3.785   4.792 -0.3496 -0.2107  1.0790
 7969SOL    HW135540   3.140   3.710   4.733 -1.7434  0.3535  0.5844
 7969SOL    HW235541   3.073   3.774   4.848 -0.6452  0.6784  0.8470
 7970SOL     OW35542   1.746   0.673   5.244  0.2664  0.1923 -0.3870
 7970SOL    HW135543   1.689   0.617   5.192  0.1252 -1.4882  1.5487
 7970SOL    HW235544   1.827   0.647   5.202 -0.0632 -1.5692  0.0446
 7971SOL     OW35545   0.162   0.888   2.161  0.1113  0.1449  0.4813
 7971SOL    HW135546   0.235   0.873   2.221 -0.8176 -0.5414  1.4434
 7971SOL    HW235547   0.155   0.809   2.107 -0.4268  0.7381 -0.3056
 7972SOL     OW35548   3.162   2.019  12.087 -0.5276  0.3392  0.1517
 7972SOL    HW135549   3.152   1.937  12.038 -2.5754 -0.2438  1.5749
 7972SOL    HW235550   3.069   2.040  12.095 -1.0896 -1.6171 -1.2384
 7973SOL     OW35551   1.807   0.691   5.519 -0.2286  0.1154 -0.0946
 7973SOL    HW135552   1.755   0.771   5.506  0.1828  0.7935  2.4461
 7973SOL    HW235553   1.777   0.651   5.437  1.5014  0.4366 -0.8899
 7974SOL     OW35554   2.231   2.921  17.228 -0.0771 -0.2741  0.5344
 7974SOL    HW135555   2.180   3.001  17.240 -0.7139 -0.2408 -2.5996
 7974SOL    HW235556   2.168   2.852  17.253  0.3251 -1.1170 -0.7990
 7975SOL     OW35557   1.144   3.217   5.990  0.0537 -0.0020  1.0475
 7975SOL    HW135558   1.115   3.297   5.947 -2.5519 -1.5597 -0.1372
 7975SOL    HW235559   1.186   3.170   5.918  1.9572  1.8249  0.9920
 7976SOL     OW35560   2.319   2.446   2.326 -0.5859  0.0108 -0.3906
 7976SOL    HW135561   2.225   2.463   2.319 -0.8218 -0.8840  0.5927
 7976SOL    HW235562   2.334   2.352   2.323  2.7725  0.6236 -3.1927
 7977SOL     OW35563   0.646   0.762   5.367  0.4052  0.3115  0.5728
 7977SOL    HW135564   0.569   0.709   5.345  1.9935 -1.5218 -0.5679
 7977SOL    HW235565   0.691   0.697   5.422  1.1636 -0.8828 -1.4534
 7978SOL     OW35566   2.415   1.722   0.598  0.4399  0.1332  0.4663
 7978SOL    HW135567   2.407   1.783   0.670 -0.4993 -0.6523  1.0265
 7978SOL    HW235568   2.387   1.783   0.531 -3.0613  0.4090  2.1975
 7979SOL     OW35569   2.080   2.177   8.666 -0.0622 -0.3513  0.0969
 7979SOL    HW135570   2.101   2.200   8.756 -0.2106 -0.5721  0.1894
 7979SOL    HW235571   2.168   2.182   8.628  1.0429  2.2685  3.0358
 7980SOL     OW35572   3.152   1.826   8.159 -0.8365 -0.5516  0.2317
 7980SOL    HW135573   3.192   1.750   8.118 -0.1754  0.0308 -0.1878
 7980SOL    HW235574   3.228   1.862   8.205 -0.8611  1.4076 -1.2322
 7981SOL     OW35575   2.618   3.570   5.373  0.0200  0.0611  0.1192
 7981SOL    HW135576   2.577   3.609   5.450 -2.0434  2.6529 -2.2797
 7981SOL    HW235577   2.641   3.484   5.408 -1.1582 -0.4367 -0.3375
 7982SOL     OW35578   3.071   2.586   6.078 -0.2254 -0.2524  0.5781
 7982SOL    HW135579   3.119   2.613   6.156  0.9651 -1.0274  0.1168
 7982SOL    HW235580   2.997   2.646   6.085  0.3986  0.2420  3.1580
 7983SOL     OW35581   0.025   2.673   2.955 -0.2319 -0.5489  0.6768
 7983SOL    HW135582   4.702   2.597   2.959  0.5888 -1.1853  0.3551
 7983SOL    HW235583   0.080   2.635   2.887  0.6733  1.4528  0.3208
 7984SOL     OW35584   3.687   1.795   6.065 -0.2793 -0.0761  0.9261
 7984SOL    HW135585   3.679   1.712   6.112 -2.1467 -1.6451 -2.1409
 7984SOL    HW235586   3.626   1.769   5.996  0.7322 -1.6070  0.6044
 7985SOL     OW35587   0.407   2.019   1.558  0.2946  0.0975  0.0631
 7985SOL    HW135588   0.320   1.980   1.548  0.6274 -0.5979 -0.1615
 7985SOL    HW235589   0.396   2.113   1.543 -1.3337 -0.1151 -0.0346
 7986SOL     OW35590   4.656   3.874   6.340 -0.6896  0.0071 -0.3099
 7986SOL    HW135591   4.560   3.872   6.342 -0.6608 -0.2922  1.0710
 7986SOL    HW235592   4.667   3.953   6.393  0.3950 -0.2813 -0.1140
 7987SOL     OW35593   4.454   2.316   3.970 -0.1189  0.2615  0.7429
 7987SOL    HW135594   4.455   2.256   3.896  2.1108  1.7833 -0.4765
 7987SOL    HW235595   4.443   2.257   4.045 -0.3382  0.2990  0.7412
 7988SOL     OW35596   4.281   1.637  10.432 -0.2858 -0.0082  0.9549
 7988SOL    HW135597   4.311   1.633  10.341  2.9954  1.8793  1.9587
 7988SOL    HW235598   4.337   1.576  10.480 -0.5572 -1.1900 -0.2615
 7989SOL     OW35599   1.058   3.290  12.232 -0.6516  0.2817 -0.8396
 7989SOL    HW135600   1.018   3.376  12.222  0.7258  1.2471  2.2943
 7989SOL    HW235601   1.049   3.279  12.327  0.6210  0.5529 -0.6941
 7990SOL     OW35602   2.473   3.124   0.339  0.1431  0.3294 -0.4353
 7990SOL    HW135603   2.421   3.156   0.412  0.6534 -2.2008  1.0409
 7990SOL    HW235604   2.434   3.181   0.272 -1.3805  0.5452  0.6575
 7991SOL     OW35605   1.291   3.719   6.213  0.4987 -0.0398 -0.1182
 7991SOL    HW135606   1.223   3.676   6.264  0.1084  2.3651  1.3414
 7991SOL    HW235607   1.353   3.743   6.282  0.8032  1.1161 -0.7879
 7992SOL     OW35608   3.526   3.137   0.370  0.0351  0.1449 -0.2128
 7992SOL    HW135609   3.525   3.231   0.351  2.3528  0.2808  0.2696
 7992SOL    HW235610   3.440   3.110   0.340 -0.2970  2.1953 -1.1239
 7993SOL     OW35611   3.159   1.495   4.126  0.3572  0.1290  0.5225
 7993SOL    HW135612   3.231   1.451   4.081  0.6238  0.5038  0.5937
 7993SOL    HW235613   3.107   1.511   4.047 -1.2636  0.3136  1.6104
 7994SOL     OW35614   4.126   3.998   2.123  0.0405  0.0474  0.6905
 7994SOL    HW135615   4.123   4.021   2.216  0.1956 -0.1559  0.7451
 7994SOL    HW235616   4.122   4.086   2.085 -0.5685  1.1612  3.3751
 7995SOL     OW35617   2.104   4.725   0.064 -0.2456 -0.2482 -0.8276
 7995SOL    HW135618   2.165   4.669   0.113  0.6709  1.2961 -0.2072
 7995SOL    HW235619   2.056   0.030   0.137 -1.5505  0.7438 -2.2404
 7996SOL     OW35620   1.970   0.559   3.854  0.1871  0.1772  0.0276
 7996SOL    HW135621   1.924   0.512   3.924 -0.1416 -0.7100 -0.7742
 7996SOL    HW235622   1.965   0.485   3.793 -0.2012 -1.6702  2.2917
 7997SOL     OW35623   4.122   3.544  13.564  0.1411 -0.1564 -0.1835
 7997SOL    HW135624   4.078   3.471  13.609  1.6510  0.2728  1.9875
 7997SOL    HW235625   4.120   3.609  13.634 -0.2997 -1.6051  1.1758
 7998SOL     OW35626   1.021   4.665   7.007 -0.4629 -0.3148 -0.0716
 7998SOL    HW135627   0.991   4.599   6.945 -1.0483 -1.7914  1.7702
 7998SOL    HW235628   0.961   0.000   6.981 -2.3654 -1.5301  0.9799
 7999SOL     OW35629   3.443   3.832   0.578  0.3438 -0.1182 -0.4720
 7999SOL    HW135630   3.521   3.855   0.528 -0.0785 -0.6998 -1.3944
 7999SOL    HW235631   3.373   3.837   0.512  0.3875 -1.9121 -0.6389
 8000SOL     OW35632   2.209   1.869   1.875 -0.3043  0.2158 -0.0729
 8000SOL    HW135633   2.200   1.776   1.893  1.8426  0.1944  0.9235
 8000SOL    HW235634   2.239   1.903   1.959  0.4414  0.7482 -0.5493
 8001SOL     OW35635   4.244   3.950   8.543  1.0717  0.0334  0.0082
 8001SOL    HW135636   4.301   4.003   8.487  2.9289 -3.2719 -1.2050
 8001SOL    HW235637   4.295   3.878   8.580 -0.5961 -0.6322  1.0238
 8002SOL     OW35638   2.162   1.246   6.092 -0.0781 -0.2990  0.1911
 8002SOL    HW135639   2.160   1.241   5.996 -4.4568 -1.7322  0.3502
 8002SOL    HW235640   2.244   1.204   6.117  0.9962  0.6349 -1.8013
 8003SOL     OW35641   1.867   3.419   7.118 -0.1471 -0.8918 -0.3202
 8003SOL    HW135642   1.771   3.411   7.116 -0.3286  0.9713  0.7110
 8003SOL    HW235643   1.883   3.437   7.026 -0.1606  0.0697 -0.1347
 8004SOL     OW35644   2.031   0.782   2.943  0.8151  0.1124 -0.4044
 8004SOL    HW135645   2.082   0.701   2.933  1.0631  0.0111  1.8136
 8004SOL    HW235646   2.095   0.849   2.917 -1.1756  1.5920 -1.5071
 8005SOL     OW35647   0.764   3.968   6.474 -0.3490  0.0016 -0.1149
 8005SOL    HW135648   0.805   3.886   6.445  0.6334 -0.3864  2.4316
 8005SOL    HW235649   0.668   3.961   6.470 -0.2219 -0.6497 -2.0854
 8006SOL     OW35650   2.475   1.756   7.740 -0.2366  0.2463 -0.0076
 8006SOL    HW135651   2.570   1.761   7.728 -0.1385  0.0262  0.6234
 8006SOL    HW235652   2.442   1.753   7.650 -0.0751  3.2648 -0.1565
 8007SOL     OW35653   0.845   4.575   9.449 -0.2321  0.3731 -0.3108
 8007SOL    HW135654   0.899   4.623   9.512  2.8097 -0.3241 -2.4035
 8007SOL    HW235655   0.904   4.504   9.423  1.2664  2.0608 -1.4609
 8008SOL     OW35656   4.730   1.801   1.190 -0.0346 -0.7061  0.5817
 8008SOL    HW135657   0.045   1.823   1.111 -0.1831  0.1183  0.7183
 8008SOL    HW235658   0.000   1.705   1.193  0.5480 -0.6422  1.3944
 8009SOL     OW35659   4.542   3.940   5.499 -0.3292 -0.3017  0.4034
 8009SOL    HW135660   4.503   3.875   5.557 -2.9576  0.0074 -1.0087
 8009SOL    HW235661   4.465   3.993   5.480 -0.1396 -0.3448 -0.4761
 8010SOL     OW35662   2.002   1.344   9.896  0.3003  0.1089 -0.3889
 8010SOL    HW135663   2.029   1.410   9.831 -2.9657  0.9510 -0.9442
 8010SOL    HW235664   2.066   1.273   9.891 -0.5180 -0.4369 -3.4663
 8011SOL     OW35665   3.135   0.156   2.472 -0.8396 -0.3074  0.2396
 8011SOL    HW135666   3.136   0.251   2.460 -1.5704 -0.3576 -0.2005
 8011SOL    HW235667   3.227   0.132   2.457 -0.7324  1.4859 -1.9949
 8012SOL     OW35668   0.991   0.343   6.611 -0.2824 -0.2559  0.4475
 8012SOL    HW135669   0.919   0.282   6.598  1.0513 -1.8705  0.5393
 8012SOL    HW235670   0.989   0.354   6.706 -0.8647  0.8467  0.3072
 8013SOL     OW35671   0.048   3.654   8.755  0.2052 -0.0801 -0.8233
 8013SOL    HW135672   0.126   3.617   8.714  0.4234 -1.8604  1.1993
 8013SOL    HW235673   4.711   3.606   8.715 -1.1089  1.4474 -0.3167
 8014SOL     OW35674   3.824   0.578  13.328 -0.8307  0.2538 -0.0245
 8014SOL    HW135675   3.792   0.533  13.250 -1.1173  1.2830 -0.5043
 8014SOL    HW235676   3.876   0.641  13.278  1.4449  0.0515  2.0612
 8015SOL     OW35677   3.949   4.021   5.882 -0.1761  0.3061 -0.0317
 8015SOL    HW135678   4.043   4.035   5.890 -0.3926  1.2866  0.8568
 8015SOL    HW235679   3.925   4.063   5.799  2.5147  3.2912  0.6963
 8016SOL     OW35680   1.462   0.940   3.242  0.2885 -0.4450  0.6720
 8016SOL    HW135681   1.490   1.007   3.305 -2.0498  0.6720  0.5115
 8016SOL    HW235682   1.402   0.995   3.191  0.1968 -1.7446 -0.6124
 8017SOL     OW35683   1.317   3.022   2.833 -0.2022  0.1156  0.3089
 8017SOL    HW135684   1.315   3.110   2.797 -1.7401 -0.0174  0.0796
 8017SOL    HW235685   1.396   3.018   2.886 -0.1333  0.6132  0.2346
 8018SOL     OW35686   3.446   2.433  14.551  0.7353  0.6389 -0.2693
 8018SOL    HW135687   3.424   2.431  14.458  1.9545  0.9078 -0.5631
 8018SOL    HW235688   3.457   2.340  14.573  0.4850  1.2717  2.5145
 8019SOL     OW35689   1.667   1.613  12.979 -0.3629 -0.3842  0.4732
 8019SOL    HW135690   1.631   1.695  13.012 -1.4656  0.1661 -2.0937
 8019SOL    HW235691   1.705   1.587  13.062  2.7774  2.9027  0.0583
 8020SOL     OW35692   4.037   3.947  11.921 -0.0214  0.6935 -0.3380
 8020SOL    HW135693   4.039   3.884  11.849  1.4454  1.3438 -0.8678
 8020SOL    HW235694   4.026   4.033  11.880 -1.5635  0.0440 -1.2941
 8021SOL     OW35695   1.294   1.149  15.036 -0.3051 -0.4728  0.2254
 8021SOL    HW135696   1.241   1.222  15.069  1.5813  1.0128 -0.0694
 8021SOL    HW235697   1.247   1.123  14.956 -0.7180  0.6715  0.1012
 8022SOL     OW35698   0.992   4.424   2.409  0.0250  0.9771  0.3878
 8022SOL    HW135699   1.058   4.404   2.475  1.1690 -1.7291 -1.5977
 8022SOL    HW235700   0.972   4.335   2.380  0.0613  1.0642  0.0983
 8023SOL     OW35701   0.523   1.272   5.928  0.4047  0.1417 -0.1701
 8023SOL    HW135702   0.498   1.355   5.969  1.4534  0.3452  0.0742
 8023SOL    HW235703   0.618   1.284   5.937  0.3055  2.4108 -1.9685
 8024SOL     OW35704   3.409   1.531  14.369  0.3192  0.1439  0.1211
 8024SOL    HW135705   3.442   1.546  14.280  2.2697 -0.3030  0.7742
 8024SOL    HW235706   3.320   1.503  14.351  0.3704  0.7032 -0.9870
 8025SOL     OW35707   0.359   3.019   4.023 -0.0738  0.1375  0.1653
 8025SOL    HW135708   0.276   3.053   3.990 -0.7771  0.2621  2.0110
 8025SOL    HW235709   0.320   2.952   4.079 -1.1876  2.1701  1.8486
 8026SOL     OW35710   2.669   2.210   8.812  0.2306  0.2329  0.0323
 8026SOL    HW135711   2.735   2.244   8.873  0.4840 -0.3641  0.0861
 8026SOL    HW235712   2.678   2.262   8.733 -0.8805  0.2918 -0.0618
 8027SOL     OW35713   1.423   4.010   6.453  0.1694  0.7316 -0.0447
 8027SOL    HW135714   1.456   3.924   6.425 -0.5641  1.0554 -1.9093
 8027SOL    HW235715   1.363   4.034   6.382 -0.0770 -1.8214 -0.7053
 8028SOL     OW35716   4.428   2.819   8.369  0.1863  0.3753 -0.3113
 8028SOL    HW135717   4.351   2.853   8.415 -1.2336 -1.2979 -1.4242
 8028SOL    HW235718   4.427   2.873   8.290  3.1788  1.2321  0.2520
 8029SOL     OW35719   0.828   2.102   8.823  0.8116 -0.1750  0.0477
 8029SOL    HW135720   0.857   2.192   8.813 -0.0380 -0.1654 -2.2503
 8029SOL    HW235721   0.892   2.056   8.769 -0.8098 -1.7928 -0.5251
 8030SOL     OW35722   2.915   2.414  12.565  0.1424 -0.0058  0.6291
 8030SOL    HW135723   2.930   2.372  12.480  1.2493  1.0343  0.3091
 8030SOL    HW235724   3.005   2.412  12.597  0.2143  2.9615  0.6524
 8031SOL     OW35725   4.731   2.349   3.172  0.0298  0.1262 -0.0218
 8031SOL    HW135726   4.719   2.438   3.204 -1.8153  0.9564 -3.0841
 8031SOL    HW235727   4.649   2.302   3.189  1.7418 -2.2299  1.8698
 8032SOL     OW35728   4.002   2.371   6.034  0.1486  0.6307 -0.1628
 8032SOL    HW135729   3.992   2.345   6.126 -2.3782  0.3142 -0.5418
 8032SOL    HW235730   3.992   2.465   6.048  1.3337  0.6082  0.8697
 8033SOL     OW35731   1.231   3.371  11.568  0.1976 -0.1573  0.2038
 8033SOL    HW135732   1.254   3.415  11.650  1.5003  2.0404 -1.3439
 8033SOL    HW235733   1.313   3.322  11.558  1.2340  2.1487 -2.4439
 8034SOL     OW35734   3.653   3.694   2.485 -0.4134 -0.0796 -0.1983
 8034SOL    HW135735   3.659   3.790   2.485 -0.7656 -0.0810  3.6907
 8034SOL    HW235736   3.560   3.679   2.469 -1.1172  1.5824  2.3984
 8035SOL     OW35737   4.228   0.598   6.386  0.0336  0.0523 -0.3083
 8035SOL    HW135738   4.222   0.693   6.379 -0.6665  0.0682  0.5638
 8035SOL    HW235739   4.144   0.568   6.420  0.3238  0.7008  0.9701
 8036SOL     OW35740   4.208   2.857   5.892 -0.3616  0.0288 -0.2741
 8036SOL    HW135741   4.262   2.794   5.940  1.3036  0.7309 -1.2327
 8036SOL    HW235742   4.212   2.935   5.947 -0.0401  0.0442 -0.3209
 8037SOL     OW35743   1.735   0.914   2.104  0.4879  0.1630 -0.4728
 8037SOL    HW135744   1.748   0.973   2.179  0.8688  0.7200 -0.9784
 8037SOL    HW235745   1.750   0.983   2.040  2.1038 -0.1276 -0.4095
 8038SOL     OW35746   1.412   4.562   8.964 -1.0475  0.2826 -0.0061
 8038SOL    HW135747   1.439   4.483   9.011 -0.5877 -0.6009 -1.7771
 8038SOL    HW235748   1.323   4.581   8.996 -0.3998  2.4005  0.5166
 8039SOL     OW35749   2.656   3.286   3.983 -0.0917  0.4053  0.0281
 8039SOL    HW135750   2.669   3.381   3.983  0.0773  0.3834 -0.4095
 8039SOL    HW235751   2.587   3.276   4.048 -1.5613  0.9535 -1.4496
 8040SOL     OW35752   3.986   3.044  16.424  0.4267 -0.0310 -0.3309
 8040SOL    HW135753   4.003   2.952  16.440  2.4476  0.2995 -0.5925
 8040SOL    HW235754   3.897   3.031  16.393 -0.5450  0.6312  2.1500
 8041SOL     OW35755   3.594   3.762  16.679  0.1013  0.0586  0.5207
 8041SOL    HW135756   3.553   3.842  16.711 -2.4061 -0.0704 -2.3409
 8041SOL    HW235757   3.588   3.788  16.587 -0.4343  1.6199  1.0076
 8042SOL     OW35758   0.816   3.756   2.932 -0.0752  0.2539 -0.5771
 8042SOL    HW135759   0.728   3.729   2.903 -0.2794  0.1438  0.1410
 8042SOL    HW235760   0.827   3.834   2.878 -1.5564  1.4245  0.8257
 8043SOL     OW35761   2.615   3.694   5.093 -0.3001 -0.4115  0.2729
 8043SOL    HW135762   2.646   3.619   5.043 -0.8064 -0.7041  0.3983
 8043SOL    HW235763   2.602   3.659   5.181 -0.9019 -1.3861 -0.2115
 8044SOL     OW35764   4.100   3.305   8.663  0.0681  0.4572  0.1688
 8044SOL    HW135765   4.129   3.262   8.583 -0.0628  1.0106 -0.1802
 8044SOL    HW235766   4.022   3.347   8.627  0.1811  1.5553  1.1859
 8045SOL     OW35767   1.754   1.226   0.157  0.2895 -0.1753 -1.1326
 8045SOL    HW135768   1.777   1.134   0.159  0.9367 -0.0038 -0.9029
 8045SOL    HW235769   1.660   1.207   0.157 -0.2479  2.3251  1.7864
 8046SOL     OW35770   2.927   0.648   1.383  1.0315 -0.4182 -0.2750
 8046SOL    HW135771   2.891   0.725   1.339  2.2599 -0.5259 -1.4966
 8046SOL    HW235772   2.913   0.577   1.321 -1.3026 -0.9264  0.8250
 8047SOL     OW35773   4.073   2.332   2.338 -0.2246 -0.0609 -0.8285
 8047SOL    HW135774   3.984   2.366   2.330 -0.9682 -1.4230  1.6514
 8047SOL    HW235775   4.124   2.411   2.360  1.2412 -1.6303  1.4871
 8048SOL     OW35776   0.707   3.236   9.716 -0.8424  0.0250  0.5227
 8048SOL    HW135777   0.802   3.237   9.724 -0.7510  1.5375 -0.8708
 8048SOL    HW235778   0.691   3.330   9.707  1.1432  0.1464 -1.5958
 8049SOL     OW35779   0.183   4.305  14.880 -0.6019  0.4103 -0.0852
 8049SOL    HW135780   0.248   4.365  14.916 -0.4794 -0.5197  1.2206
 8049SOL    HW235781   0.118   4.363  14.840 -2.3664 -2.3888 -1.3189
 8050SOL     OW35782   0.542   3.334  13.331 -0.0706 -0.3316 -0.0880
 8050SOL    HW135783   0.587   3.252  13.353  2.4949  1.4286  1.2894
 8050SOL    HW235784   0.455   3.296  13.329  0.0671 -0.6547  0.0733
 8051SOL     OW35785   4.272   2.351   4.794  0.6845 -0.2124  0.5991
 8051SOL    HW135786   4.353   2.392   4.825  1.0899 -0.4060 -0.1988
 8051SOL    HW235787   4.228   2.422   4.747 -0.5342  0.7522  3.2084
 8052SOL     OW35788   2.287   3.055  16.914 -0.2005 -0.4204  0.0434
 8052SOL    HW135789   2.222   2.996  16.951 -1.4873  1.5289  0.8782
 8052SOL    HW235790   2.254   3.144  16.926 -0.4762 -0.5720  0.3907
 8053SOL     OW35791   3.758   0.747   8.644  0.0987  0.1155 -0.4712
 8053SOL    HW135792   3.691   0.779   8.705 -1.1423 -3.2174 -0.0916
 8053SOL    HW235793   3.767   0.818   8.581 -0.8512  0.0455 -0.6823
 8054SOL     OW35794   3.046   0.484   8.124  0.4050  0.6467 -0.7450
 8054SOL    HW135795   3.097   0.436   8.189 -0.5999  0.7064  0.0863
 8054SOL    HW235796   3.017   0.550   8.187  0.0825 -0.6983  0.5201
 8055SOL     OW35797   3.359   2.366   3.000 -0.4211  0.0122  0.0500
 8055SOL    HW135798   3.269   2.352   3.031 -0.8539  0.0620 -1.1495
 8055SOL    HW235799   3.339   2.425   2.927 -1.5031 -0.2296  0.1536
 8056SOL     OW35800   2.752   3.354   5.908 -0.0042  0.5746  0.9039
 8056SOL    HW135801   2.723   3.444   5.921  3.5195  1.9863 -1.0734
 8056SOL    HW235802   2.734   3.319   5.996  0.0920  1.6672  1.3632
 8057SOL     OW35803   1.323   1.940  11.227  0.1338  0.3769 -0.1752
 8057SOL    HW135804   1.307   2.020  11.277 -0.8836  1.1658 -1.7408
 8057SOL    HW235805   1.388   1.899  11.284  0.1050  0.0133 -0.4045
 8058SOL     OW35806   1.420   0.771  16.029 -0.2452  0.0751  0.1331
 8058SOL    HW135807   1.465   0.809  16.104  1.4538 -1.7734  0.0527
 8058SOL    HW235808   1.456   0.683  16.021 -1.5162 -0.6922  3.1189
 8059SOL     OW35809   0.873   4.179  11.745  0.0478  0.2866 -0.1785
 8059SOL    HW135810   0.838   4.256  11.790 -0.3115  0.0737 -0.0937
 8059SOL    HW235811   0.920   4.217  11.670  1.3268 -0.6353  0.1440
 8060SOL     OW35812   2.998   4.300   7.809 -0.2798 -0.3532  0.3486
 8060SOL    HW135813   3.076   4.282   7.863 -0.6060 -1.2474  0.5190
 8060SOL    HW235814   2.963   4.369   7.866 -1.3770 -2.0501  1.7401
 8061SOL     OW35815   2.600   1.238   8.580  0.1316  0.5686  0.4004
 8061SOL    HW135816   2.617   1.174   8.649  1.7191 -0.8171 -1.2994
 8061SOL    HW235817   2.600   1.320   8.631  4.2906 -0.0022  1.3004
 8062SOL     OW35818   1.580   0.923  10.061 -0.1805 -0.4859  0.3947
 8062SOL    HW135819   1.588   1.017  10.078  1.1663 -0.1641 -1.9376
 8062SOL    HW235820   1.540   0.887  10.140 -0.8537 -1.4111 -0.3704
 8063SOL     OW35821   2.543   0.955   7.112  0.5572  0.0893  0.2210
 8063SOL    HW135822   2.514   1.017   7.179  0.4564  1.3214 -0.9536
 8063SOL    HW235823   2.482   0.976   7.041  2.7676  0.3759 -1.5900
 8064SOL     OW35824   2.368   3.544   8.844  0.1241 -0.1578 -0.1302
 8064SOL    HW135825   2.277   3.573   8.832  0.4987 -0.0071 -2.5662
 8064SOL    HW235826   2.354   3.454   8.873 -2.2626  0.3019  0.1871
 8065SOL     OW35827   2.194   3.578   5.528  0.5286 -0.2616  0.2501
 8065SOL    HW135828   2.224   3.595   5.438 -1.3368 -0.6653 -0.4564
 8065SOL    HW235829   2.163   3.488   5.520  1.1295 -0.4341 -0.1858
 8066SOL     OW35830   2.626   3.768  11.322 -0.3664 -0.7401  0.1377
 8066SOL    HW135831   2.666   3.733  11.401  2.1360  0.4473 -0.6065
 8066SOL    HW235832   2.544   3.719  11.315 -0.6019 -0.5925  1.9829
 8067SOL     OW35833   1.448   0.809  14.997 -0.7745  0.2150 -0.4986
 8067SOL    HW135834   1.449   0.811  14.901  2.4038 -0.4088 -0.4855
 8067SOL    HW235835   1.388   0.735  15.005  0.9929 -1.3187 -1.3674
 8068SOL     OW35836   4.240   1.222  10.196 -0.6676 -0.6384 -0.5468
 8068SOL    HW135837   4.223   1.158  10.265 -0.2423  0.5609  0.6700
 8068SOL    HW235838   4.333   1.241  10.206 -0.8336  0.3488 -0.8597
 8069SOL     OW35839   4.282   3.425   3.721 -0.1662 -0.5714  0.7502
 8069SOL    HW135840   4.248   3.371   3.792 -1.1459 -0.8690  0.0481
 8069SOL    HW235841   4.368   3.386   3.702 -0.3233 -0.5427 -0.0248
 8070SOL     OW35842   0.754   3.728   4.682  0.4988 -0.2773 -0.1381
 8070SOL    HW135843   0.777   3.727   4.775 -2.7865 -1.3614  0.6686
 8070SOL    HW235844   0.738   3.635   4.671 -0.3686 -0.3140  1.4529
 8071SOL     OW35845   1.345   2.727   2.027 -0.5535 -0.1212 -0.5320
 8071SOL    HW135846   1.375   2.702   2.114 -0.3391 -0.5371 -0.7212
 8071SOL    HW235847   1.250   2.735   2.030 -0.4792  0.1899  0.6737
 8072SOL     OW35848   2.375   3.694   9.731  0.0419  0.1552 -0.0335
 8072SOL    HW135849   2.435   3.625   9.761 -1.6098 -1.1327  0.2936
 8072SOL    HW235850   2.351   3.659   9.646 -0.0603  0.1704 -0.0104
 8073SOL     OW35851   4.503   1.473   5.805 -0.5047 -0.0774 -0.5452
 8073SOL    HW135852   4.575   1.518   5.760 -0.8181  0.8096 -0.1510
 8073SOL    HW235853   4.498   1.392   5.755 -0.6823 -0.7269  0.5439
 8074SOL     OW35854   1.842   0.702   6.308  0.4172  0.3245  0.6308
 8074SOL    HW135855   1.751   0.678   6.324  0.0646  1.3135  0.1406
 8074SOL    HW235856   1.878   0.616   6.289 -0.7353 -0.3189  1.3727
 8075SOL     OW35857   0.773   0.446   4.506  0.3171  0.0188  0.0225
 8075SOL    HW135858   0.741   0.424   4.594  1.3084  1.2000  0.6776
 8075SOL    HW235859   0.749   0.378   4.444 -0.4823  0.8444 -0.5735
 8076SOL     OW35860   1.630   4.569   8.419  0.2478 -0.2296 -0.0537
 8076SOL    HW135861   1.662   4.645   8.468  0.2679 -0.5569  0.4450
 8076SOL    HW235862   1.711   4.521   8.402  1.1099  0.2690  2.5866
 8077SOL     OW35863   4.302   2.082  12.597  0.1207  0.6309 -0.2883
 8077SOL    HW135864   4.295   1.987  12.585 -1.7868  0.8726 -1.1238
 8077SOL    HW235865   4.365   2.080  12.668 -0.2754  1.6151  0.1012
 8078SOL     OW35866   4.448   2.005   9.161 -0.0074  0.4251 -0.4490
 8078SOL    HW135867   4.425   1.954   9.238 -0.5325 -1.1878 -1.6708
 8078SOL    HW235868   4.394   2.078   9.188  0.0235 -0.3291  1.6523
 8079SOL     OW35869   2.893   1.505  10.964  0.1428 -0.0116  0.5385
 8079SOL    HW135870   2.946   1.446  10.911  0.4833 -0.1337  1.0142
 8079SOL    HW235871   2.815   1.450  10.969  0.8648 -0.9486  1.4656
 8080SOL     OW35872   1.865   3.273  14.657 -0.1803  0.3067 -0.1707
 8080SOL    HW135873   1.952   3.266  14.619 -0.3720 -1.5230 -0.2497
 8080SOL    HW235874   1.824   3.322  14.586  0.0035  1.4725  0.5258
 8081SOL     OW35875   2.589   2.006   4.805 -0.1360  0.2765  0.2520
 8081SOL    HW135876   2.592   1.959   4.888  0.0181  0.7220  0.4998
 8081SOL    HW235877   2.676   2.047   4.804  0.6629 -1.4334 -0.2654
 8082SOL     OW35878   0.250   2.475   4.760 -0.1300  0.1255  1.1569
 8082SOL    HW135879   0.305   2.505   4.688 -1.1276  0.6810  0.6357
 8082SOL    HW235880   0.262   2.550   4.819  0.6762  0.1063  1.0202
 8083SOL     OW35881   2.312   2.727   4.404  0.3502 -0.4858 -0.4495
 8083SOL    HW135882   2.267   2.787   4.464 -0.9309 -1.2980 -0.6018
 8083SOL    HW235883   2.298   2.767   4.318  2.2157  0.4509 -0.3091
 8084SOL     OW35884   2.237   2.671   6.459  0.1173  0.0491  0.4099
 8084SOL    HW135885   2.311   2.703   6.512 -0.1870 -1.9540  2.0151
 8084SOL    HW235886   2.282   2.672   6.374  0.2301 -1.2105  0.4619
 8085SOL     OW35887   1.425   2.350   7.920  0.2504  0.0361  0.0242
 8085SOL    HW135888   1.427   2.374   8.013  0.1336  1.3668 -0.3189
 8085SOL    HW235889   1.456   2.260   7.919  1.7892  0.5545  0.9192
 8086SOL     OW35890   0.408   4.371  17.389  1.5366  0.0719  0.3850
 8086SOL    HW135891   0.437   4.283  17.411  1.0455 -0.3335 -0.6217
 8086SOL    HW235892   0.460   4.417  17.456  4.3075  0.8404 -2.2549
 8087SOL     OW35893   2.605   0.490   8.084 -0.6970 -0.1289  0.2788
 8087SOL    HW135894   2.680   0.432   8.067 -2.0417 -1.1331 -2.2737
 8087SOL    HW235895   2.627   0.567   8.032 -0.9359  0.3473  0.8828
 8088SOL     OW35896   0.388   1.640   4.949 -0.0584 -0.7928 -0.0507
 8088SOL    HW135897   0.368   1.709   4.885  1.6390 -0.1723  0.0990
 8088SOL    HW235898   0.383   1.563   4.891 -0.8254 -0.3406 -0.5949
 8089SOL     OW35899   0.821   3.454   4.763 -0.0003  0.0208 -0.0418
 8089SOL    HW135900   0.819   3.366   4.727  1.9296 -0.6568  1.4642
 8089SOL    HW235901   0.792   3.430   4.851  1.7472  1.3918  0.9298
 8090SOL     OW35902   3.936   4.596  12.179  0.5292 -0.3823  0.4287
 8090SOL    HW135903   4.004   4.644  12.225 -1.7006  2.8709  0.3018
 8090SOL    HW235904   3.949   4.642  12.096 -0.3150  0.1202  0.5826
 8091SOL     OW35905   2.926   0.528   0.659  0.0552 -0.4424 -0.0267
 8091SOL    HW135906   2.943   0.603   0.717  0.1050 -2.7295  2.9081
 8091SOL    HW235907   2.831   0.527   0.648 -0.1588  0.5339  1.7807
 8092SOL     OW35908   2.875   1.438   1.048  0.9716  0.3166  0.7180
 8092SOL    HW135909   2.817   1.487   0.989  1.8066  0.8956  0.3870
 8092SOL    HW235910   2.844   1.348   1.033 -2.4315  1.5668  0.1848
 8093SOL     OW35911   4.352   1.600  14.042  0.4933  0.7784  0.1907
 8093SOL    HW135912   4.386   1.681  14.081  0.7302 -0.0963  1.7888
 8093SOL    HW235913   4.258   1.606  14.055  0.6073  4.5911 -0.8360
 8094SOL     OW35914   2.252   1.914   9.412  0.1564  0.0057  0.3153
 8094SOL    HW135915   2.329   1.954   9.372  0.9831 -1.4624  0.4368
 8094SOL    HW235916   2.217   1.999   9.438 -1.3033 -0.5639  0.1978
 8095SOL     OW35917   2.916   2.869   4.009 -0.1643  0.7141  0.1242
 8095SOL    HW135918   2.938   2.815   4.085 -1.0934 -2.2136 -1.7033
 8095SOL    HW235919   2.900   2.808   3.937  2.4003 -0.4128  0.5246
 8096SOL     OW35920   4.540   2.233   3.551 -0.9817 -0.0549 -0.1964
 8096SOL    HW135921   4.597   2.271   3.618 -0.6267  0.0602 -0.5648
 8096SOL    HW235922   4.460   2.209   3.598 -1.7202  1.5588 -0.6511
 8097SOL     OW35923   0.383   3.836  17.054  0.0808  0.2026  0.4252
 8097SOL    HW135924   0.340   3.874  16.977  0.7487 -0.1893 -0.1353
 8097SOL    HW235925   0.388   3.742  17.038  1.4556  0.1060  1.4456
 8098SOL     OW35926   3.757   1.043   6.770  0.0070 -0.1345  0.5740
 8098SOL    HW135927   3.701   1.027   6.694 -0.4475  1.8059  0.4858
 8098SOL    HW235928   3.846   1.018   6.745 -0.7284 -0.0863 -2.0716
 8099SOL     OW35929   4.205   2.668   3.431  0.5251  0.1585  0.3610
 8099SOL    HW135930   4.275   2.621   3.386  0.4388 -0.4469  0.8718
 8099SOL    HW235931   4.152   2.593   3.456 -0.6086 -0.3441 -3.4975
 8100SOL     OW35932   1.642   3.163   2.625  0.6969  0.0108  0.1115
 8100SOL    HW135933   1.547   3.174   2.616  0.7178 -0.6889 -0.9555
 8100SOL    HW235934   1.653   3.133   2.715 -1.5101  0.5095  0.5473
 8101SOL     OW35935   4.137   2.212   7.298  0.2320 -0.2979 -0.3273
 8101SOL    HW135936   4.072   2.170   7.241  0.9926  2.7211 -3.4697
 8101SOL    HW235937   4.202   2.143   7.308 -0.5562 -0.9572  0.2965
 8102SOL     OW35938   1.886   2.731   6.350 -0.1723  0.1014 -0.0062
 8102SOL    HW135939   1.882   2.692   6.262 -2.5833 -0.0126  0.1551
 8102SOL    HW235940   1.946   2.671   6.394 -1.2501 -1.4003 -0.5731
 8103SOL     OW35941   4.455   2.573  10.324  0.5828  0.1696  0.7247
 8103SOL    HW135942   4.473   2.643  10.387 -0.8294 -2.6631  4.2725
 8103SOL    HW235943   4.427   2.623  10.247 -0.4475 -1.0237  0.3184
 8104SOL     OW35944   3.026   3.378  17.241  0.1788  0.3425  1.0063
 8104SOL    HW135945   3.106   3.394  17.192 -0.8797 -0.7666 -1.0552
 8104SOL    HW235946   2.961   3.357  17.174  3.2346 -0.8036 -1.5500
 8105SOL     OW35947   2.685   2.993   6.928 -0.3168  0.3101  0.2600
 8105SOL    HW135948   2.664   3.055   6.998  0.0999 -0.0000  0.6572
 8105SOL    HW235949   2.666   2.909   6.970 -0.3562  0.4122  0.4457
 8106SOL     OW35950   4.706   3.634   5.727  0.2804 -0.3917  0.2563
 8106SOL    HW135951   0.037   3.605   5.790  1.4930  1.9910  0.1221
 8106SOL    HW235952   4.721   3.728   5.741 -1.0961 -0.2739  0.8813
 8107SOL     OW35953   4.244   2.559  16.342 -0.6572  0.4384  0.1358
 8107SOL    HW135954   4.294   2.477  16.344  1.7583  1.9166 -0.0904
 8107SOL    HW235955   4.317   2.621  16.335 -0.3826  0.1797  0.6735
 8108SOL     OW35956   0.520   1.260   8.091  0.3614 -0.6433  0.2671
 8108SOL    HW135957   0.506   1.176   8.047  0.9506 -0.7989  0.3809
 8108SOL    HW235958   0.610   1.243   8.116 -0.1872  0.6318  3.0411
 8109SOL     OW35959   1.197   1.032   5.023  0.6557  0.0927  0.2889
 8109SOL    HW135960   1.204   0.942   5.053  2.0143 -0.1065 -0.6228
 8109SOL    HW235961   1.121   1.054   5.076  0.2098 -1.0963  0.1367
 8110SOL     OW35962   1.012   1.615   5.513 -0.8337  0.2663  0.2295
 8110SOL    HW135963   0.951   1.616   5.439 -0.3457  0.0000 -0.1861
 8110SOL    HW235964   1.075   1.555   5.473 -2.0407 -0.5068 -0.5186
 8111SOL     OW35965   0.473   0.172   8.883  0.0631  0.6757  0.3638
 8111SOL    HW135966   0.486   0.267   8.889 -1.9729  0.9772  0.0474
 8111SOL    HW235967   0.444   0.153   8.794 -0.4393 -0.1036  0.6962
 8112SOL     OW35968   4.584   4.132   6.933 -0.2157  0.0040  0.9459
 8112SOL    HW135969   4.669   4.169   6.908 -0.6011  1.5400  1.8822
 8112SOL    HW235970   4.576   4.153   7.026  0.3838 -1.4275  1.3160
 8113SOL     OW35971   4.628   4.278  12.207 -0.0296  0.0029  0.1751
 8113SOL    HW135972   4.700   4.236  12.255 -0.8347  0.8278  2.1212
 8113SOL    HW235973   4.646   4.263  12.114 -2.2861  0.1078 -0.2831
 8114SOL     OW35974   1.379   0.453   7.158  0.1873  0.7476  0.4737
 8114SOL    HW135975   1.398   0.372   7.205  1.3513  1.5104  1.3278
 8114SOL    HW235976   1.305   0.422   7.107  1.1109 -1.4102  0.4329
 8115SOL     OW35977   4.517   0.497   7.067 -0.6901  0.5572 -0.0284
 8115SOL    HW135978   4.464   0.422   7.043 -0.9138  0.1838  1.6448
 8115SOL    HW235979   4.462   0.574   7.053 -2.1402 -0.3681  0.6055
 8116SOL     OW35980   2.333   3.073   7.159 -0.2043 -0.4103  0.4104
 8116SOL    HW135981   2.312   3.158   7.119 -1.6258 -0.6680  0.5939
 8116SOL    HW235982   2.276   3.090   7.234 -0.1967 -0.3717  0.4076
 8117SOL     OW35983   4.010   0.816   1.846  0.1529 -0.5009 -0.3000
 8117SOL    HW135984   4.018   0.891   1.788  0.5549 -0.4950 -0.2377
 8117SOL    HW235985   3.942   0.844   1.908 -0.4209  1.1478 -1.6720
 8118SOL     OW35986   1.660   2.321  15.673 -0.1029  0.4297 -0.2061
 8118SOL    HW135987   1.637   2.413  15.685  1.4113  0.6731  1.0011
 8118SOL    HW235988   1.745   2.326  15.629  0.7835 -1.1761  1.3082
 8119SOL     OW35989   1.731   0.312   7.408 -0.6148  0.2614 -0.2252
 8119SOL    HW135990   1.671   0.240   7.388  0.8982 -0.8221 -0.8726
 8119SOL    HW235991   1.760   0.286   7.495 -3.3790 -0.4678  0.4531
 8120SOL     OW35992   0.349   3.846  13.567  0.2425 -0.6010 -0.5993
 8120SOL    HW135993   0.265   3.801  13.563 -0.2432  0.1580  1.2296
 8120SOL    HW235994   0.328   3.939  13.578  0.4748 -0.8313  1.8075
 8121SOL     OW35995   1.240   2.207   5.808  0.3143 -0.3333 -0.4983
 8121SOL    HW135996   1.216   2.142   5.742 -1.1195  0.8227 -1.1152
 8121SOL    HW235997   1.332   2.218   5.788  0.2556 -0.9397 -1.0882
 8122SOL     OW35998   4.096   1.690   8.672  0.1281  0.0409 -0.2398
 8122SOL    HW135999   4.110   1.781   8.699  2.2387 -0.3928  0.1217
 8122SOL    HW236000   4.007   1.682   8.637  0.5475 -0.7590 -1.1493
 8123SOL     OW36001   1.729   3.605  10.001 -0.4033  0.0530  0.2909
 8123SOL    HW136002   1.682   3.688  10.008 -0.5010  0.0814 -0.6746
 8123SOL    HW236003   1.802   3.631   9.945 -0.4762 -1.1205 -0.3577
 8124SOL     OW36004   3.109   2.276   0.940 -0.1148  0.0021 -0.1927
 8124SOL    HW136005   3.190   2.257   0.986 -1.4091  2.3275  3.0844
 8124SOL    HW236006   3.100   2.371   0.952 -1.5832 -0.2611  0.7809
 8125SOL     OW36007   1.974   1.087   6.298  0.1807  0.2586 -0.4324
 8125SOL    HW136008   2.031   1.092   6.221  1.1814 -2.1778  0.1554
 8125SOL    HW236009   2.032   1.114   6.368 -1.1600 -1.2249  1.2415
 8126SOL     OW36010   0.993   2.271  11.422  0.5828 -0.4167  0.0806
 8126SOL    HW136011   0.943   2.248  11.344  0.5566  0.3919 -0.1456
 8126SOL    HW236012   1.011   2.364  11.410 -0.1600 -0.2323  0.4062
 8127SOL     OW36013   3.864   3.151   8.777  0.0361 -0.2428  0.2742
 8127SOL    HW136014   3.835   3.175   8.689  1.6396 -0.8045 -0.4064
 8127SOL    HW236015   3.955   3.179   8.788 -0.3172  0.8059  0.5252
 8128SOL     OW36016   4.734   4.547   2.706 -0.2378 -0.0520  0.1279
 8128SOL    HW136017   4.649   4.515   2.737 -0.4772  1.6323  1.1899
 8128SOL    HW236018   4.703   4.631   2.671 -0.8666 -1.2013 -2.1396
 8129SOL     OW36019   0.583   0.540   6.180  0.3320  0.5033 -0.2318
 8129SOL    HW136020   0.661   0.543   6.234  0.9231  0.8538 -1.0946
 8129SOL    HW236021   0.629   0.509   6.102  0.3722  0.3247 -0.1364
 8130SOL     OW36022   1.116   3.613   6.414  0.3168 -0.4598  0.2739
 8130SOL    HW136023   1.059   3.545   6.378 -0.4927  0.3871 -0.0415
 8130SOL    HW236024   1.053   3.681   6.437  0.7927 -0.0917  0.5008
 8131SOL     OW36025   4.355   2.027  13.542  0.0334 -0.0010 -0.0244
 8131SOL    HW136026   4.433   2.024  13.487 -0.4790  0.0366 -0.7599
 8131SOL    HW236027   4.393   2.018  13.629  0.4738  3.2898  0.1199
 8132SOL     OW36028   2.090   1.149  10.370 -0.0608 -0.5031  0.1448
 8132SOL    HW136029   2.151   1.103  10.314 -0.1362 -1.1584  0.6074
 8132SOL    HW236030   2.061   1.217  10.309 -0.2534  0.1037  0.9006
 8133SOL     OW36031   2.479   1.454   9.530 -0.3742  0.1037  0.5297
 8133SOL    HW136032   2.458   1.540   9.565 -1.5293  0.5314 -1.2159
 8133SOL    HW236033   2.558   1.431   9.579 -0.3090 -1.1095 -0.1365
 8134SOL     OW36034   0.433   0.829   7.696 -0.4959 -0.2084  0.1292
 8134SOL    HW136035   0.398   0.802   7.611 -1.7843 -2.5585  1.4135
 8134SOL    HW236036   0.400   0.760   7.753  0.5803 -0.2819  0.6619
 8135SOL     OW36037   2.013   1.753  17.531 -0.2614 -0.1192  0.9631
 8135SOL    HW136038   2.064   1.814  17.479 -1.5314 -1.2137 -1.5262
 8135SOL    HW236039   2.067   1.674  17.531 -3.3817 -2.2263 -1.8732
 8136SOL     OW36040   0.402   3.562  14.285  0.0262  0.4408 -0.1814
 8136SOL    HW136041   0.413   3.654  14.307 -1.3047  0.6730 -0.5298
 8136SOL    HW236042   0.413   3.558  14.190  1.2884 -3.0598  0.1169
 8137SOL     OW36043   3.213   4.280   6.635 -0.7636 -0.1264 -0.5073
 8137SOL    HW136044   3.286   4.339   6.651 -1.5093  0.5018  0.5761
 8137SOL    HW236045   3.150   4.353   6.632 -0.7395 -0.0352  0.9110
 8138SOL     OW36046   4.189   0.975   4.559 -0.3004  0.0221  0.0890
 8138SOL    HW136047   4.104   0.938   4.583 -0.6310 -0.5881 -1.9714
 8138SOL    HW236048   4.211   0.926   4.479  0.5274 -0.0504  0.3599
 8139SOL     OW36049   1.664   3.186   7.608  0.0820 -0.6871 -0.1003
 8139SOL    HW136050   1.640   3.226   7.525  1.4848 -0.0217 -0.1822
 8139SOL    HW236051   1.703   3.107   7.572 -1.0073 -1.1844 -0.1927
 8140SOL     OW36052   1.857   2.717  15.693  0.3646 -0.0359 -0.2225
 8140SOL    HW136053   1.763   2.700  15.702  0.5433 -1.1005 -0.3814
 8140SOL    HW236054   1.859   2.722  15.597  2.0275  1.7632 -0.0968
 8141SOL     OW36055   4.161   2.775   6.911 -0.3600 -0.2274 -0.2622
 8141SOL    HW136056   4.149   2.794   6.818 -0.4563  0.0745 -0.1888
 8141SOL    HW236057   4.227   2.706   6.907 -0.3753 -0.2993  0.7257
 8142SOL     OW36058   0.656   0.550   7.213 -0.0005 -0.0515 -1.0280
 8142SOL    HW136059   0.594   0.569   7.283  0.2993 -0.2649 -0.7016
 8142SOL    HW236060   0.725   0.613   7.234 -0.3418  0.1629 -0.5649
 8143SOL     OW36061   1.275   0.720   8.166  0.6107  0.2950  0.6173
 8143SOL    HW136062   1.245   0.774   8.239 -2.2139 -1.8671  1.0718
 8143SOL    HW236063   1.220   0.642   8.172 -1.5878  1.7532 -0.6774
 8144SOL     OW36064   1.185   2.571   5.350  0.4089  0.5138  0.5842
 8144SOL    HW136065   1.266   2.520   5.350 -0.1543 -0.3916  1.1183
 8144SOL    HW236066   1.224   2.655   5.374  2.2022 -0.2800  0.4918
 8145SOL     OW36067   3.855   1.828   7.286  0.1227 -0.3082  0.3449
 8145SOL    HW136068   3.822   1.857   7.201  1.2898  2.1293  0.7206
 8145SOL    HW236069   3.835   1.901   7.344 -3.7494 -0.5996 -0.6353
 8146SOL     OW36070   3.177   3.522   7.129  0.2095  0.4920 -0.0363
 8146SOL    HW136071   3.081   3.528   7.132  0.2468  1.4729 -0.8146
 8146SOL    HW236072   3.199   3.454   7.193 -1.2945 -0.3800 -0.4361
 8147SOL     OW36073   3.644   3.198   8.969 -0.4633 -0.2306 -0.3949
 8147SOL    HW136074   3.701   3.162   8.902 -1.6950 -1.4775 -0.7810
 8147SOL    HW236075   3.560   3.203   8.924  0.1267  0.7644 -1.3593
 8148SOL     OW36076   1.365   2.363   7.214 -0.1426  0.3019  0.3923
 8148SOL    HW136077   1.329   2.295   7.271 -1.1263 -1.0814 -1.8686
 8148SOL    HW236078   1.392   2.420   7.286 -1.6016  0.3526  0.9127
 8149SOL     OW36079   4.354   1.585   0.602  0.1906  0.2166 -0.0212
 8149SOL    HW136080   4.308   1.670   0.598  1.9062  1.1311 -0.1193
 8149SOL    HW236081   4.316   1.556   0.685  3.0678 -1.7125  0.5980
 8150SOL     OW36082   4.669   4.678  12.982  0.0737  0.1148 -0.4948
 8150SOL    HW136083   4.605   4.660  12.913  0.7374  0.0844 -1.1060
 8150SOL    HW236084   0.011   4.664  12.926 -0.1340 -2.3653 -0.1698
 8151SOL     OW36085   4.298   4.719   2.470  0.0407  0.3756  0.5636
 8151SOL    HW136086   4.240   0.010   2.398  1.1708  0.7823 -0.2017
 8151SOL    HW236087   4.320   0.073   2.498  1.8885 -0.0317  0.3681
 8152SOL     OW36088   2.133   2.605   1.091 -1.0491  0.8814  0.1322
 8152SOL    HW136089   2.062   2.595   1.154  0.4049  1.3301  1.8544
 8152SOL    HW236090   2.083   2.577   1.014 -0.1683  0.7962 -0.4154
 8153SOL     OW36091   1.702   1.243   4.102 -0.0015 -0.5286  0.3718
 8153SOL    HW136092   1.688   1.155   4.138  1.5656 -0.3822  1.3383
 8153SOL    HW236093   1.746   1.227   4.019  2.5290  1.5842  1.3217
 8154SOL     OW36094   0.874   0.919  17.201 -0.2851 -0.9469  0.6224
 8154SOL    HW136095   0.883   0.967  17.119  3.4738 -1.6295  0.6088
 8154SOL    HW236096   0.854   0.834  17.163  0.5851 -1.4876  1.3755
 8155SOL     OW36097   2.071   2.307   7.170  0.3559  0.5360  0.1432
 8155SOL    HW136098   2.035   2.266   7.249  2.1744 -0.7966  0.2770
 8155SOL    HW236099   2.125   2.378   7.202 -0.5748  1.0686  0.5263
 8156SOL     OW36100   4.714   0.923   3.725  0.0217  0.6769 -0.1793
 8156SOL    HW136101   0.055   0.868   3.708 -0.1889  0.7125 -1.2707
 8156SOL    HW236102   0.009   1.011   3.702 -2.2002  1.2577 -0.8595
 8157SOL     OW36103   1.835   1.711   2.691  0.7200  0.4666 -0.6338
 8157SOL    HW136104   1.806   1.663   2.614 -1.6292  1.2312 -0.2435
 8157SOL    HW236105   1.859   1.643   2.754  1.3521  2.3823  1.2039
 8158SOL     OW36106   2.936   2.505   8.974 -0.9207  0.3183  0.2077
 8158SOL    HW136107   2.906   2.472   9.059  2.2577 -0.3481  1.0701
 8158SOL    HW236108   2.869   2.487   8.908  0.3637 -1.1397 -0.7024
 8159SOL     OW36109   3.134   4.446   4.640  0.6525 -0.0797 -0.3654
 8159SOL    HW136110   3.054   4.460   4.691  1.3932  0.5287  0.6450
 8159SOL    HW236111   3.122   4.357   4.608 -0.3944 -0.3295  0.7355
 8160SOL     OW36112   3.355   0.509   0.918  0.1605  0.3352  0.0616
 8160SOL    HW136113   3.375   0.420   0.945  0.5948  0.0319 -1.2785
 8160SOL    HW236114   3.299   0.485   0.844  0.3950  2.1782 -0.7208
 8161SOL     OW36115   3.315   2.364   6.957  0.3108 -0.3089  0.0949
 8161SOL    HW136116   3.280   2.276   6.939 -1.1500  0.6434 -1.7662
 8161SOL    HW236117   3.400   2.343   6.920 -0.4656 -1.8805 -0.8310
 8162SOL     OW36118   0.222   3.624   6.459 -0.1053  0.2205  0.3308
 8162SOL    HW136119   0.159   3.659   6.522  0.3924 -0.2440  1.0797
 8162SOL    HW236120   0.169   3.632   6.380 -0.3546  0.2777  0.5043
 8163SOL     OW36121   3.099   0.879  16.379  0.8716 -0.4507 -0.2502
 8163SOL    HW136122   3.089   0.785  16.366 -0.2766 -0.3224 -0.3384
 8163SOL    HW236123   3.183   0.899  16.339  1.0551 -0.6066  0.0565
 8164SOL     OW36124   3.059   1.544  17.315  0.2216  0.3306  0.3603
 8164SOL    HW136125   3.136   1.598  17.332 -0.3410  1.3820 -0.4572
 8164SOL    HW236126   3.018   1.611  17.261 -2.2742 -0.6310  1.0632
 8165SOL     OW36127   0.246   3.269   2.243  0.5979  0.3887 -0.0225
 8165SOL    HW136128   0.318   3.210   2.220 -1.1218 -1.3543 -0.9204
 8165SOL    HW236129   0.214   3.287   2.155 -0.1639 -1.7137 -0.1725
 8166SOL     OW36130   1.997   3.644   7.766 -0.3360 -0.4409  0.3752
 8166SOL    HW136131   1.982   3.683   7.680 -0.8595 -0.6519  0.3655
 8166SOL    HW236132   2.009   3.557   7.727  0.0205  0.0699 -0.6574
 8167SOL     OW36133   3.332   1.773  15.895  0.6427 -0.6205  0.2319
 8167SOL    HW136134   3.412   1.799  15.849 -0.1331  2.2986  0.5389
 8167SOL    HW236135   3.287   1.719  15.830 -2.5531  1.4818  0.6910
 8168SOL     OW36136   2.411   0.760   8.197 -0.4520  0.5048  0.3579
 8168SOL    HW136137   2.362   0.820   8.255 -0.1906 -0.2664  1.3765
 8168SOL    HW236138   2.422   0.825   8.127  0.3788 -0.9748 -0.8573
 8169SOL     OW36139   3.499   1.074   4.192  0.3686  0.6177  0.1937
 8169SOL    HW136140   3.588   1.091   4.163  0.6870 -0.7587  0.3597
 8169SOL    HW236141   3.464   1.159   4.218 -0.4714 -0.0078  1.1471
 8170SOL     OW36142   1.377   0.502   8.929  0.3847 -0.1803 -0.5165
 8170SOL    HW136143   1.371   0.410   8.952  2.0455  0.3639  2.1100
 8170SOL    HW236144   1.384   0.502   8.834 -1.0776 -0.7802 -0.6206
 8171SOL     OW36145   3.938   2.435  12.299 -0.0232 -0.5342  0.1228
 8171SOL    HW136146   3.977   2.514  12.260  1.8024 -1.9142 -0.8030
 8171SOL    HW236147   3.978   2.356  12.264 -0.6349 -0.1798 -1.4071
 8172SOL     OW36148   4.195   3.100  11.457  0.4364 -0.2967  0.1142
 8172SOL    HW136149   4.248   3.177  11.438  0.3503 -0.1679  0.3979
 8172SOL    HW236150   4.185   3.053  11.374  3.5209  1.1874 -1.0959
 8173SOL     OW36151   3.510   3.004   6.760  0.2192 -0.1700  0.2762
 8173SOL    HW136152   3.595   2.969   6.732 -0.2194 -0.4386 -0.7395
 8173SOL    HW236153   3.509   3.078   6.700 -0.5037 -1.0369 -0.7827
 8174SOL     OW36154   3.983   1.847   9.532 -0.0269  0.2884 -0.0071
 8174SOL    HW136155   3.940   1.764   9.550 -0.8674  0.5258 -0.9325
 8174SOL    HW236156   4.021   1.833   9.446  0.0832 -1.5483  0.3356
 8175SOL     OW36157   0.908   0.912   7.725  0.5598  0.0906 -0.2527
 8175SOL    HW136158   0.927   0.884   7.814  0.1647 -0.9810 -0.5127
 8175SOL    HW236159   0.993   0.917   7.682 -0.1672  1.3078 -1.5481
 8176SOL     OW36160   0.540   0.014   8.059  0.2712  0.4827 -0.3545
 8176SOL    HW136161   0.491   0.065   8.123 -0.2286 -1.4167  0.7808
 8176SOL    HW236162   0.528   4.660   8.092 -0.0108  0.2108 -1.1781
 8177SOL     OW36163   1.828   0.494   8.610 -0.2379  0.5167  0.3261
 8177SOL    HW136164   1.817   0.552   8.535 -0.5965  0.2668  0.1871
 8177SOL    HW236165   1.747   0.528   8.648  0.3145 -0.2056  2.1649
 8178SOL     OW36166   1.749   4.435   3.877  0.3031 -0.0136  0.2884
 8178SOL    HW136167   1.767   4.341   3.866 -0.3051 -0.0753 -0.2451
 8178SOL    HW236168   1.752   4.453   3.783 -0.7079 -2.6345 -0.2554
 8179SOL     OW36169   4.418   4.080   9.181 -0.1426 -0.5816  0.2411
 8179SOL    HW136170   4.359   4.128   9.123  0.1080  2.0663  2.1988
 8179SOL    HW236171   4.361   4.038   9.245  2.0984 -1.8305  1.4169
 8180SOL     OW36172   3.069   4.304   5.116  0.5277  0.4541 -0.4855
 8180SOL    HW136173   3.031   4.298   5.028  2.1753 -0.0161 -1.1545
 8180SOL    HW236174   3.120   4.223   5.110  0.2360  0.2914 -0.8268
 8181SOL     OW36175   3.926   4.570   2.919  0.1253  0.0125 -0.1790
 8181SOL    HW136176   3.992   4.501   2.919 -0.4504 -0.5314 -1.0084
 8181SOL    HW236177   3.956   4.632   2.852  3.4256  1.1086  2.3009
 8182SOL     OW36178   1.244   1.981   3.870  0.2324  0.2764  0.2012
 8182SOL    HW136179   1.311   1.962   3.935  0.5249  2.2745  0.4781
 8182SOL    HW236180   1.189   1.903   3.864  1.2620 -0.2380 -2.4713
 8183SOL     OW36181   4.454   4.470   2.805 -0.1924  0.7768  0.3622
 8183SOL    HW136182   4.429   4.554   2.842 -1.3121  0.7114 -0.2651
 8183SOL    HW236183   4.401   4.478   2.726 -0.9682 -2.2564  0.5729
 8184SOL     OW36184   3.134   1.874   6.421  0.4533 -0.0351 -0.2074
 8184SOL    HW136185   3.103   1.786   6.442  2.4506 -1.1111 -1.7827
 8184SOL    HW236186   3.120   1.916   6.506  0.6037 -0.6090  0.0974
 8185SOL     OW36187   4.522   2.114   5.091 -0.3039 -0.5331  0.3460
 8185SOL    HW136188   4.595   2.077   5.042 -0.4039  0.4937 -0.5760
 8185SOL    HW236189   4.450   2.062   5.054  0.2167  0.1448 -1.6167
 8186SOL     OW36190   0.587   1.903  12.942  0.0067  0.2753 -0.5983
 8186SOL    HW136191   0.653   1.899  12.873  0.3754 -0.5274 -0.1922
 8186SOL    HW236192   0.513   1.919  12.884 -1.1785  0.1844  0.8912
 8187SOL     OW36193   3.997   3.327   5.089 -0.1358  0.2947  0.4363
 8187SOL    HW136194   3.980   3.234   5.101 -0.5584  0.3884  0.5787
 8187SOL    HW236195   4.046   3.346   5.169  1.0065  1.5847 -0.5658
 8188SOL     OW36196   3.795   0.298   5.303 -0.5258  0.2502 -0.0862
 8188SOL    HW136197   3.801   0.350   5.383 -2.1341 -2.5533  1.8371
 8188SOL    HW236198   3.709   0.256   5.306  1.1080 -3.2027 -1.8005
 8189SOL     OW36199   2.380   3.278   6.792 -0.1714 -0.0573 -0.2788
 8189SOL    HW136200   2.426   3.195   6.775  1.8226  1.1592 -0.7582
 8189SOL    HW236201   2.312   3.255   6.728  0.9877 -0.7327 -1.2750
 8190SOL     OW36202   3.763   2.258  15.126  0.1800 -0.1164  0.2917
 8190SOL    HW136203   3.728   2.275  15.039  0.2349  1.1433  0.5266
 8190SOL    HW236204   3.855   2.241  15.107 -0.4062 -0.3100 -2.3997
 8191SOL     OW36205   0.452   4.340   3.714  0.6370  0.1485 -0.1156
 8191SOL    HW136206   0.477   4.253   3.681  1.6175  0.1382  0.6570
 8191SOL    HW236207   0.490   4.349   3.801  1.0515 -1.2915 -0.1465
 8192SOL     OW36208   0.086   3.069   3.880 -0.3162 -0.0141 -0.2140
 8192SOL    HW136209   0.025   2.996   3.889  0.5273 -0.6972 -0.0747
 8192SOL    HW236210   0.038   3.132   3.934 -1.0260  0.8109 -1.8057
 8193SOL     OW36211   1.111   3.883  17.322  0.3781 -0.1941 -0.9961
 8193SOL    HW136212   1.056   3.916  17.393  0.9601 -0.5918 -0.3549
 8193SOL    HW236213   1.087   3.944  17.252  0.0693  1.2230  0.3319
 8194SOL     OW36214   4.573   3.155   3.060 -0.1407  0.1955  0.2034
 8194SOL    HW136215   4.606   3.130   3.147  0.1182 -1.4374 -0.3548
 8194SOL    HW236216   4.656   3.181   3.022  1.1203 -2.4663  1.0959
 8195SOL     OW36217   1.693   3.335  10.755 -0.1848 -0.2025 -0.1129
 8195SOL    HW136218   1.668   3.245  10.735  0.5816 -0.8140  1.7912
 8195SOL    HW236219   1.687   3.380  10.670  1.7408  1.4747  0.6398
 8196SOL     OW36220   4.092   4.100   1.351  0.2270  0.4289 -0.0661
 8196SOL    HW136221   4.102   4.192   1.325 -0.0685  0.3102 -0.6056
 8196SOL    HW236222   3.996   4.090   1.348  0.0133  2.0492  1.1144
 8197SOL     OW36223   3.755   1.346   4.167  0.5493  0.5603 -0.0791
 8197SOL    HW136224   3.783   1.275   4.110 -4.3295 -0.7594 -0.7881
 8197SOL    HW236225   3.689   1.300   4.219 -0.0703  2.9785  1.2679
 8198SOL     OW36226   3.329   1.621   7.455 -0.2790  0.2220 -0.6461
 8198SOL    HW136227   3.257   1.669   7.416 -1.7933 -2.6188 -1.3629
 8198SOL    HW236228   3.391   1.625   7.382 -0.8617  1.0944 -1.0812
 8199SOL     OW36229   1.517   0.663   4.723  0.3089  0.0952 -0.1587
 8199SOL    HW136230   1.487   0.622   4.642 -0.8793  1.1559 -0.2584
 8199SOL    HW236231   1.493   0.586   4.775  0.1009  0.9914  1.0789
 8200SOL     OW36232   4.210   0.189   3.042 -0.2819 -0.3564 -0.0277
 8200SOL    HW136233   4.124   0.228   3.056  0.2845  0.5805  0.8246
 8200SOL    HW236234   4.189   0.156   2.955  0.2848 -0.5135 -0.1059
 8201SOL     OW36235   3.975   3.484   6.123  0.6296 -0.5784  0.0517
 8201SOL    HW136236   3.957   3.406   6.071  2.9441 -0.8749 -0.2956
 8201SOL    HW236237   4.016   3.545   6.061  0.2563  0.1672  0.5309
 8202SOL     OW36238   4.246   2.385  17.614  0.4544 -0.6675  0.5597
 8202SOL    HW136239   4.212   2.312  17.563  0.7386  0.1943 -0.8513
 8202SOL    HW236240   4.240   2.457  17.552  1.1569  0.8113  2.1886
 8203SOL     OW36241   0.809   2.190  16.091  0.0764 -0.2060 -0.0725
 8203SOL    HW136242   0.808   2.101  16.127 -1.6913  0.2251  0.9580
 8203SOL    HW236243   0.818   2.247  16.168  1.2937  1.3944 -1.3970
 8204SOL     OW36244   2.501   0.942  15.777 -0.2543 -0.0258 -0.3062
 8204SOL    HW136245   2.543   0.945  15.863 -1.3114  0.5710  0.1897
 8204SOL    HW236246   2.517   0.851  15.753  1.5907 -0.0769  1.0636
 8205SOL     OW36247   2.265   3.558   6.272 -0.4326 -0.3842 -0.4712
 8205SOL    HW136248   2.357   3.534   6.280 -0.9120 -1.9020  0.5242
 8205SOL    HW236249   2.235   3.556   6.363  0.2696 -1.4456 -0.2637
 8206SOL     OW36250   0.410   1.582   3.368  0.6175  0.0549 -0.4075
 8206SOL    HW136251   0.500   1.613   3.364  0.6824  0.2077  2.2762
 8206SOL    HW236252   0.381   1.572   3.277  0.4824 -0.1724 -0.3391
 8207SOL     OW36253   2.364   3.116   3.748 -0.0942 -0.4413 -0.4000
 8207SOL    HW136254   2.279   3.092   3.786  0.7025 -1.5946  0.6583
 8207SOL    HW236255   2.357   3.079   3.660  0.3093  2.8161 -1.7864
 8208SOL     OW36256   1.402   3.951   3.648 -0.2491 -0.2063  0.1848
 8208SOL    HW136257   1.445   3.870   3.674 -0.2381 -0.9837 -2.2253
 8208SOL    HW236258   1.435   4.009   3.717  2.8635 -3.1584  1.1873
 8209SOL     OW36259   3.395   0.852   4.292 -0.3458 -0.0609  0.3664
 8209SOL    HW136260   3.466   0.798   4.258 -0.2714  0.0278  0.3811
 8209SOL    HW236261   3.417   0.934   4.248  0.8800 -0.0506  0.9786
 8210SOL     OW36262   3.840   0.646  16.553 -0.0127 -0.0607 -0.9604
 8210SOL    HW136263   3.749   0.624  16.530 -1.1564  1.7299  1.8590
 8210SOL    HW236264   3.886   0.569  16.520  2.6718  0.7156  0.9635
 8211SOL     OW36265   3.795   1.063   4.484 -0.5822  0.0501 -0.7914
 8211SOL    HW136266   3.850   1.134   4.450  2.1505 -0.2884  2.9607
 8211SOL    HW236267   3.854   1.009   4.537 -0.3924  1.0293 -0.0024
 8212SOL     OW36268   0.951   0.068  16.347 -0.5776  0.3400  0.2099
 8212SOL    HW136269   0.889   0.141  16.347 -0.5791  0.3558 -1.4604
 8212SOL    HW236270   1.023   0.090  16.406  1.7302 -2.2876 -1.6338
 8213SOL     OW36271   2.671   0.274  16.442  0.2506 -0.1634  0.2427
 8213SOL    HW136272   2.657   0.358  16.486 -1.9116 -0.5771  0.3616
 8213SOL    HW236273   2.665   0.302  16.350  1.2698  0.4773  0.3701
 8214SOL     OW36274   0.912   3.206   8.926 -0.5027  0.4106  0.9338
 8214SOL    HW136275   0.832   3.253   8.952 -2.4476 -2.4044  0.0232
 8214SOL    HW236276   0.908   3.227   8.833  1.0680 -0.1166  0.7492
 8215SOL     OW36277   1.242   4.645   8.694 -0.2608 -0.1347 -0.3296
 8215SOL    HW136278   1.268   4.636   8.786  0.3714 -3.0683 -0.7982
 8215SOL    HW236279   1.296   4.582   8.646  0.2100  0.8119 -1.0450
 8216SOL     OW36280   0.996   1.660  10.221  0.5780  0.1597 -0.2677
 8216SOL    HW136281   1.043   1.717  10.160 -0.7618  0.7630 -0.7229
 8216SOL    HW236282   1.069   1.629  10.275  1.7621 -0.5993 -2.3245
 8217SOL     OW36283   1.854   1.374   6.051  0.1811  0.0144 -0.1089
 8217SOL    HW136284   1.896   1.300   6.095  1.6414  1.8212  1.6295
 8217SOL    HW236285   1.816   1.338   5.972  3.7553 -4.3779  0.1911
 8218SOL     OW36286   2.489   0.708   7.635  0.6278  0.1557 -0.0323
 8218SOL    HW136287   2.409   0.749   7.666  0.4966 -1.9797  2.4983
 8218SOL    HW236288   2.487   0.733   7.543 -1.7172 -0.3396 -0.1077
 8219SOL     OW36289   1.949   3.330   4.725  0.1249 -0.4308  0.2883
 8219SOL    HW136290   1.862   3.318   4.764  0.6437 -2.3698  0.8344
 8219SOL    HW236291   1.954   3.425   4.737 -2.5488 -0.4397  1.4108
 8220SOL     OW36292   1.035   4.376   9.383 -0.1089 -0.2934 -0.5373
 8220SOL    HW136293   1.054   4.397   9.475  0.4753  3.5636 -1.5324
 8220SOL    HW236294   1.028   4.281   9.381  0.4187 -0.3728  1.0884
 8221SOL     OW36295   2.117   3.432  10.950 -0.1700 -0.4716  0.3101
 8221SOL    HW136296   2.038   3.384  10.975 -1.2641  0.8645 -0.5760
 8221SOL    HW236297   2.092   3.521  10.973 -2.6848 -0.8124 -1.0598
 8222SOL     OW36298   0.231   2.512   5.827 -0.0930  0.3247  0.2121
 8222SOL    HW136299   0.209   2.510   5.734 -1.9012 -0.4632  0.6707
 8222SOL    HW236300   0.325   2.531   5.824 -0.0459  0.1291  0.4129
 8223SOL     OW36301   2.952   0.268   4.591 -0.0550  0.1257 -0.5502
 8223SOL    HW136302   2.992   0.332   4.532 -0.5582  2.1802  1.3429
 8223SOL    HW236303   2.941   0.193   4.532  1.9213 -0.6253  0.0197
 8224SOL     OW36304   2.195   0.307   5.460 -0.2172 -0.3211  0.0199
 8224SOL    HW136305   2.290   0.304   5.467 -0.4559 -1.4215  2.6362
 8224SOL    HW236306   2.170   0.239   5.522  2.1771 -1.5022 -0.3247
 8225SOL     OW36307   3.173   4.277   5.502  0.1511 -0.4914 -0.5462
 8225SOL    HW136308   3.166   4.186   5.531  0.9267 -0.4549 -0.2557
 8225SOL    HW236309   3.215   4.256   5.418  0.0963  1.6290 -1.1032
 8226SOL     OW36310   1.611   1.063   6.579  0.2732  0.2060  0.5658
 8226SOL    HW136311   1.550   1.085   6.650  0.5402 -1.1742  1.2230
 8226SOL    HW236312   1.618   0.968   6.594  1.3275  0.3140  0.7582
 8227SOL     OW36313   2.098   3.883   8.574 -0.0031  0.2284  0.0720
 8227SOL    HW136314   2.085   3.965   8.622  1.5875 -0.9257  2.4255
 8227SOL    HW236315   2.093   3.820   8.646  2.3524 -1.4922 -1.2710
 8228SOL     OW36316   3.980   1.965   0.624 -0.1360  0.2674 -0.3706
 8228SOL    HW136317   4.065   1.922   0.635 -0.7383 -0.2728  2.0537
 8228SOL    HW236318   3.927   1.919   0.689 -1.7470  1.3165 -0.9413
 8229SOL     OW36319   3.041   2.417   8.387  0.6225 -0.2254 -0.1881
 8229SOL    HW136320   2.980   2.343   8.386 -0.2784  0.5424 -1.8118
 8229SOL    HW236321   3.034   2.456   8.474 -0.9115 -0.4791 -0.1914
 8230SOL     OW36322   2.519   2.426   3.925  0.1998 -0.4606 -0.3923
 8230SOL    HW136323   2.547   2.350   3.976 -3.4859 -1.2857  0.4331
 8230SOL    HW236324   2.498   2.385   3.842 -2.5073  1.3238 -0.5781
 8231SOL     OW36325   0.061   3.389   2.739  0.3290 -0.0476  0.2141
 8231SOL    HW136326   0.077   3.469   2.689  0.9792 -0.7444 -0.6867
 8231SOL    HW236327   0.089   3.322   2.677  2.4944  1.2206 -0.1455
 8232SOL     OW36328   4.071   4.118   3.631  0.0191 -0.1079  1.5125
 8232SOL    HW136329   4.150   4.117   3.686  0.6402 -0.5929  0.6268
 8232SOL    HW236330   4.114   4.117   3.545 -2.9274 -1.5934  0.0686
 8233SOL     OW36331   2.904   3.330   5.657 -1.1360 -0.6412  0.1658
 8233SOL    HW136332   2.947   3.279   5.725  0.0243  2.6492  1.8800
 8233SOL    HW236333   2.975   3.355   5.598 -0.7818 -0.0580  0.8451
 8234SOL     OW36334   4.498   2.546   7.645 -0.0444  0.1298 -0.2311
 8234SOL    HW136335   4.512   2.500   7.728  0.3107  1.7918  0.6264
 8234SOL    HW236336   4.403   2.542   7.645 -0.0375 -0.0357 -0.3582
 8235SOL     OW36337   0.074   1.586   9.318  0.5864  0.0980  0.5619
 8235SOL    HW136338   0.068   1.630   9.233  3.2075  1.5853  1.1761
 8235SOL    HW236339   4.718   1.555   9.326 -0.2252  1.8514 -1.9287
 8236SOL     OW36340   2.704   3.774   5.714 -0.3106  0.2145 -0.5271
 8236SOL    HW136341   2.615   3.760   5.681 -0.2343 -1.2809 -0.1118
 8236SOL    HW236342   2.745   3.830   5.648  1.9416 -2.4734 -1.4176
 8237SOL     OW36343   4.637   0.756  11.812  0.6475 -0.1563 -0.4798
 8237SOL    HW136344   4.711   0.744  11.870 -1.5428  0.0529  2.3683
 8237SOL    HW236345   4.570   0.745  11.879 -0.1221 -1.6650 -1.4898
 8238SOL     OW36346   1.406   3.438   8.734 -0.0797  0.2726  0.0005
 8238SOL    HW136347   1.351   3.435   8.813 -0.6329  0.2005 -0.3861
 8238SOL    HW236348   1.425   3.532   8.741  0.1408  0.2606 -0.4410
 8239SOL     OW36349   1.274   1.691   2.341 -0.1711  0.2527  0.1080
 8239SOL    HW136350   1.263   1.649   2.256 -1.9248  2.4661 -0.7464
 8239SOL    HW236351   1.189   1.681   2.383 -0.0293  2.3400  0.9044
 8240SOL     OW36352   2.990   2.674   2.359 -0.7456 -0.5481 -0.7441
 8240SOL    HW136353   2.978   2.675   2.454 -0.4487  1.7719 -0.7396
 8240SOL    HW236354   3.049   2.598   2.356 -2.0443 -1.6066  0.4866
 8241SOL     OW36355   0.646   3.724   7.955 -0.2917 -0.5028 -0.6485
 8241SOL    HW136356   0.646   3.817   7.930 -0.4471 -0.0176  1.1633
 8241SOL    HW236357   0.566   3.709   8.005 -0.6267  0.5448 -0.8544
 8242SOL     OW36358   1.336   1.217   7.254 -0.0266 -0.4059 -0.1335
 8242SOL    HW136359   1.414   1.164   7.273  1.0227  1.4035  0.6161
 8242SOL    HW236360   1.350   1.233   7.161 -2.8091  3.1727  0.0473
 8243SOL     OW36361   0.230   3.343   6.515 -0.1325 -0.4930 -0.1752
 8243SOL    HW136362   0.256   3.434   6.525  0.7122 -0.6225 -1.1901
 8243SOL    HW236363   0.194   3.315   6.599 -0.9900  0.2326 -0.3018
 8244SOL     OW36364   2.861   4.509   4.786 -0.2481 -0.9285 -0.2012
 8244SOL    HW136365   2.895   4.598   4.787  1.0258 -1.3985 -0.4867
 8244SOL    HW236366   2.799   4.511   4.859 -0.1380 -1.2138 -0.0947
 8245SOL     OW36367   2.613   0.832   5.801  0.1425 -0.1779  0.3305
 8245SOL    HW136368   2.538   0.875   5.760  0.9647  1.7415  0.8412
 8245SOL    HW236369   2.581   0.749   5.836 -0.1083 -0.1805  0.0961
 8246SOL     OW36370   3.958   3.234  17.460  0.1912  0.8151 -0.6883
 8246SOL    HW136371   3.971   3.140  17.476 -0.1859  1.2227  1.9787
 8246SOL    HW236372   3.899   3.229  17.385 -0.3875 -1.4568 -0.0806
 8247SOL     OW36373   0.527   1.428  11.612 -0.4081 -0.4781  0.1153
 8247SOL    HW136374   0.446   1.378  11.600  0.8736 -2.8751  1.2424
 8247SOL    HW236375   0.511   1.463  11.699  0.7896 -1.7808  0.8646
 8248SOL     OW36376   1.147   2.419   3.998  0.6959  0.5173 -0.3296
 8248SOL    HW136377   1.112   2.344   4.047  1.2121  1.0913  0.9378
 8248SOL    HW236378   1.132   2.390   3.908 -0.6278 -0.4031  0.1812
 8249SOL     OW36379   3.679   4.701   3.413 -0.0535 -0.4046  0.3696
 8249SOL    HW136380   3.730   4.622   3.431  0.6144 -0.1064 -0.2298
 8249SOL    HW236381   3.614   4.672   3.349  1.8410  0.5338 -2.0055
 8250SOL     OW36382   0.717   0.771  15.859 -0.5420  0.1116  0.3875
 8250SOL    HW136383   0.698   0.726  15.777  2.4006 -1.0482  0.3432
 8250SOL    HW236384   0.812   0.758  15.859 -0.5776 -0.1420  1.1379
 8251SOL     OW36385   1.831   0.214   7.150  0.1364 -0.5536  0.1896
 8251SOL    HW136386   1.809   0.307   7.142 -2.0163 -1.2134 -1.6256
 8251SOL    HW236387   1.769   0.189   7.219  0.2463 -2.1832 -0.2948
 8252SOL     OW36388   1.849   4.201   1.228  0.5708 -0.4128 -0.3705
 8252SOL    HW136389   1.774   4.173   1.176  0.4538 -1.0804  0.1596
 8252SOL    HW236390   1.869   4.122   1.278  1.2366  1.5295  2.4462
 8253SOL     OW36391   4.526   0.911  12.363  0.0543 -0.3273 -0.3042
 8253SOL    HW136392   4.589   0.923  12.434 -2.6983  1.7468  1.8206
 8253SOL    HW236393   4.582   0.917  12.286 -1.2255 -0.1366 -1.2193
 8254SOL     OW36394   1.421   1.600   6.956  0.2283  0.1149 -0.4510
 8254SOL    HW136395   1.428   1.637   7.044 -0.4024  0.0456 -0.3733
 8254SOL    HW236396   1.368   1.666   6.912 -0.7116 -1.2876 -1.4102
 8255SOL     OW36397   1.122   1.790   3.006  0.7060  0.0345  0.5776
 8255SOL    HW136398   1.119   1.779   2.911  1.3100  1.5256  0.3920
 8255SOL    HW236399   1.075   1.710   3.033  1.5810 -0.6369  0.1184
 8256SOL     OW36400   0.133   2.322   3.476 -0.3154 -0.3137 -0.5233
 8256SOL    HW136401   0.090   2.237   3.478  0.1478 -0.5798 -1.9879
 8256SOL    HW236402   0.103   2.360   3.559 -0.5784 -1.1695 -0.2233
 8257SOL     OW36403   0.505   3.534   4.325 -0.0096  0.0882 -0.0154
 8257SOL    HW136404   0.436   3.477   4.359 -0.4761 -1.0467 -2.8079
 8257SOL    HW236405   0.577   3.485   4.364 -0.0790 -0.2364 -0.2867
 8258SOL     OW36406   1.945   3.158  12.557 -0.2230  0.0425 -0.5230
 8258SOL    HW136407   2.006   3.221  12.519  0.4957 -0.6282 -0.4964
 8258SOL    HW236408   1.975   3.160  12.648  1.8422 -0.5075 -1.1859
 8259SOL     OW36409   3.348   1.923  11.387 -0.0813 -0.4874  0.0728
 8259SOL    HW136410   3.265   1.879  11.367 -1.9261  2.4979  1.2329
 8259SOL    HW236411   3.364   1.945  11.296  0.4728  2.6448  0.9408
 8260SOL     OW36412   2.574   4.535   8.002  0.0165  0.4317 -0.7438
 8260SOL    HW136413   2.640   4.584   7.954 -0.5348  1.7958 -0.1087
 8260SOL    HW236414   2.628   4.492   8.068 -1.1350  2.5279  1.6139
 8261SOL     OW36415   2.805   1.497   7.816 -0.9603  1.0500 -0.1446
 8261SOL    HW136416   2.756   1.416   7.834 -1.2911  1.2943  0.0567
 8261SOL    HW236417   2.740   1.565   7.834 -1.1107  1.1524 -1.0897
 8262SOL     OW36418   1.006   3.477   9.110 -0.2470 -0.4824 -0.3992
 8262SOL    HW136419   0.960   3.546   9.062 -0.1161 -2.3294 -3.1918
 8262SOL    HW236420   0.928   3.447   9.158 -1.0682  0.8339 -0.9008
 8263SOL     OW36421   3.172   0.521  10.368  0.2581  0.1519 -0.1290
 8263SOL    HW136422   3.245   0.472  10.332 -0.5005  0.4056 -1.9720
 8263SOL    HW236423   3.129   0.453  10.420  0.1511  0.6150  0.3980
 8264SOL     OW36424   1.623   0.695   3.806  0.3892 -1.2363 -0.1581
 8264SOL    HW136425   1.570   0.763   3.846  1.0197 -0.0510 -1.3391
 8264SOL    HW236426   1.671   0.740   3.737  0.0379 -0.0549  0.3764
 8265SOL     OW36427   4.010   4.462   5.346  0.1472  0.4786 -0.3336
 8265SOL    HW136428   3.989   4.502   5.262  0.6509  2.2074  0.3504
 8265SOL    HW236429   4.101   4.492   5.348 -0.3118  1.9285 -0.8236
 8266SOL     OW36430   3.552   1.562   2.017 -0.4337  0.2979  0.0851
 8266SOL    HW136431   3.568   1.473   2.048 -0.2841 -0.4861 -2.2588
 8266SOL    HW236432   3.632   1.586   1.971  0.4074  0.2502  1.5168
 8267SOL     OW36433   0.368   0.050   8.521 -0.0578 -0.0029 -0.1634
 8267SOL    HW136434   0.327   0.086   8.599 -1.2669 -0.3194 -0.6539
 8267SOL    HW236435   0.303   4.723   8.488 -0.2346 -1.2344  2.4685
 8268SOL     OW36436   0.554   2.199   3.671  0.0777 -0.5587  0.3409
 8268SOL    HW136437   0.545   2.212   3.765  1.9051  1.2127  0.2543
 8268SOL    HW236438   0.466   2.223   3.640 -0.3764  0.4153  2.3568
 8269SOL     OW36439   2.028   1.438  11.335  0.1412  0.7526  0.0664
 8269SOL    HW136440   2.061   1.364  11.285 -1.7567  0.6782 -1.0938
 8269SOL    HW236441   2.035   1.395  11.421  3.0040  2.4152  0.6616
 8270SOL     OW36442   1.393   3.591   9.517  0.7811  0.1152  0.3343
 8270SOL    HW136443   1.408   3.631   9.431  1.6200 -2.1853 -0.5752
 8270SOL    HW236444   1.484   3.599   9.546  0.3162  1.9160  1.2746
 8271SOL     OW36445   4.168   2.617  17.475  0.3458 -0.2223 -0.2661
 8271SOL    HW136446   4.088   2.669  17.486  0.5983 -0.0998  1.0134
 8271SOL    HW236447   4.140   2.557  17.406  0.4486  0.5616 -1.0016
 8272SOL     OW36448   0.841   0.769   5.147  0.3916 -0.0676 -0.0556
 8272SOL    HW136449   0.887   0.852   5.135  0.2964  0.2681  1.9787
 8272SOL    HW236450   0.779   0.792   5.217  1.8438 -2.9811  2.1823
 8273SOL     OW36451   3.604   4.708   7.131  0.0043  0.2988  0.2616
 8273SOL    HW136452   3.696   0.001   7.128 -0.4448  2.1516  3.3344
 8273SOL    HW236453   3.617   4.614   7.124 -1.5009  0.1328 -0.1802
 8274SOL     OW36454   0.042   1.425  12.650 -0.9495 -0.0056  0.2074
 8274SOL    HW136455   0.053   1.409  12.744 -1.1623  0.4974  0.3179
 8274SOL    HW236456   0.091   1.506  12.636  1.8620 -1.3613  1.9402
 8275SOL     OW36457   3.953   2.456   6.805 -0.8650 -0.2617 -0.2649
 8275SOL    HW136458   3.950   2.365   6.834  2.8621 -0.0580  0.7199
 8275SOL    HW236459   4.020   2.430   6.742  0.8533 -1.2741  1.9902
 8276SOL     OW36460   1.487   0.169   3.402 -0.0431 -0.0283 -0.0686
 8276SOL    HW136461   1.432   0.172   3.324  1.3874  0.7923 -1.0609
 8276SOL    HW236462   1.529   0.085   3.383 -1.1083 -0.4395 -0.5547
 8277SOL     OW36463   3.907   4.693   5.630 -0.3854 -0.2983  0.0800
 8277SOL    HW136464   3.915   0.028   5.694  0.4552  0.9544 -1.4118
 8277SOL    HW236465   3.818   4.659   5.629 -0.5559  0.1409  0.6403
 8278SOL     OW36466   2.072   2.529   8.068  0.7473 -0.0929  0.9722
 8278SOL    HW136467   2.098   2.593   8.002 -1.2428 -1.6764 -1.3581
 8278SOL    HW236468   2.155   2.486   8.085  1.4744  1.1626  0.5996
 8279SOL     OW36469   3.776   2.969   5.734  0.5277 -0.1178 -0.1022
 8279SOL    HW136470   3.735   2.935   5.655  0.3033 -0.2153  0.0567
 8279SOL    HW236471   3.848   2.911   5.760  1.5124  1.2354  0.2265
 8280SOL     OW36472   2.364   2.616   0.476 -0.4590  0.6162 -0.1761
 8280SOL    HW136473   2.296   2.640   0.413 -0.0088  2.0658 -0.1208
 8280SOL    HW236474   2.313   2.614   0.557  1.4635 -1.0461  0.9815
 8281SOL     OW36475   2.829   0.433  15.965  0.3818 -0.3298  0.0398
 8281SOL    HW136476   2.917   0.447  15.932  0.9437 -2.5214  0.6258
 8281SOL    HW236477   2.781   0.509  15.931 -2.3168 -2.6246 -1.2023
 8282SOL     OW36478   2.680   3.276   8.340 -0.1993  0.2318 -0.3271
 8282SOL    HW136479   2.586   3.278   8.359 -0.5061  2.1283 -2.0269
 8282SOL    HW236480   2.699   3.189   8.374 -0.4524  0.7176  1.0896
 8283SOL     OW36481   2.603   2.506   9.923  0.5668 -0.6825  0.1690
 8283SOL    HW136482   2.552   2.454   9.985 -0.2811 -2.1828 -1.7961
 8283SOL    HW236483   2.579   2.599   9.932  1.2685 -0.8877  4.1411
 8284SOL     OW36484   1.851   3.734   3.140 -0.1302  0.0314  0.2196
 8284SOL    HW136485   1.915   3.683   3.190 -0.5112 -0.0578  0.6110
 8284SOL    HW236486   1.839   3.816   3.188  1.2513  0.1714  0.3265
 8285SOL     OW36487   3.488   3.026   3.700 -0.0281  0.3373  0.0854
 8285SOL    HW136488   3.579   3.045   3.675  1.4759 -1.5350  4.1298
 8285SOL    HW236489   3.465   3.095   3.762  1.4195  0.9735 -0.0978
 8286SOL     OW36490   1.089   0.864   9.580 -0.1478  0.1947  0.3704
 8286SOL    HW136491   1.009   0.916   9.594  1.0391  2.3265 -0.7540
 8286SOL    HW236492   1.155   0.920   9.621  0.3279  0.0021 -0.1377
 8287SOL     OW36493   2.776   1.192   8.380 -0.2291  0.2158  0.0519
 8287SOL    HW136494   2.807   1.281   8.362  0.2444 -0.0388 -0.3531
 8287SOL    HW236495   2.714   1.216   8.450 -0.4263 -1.5449  0.4634
 8288SOL     OW36496   1.221   3.694   4.858 -0.4906 -0.3173 -0.1803
 8288SOL    HW136497   1.175   3.641   4.793 -1.7869 -0.7989  1.1325
 8288SOL    HW236498   1.255   3.755   4.793 -0.5772 -0.4786 -0.3742
 8289SOL     OW36499   4.097   4.530   4.128 -0.6337 -0.6153  0.3226
 8289SOL    HW136500   4.088   4.435   4.138  1.3576 -0.5209  3.0318
 8289SOL    HW236501   4.069   4.541   4.037 -1.5808 -0.1635  0.6686
 8290SOL     OW36502   0.739   1.779   9.621  0.5122  0.4679 -0.9446
 8290SOL    HW136503   0.679   1.795   9.548  0.8469 -0.4104 -1.4188
 8290SOL    HW236504   0.752   1.869   9.651 -0.1776  0.1623  0.2345
 8291SOL     OW36505   3.276   2.499   5.918  0.1374  0.2265 -0.5891
 8291SOL    HW136506   3.317   2.439   5.980 -0.3095 -0.5952 -1.0941
 8291SOL    HW236507   3.197   2.523   5.967  1.1116  3.0209 -0.3778
 8292SOL     OW36508   3.100   3.906   7.121 -0.4715 -0.0687 -0.1425
 8292SOL    HW136509   3.141   3.849   7.056 -1.9158 -1.1105 -0.1301
 8292SOL    HW236510   3.015   3.929   7.084 -2.3482 -1.0315  3.5655
 8293SOL     OW36511   0.210   0.732   3.746  0.0338  0.3045 -0.5981
 8293SOL    HW136512   0.213   0.646   3.789 -2.3638  0.4710 -0.0884
 8293SOL    HW236513   0.221   0.782   3.828  1.3856  1.4869 -1.4978
 8294SOL     OW36514   1.974   3.927   6.628 -0.0078 -0.2575 -0.4595
 8294SOL    HW136515   2.067   3.907   6.635  0.1078  0.8846  1.0886
 8294SOL    HW236516   1.967   4.022   6.627 -1.6547 -0.3491  2.4526
 8295SOL     OW36517   3.280   4.543   9.454 -0.5069  0.4325 -0.8525
 8295SOL    HW136518   3.344   4.549   9.383  0.2574  0.2966 -0.1575
 8295SOL    HW236519   3.339   4.554   9.528 -2.2037  3.4486  0.0590
 8296SOL     OW36520   0.559   1.708   6.801 -0.1774  0.0287  0.5230
 8296SOL    HW136521   0.551   1.730   6.894  0.2968  1.3706  0.2477
 8296SOL    HW236522   0.535   1.615   6.800 -0.2927  0.0846 -2.2716
 8297SOL     OW36523   2.111   2.145   9.148 -0.2175  0.2907 -0.2400
 8297SOL    HW136524   2.136   2.153   9.240  1.3224  1.4831 -0.7524
 8297SOL    HW236525   2.028   2.099   9.154 -0.2319  0.1646 -1.2876
 8298SOL     OW36526   3.667   1.339  17.366  0.1239  0.3448 -0.3527
 8298SOL    HW136527   3.691   1.409  17.427 -0.5821  0.1080  0.2069
 8298SOL    HW236528   3.706   1.263  17.409  0.9447  0.1671 -1.4140
 8299SOL     OW36529   4.156   2.618   7.711 -0.3549  0.2026 -0.2096
 8299SOL    HW136530   4.178   2.710   7.696 -1.6681  0.1485 -2.3133
 8299SOL    HW236531   4.189   2.576   7.632  1.8734  2.5230 -0.5136
 8300SOL     OW36532   2.092   0.361   6.609 -0.0732 -0.0973 -0.5616
 8300SOL    HW136533   2.120   0.302   6.539  0.7765 -1.0260  0.5669
 8300SOL    HW236534   2.061   0.302   6.677 -0.2268  0.6584  0.0236
 8301SOL     OW36535   2.004   4.077   6.911 -0.9341 -0.5298  0.2396
 8301SOL    HW136536   2.013   4.157   6.963  1.6285 -0.4516 -0.3226
 8301SOL    HW236537   2.051   4.099   6.831 -1.7358  0.0562 -0.0717
 8302SOL     OW36538   2.154   1.793   3.752 -0.3547  0.1542  0.0897
 8302SOL    HW136539   2.173   1.760   3.840 -0.1809  2.0773  0.7728
 8302SOL    HW236540   2.234   1.764   3.710  0.1820  0.5417  0.8458
 8303SOL     OW36541   1.246   4.290   9.080  0.5322 -0.5171  0.3762
 8303SOL    HW136542   1.338   4.288   9.055 -0.1268 -1.5433 -1.9661
 8303SOL    HW236543   1.194   4.255   9.007  0.9021 -0.9744  0.3366
 8304SOL     OW36544   4.248   1.839   8.030 -0.4490  0.5087 -0.4690
 8304SOL    HW136545   4.217   1.822   8.119  2.9583  1.6168  0.9434
 8304SOL    HW236546   4.160   1.848   7.994 -0.4037 -0.4412 -0.8309
 8305SOL     OW36547   2.834   3.055  13.406  0.4374  0.2456  0.0855
 8305SOL    HW136548   2.776   3.084  13.336  0.5999  1.5815  0.5059
 8305SOL    HW236549   2.921   3.081  13.375  0.8213 -2.0406 -0.8093
 8306SOL     OW36550   1.598   1.906   3.895  0.2831  0.3232  0.0528
 8306SOL    HW136551   1.667   1.929   3.833  2.6265 -2.2953  1.6412
 8306SOL    HW236552   1.627   1.944   3.979  2.8901  0.7620 -1.0475
 8307SOL     OW36553   1.485   2.122  10.888 -0.5620 -0.2577  0.5889
 8307SOL    HW136554   1.469   2.041  10.937  0.7575 -1.1366 -0.4778
 8307SOL    HW236555   1.529   2.165  10.962 -0.2364 -1.2056  0.9536
 8308SOL     OW36556   1.427   2.493  15.946  0.4728  0.4445 -0.3276
 8308SOL    HW136557   1.353   2.510  16.004  0.2740  1.4219 -0.8548
 8308SOL    HW236558   1.388   2.513  15.860  1.7731 -1.5700 -1.3776
 8309SOL     OW36559   2.617   4.590   6.601 -0.5429 -0.0383 -0.1021
 8309SOL    HW136560   2.584   4.654   6.665  1.4839  0.8477  0.0672
 8309SOL    HW236561   2.550   4.585   6.534 -1.7271  1.5448  0.9654
 8310SOL     OW36562   2.463   3.144  10.626 -0.0858 -0.1741  0.0797
 8310SOL    HW136563   2.452   3.109  10.714 -0.3429  1.9548  0.8870
 8310SOL    HW236564   2.448   3.238  10.636 -0.5389 -0.3606  1.0813
 8311SOL     OW36565   0.210   1.859   0.536 -0.1435  0.0584 -0.0317
 8311SOL    HW136566   0.209   1.858   0.441  2.6741  0.8445 -0.0539
 8311SOL    HW236567   0.274   1.790   0.550  0.2398  0.6041  0.9756
 8312SOL     OW36568   1.634   0.178   4.797 -0.0503  0.1391  0.2213
 8312SOL    HW136569   1.565   0.115   4.820 -1.1872  1.3214  0.0860
 8312SOL    HW236570   1.575   0.250   4.776  0.5029 -0.0211 -1.8086
 8313SOL     OW36571   2.722   3.136   9.220 -0.6085 -0.1290 -0.5787
 8313SOL    HW136572   2.710   3.044   9.245  1.9773 -0.3532 -0.0759
 8313SOL    HW236573   2.780   3.123   9.144  2.6285 -1.1590  2.0435
 8314SOL     OW36574   4.048   0.343   6.291  0.6471 -0.2455  0.1304
 8314SOL    HW136575   4.006   0.402   6.353  0.8261  0.2641 -0.2310
 8314SOL    HW236576   3.969   0.303   6.254  0.6792  0.2137 -0.4511
 8315SOL     OW36577   2.850   1.104  14.953 -0.0637  0.6052 -0.3938
 8315SOL    HW136578   2.824   1.140  14.868 -0.5245 -0.5756 -0.7593
 8315SOL    HW236579   2.875   1.019  14.917  0.8659  0.7434 -0.0795
 8316SOL     OW36580   2.115   1.291  11.128 -0.3770  0.9827  0.0025
 8316SOL    HW136581   2.205   1.271  11.102 -0.9897 -2.0520  0.2738
 8316SOL    HW236582   2.077   1.334  11.051 -2.3934  1.9335  1.5288
 8317SOL     OW36583   1.235   1.634   4.179  0.4972  0.4571  0.5726
 8317SOL    HW136584   1.316   1.671   4.145 -0.0113  0.9547 -0.0913
 8317SOL    HW236585   1.233   1.668   4.269  0.3935  0.1124  0.7042
 8318SOL     OW36586   4.669   0.989  15.222 -0.3397  0.1228 -0.3929
 8318SOL    HW136587   4.679   1.083  15.210 -0.5072 -0.0885 -2.1889
 8318SOL    HW236588   4.708   0.959  15.140 -0.5351 -1.9302  0.2708
 8319SOL     OW36589   0.420   3.295   9.839  0.2950  0.2437  0.6793
 8319SOL    HW136590   0.467   3.225   9.794 -1.2315  0.1324 -0.7456
 8319SOL    HW236591   0.332   3.294   9.801  0.3699  1.4822  0.4658
 8320SOL     OW36592   0.999   2.315  11.991  0.1919 -0.2592 -0.5140
 8320SOL    HW136593   0.993   2.263  11.911  1.1969  0.1432 -0.8452
 8320SOL    HW236594   1.095   2.313  11.999  0.0471 -0.8143  1.1130
 8321SOL     OW36595   3.867   4.620   9.329  0.1382  0.1873 -0.1470
 8321SOL    HW136596   3.799   4.655   9.388  0.3546  0.4563 -0.0572
 8321SOL    HW236597   3.824   4.656   9.251 -1.2880 -1.3358 -0.0789
 8322SOL     OW36598   2.024   2.270   2.771 -0.2671 -0.0524 -0.0054
 8322SOL    HW136599   1.997   2.293   2.860  0.8477  0.8097  0.1097
 8322SOL    HW236600   2.063   2.350   2.735 -0.8917  0.9008  1.4181
 8323SOL     OW36601   2.098   2.058   3.390  0.0731  0.5571  0.2920
 8323SOL    HW136602   2.121   2.053   3.482 -1.1146 -1.2248  0.4995
 8323SOL    HW236603   2.004   2.042   3.398  0.0197  0.2611 -0.8539
 8324SOL     OW36604   2.769   0.439   4.704 -0.1712 -0.4954  0.1318
 8324SOL    HW136605   2.780   0.531   4.679 -3.2624 -0.1542  0.0966
 8324SOL    HW236606   2.844   0.389   4.672 -0.8848 -0.1759 -2.0212
 8325SOL     OW36607   4.040   4.729   2.677 -0.2154 -0.5184 -0.3658
 8325SOL    HW136608   4.091   4.690   2.606 -0.1590  1.9766 -1.6823
 8325SOL    HW236609   4.094   0.059   2.722 -0.7202 -1.7743  2.0771
 8326SOL     OW36610   1.576   0.025   2.283 -0.0019 -0.9256 -0.6187
 8326SOL    HW136611   1.582   4.726   2.372  1.3793  1.6375  0.2803
 8326SOL    HW236612   1.663   0.000   2.252  0.2409 -0.6998 -0.1187
 8327SOL     OW36613   2.834   1.835   1.368 -0.1497 -0.3860  0.0996
 8327SOL    HW136614   2.897   1.879   1.311 -0.7045  2.6486  1.8125
 8327SOL    HW236615   2.775   1.784   1.312 -1.0032  0.2472  0.4217
 8328SOL     OW36616   0.545   0.400  14.348  0.5103 -0.2626 -0.0403
 8328SOL    HW136617   0.627   0.379  14.393  0.7973 -0.9092 -0.8519
 8328SOL    HW236618   0.476   0.362  14.401  2.2852 -4.0065 -0.3875
 8329SOL     OW36619   3.339   3.134  15.576 -0.1544 -0.7370 -0.2144
 8329SOL    HW136620   3.355   3.216  15.530 -1.6973 -0.0263  0.5117
 8329SOL    HW236621   3.288   3.088  15.510 -0.6831 -1.1563  0.4879
 8330SOL     OW36622   4.339   0.376  15.509  0.4731 -0.7187  0.3441
 8330SOL    HW136623   4.387   0.398  15.429 -2.5115 -1.0604 -1.5485
 8330SOL    HW236624   4.261   0.427  15.486  0.4673 -0.9433 -0.1377
 8331SOL     OW36625   2.949   3.010   4.486  0.3530 -0.6621 -0.3764
 8331SOL    HW136626   2.868   2.991   4.440  0.2620  1.5509 -1.1133
 8331SOL    HW236627   3.006   2.940   4.456 -0.7253 -0.3449 -3.0860
 8332SOL     OW36628   4.362   4.606   8.532 -0.3710  0.1011 -0.0586
 8332SOL    HW136629   4.408   4.628   8.613  0.0944 -1.6007  0.1430
 8332SOL    HW236630   4.339   4.692   8.497  0.8001  0.5209  0.2135
 8333SOL     OW36631   3.805   3.424  17.045 -0.1930  1.1848  0.0083
 8333SOL    HW136632   3.799   3.472  16.963  0.5880  0.9731 -0.1704
 8333SOL    HW236633   3.714   3.399  17.060 -0.4717  2.3398  0.3018
 8334SOL     OW36634   0.645   0.694   9.046 -0.6065 -0.5840 -0.1333
 8334SOL    HW136635   0.660   0.732   8.959  0.3154  1.2080  0.7944
 8334SOL    HW236636   0.731   0.659   9.069  0.3547  1.3642 -0.7427
 8335SOL     OW36637   3.227   1.565   1.630 -0.4086 -0.0124 -0.0884
 8335SOL    HW136638   3.271   1.493   1.586  0.9024 -0.5574  2.1394
 8335SOL    HW236639   3.194   1.606   1.550  0.0370 -1.0799 -0.8035
 8336SOL     OW36640   2.471   1.151  10.787  0.5679  0.2359 -0.1653
 8336SOL    HW136641   2.456   1.211  10.714  3.6103 -1.4992 -2.2347
 8336SOL    HW236642   2.491   1.219  10.851 -0.0770  1.8622 -1.6906
 8337SOL     OW36643   2.316   3.389  10.776 -0.7414  0.5102 -0.2933
 8337SOL    HW136644   2.349   3.352  10.857 -0.6288 -1.9536 -1.4633
 8337SOL    HW236645   2.239   3.425  10.822 -1.5784  0.0355 -1.3172
 8338SOL     OW36646   3.396   1.680   2.965 -0.6532  0.0252  0.6550
 8338SOL    HW136647   3.467   1.634   3.012 -1.7015 -0.1683  2.0371
 8338SOL    HW236648   3.407   1.650   2.875 -2.2442  4.4074 -0.9778
 8339SOL     OW36649   0.712   2.491   2.534  0.3338  0.0124  0.0588
 8339SOL    HW136650   0.675   2.505   2.447 -0.5518  1.3000  0.6443
 8339SOL    HW236651   0.646   2.528   2.593  1.8268  0.4682  1.4368
 8340SOL     OW36652   1.689   4.515   1.991  0.2164 -0.0929 -0.0528
 8340SOL    HW136653   1.776   4.519   2.032  0.8530 -1.1042 -1.2835
 8340SOL    HW236654   1.691   4.591   1.933 -1.3194  0.5677  0.7839
 8341SOL     OW36655   2.598   2.700   9.619  0.4931 -0.1874  0.0708
 8341SOL    HW136656   2.571   2.611   9.645 -0.4369 -0.0096 -0.3246
 8341SOL    HW236657   2.526   2.733   9.565  0.0500 -0.3357  0.5688
 8342SOL     OW36658   0.660   3.728   2.397 -0.1196  0.7053 -0.0375
 8342SOL    HW136659   0.677   3.678   2.317  3.3232  0.8963  0.5597
 8342SOL    HW236660   0.567   3.718   2.415  0.3400 -0.1470  1.8006
 8343SOL     OW36661   0.329   2.837   8.644  0.0891  0.2389 -0.1605
 8343SOL    HW136662   0.352   2.780   8.717 -1.3951 -0.6308 -0.3625
 8343SOL    HW236663   0.258   2.894   8.674  1.1393  0.3495  2.1291
 8344SOL     OW36664   1.793   1.524   2.948 -0.7077 -0.6008  0.7123
 8344SOL    HW136665   1.745   1.589   2.999  2.1197  2.9779 -1.1515
 8344SOL    HW236666   1.734   1.452   2.926 -0.8510 -0.1261 -0.4851
 8345SOL     OW36667   4.717   4.311   5.094  0.1095  0.1109  0.2834
 8345SOL    HW136668   4.699   4.259   5.172 -1.1111  1.2962  0.7823
 8345SOL    HW236669   4.627   4.313   5.061 -0.0916  3.3820  1.0229
 8346SOL     OW36670   0.562   2.642   7.640  0.2795 -0.5839 -0.4989
 8346SOL    HW136671   0.529   2.553   7.631 -1.3668 -0.1684  1.4660
 8346SOL    HW236672   0.537   2.681   7.557  1.1919 -0.8637 -0.9063
 8347SOL     OW36673   0.890   2.330   4.520  0.3673 -0.3832 -0.7586
 8347SOL    HW136674   0.805   2.290   4.539  1.4185 -2.1261  0.2534
 8347SOL    HW236675   0.874   2.362   4.431 -0.0546 -0.4591 -0.7109
 8348SOL     OW36676   4.171   2.821  15.165 -0.4626  0.1117 -0.4079
 8348SOL    HW136677   4.148   2.909  15.193 -1.8580  0.0202 -1.2875
 8348SOL    HW236678   4.212   2.847  15.083  0.8475  0.4910  0.3560
 8349SOL     OW36679   1.942   4.144   7.784 -0.0095  0.5274 -0.3790
 8349SOL    HW136680   1.997   4.222   7.792 -0.7633  1.0224 -0.0894
 8349SOL    HW236681   1.959   4.105   7.870 -0.6747 -0.6217 -0.7729
 8350SOL     OW36682   4.280   3.367   9.109 -0.1430  0.5447  0.1589
 8350SOL    HW136683   4.351   3.327   9.160 -0.8875  0.2520  0.9569
 8350SOL    HW236684   4.206   3.371   9.169  0.3464  3.1166  0.5735
 8351SOL     OW36685   2.497   0.713  11.866  0.2345  0.1721 -0.1529
 8351SOL    HW136686   2.408   0.691  11.894  0.2376  0.3885  0.0292
 8351SOL    HW236687   2.492   0.686  11.774 -4.7058 -0.5123  0.2842
 8352SOL     OW36688   4.596   1.944   2.119  0.6420  0.2352  0.2429
 8352SOL    HW136689   4.668   1.985   2.070 -2.0359  1.5367 -2.6035
 8352SOL    HW236690   4.642   1.863   2.138 -0.2471 -0.2614  0.2535
 8353SOL     OW36691   1.527   1.616   9.475  0.3434 -0.4798 -0.1778
 8353SOL    HW136692   1.527   1.594   9.568  0.6201  1.5977  0.3254
 8353SOL    HW236693   1.485   1.540   9.435  0.8872 -1.4644  1.1372
 8354SOL     OW36694   2.712   0.704   6.466 -0.3805  0.2020  0.0687
 8354SOL    HW136695   2.777   0.636   6.449 -0.4891 -0.0576  0.6791
 8354SOL    HW236696   2.676   0.681   6.552  2.4416 -0.4188  1.1106
 8355SOL     OW36697   4.370   3.034  14.985 -0.0065  0.2646  0.0301
 8355SOL    HW136698   4.359   2.954  14.934 -0.8940  0.1140  0.4572
 8355SOL    HW236699   4.372   3.096  14.913  0.2655 -1.3400 -1.3416
 8356SOL     OW36700   0.506   3.913   8.952 -0.6629 -0.3910 -0.0645
 8356SOL    HW136701   0.546   3.841   9.000  0.5597  1.6671  2.0037
 8356SOL    HW236702   0.519   3.894   8.859 -1.2952 -0.9222 -0.0477
 8357SOL     OW36703   2.403   0.491   8.264 -0.2495  0.3114 -0.3919
 8357SOL    HW136704   2.404   0.585   8.247 -1.2078  0.5081  0.6157
 8357SOL    HW236705   2.489   0.479   8.223  0.4653  2.3790  0.4695
 8358SOL     OW36706   0.279   3.204   3.126  0.2318  0.0663 -0.0249
 8358SOL    HW136707   0.318   3.291   3.138 -1.2600  0.9334 -1.3823
 8358SOL    HW236708   0.202   3.218   3.070 -2.5837  0.8792  4.0520
 8359SOL     OW36709   3.970   1.895   2.571 -0.3136  0.2602  0.3116
 8359SOL    HW136710   4.005   1.855   2.491 -0.1391 -1.9393  1.4617
 8359SOL    HW236711   4.048   1.935   2.608  0.4385  0.0320 -1.0371
 8360SOL     OW36712   3.939   2.686  10.539  0.2549 -0.4696  0.0685
 8360SOL    HW136713   4.028   2.720  10.549  0.3530 -1.1526  1.4800
 8360SOL    HW236714   3.883   2.754  10.578  1.3299  0.5405 -0.1403
 8361SOL     OW36715   0.871   1.847   6.893 -0.2251  0.3809 -0.4338
 8361SOL    HW136716   0.844   1.766   6.850 -2.3498  0.3675  0.9659
 8361SOL    HW236717   0.791   1.859   6.943 -0.4590 -0.1028 -0.6997
 8362SOL     OW36718   3.364   2.740   1.128 -0.2761  0.3153 -0.3908
 8362SOL    HW136719   3.313   2.672   1.171  2.5421 -1.3072  0.3584
 8362SOL    HW236720   3.430   2.740   1.197 -0.7260  0.3177  0.0405
 8363SOL     OW36721   0.399   1.569   4.227  0.5152 -0.0371 -0.5330
 8363SOL    HW136722   0.328   1.511   4.254 -0.8718  2.4049  1.0358
 8363SOL    HW236723   0.463   1.521   4.174  0.8382  0.2235 -0.3827
 8364SOL     OW36724   1.260   1.915   7.228  0.2219  0.8021  0.2431
 8364SOL    HW136725   1.314   1.884   7.155  2.4700  0.8897  1.8655
 8364SOL    HW236726   1.180   1.878   7.191  0.7212 -1.4978  1.4952
 8365SOL     OW36727   0.903   1.441  10.115  0.6179 -0.4572 -0.5660
 8365SOL    HW136728   0.921   1.532  10.138 -2.4594  0.5148 -1.9768
 8365SOL    HW236729   0.838   1.424  10.184  2.7654 -2.6548  0.9078
 8366SOL     OW36730   0.289   4.690   7.473 -0.2189  0.1997 -0.4643
 8366SOL    HW136731   0.251   4.661   7.556  0.1681  1.5938  0.1984
 8366SOL    HW236732   0.378   4.711   7.501  0.1110 -1.1965 -0.4280
 8367SOL     OW36733   4.280   4.569   9.413  0.1252  0.4231  0.0682
 8367SOL    HW136734   4.343   4.630   9.451  0.7693 -1.3596  1.8737
 8367SOL    HW236735   4.337   4.521   9.352 -2.2756 -0.0239 -1.8149
 8368SOL     OW36736   1.524   0.045   7.762  0.0002 -0.4679  0.0417
 8368SOL    HW136737   1.580   0.112   7.724  1.0039 -0.5655  1.3595
 8368SOL    HW236738   1.594   4.715   7.770 -0.2945 -0.9687 -1.3878
 8369SOL     OW36739   4.378   3.906   3.615 -0.1683 -0.4065 -0.1158
 8369SOL    HW136740   4.319   3.839   3.650 -0.0354 -0.5446 -0.1535
 8369SOL    HW236741   4.411   3.947   3.695 -3.0355  1.0573  0.2971
 8370SOL     OW36742   1.517   3.687   8.013 -0.3366 -0.5958 -0.0472
 8370SOL    HW136743   1.539   3.703   7.922 -0.0343 -0.2939  0.0788
 8370SOL    HW236744   1.600   3.664   8.056  0.0655 -0.1213 -0.5795
 8371SOL     OW36745   0.110   2.965   8.725  0.3382 -0.3286 -0.2925
 8371SOL    HW136746   0.025   2.931   8.753 -0.7108  1.5987 -1.1296
 8371SOL    HW236747   0.106   3.045   8.778  0.5932 -1.0958  0.8824
 8372SOL     OW36748   1.171   1.188   1.865 -0.0612  0.0795 -0.8635
 8372SOL    HW136749   1.168   1.259   1.801 -2.5163  1.9704  1.3120
 8372SOL    HW236750   1.150   1.112   1.811 -2.1363 -1.2319  1.8228
 8373SOL     OW36751   1.145   1.481   8.405 -0.1145 -0.7682  0.1611
 8373SOL    HW136752   1.134   1.575   8.393  0.9117 -0.4760  1.6307
 8373SOL    HW236753   1.125   1.447   8.317  2.5063 -1.0117 -0.3264
 8374SOL     OW36754   2.993   3.533   5.850 -0.2484 -0.0864  0.5436
 8374SOL    HW136755   2.918   3.476   5.837  0.2494 -1.0141  1.7592
 8374SOL    HW236756   3.052   3.473   5.895  1.5828  0.8560 -0.5896
 8375SOL     OW36757   1.814   4.004   9.636  0.3903 -0.2907 -0.3279
 8375SOL    HW136758   1.724   3.976   9.623 -0.6961  2.4749  1.2654
 8375SOL    HW236759   1.825   4.069   9.567  2.0236 -0.6484 -0.4036
 8376SOL     OW36760   1.708   1.170  11.568  0.3636  0.3528 -0.2051
 8376SOL    HW136761   1.789   1.168  11.619 -0.4989 -3.6450  1.0301
 8376SOL    HW236762   1.649   1.120  11.624 -0.5239 -0.4768 -1.8700
 8377SOL     OW36763   0.081   0.848   8.209 -0.1058  0.2415 -0.0161
 8377SOL    HW136764   0.005   0.884   8.255  1.4644  1.4952  1.5971
 8377SOL    HW236765   0.141   0.840   8.283  0.9908  0.9646 -0.8281
 8378SOL     OW36766   1.710   3.273   3.362  0.0105  0.0545  0.1475
 8378SOL    HW136767   1.749   3.197   3.405  1.0090 -0.0338 -0.8919
 8378SOL    HW236768   1.637   3.238   3.310  0.6828  0.4892 -1.0840
 8379SOL     OW36769   4.260   2.524   7.985  0.0221 -0.4820  0.0943
 8379SOL    HW136770   4.263   2.429   7.978 -1.3680 -0.4488 -0.9134
 8379SOL    HW236771   4.236   2.547   7.896 -0.7746 -2.5442 -0.2154
 8380SOL     OW36772   3.619   4.293   0.361 -0.2120 -0.0878  0.1095
 8380SOL    HW136773   3.593   4.261   0.447  1.7828 -1.0661  0.3475
 8380SOL    HW236774   3.712   4.270   0.358 -0.2914  0.0138 -2.5982
 8381SOL     OW36775   3.379   0.719   3.101  0.0338  0.0829  0.1240
 8381SOL    HW136776   3.419   0.634   3.120  0.7946  0.3126 -0.4717
 8381SOL    HW236777   3.336   0.751   3.180 -0.3424 -1.6522  0.6171
 8382SOL     OW36778   3.922   4.303   8.757 -0.2585 -0.1394 -0.3814
 8382SOL    HW136779   3.949   4.211   8.757 -0.4369 -0.1960 -1.5471
 8382SOL    HW236780   3.841   4.298   8.707 -0.8531 -0.3533  0.6090
 8383SOL     OW36781   1.519   3.696  14.948 -0.3614 -0.8793  0.2914
 8383SOL    HW136782   1.506   3.671  15.040 -1.7449  0.4506  0.4521
 8383SOL    HW236783   1.531   3.616  14.896  2.3695  0.2079 -0.7478
 8384SOL     OW36784   0.675   0.707   5.705  0.0239  0.0481  0.3205
 8384SOL    HW136785   0.676   0.731   5.612  0.2641 -0.0649  0.2959
 8384SOL    HW236786   0.584   0.692   5.731 -0.7751  3.7071 -0.2792
 8385SOL     OW36787   2.049   2.495   9.480 -0.0801  0.2566 -0.2788
 8385SOL    HW136788   1.985   2.461   9.418  0.7715  1.5857 -1.9042
 8385SOL    HW236789   1.990   2.513   9.553 -1.8579 -0.5659 -1.5293
 8386SOL     OW36790   0.423   3.434  10.099 -0.0743 -0.2070 -0.1710
 8386SOL    HW136791   0.484   3.374  10.141  2.1814  0.8394 -1.9248
 8386SOL    HW236792   0.423   3.388  10.015  0.1860  1.2851 -0.9975
 8387SOL     OW36793   0.620   2.081   3.283  0.3175  0.2012 -0.2484
 8387SOL    HW136794   0.696   2.091   3.225  0.0627 -0.5008 -0.7038
 8387SOL    HW236795   0.550   2.108   3.224  0.5257  0.9756 -0.1306
 8388SOL     OW36796   0.528   2.946   8.870 -0.2016 -0.2031 -0.5029
 8388SOL    HW136797   0.492   2.866   8.832 -0.6336 -0.6272  0.8083
 8388SOL    HW236798   0.531   3.000   8.791 -0.0216 -0.4540 -0.6678
 8389SOL     OW36799   0.854   0.442   5.127 -0.2521  0.2000 -0.8267
 8389SOL    HW136800   0.802   0.370   5.163 -2.4792  2.4065  0.3918
 8389SOL    HW236801   0.807   0.517   5.164  1.1974  0.0329  1.3116
 8390SOL     OW36802   0.206   0.408   8.630 -0.2817  0.1845 -0.6998
 8390SOL    HW136803   0.169   0.449   8.708  1.7888 -0.2357  0.5021
 8390SOL    HW236804   0.157   0.455   8.562 -2.2355  1.2060  1.3711
 8391SOL     OW36805   4.681   1.798   7.110  0.1877 -0.2377  0.0032
 8391SOL    HW136806   0.029   1.845   7.119  0.3998 -1.1111  2.4919
 8391SOL    HW236807   4.657   1.788   7.202 -0.4396 -2.4222 -0.4015
 8392SOL     OW36808   4.692   1.273   6.669  0.1662  0.6021 -0.4532
 8392SOL    HW136809   4.658   1.315   6.747  2.2024 -2.4773  2.1081
 8392SOL    HW236810   4.674   1.340   6.603 -0.6404 -0.3710 -1.2302
 8393SOL     OW36811   4.057   1.795   8.228  0.4078 -0.4484 -0.3422
 8393SOL    HW136812   3.976   1.810   8.278  1.1452  1.1257  0.4069
 8393SOL    HW236813   4.038   1.707   8.198  0.6881 -0.4419 -0.5364
 8394SOL     OW36814   1.580   2.929  11.882 -0.9420  0.5716  0.1265
 8394SOL    HW136815   1.622   3.014  11.896 -0.0460 -0.1177  1.6060
 8394SOL    HW236816   1.603   2.892  11.968 -2.7661 -1.6362 -0.3480
 8395SOL     OW36817   2.386   0.955   4.223  0.2058 -0.0166  0.3038
 8395SOL    HW136818   2.341   0.978   4.304  2.2158 -0.6189  1.5810
 8395SOL    HW236819   2.327   1.001   4.162 -0.3960  1.0003  1.6575
 8396SOL     OW36820   0.508   3.271  13.734  0.3038  0.1742 -0.1639
 8396SOL    HW136821   0.500   3.198  13.672  0.5594 -0.6297  0.7497
 8396SOL    HW236822   0.466   3.348  13.695 -0.9507 -0.4102  0.0284
 8397SOL     OW36823   0.054   1.901  15.038 -0.2831 -0.3169  0.3750
 8397SOL    HW136824   0.097   1.987  15.035 -0.7680 -0.1011 -0.3535
 8397SOL    HW236825   0.112   1.864  15.104 -2.8369 -0.5160  2.4681
 8398SOL     OW36826   2.125   4.099   9.486  0.2315  0.6520  0.3168
 8398SOL    HW136827   2.117   4.085   9.580 -0.5296  3.4284  0.6647
 8398SOL    HW236828   2.158   4.015   9.454  2.3467  1.1784  1.0999
 8399SOL     OW36829   3.436   4.354   7.150 -0.4094 -0.0608 -0.0104
 8399SOL    HW136830   3.373   4.285   7.125 -0.2418 -0.1002 -0.3272
 8399SOL    HW236831   3.502   4.301   7.194  1.4519 -0.2340 -2.9890
 8400SOL     OW36832   0.152   4.468  14.066  0.2354 -0.0590 -0.4276
 8400SOL    HW136833   0.147   4.489  14.159  0.5935  0.0912 -0.4436
 8400SOL    HW236834   0.112   4.381  14.064  1.7970 -0.8241  1.7283
 8401SOL     OW36835   3.828   3.091   9.770 -0.6142  0.2512 -0.1362
 8401SOL    HW136836   3.884   3.080   9.847  0.3412  0.9466 -0.7367
 8401SOL    HW236837   3.842   3.185   9.758 -0.4755  0.2433 -0.0321
 8402SOL     OW36838   1.138   3.019   7.333  0.1309  0.3093 -0.1178
 8402SOL    HW136839   1.147   3.019   7.237  3.5105 -0.3715  0.2087
 8402SOL    HW236840   1.226   3.046   7.359  2.1119 -2.0997 -4.3252
 8403SOL     OW36841   2.490   0.285   3.170 -0.0263  0.1393 -0.3396
 8403SOL    HW136842   2.554   0.229   3.127  0.7890  0.3731  0.5820
 8403SOL    HW236843   2.549   0.347   3.214 -0.9833  0.1785  0.8714
 8404SOL     OW36844   0.405   4.057   9.219 -0.1382  0.3320 -0.0878
 8404SOL    HW136845   0.325   4.009   9.239  0.3816 -0.3234  0.4351
 8404SOL    HW236846   0.440   4.023   9.137 -0.6686  1.3819 -0.7310
 8405SOL     OW36847   2.788   1.583   3.215  0.0550 -0.3526  0.5553
 8405SOL    HW136848   2.767   1.527   3.290  0.8765 -2.0399 -0.4863
 8405SOL    HW236849   2.737   1.663   3.229  0.3759  0.1681 -1.2184
 8406SOL     OW36850   1.841   2.439   0.120  0.0210 -0.2138 -0.2829
 8406SOL    HW136851   1.785   2.389   0.061 -0.6713 -1.1618  1.1935
 8406SOL    HW236852   1.877   2.504   0.059  0.6514 -1.0791 -0.8371
 8407SOL     OW36853   0.161   2.367   2.944  0.7836  0.2597 -0.4629
 8407SOL    HW136854   0.257   2.363   2.947  0.7392  0.5537  1.6947
 8407SOL    HW236855   0.134   2.330   3.028  2.7541 -0.2388 -0.0496
 8408SOL     OW36856   2.750   3.361  16.357 -0.0853 -0.7312 -0.3146
 8408SOL    HW136857   2.689   3.355  16.430 -0.2063  0.0112 -0.3581
 8408SOL    HW236858   2.821   3.403  16.404 -0.7809  1.7354 -1.4637
 8409SOL     OW36859   1.405   2.815   7.589 -0.1638  0.3971  0.6763
 8409SOL    HW136860   1.362   2.770   7.517  1.7021  0.8582 -0.7275
 8409SOL    HW236861   1.423   2.740   7.646  1.7033 -0.9483 -1.6829
 8410SOL     OW36862   2.621   2.541  14.027  0.5845 -0.3654 -0.5597
 8410SOL    HW136863   2.594   2.592  13.950 -2.3256  0.4211  0.9736
 8410SOL    HW236864   2.650   2.461  13.985  2.9413  1.4381 -2.3459
 8411SOL     OW36865   1.502   2.965  14.911  0.6985  0.4348 -0.1098
 8411SOL    HW136866   1.413   2.998  14.925  0.8462  0.3005  1.1171
 8411SOL    HW236867   1.520   2.982  14.818  0.0960  1.7071  0.0003
 8412SOL     OW36868   0.672   0.387  10.178  0.1000  0.3789 -0.2581
 8412SOL    HW136869   0.697   0.375  10.270 -0.7416  1.7931  0.1535
 8412SOL    HW236870   0.609   0.316  10.165 -1.7152  1.7275  1.1539
 8413SOL     OW36871   2.704   4.308  16.659 -0.4063  0.4890 -0.1155
 8413SOL    HW136872   2.719   4.384  16.715 -0.3620 -0.0536  0.6199
 8413SOL    HW236873   2.748   4.236  16.705 -0.6893 -1.3087 -2.6385
 8414SOL     OW36874   3.723   0.361   0.414  0.5720 -0.1731 -0.8251
 8414SOL    HW136875   3.690   0.380   0.502 -1.4250 -0.9390 -1.4209
 8414SOL    HW236876   3.641   0.365   0.365  0.1257  1.7396  0.0558
 8415SOL     OW36877   0.152   2.714  15.117 -0.2393 -0.8074 -0.0214
 8415SOL    HW136878   0.168   2.772  15.191  0.2202 -3.0835  1.6780
 8415SOL    HW236879   0.228   2.731  15.062  0.6723  1.8176  2.0943
 8416SOL     OW36880   0.675   2.528   8.462 -0.7031  0.7408 -0.8203
 8416SOL    HW136881   0.662   2.621   8.479 -1.3668  0.4676  0.1984
 8416SOL    HW236882   0.746   2.532   8.398  0.5401  1.4051  0.6022
 8417SOL     OW36883   0.697   2.549   2.904 -0.4714  0.4235 -0.2687
 8417SOL    HW136884   0.664   2.624   2.856 -0.8458  0.7754  0.5318
 8417SOL    HW236885   0.730   2.579   2.989  1.1507 -1.9925 -0.0439
 8418SOL     OW36886   2.865   1.929  17.488 -0.2676 -0.7699  0.2611
 8418SOL    HW136887   2.850   1.840  17.519  1.0658 -0.5437  1.5544
 8418SOL    HW236888   2.857   1.973  17.572  0.6740  1.4164 -0.7690
 8419SOL     OW36889   0.062   4.313   6.918 -0.8654 -0.2941  0.3713
 8419SOL    HW136890   0.153   4.288   6.902  0.4120  1.8254  4.2245
 8419SOL    HW236891   0.079   4.372   6.992  0.1163 -2.1668  1.6433
 8420SOL     OW36892   3.347   2.327  11.716  0.1107 -0.3147 -0.0891
 8420SOL    HW136893   3.319   2.244  11.679 -0.6640 -0.3409  0.5412
 8420SOL    HW236894   3.380   2.277  11.791  1.0935 -0.7848 -0.8306
 8421SOL     OW36895   0.918   4.151   6.362 -0.1482 -0.0768 -0.5882
 8421SOL    HW136896   0.905   4.118   6.273 -0.2827  1.0172 -0.9801
 8421SOL    HW236897   0.866   4.089   6.413 -0.6586  2.4810  2.0208
 8422SOL     OW36898   2.468   3.173  16.571  0.0709  0.3246  0.2951
 8422SOL    HW136899   2.468   3.144  16.480  1.5745 -1.0550  0.7247
 8422SOL    HW236900   2.546   3.132  16.609  0.1364  0.7244  0.5973
 8423SOL     OW36901   0.477   3.238  11.425 -0.3129 -0.1225  0.5184
 8423SOL    HW136902   0.488   3.276  11.512  1.8926 -1.7485  0.9445
 8423SOL    HW236903   0.502   3.146  11.431 -0.9674 -0.1408  2.8383
 8424SOL     OW36904   3.546   3.834   8.229 -0.4833  0.0947  0.1488
 8424SOL    HW136905   3.619   3.830   8.168  0.1627  0.6164  0.8947
 8424SOL    HW236906   3.468   3.801   8.184 -1.4036  0.5743  1.3934
 8425SOL     OW36907   2.234   1.392   4.627  0.0389  0.1646 -0.2609
 8425SOL    HW136908   2.263   1.392   4.718  1.8669  0.9419 -0.8450
 8425SOL    HW236909   2.181   1.312   4.625  0.1667  0.0838 -0.3827
 8426SOL     OW36910   2.763   0.632   3.103 -0.4680  0.2756  0.4998
 8426SOL    HW136911   2.685   0.666   3.057 -0.4571  0.3571  0.5413
 8426SOL    HW236912   2.823   0.706   3.101  0.9293 -0.9011 -0.7537
 8427SOL     OW36913   2.104   1.427  14.155  0.0306  0.5570 -0.2684
 8427SOL    HW136914   2.023   1.457  14.113  0.8495  1.3445 -1.2906
 8427SOL    HW236915   2.083   1.447  14.247 -0.2114 -0.0115 -0.1996
 8428SOL     OW36916   2.126   4.315   4.833 -0.1257  0.5466 -0.1667
 8428SOL    HW136917   2.075   4.340   4.911 -0.9256 -2.5889  0.3064
 8428SOL    HW236918   2.111   4.388   4.773  0.8696  0.0966 -0.9425
 8429SOL     OW36919   4.343   1.788  16.504  0.1282 -0.6014  0.4244
 8429SOL    HW136920   4.340   1.750  16.416  1.2240  1.9431 -0.7240
 8429SOL    HW236921   4.430   1.762  16.535 -0.2417  0.0681  2.0142
 8430SOL     OW36922   0.053   1.316   0.518  0.7943  0.1134  0.5769
 8430SOL    HW136923   0.118   1.353   0.458 -0.9915  1.5513 -0.4673
 8430SOL    HW236924   0.112   1.257   0.566  0.4038 -0.0086  0.8992
 8431SOL     OW36925   4.730   2.864   3.246  0.2253 -0.3447  0.0354
 8431SOL    HW136926   4.721   2.865   3.151 -2.3610 -0.6601  0.2769
 8431SOL    HW236927   0.083   2.899   3.261  0.1128  0.5188 -1.2800
 8432SOL     OW36928   1.867   0.053   3.123 -0.5679  0.5182 -0.2795
 8432SOL    HW136929   1.924   0.088   3.054 -0.3964  3.1702  1.1813
 8432SOL    HW236930   1.840   0.128   3.177  0.7790  1.0125 -0.2913
 8433SOL     OW36931   4.577   2.681   8.975 -0.2304 -0.3491 -1.1578
 8433SOL    HW136932   4.581   2.598   8.928  2.0869 -1.8663  1.7081
 8433SOL    HW236933   4.630   2.664   9.053 -1.3345  1.6360  0.0021
 8434SOL     OW36934   0.070   0.952   5.040 -0.3366 -0.0783  0.2766
 8434SOL    HW136935   0.086   1.044   5.020 -0.9294 -0.2579 -0.9895
 8434SOL    HW236936   0.001   0.961   5.106 -0.7713  1.5744 -0.4003
 8435SOL     OW36937   1.555   2.920   8.849  0.1183 -0.5576 -0.1868
 8435SOL    HW136938   1.520   3.003   8.817  0.9897 -0.1822 -0.1692
 8435SOL    HW236939   1.490   2.884   8.910 -0.5808  0.1386 -0.5301
 8436SOL     OW36940   2.057   2.373   6.268 -0.1595  0.6703 -0.2073
 8436SOL    HW136941   2.023   2.283   6.267  1.2081  0.1318  1.7721
 8436SOL    HW236942   2.008   2.414   6.339 -0.2770 -1.1166  0.7466
 8437SOL     OW36943   4.084   3.245   9.751  0.3344 -0.0414  0.1366
 8437SOL    HW136944   4.120   3.243   9.663 -0.5875  4.7264 -0.3409
 8437SOL    HW236945   4.007   3.297   9.733  0.8977  1.6273  2.5396
 8438SOL     OW36946   4.529   0.665   7.681 -0.5238 -0.1584  0.2588
 8438SOL    HW136947   4.497   0.709   7.760 -1.9208  2.2066 -1.6309
 8438SOL    HW236948   4.462   0.600   7.659 -0.4599 -0.1707  0.1042
 8439SOL     OW36949   0.047   0.291   4.932  0.1545  0.4535 -0.5458
 8439SOL    HW136950   0.021   0.350   4.862  1.9345  0.8564 -0.8788
 8439SOL    HW236951   0.129   0.326   4.967 -0.0719  0.2680  0.1664
 8440SOL     OW36952   2.131   4.719   6.631 -0.1583  0.4788 -0.5356
 8440SOL    HW136953   2.080   4.650   6.588 -0.5057  0.7035 -0.4895
 8440SOL    HW236954   2.185   4.667   6.690 -0.5314 -2.1326 -2.4838
 8441SOL     OW36955   1.886   2.556   9.923  0.0219  0.7376  0.1558
 8441SOL    HW136956   1.897   2.620   9.853 -0.5155  1.2200  0.5087
 8441SOL    HW236957   1.791   2.554   9.936  0.2614 -0.4592  1.7450
 8442SOL     OW36958   0.912   2.581   2.731  0.2368  0.3646  0.2022
 8442SOL    HW136959   0.894   2.585   2.825  1.1494  1.7704  0.3221
 8442SOL    HW236960   0.856   2.505   2.715 -0.3787  0.5567  1.4148
 8443SOL     OW36961   4.467   3.379   7.892  0.4036 -0.3635 -0.6380
 8443SOL    HW136962   4.505   3.317   7.830 -1.0513 -1.4772 -0.4243
 8443SOL    HW236963   4.480   3.329   7.972  0.9064 -0.1934 -0.6138
 8444SOL     OW36964   3.890   1.021  13.605  0.2558  0.4447 -0.8982
 8444SOL    HW136965   3.835   1.055  13.676  0.3966  1.4216 -1.2624
 8444SOL    HW236966   3.826   0.966  13.559 -1.5213  1.0882  0.8005
 8445SOL     OW36967   3.435   3.034   8.377 -0.1390  0.0199  0.0808
 8445SOL    HW136968   3.414   2.993   8.294  0.0415  0.9299 -0.4103
 8445SOL    HW236969   3.411   3.126   8.361 -5.5644 -0.9091  2.8234
 8446SOL     OW36970   3.586   3.994   4.365 -0.8628  0.0134  0.1536
 8446SOL    HW136971   3.624   4.060   4.308 -2.2054  0.0920 -0.6430
 8446SOL    HW236972   3.662   3.970   4.418  0.0012 -1.7353 -1.8573
 8447SOL     OW36973   3.482   2.545   9.028  0.1408  0.2612  0.2859
 8447SOL    HW136974   3.388   2.532   9.028  0.1468  0.0721 -2.1806
 8447SOL    HW236975   3.492   2.580   9.116 -2.1567 -0.9634  1.0279
 8448SOL     OW36976   1.567   3.485   3.533 -0.0337  0.0153  0.0526
 8448SOL    HW136977   1.580   3.396   3.498  0.2047  0.2312 -0.4006
 8448SOL    HW236978   1.566   3.464   3.626  0.0899 -0.6693 -0.1001
 8449SOL     OW36979   0.285   0.919  13.234 -0.7334 -0.4900 -0.7471
 8449SOL    HW136980   0.250   0.966  13.310  0.3234  0.4144 -0.8260
 8449SOL    HW236981   0.350   0.973  13.191  0.4228 -1.1477  0.1574
 8450SOL     OW36982   4.698   3.352   4.942  0.2246 -0.6241 -0.0118
 8450SOL    HW136983   0.058   3.359   4.949  0.1099  0.1037  0.8796
 8450SOL    HW236984   4.675   3.267   4.905  0.6776 -0.9480  0.4448
 8451SOL     OW36985   1.636   2.931   7.758 -0.1506 -0.6504  0.0929
 8451SOL    HW136986   1.546   2.923   7.790 -0.2993  1.4089  0.1874
 8451SOL    HW236987   1.639   3.022   7.731 -0.0668 -1.0293 -1.1656
 8452SOL     OW36988   2.164   2.108  10.051 -0.0650 -0.0364  0.0657
 8452SOL    HW136989   2.176   2.140  10.140  2.2940 -2.3600  0.5758
 8452SOL    HW236990   2.247   2.061  10.045 -1.6910 -2.6022 -2.3374
 8453SOL     OW36991   2.334   2.007  12.984  0.2471 -0.1011  0.3703
 8453SOL    HW136992   2.358   1.955  12.908  2.6216  1.1970  0.2480
 8453SOL    HW236993   2.283   1.939  13.028  1.3499 -0.3203  1.3030
 8454SOL     OW36994   0.432   3.131   3.795  0.3942  0.5687 -0.1391
 8454SOL    HW136995   0.423   3.078   3.875 -0.8220  0.3476 -0.4191
 8454SOL    HW236996   0.376   3.079   3.736 -1.1603  0.5870  1.3173
 8455SOL     OW36997   4.190   4.204  10.985 -0.1970 -0.2987 -0.0717
 8455SOL    HW136998   4.112   4.221  10.933 -0.5108 -0.8916  0.2003
 8455SOL    HW236999   4.199   4.109  10.982  1.6618 -0.1286 -0.0455
 8456SOL     OW37000   0.484   3.678  11.113  0.3615  0.0907 -0.4723
 8456SOL    HW137001   0.462   3.606  11.173 -0.2471 -0.4339 -1.3240
 8456SOL    HW237002   0.401   3.717  11.088  0.0223  0.5584  1.3620
 8457SOL     OW37003   2.011   4.129   8.715 -0.1617 -0.0165 -0.1365
 8457SOL    HW137004   2.039   4.175   8.794 -1.6599  0.3827  0.1582
 8457SOL    HW237005   1.919   4.153   8.702 -0.1652  0.7935  1.4425
 8458SOL     OW37006   0.198   1.651  12.582  0.0667 -0.1479  0.5111
 8458SOL    HW137007   0.216   1.638  12.675 -1.6364 -0.2689  0.8315
 8458SOL    HW237008   0.276   1.696  12.549 -0.1408 -0.8125 -0.9076
 8459SOL     OW37009   4.359   0.643  12.394  0.3501  0.5185 -0.2072
 8459SOL    HW137010   4.414   0.690  12.457  2.2982 -3.8784  1.3911
 8459SOL    HW237011   4.290   0.708  12.383  0.2487  0.0969 -1.9609
 8460SOL     OW37012   1.919   2.049   4.384  0.4541 -0.9849 -0.2860
 8460SOL    HW137013   1.961   2.096   4.455 -0.1771  0.2981 -0.7639
 8460SOL    HW237014   1.956   1.960   4.389  0.7566 -0.8395  0.0815
 8461SOL     OW37015   2.651   2.378   9.426 -0.5785 -0.4080 -0.5826
 8461SOL    HW137016   2.564   2.357   9.393 -0.5730 -0.7368 -0.3856
 8461SOL    HW237017   2.632   2.391   9.519  0.7976  1.1399 -0.5209
 8462SOL     OW37018   1.269   2.010  14.988 -0.1870 -0.0231 -1.0376
 8462SOL    HW137019   1.271   1.953  14.910  1.7956 -1.0634 -0.2241
 8462SOL    HW237020   1.362   2.028  14.997 -0.3825  0.2738  0.3500
 8463SOL     OW37021   0.268   4.427   9.360 -0.4485  0.4538  0.1689
 8463SOL    HW137022   0.216   4.452   9.436  0.4231 -3.5727  2.0797
 8463SOL    HW237023   0.358   4.451   9.382 -0.0092 -1.6356  0.6364
 8464SOL     OW37024   0.278   0.854   8.777  0.0038  0.2450  0.4157
 8464SOL    HW137025   0.220   0.930   8.785 -0.3594 -0.2643  2.6761
 8464SOL    HW237026   0.316   0.847   8.864 -1.3651  0.7094  1.0574
 8465SOL     OW37027   3.324   0.664  12.923 -0.8570  0.4984  0.1730
 8465SOL    HW137028   3.368   0.580  12.908 -0.0456  0.8138  0.8281
 8465SOL    HW237029   3.387   0.707  12.981 -0.5698 -0.4640  0.5773
 8466SOL     OW37030   0.044   2.159   0.831  0.4706  0.5828  0.1398
 8466SOL    HW137031   0.109   2.137   0.898  0.9116 -0.6207 -0.7004
 8466SOL    HW237032   0.004   2.073   0.821  1.8424 -0.1784  1.2853
 8467SOL     OW37033   4.695   2.167   4.195 -0.0129  0.5656  0.1826
 8467SOL    HW137034   0.018   2.243   4.194 -0.7812  1.1718  1.2855
 8467SOL    HW237035   4.669   2.143   4.107  1.5718  1.4104 -0.5150
 8468SOL     OW37036   2.369   3.490   7.770  0.4085 -0.2474  0.1582
 8468SOL    HW137037   2.459   3.500   7.801  0.2356 -0.0779  0.6088
 8468SOL    HW237038   2.318   3.543   7.831 -1.2291  0.9726 -2.2542
 8469SOL     OW37039   0.531   0.239   4.529  0.1702 -0.5283  0.0703
 8469SOL    HW137040   0.483   0.250   4.448  1.6467 -0.1614 -0.7479
 8469SOL    HW237041   0.483   0.170   4.574 -0.7429  0.1791  0.1637
 8470SOL     OW37042   4.645   3.777  16.140  0.0367 -0.2992 -0.3462
 8470SOL    HW137043   4.559   3.792  16.101  0.6340  2.7975 -0.4795
 8470SOL    HW237044   4.696   3.771  16.059 -1.2243 -0.7300 -1.1145
 8471SOL     OW37045   4.022   3.069   3.105  0.1666  0.2681 -0.5636
 8471SOL    HW137046   4.106   3.105   3.077  1.6657 -2.8895 -0.0802
 8471SOL    HW237047   4.036   2.977   3.125  0.2104  0.5343  0.6227
 8472SOL     OW37048   3.737   1.909   3.858 -0.4464  0.2782 -0.2197
 8472SOL    HW137049   3.725   1.984   3.916  1.2602  0.9688 -0.7564
 8472SOL    HW237050   3.765   1.956   3.780 -1.0084  0.0459 -0.5647
 8473SOL     OW37051   3.176   3.308   3.979  0.1178 -0.8992 -0.0573
 8473SOL    HW137052   3.135   3.254   3.912  0.9764 -0.0571 -1.2751
 8473SOL    HW237053   3.181   3.252   4.056 -3.6780  0.7918  1.4239
 8474SOL     OW37054   1.006   2.061   8.599 -0.2671 -0.0042 -0.1827
 8474SOL    HW137055   0.988   2.045   8.506 -3.1205  1.4364  0.1212
 8474SOL    HW237056   1.079   2.123   8.593  1.1443 -1.7721 -1.2763
 8475SOL     OW37057   0.504   3.996  12.068 -0.2804 -0.1121 -0.1747
 8475SOL    HW137058   0.413   4.013  12.044 -0.2585  1.5900  0.9703
 8475SOL    HW237059   0.526   3.963  11.981 -0.2633 -0.0845 -0.1808
 8476SOL     OW37060   4.045   1.867   2.135 -0.0394  0.0711 -0.1486
 8476SOL    HW137061   4.064   1.930   2.066 -1.7207  0.7036 -0.0442
 8476SOL    HW237062   4.132   1.841   2.166 -0.3367  0.3999  0.9839
 8477SOL     OW37063   2.555   1.198  16.419 -0.6417  0.2291  0.0464
 8477SOL    HW137064   2.620   1.150  16.471 -2.3783  0.9395  2.8638
 8477SOL    HW237065   2.477   1.145  16.434 -1.8267  1.6449 -1.1352
 8478SOL     OW37066   2.205   3.137   8.447  0.0912  0.1816 -1.0114
 8478SOL    HW137067   2.244   3.105   8.528 -0.2831  2.4847  0.0882
 8478SOL    HW237068   2.140   3.073   8.417 -0.9948 -0.1497  2.0566
 8479SOL     OW37069   1.783   0.002   9.779 -0.0608  0.1073  0.4331
 8479SOL    HW137070   1.812   0.030   9.865 -0.3227 -0.7175  0.7884
 8479SOL    HW237071   1.808   0.085   9.738 -1.0091  0.3834  0.4020
 8480SOL     OW37072   1.636   0.976   4.181  1.0446 -0.2885 -0.2245
 8480SOL    HW137073   1.561   0.943   4.132 -0.3876  2.9463 -0.2014
 8480SOL    HW237074   1.597   0.964   4.267  0.6253 -1.2996 -0.5511
 8481SOL     OW37075   1.330   2.112  12.103 -0.5463  0.5969 -0.0709
 8481SOL    HW137076   1.312   2.188  12.159 -0.0234  0.4151  0.3452
 8481SOL    HW237077   1.289   2.148  12.024  0.5518 -0.3597 -1.0746
 8482SOL     OW37078   1.983   3.132  16.453  0.3588 -0.0767 -0.1772
 8482SOL    HW137079   1.997   3.038  16.441  2.9516  0.2101  0.6147
 8482SOL    HW237080   2.056   3.138  16.515 -1.2893  3.7065  1.3949
 8483SOL     OW37081   4.369   0.359   3.635  0.6869 -0.5013 -0.0614
 8483SOL    HW137082   4.297   0.300   3.659  0.6121 -0.8733 -1.2074
 8483SOL    HW237083   4.315   0.421   3.586  0.7410 -0.1170  0.3603
 8484SOL     OW37084   2.094   0.233  10.476 -0.1302  0.8754 -0.3473
 8484SOL    HW137085   2.022   0.272  10.427 -0.7765  1.2455  0.9190
 8484SOL    HW237086   2.123   0.170  10.409 -4.4962 -0.4412 -0.9914
 8485SOL     OW37087   1.490   1.050   8.205 -0.5159  0.0191  0.6201
 8485SOL    HW137088   1.458   1.086   8.122  0.8291  2.6668  1.2381
 8485SOL    HW237089   1.562   0.992   8.180 -0.0409  1.2262 -0.8109
 8486SOL     OW37090   3.162   4.725   6.904 -0.0843  0.5208 -0.2541
 8486SOL    HW137091   3.212   4.721   6.823  1.8714  1.7479  0.9082
 8486SOL    HW237092   3.227   4.733   6.974  1.0761  1.6298 -1.4617
 8487SOL     OW37093   0.744   0.472   8.260  0.8894  0.2960 -0.2556
 8487SOL    HW137094   0.769   0.401   8.201 -1.0558 -1.1643  0.6663
 8487SOL    HW237095   0.787   0.455   8.344 -0.5338  0.8033  0.5774
 8488SOL     OW37096   1.804   1.133   8.171  0.0259  0.3597 -0.1038
 8488SOL    HW137097   1.802   1.216   8.123 -1.3061  0.9626  1.0184
 8488SOL    HW237098   1.893   1.138   8.206 -0.4982  0.2293  1.2326
 8489SOL     OW37099   4.301   4.353   8.436  0.0634 -0.5238  0.3506
 8489SOL    HW137100   4.333   4.439   8.463  1.0368 -1.4115  2.0403
 8489SOL    HW237101   4.240   4.340   8.509 -0.6925 -2.3833 -0.6173
 8490SOL     OW37102   0.957   2.138  15.173  0.2823  0.3765 -0.3065
 8490SOL    HW137103   0.934   2.229  15.191  0.5439  0.4352 -0.2751
 8490SOL    HW237104   1.046   2.142  15.209  0.6876 -1.0771 -1.1269
 8491SOL     OW37105   2.910   2.388   9.510  0.3292  0.5581 -0.1990
 8491SOL    HW137106   2.891   2.452   9.578  2.3277  0.5474  0.3681
 8491SOL    HW237107   2.831   2.392   9.457 -0.9280  2.9234  1.8816
 8492SOL     OW37108   2.195   0.311   2.506  0.9989  0.3216  0.7225
 8492SOL    HW137109   2.114   0.358   2.485 -0.2133 -1.4341  1.4797
 8492SOL    HW237110   2.247   0.389   2.522  2.1204 -0.2573 -0.1523
 8493SOL     OW37111   1.184   2.293   9.272  0.1333 -0.3337 -0.4166
 8493SOL    HW137112   1.197   2.263   9.362 -0.5852 -1.7245 -0.7680
 8493SOL    HW237113   1.113   2.229   9.259  0.6709 -0.9835 -0.1310
 8494SOL     OW37114   0.599   1.803   0.545  0.4228  0.3758 -0.2108
 8494SOL    HW137115   0.601   1.894   0.575  0.6997 -0.4944  2.4609
 8494SOL    HW237116   0.615   1.817   0.452  0.9898  2.7230  0.2417
 8495SOL     OW37117   2.408   2.023   3.145 -0.7936  0.0196  0.0525
 8495SOL    HW137118   2.460   2.103   3.140 -0.0964 -0.6516 -3.1308
 8495SOL    HW237119   2.325   2.054   3.108  0.2868 -0.3671 -2.6497
 8496SOL     OW37120   0.575   1.053  10.662  0.1930 -0.0509 -0.5770
 8496SOL    HW137121   0.600   1.011  10.580 -0.0050  0.4822 -0.9038
 8496SOL    HW237122   0.482   1.029  10.668  0.5011 -0.9217  0.6815
 8497SOL     OW37123   4.106   1.893   9.054 -0.3286  0.5696 -0.6380
 8497SOL    HW137124   4.036   1.846   9.009 -0.4116  0.0596  0.0311
 8497SOL    HW237125   4.075   1.983   9.040  0.9980  1.0184 -0.6561
 8498SOL     OW37126   2.107   3.571  10.350 -0.3621 -0.2627 -0.7260
 8498SOL    HW137127   2.018   3.574  10.316 -0.7858 -0.5357  0.3361
 8498SOL    HW237128   2.098   3.517  10.429 -0.2765 -1.4664 -1.5403
 8499SOL     OW37129   4.667   1.122   2.730  0.3293 -1.0368  0.1564
 8499SOL    HW137130   4.630   1.109   2.817 -0.4712  3.3491  0.5043
 8499SOL    HW237131   4.671   1.029   2.710 -2.8493 -1.3996  1.2131
 8500SOL     OW37132   2.782   3.997  10.968  0.3728 -0.2460  0.0356
 8500SOL    HW137133   2.719   4.029  11.032  1.2606 -0.6825  1.1318
 8500SOL    HW237134   2.862   3.980  11.019  1.8810  0.4892 -2.0834
 8501SOL     OW37135   0.659   2.742   3.340 -0.4720  0.4421 -0.3935
 8501SOL    HW137136   0.692   2.690   3.413 -2.5438 -1.1134 -0.5860
 8501SOL    HW237137   0.651   2.828   3.383  1.5476  0.2358  0.4304
 8502SOL     OW37138   4.600   3.780   3.509 -0.2645 -0.3636  0.0377
 8502SOL    HW137139   4.575   3.818   3.425  1.9547  3.6513  1.1659
 8502SOL    HW237140   4.529   3.820   3.560  0.9782  1.5666  0.2824
 8503SOL     OW37141   2.807   3.273   1.511  0.1742 -0.3029  0.5424
 8503SOL    HW137142   2.744   3.333   1.473  1.5004  0.8443  0.1510
 8503SOL    HW237143   2.759   3.258   1.592  0.3690  0.8528  0.8642
 8504SOL     OW37144   3.285   3.415  15.427 -0.1692 -0.0948 -0.0368
 8504SOL    HW137145   3.238   3.378  15.352 -1.8793 -0.6926  1.3203
 8504SOL    HW237146   3.248   3.503  15.424 -0.2639 -0.1054  1.0098
 8505SOL     OW37147   3.288   3.400  10.266  0.5117 -0.7980 -0.0699
 8505SOL    HW137148   3.225   3.425  10.333 -0.1029 -0.4222 -0.7930
 8505SOL    HW237149   3.320   3.486  10.238 -0.1446 -0.3128  0.6781
 8506SOL     OW37150   3.356   2.495   2.749 -0.6273 -0.1138 -0.1838
 8506SOL    HW137151   3.309   2.570   2.714 -2.6508 -0.1565  2.4895
 8506SOL    HW237152   3.322   2.424   2.694  0.4587 -1.5338  0.9498
 8507SOL     OW37153   2.097   3.425   4.159 -0.1463 -0.4169  0.5262
 8507SOL    HW137154   2.129   3.499   4.211  0.9817  0.8835 -2.0426
 8507SOL    HW237155   2.060   3.476   4.087 -1.3144 -1.2620  0.5310
 8508SOL     OW37156   1.513   2.170   8.935 -0.8101 -0.0480 -0.3535
 8508SOL    HW137157   1.450   2.234   8.968  2.3116  2.5787  0.6121
 8508SOL    HW237158   1.484   2.148   8.846 -0.1236 -0.4819 -0.4703
 8509SOL     OW37159   3.028   3.671  11.414 -0.5108 -0.0469 -0.0899
 8509SOL    HW137160   3.092   3.649  11.482 -0.2808 -0.2435 -0.3700
 8509SOL    HW237161   2.945   3.676  11.462 -0.1086 -1.2227  0.7321
 8510SOL     OW37162   3.026   1.692  17.084  0.3794  0.9887  0.2276
 8510SOL    HW137163   3.107   1.675  17.036  1.2541  0.4541  1.8628
 8510SOL    HW237164   3.025   1.787  17.078 -2.6067  0.6997 -3.4616
 8511SOL     OW37165   0.940   0.402   7.184  0.8631 -0.0523  0.6879
 8511SOL    HW137166   0.974   0.340   7.249 -1.3695 -1.5981  0.3708
 8511SOL    HW237167   0.916   0.477   7.237  0.6334  0.9323 -0.8112
 8512SOL     OW37168   3.698   2.138   2.503  0.7311  0.6784 -0.1523
 8512SOL    HW137169   3.774   2.111   2.452  1.6491  1.2560  0.9134
 8512SOL    HW237170   3.646   2.175   2.432 -0.0199  0.2585  0.1783
 8513SOL     OW37171   1.571   2.663   2.452 -0.7802  0.2494  0.1606
 8513SOL    HW137172   1.581   2.756   2.472  3.2388 -0.2742  0.4512
 8513SOL    HW237173   1.641   2.634   2.509 -0.9706 -1.3202 -0.4104
 8514SOL     OW37174   3.101   0.964   4.701 -0.4679  0.5807  0.7947
 8514SOL    HW137175   3.179   1.019   4.700 -0.0326 -0.0511  0.0246
 8514SOL    HW237176   3.136   0.884   4.740 -1.6565 -0.3190  0.0290
 8515SOL     OW37177   0.263   2.762   0.105 -0.0527  0.5334 -0.1135
 8515SOL    HW137178   0.358   2.776   0.116 -0.0947 -1.3386  2.5812
 8515SOL    HW237179   0.241   2.821   0.033  0.7397  0.1946 -0.6412
 8516SOL     OW37180   0.636   3.011   8.201  0.1105  0.3839  0.0319
 8516SOL    HW137181   0.559   3.026   8.256  0.2325 -0.1490  0.3363
 8516SOL    HW237182   0.595   3.021   8.114 -0.6969  1.3397  0.5224
 8517SOL     OW37183   1.286   0.409   2.977  0.7837  0.2375 -0.1195
 8517SOL    HW137184   1.323   0.479   2.923  1.9022  0.3974  0.8547
 8517SOL    HW237185   1.224   0.453   3.035 -0.1331 -1.0381 -0.1257
 8518SOL     OW37186   0.988   0.633   6.099  0.5977  0.3551 -0.0308
 8518SOL    HW137187   1.063   0.691   6.086 -0.3026  1.0519 -2.1604
 8518SOL    HW237188   0.935   0.643   6.020 -0.4122 -1.4714  0.4196
 8519SOL     OW37189   4.184   4.622   4.959  0.6087 -0.1317 -0.3453
 8519SOL    HW137190   4.138   4.600   5.040 -0.3144  2.8672 -0.0713
 8519SOL    HW237191   4.242   4.694   4.982  0.0798 -0.1670  1.0767
 8520SOL     OW37192   1.385   4.160  11.753  0.3761  0.1078 -0.1849
 8520SOL    HW137193   1.350   4.198  11.673 -1.1663 -1.6276 -0.3482
 8520SOL    HW237194   1.327   4.084  11.752  1.6889 -0.8734 -2.3944
 8521SOL     OW37195   1.092   0.208   3.927  0.0721  0.7651 -0.3668
 8521SOL    HW137196   1.050   0.172   4.005 -0.9276 -1.5305 -1.9386
 8521SOL    HW237197   1.029   0.277   3.906 -0.2034 -0.4541 -3.6164
 8522SOL     OW37198   0.602   4.208  17.615  0.2528 -1.2519 -0.6741
 8522SOL    HW137199   0.552   4.163  17.684 -0.4046  1.7305  0.7819
 8522SOL    HW237200   0.687   4.167  17.633 -0.3503 -1.5964  1.4644
 8523SOL     OW37201   0.944   4.142   1.822 -0.8529 -0.1161 -0.4082
 8523SOL    HW137202   0.860   4.189   1.823 -0.7916 -0.0217  0.2198
 8523SOL    HW237203   0.937   4.096   1.738 -1.0397  0.2588 -0.5981
 8524SOL     OW37204   2.139   3.167   4.220  0.0611  0.7905 -0.3186
 8524SOL    HW137205   2.097   3.250   4.200  3.0581  2.4357  0.3175
 8524SOL    HW237206   2.230   3.196   4.217 -0.0676  1.2011 -0.2006
 8525SOL     OW37207   1.436   2.261   4.248  0.0607 -0.2748 -0.1379
 8525SOL    HW137208   1.439   2.353   4.220 -0.6318  0.5062  2.4194
 8525SOL    HW237209   1.520   2.262   4.293  0.2218 -2.2289 -0.3985
 8526SOL     OW37210   4.672   2.679   7.868 -0.3888  0.2405  0.2057
 8526SOL    HW137211   4.595   2.734   7.860  0.2728  0.8561 -1.9783
 8526SOL    HW237212   0.005   2.739   7.899  0.0494  0.1036 -0.5015
 8527SOL     OW37213   2.243   2.346  12.577 -0.0048  0.9323 -0.2023
 8527SOL    HW137214   2.207   2.349  12.488 -0.7752  2.3366  0.1481
 8527SOL    HW237215   2.219   2.259  12.609 -0.9129  0.6678 -1.5928
 8528SOL     OW37216   3.026   3.547  14.501 -0.1562 -0.1029 -0.7827
 8528SOL    HW137217   2.940   3.526  14.536  0.3572 -1.1711 -0.1547
 8528SOL    HW237218   3.024   3.641  14.518 -0.2679 -0.3070  0.3284
 8529SOL     OW37219   3.481   2.425  17.244  0.5281 -0.4501  0.0810
 8529SOL    HW137220   3.536   2.412  17.321  3.1390 -1.1093 -1.9019
 8529SOL    HW237221   3.413   2.477  17.287 -2.5793 -3.4647 -1.1091
 8530SOL     OW37222   1.357   0.182   3.117 -0.2439  0.4073  0.3736
 8530SOL    HW137223   1.373   0.274   3.095  1.1358  0.2496  0.7301
 8530SOL    HW237224   1.300   0.145   3.050 -1.5422 -0.5838  2.0209
 8531SOL     OW37225   3.859   2.802   1.761 -0.4504 -0.8239  0.2788
 8531SOL    HW137226   3.944   2.847   1.758 -1.0097  0.2976  1.2898
 8531SOL    HW237227   3.827   2.839   1.843 -0.7365 -1.1567  0.3151
 8532SOL     OW37228   1.853   0.280  13.708  0.1571 -0.7244 -0.4837
 8532SOL    HW137229   1.914   0.211  13.684 -0.2359 -1.3077  0.1621
 8532SOL    HW237230   1.776   0.229  13.737 -1.0133  1.5584  0.4218
 8533SOL     OW37231   3.837   2.777   6.055 -0.2882  0.2991 -0.1272
 8533SOL    HW137232   3.762   2.721   6.033  0.5234 -0.8226 -0.0704
 8533SOL    HW237233   3.875   2.765   5.968 -0.8030 -1.4044 -0.1300
 8534SOL     OW37234   0.468   1.287   0.773  0.4488  0.7188 -0.1563
 8534SOL    HW137235   0.549   1.236   0.774 -0.2863 -0.3223  2.7557
 8534SOL    HW237236   0.489   1.376   0.802 -1.6249  1.9038 -2.2371
 8535SOL     OW37237   4.262   0.374   8.462  0.1090  0.3575  0.0428
 8535SOL    HW137238   4.355   0.377   8.483 -0.0747  0.0934  0.8958
 8535SOL    HW237239   4.226   0.460   8.486  0.3346  0.7227 -0.9399
 8536SOL     OW37240   3.507   0.753   1.877  0.1240 -0.2237 -0.4193
 8536SOL    HW137241   3.517   0.776   1.785  1.3133 -1.1584 -0.5110
 8536SOL    HW237242   3.461   0.834   1.901 -0.4282 -0.5823 -0.2645
 8537SOL     OW37243   1.686   2.164   4.357  0.1463 -0.3001 -0.4154
 8537SOL    HW137244   1.761   2.107   4.370  0.7484  0.8486  1.1339
 8537SOL    HW237245   1.703   2.221   4.432  0.0758 -2.4014  1.1993
 8538SOL     OW37246   4.252   1.870   7.460  0.1905  0.4265  0.1319
 8538SOL    HW137247   4.296   1.949   7.427  1.0912  0.0804  0.5149
 8538SOL    HW237248   4.217   1.828   7.382 -1.8335  0.8032  0.8275
 8539SOL     OW37249   1.705   3.184   2.313  0.1300  0.4104 -0.2993
 8539SOL    HW137250   1.668   3.273   2.320 -2.2385 -0.6239  0.5070
 8539SOL    HW237251   1.762   3.175   2.389  0.0445 -0.9303 -0.3958
 8540SOL     OW37252   3.642   4.636   6.330 -0.0001 -0.2833 -0.4922
 8540SOL    HW137253   3.652   4.681   6.246  0.1631  1.4465  0.4501
 8540SOL    HW237254   3.664   4.549   6.295  1.2123 -0.4203  0.6271
 8541SOL     OW37255   3.773   1.038   1.200  0.6351 -0.0947 -0.0694
 8541SOL    HW137256   3.857   1.007   1.166 -0.4729 -0.7422 -2.2166
 8541SOL    HW237257   3.725   1.040   1.118 -1.1977  1.9508  1.0466
 8542SOL     OW37258   0.385   0.847   9.035  0.6950  1.1659 -0.0783
 8542SOL    HW137259   0.359   0.803   9.116 -1.0580  1.6409 -0.3803
 8542SOL    HW237260   0.402   0.929   9.081  0.2146  0.8943  0.5875
 8543SOL     OW37261   1.182   2.346   3.714  0.2967  0.4374  0.1554
 8543SOL    HW137262   1.145   2.274   3.663  3.7424 -2.3264  1.6191
 8543SOL    HW237263   1.266   2.308   3.740  1.0389  0.4588 -2.2505
 8544SOL     OW37264   2.324   2.405   0.858 -0.2684  0.4932 -0.0993
 8544SOL    HW137265   2.281   2.428   0.775 -1.1099 -0.2462  0.1374
 8544SOL    HW237266   2.409   2.429   0.822 -0.2436 -0.1295 -0.4668
 8545SOL     OW37267   3.579   0.820   8.285  0.0677  0.1411  0.2148
 8545SOL    HW137268   3.492   0.841   8.251  0.2791 -1.4315 -1.2683
 8545SOL    HW237269   3.579   0.868   8.368  2.0432  2.7583 -1.2877
 8546SOL     OW37270   2.246   4.168   6.005  0.5632 -0.3515  0.5404
 8546SOL    HW137271   2.213   4.165   5.915  0.0096 -3.3348  0.8536
 8546SOL    HW237272   2.301   4.090   5.996  0.8592 -0.3016  1.8741
 8547SOL     OW37273   2.540   3.491   2.270  0.1456 -0.1288 -0.3449
 8547SOL    HW137274   2.574   3.553   2.334 -1.9454  1.1332 -0.4778
 8547SOL    HW237275   2.573   3.408   2.306 -0.2121 -0.0059  0.2712
 8548SOL     OW37276   1.107   2.380  10.236  0.2656 -0.1847 -0.1707
 8548SOL    HW137277   1.189   2.424  10.256  1.8874 -3.0055 -0.6292
 8548SOL    HW237278   1.134   2.338  10.154 -1.1994  0.9995 -1.2746
 8549SOL     OW37279   0.975   4.009   4.985  0.1330 -0.6276 -0.6529
 8549SOL    HW137280   0.951   4.001   4.892 -0.5071  0.8278 -0.6166
 8549SOL    HW237281   0.986   4.102   5.003 -1.6749 -0.6869  0.7311
 8550SOL     OW37282   4.170   3.251  12.274  0.6784  0.2097 -0.3462
 8550SOL    HW137283   4.181   3.321  12.338 -0.4828 -0.3870  0.5105
 8550SOL    HW237284   4.090   3.279  12.229 -0.1993  0.3219  1.2834
 8551SOL     OW37285   1.210   0.867   6.105  0.2758 -0.0898  0.9325
 8551SOL    HW137286   1.298   0.870   6.143  0.3156 -0.7098  0.9018
 8551SOL    HW237287   1.222   0.873   6.010 -1.8552  0.0425  0.6867
 8552SOL     OW37288   4.389   2.499   0.726  0.1383  0.0919 -0.2306
 8552SOL    HW137289   4.448   2.534   0.793  0.8588 -0.0500 -0.7867
 8552SOL    HW237290   4.431   2.423   0.686 -0.6582  0.5626 -1.9805
 8553SOL     OW37291   4.070   3.103  16.176 -0.2983  0.2627  0.8263
 8553SOL    HW137292   3.991   3.156  16.173  0.0527  0.6849 -1.6263
 8553SOL    HW237293   4.055   3.058  16.259 -1.3298  0.0340  0.5161
 8554SOL     OW37294   4.698   2.501  12.020  0.2214  0.0690  0.2248
 8554SOL    HW137295   0.050   2.500  11.980  0.4289  1.5391  0.6614
 8554SOL    HW237296   4.721   2.525  12.109  2.0880 -0.9415  0.0099
 8555SOL     OW37297   0.783   2.584  12.396  0.3441 -0.1680 -0.3908
 8555SOL    HW137298   0.843   2.539  12.336  1.4486 -3.1716  2.9438
 8555SOL    HW237299   0.718   2.615  12.334  0.4413  0.8205  0.0045
 8556SOL     OW37300   1.090   1.441   8.146 -0.0351  0.8885 -0.3391
 8556SOL    HW137301   1.037   1.507   8.102 -0.6108  2.3737  2.5899
 8556SOL    HW237302   1.056   1.363   8.103 -0.4040  1.4612 -1.0705
 8557SOL     OW37303   3.687   2.047   4.745 -0.2978  0.6210  0.0420
 8557SOL    HW137304   3.633   1.995   4.804  2.1017 -2.1937 -0.2413
 8557SOL    HW237305   3.754   2.071   4.809 -0.2373 -1.4336  0.7740
 8558SOL     OW37306   2.810   0.290  12.693  0.3701 -0.1861  0.0504
 8558SOL    HW137307   2.888   0.329  12.733  0.7912 -0.9267 -0.0523
 8558SOL    HW237308   2.808   0.345  12.615  1.1102  0.9422  0.8184
 8559SOL     OW37309   3.815   0.288  13.063 -0.1408 -0.0634  0.8966
 8559SOL    HW137310   3.876   0.285  13.138 -0.4222  3.1448  1.2400
 8559SOL    HW237311   3.757   0.364  13.069  0.7452  0.6761  0.0583
 8560SOL     OW37312   2.316   1.509  13.978  0.3797 -0.1131  0.3957
 8560SOL    HW137313   2.380   1.474  14.040  0.4938  0.1114  0.4077
 8560SOL    HW237314   2.234   1.483  14.018  0.1059  1.1678  0.6805
 8561SOL     OW37315   2.061   2.038   0.103 -0.5440 -0.0444 -0.4852
 8561SOL    HW137316   2.021   2.012   0.186  0.4023 -0.1647 -0.0746
 8561SOL    HW237317   1.996   1.992   0.049  0.9014 -0.5422 -1.8073
 8562SOL     OW37318   4.476   3.294   1.408  0.4468  0.2979  0.6295
 8562SOL    HW137319   4.446   3.359   1.345  0.4061 -0.9745 -0.6627
 8562SOL    HW237320   4.388   3.263   1.428  0.5866  0.5725  1.6791
 8563SOL     OW37321   1.342   0.177   2.278 -0.0359 -0.1233 -0.5157
 8563SOL    HW137322   1.362   0.226   2.198 -0.9939 -2.5614 -2.2608
 8563SOL    HW237323   1.417   0.119   2.290  1.0612  1.5608  0.6842
 8564SOL     OW37324   2.118   0.286   1.955  0.1894 -0.2511  0.3185
 8564SOL    HW137325   2.214   0.293   1.955  0.0736  1.0763  3.7341
 8564SOL    HW237326   2.098   0.340   2.031  2.5946  0.3389  0.5248
 8565SOL     OW37327   2.315   2.788   1.162 -0.2569  0.2219  0.7953
 8565SOL    HW137328   2.293   2.803   1.254 -0.4319 -0.3024  0.8403
 8565SOL    HW237329   2.242   2.734   1.133  0.0488  1.5296 -2.4825
 8566SOL     OW37330   3.056   0.987   3.013  0.2600 -0.1370 -0.2223
 8566SOL    HW137331   3.014   1.059   3.060  0.9259  0.7398 -0.9814
 8566SOL    HW237332   3.057   0.917   3.079 -1.9008 -1.3224 -1.4327
 8567SOL     OW37333   2.137   4.006   3.103  0.2460 -0.4810 -0.3129
 8567SOL    HW137334   2.078   4.053   3.044 -1.5300 -0.6644  1.2959
 8567SOL    HW237335   2.122   3.919   3.066 -1.8265 -0.3084  0.1066
 8568SOL     OW37336   4.125   1.017   8.569  0.7794 -0.4683  0.1700
 8568SOL    HW137337   4.075   1.068   8.632 -2.1593 -1.6673 -1.1785
 8568SOL    HW237338   4.207   1.068   8.567 -0.7144  1.9319  0.2490
 8569SOL     OW37339   4.366   1.272   4.705 -0.0763 -0.4570 -0.4674
 8569SOL    HW137340   4.359   1.252   4.612  1.4612  1.7557 -1.0712
 8569SOL    HW237341   4.309   1.348   4.710  0.2212 -0.3033  0.7200
 8570SOL     OW37342   1.345   1.893   7.817  0.4336  0.4210 -0.1606
 8570SOL    HW137343   1.250   1.894   7.804  0.4798 -1.1392 -0.6189
 8570SOL    HW237344   1.383   1.897   7.729 -1.2000 -1.0040 -0.9377
 8571SOL     OW37345   1.073   2.008   9.328 -0.0848  0.4768  0.0475
 8571SOL    HW137346   0.981   2.022   9.352 -0.5423 -0.5430 -1.1579
 8571SOL    HW237347   1.112   2.012   9.416 -1.1173 -0.9298  0.5622
 8572SOL     OW37348   2.521   0.156   8.067  0.0530 -0.3065  0.3425
 8572SOL    HW137349   2.584   0.205   8.015 -0.3576 -2.1242 -1.8492
 8572SOL    HW237350   2.578   0.139   8.142  1.0722  3.5749  0.4600
 8573SOL     OW37351   3.543   2.454  12.233  0.0190 -0.3493  0.7964
 8573SOL    HW137352   3.554   2.546  12.256  0.8827 -0.7404  2.0150
 8573SOL    HW237353   3.540   2.464  12.138  1.9319  0.0326  0.7776
 8574SOL     OW37354   3.381   1.924   7.765  0.3093  1.0837 -0.3526
 8574SOL    HW137355   3.402   1.960   7.679  0.0301  2.9795  0.3899
 8574SOL    HW237356   3.428   1.981   7.826  0.5596  1.0660 -0.5287
 8575SOL     OW37357   2.484   0.145  15.404 -0.5919  0.1274 -0.1341
 8575SOL    HW137358   2.451   0.164  15.316  1.9058 -1.5445 -1.4581
 8575SOL    HW237359   2.518   0.231  15.431 -1.4104  0.5753 -0.5218
 8576SOL     OW37360   2.509   2.779   6.387 -0.2195  0.0085 -0.6256
 8576SOL    HW137361   2.600   2.810   6.385  0.6543 -2.5127  0.9518
 8576SOL    HW237362   2.517   2.693   6.427 -1.1935 -1.5031 -3.6432
 8577SOL     OW37363   1.712   4.313   6.679  0.1089  0.8496  0.4974
 8577SOL    HW137364   1.695   4.247   6.746 -3.6236 -0.0918 -1.3770
 8577SOL    HW237365   1.763   4.259   6.618  0.4848  0.8617  0.8021
 8578SOL     OW37366   1.547   0.560   5.081  0.3789  0.2722 -0.5265
 8578SOL    HW137367   1.468   0.518   5.116  1.3689 -0.4665  0.8207
 8578SOL    HW237368   1.519   0.645   5.046  4.7235  2.5781  1.6058
 8579SOL     OW37369   2.818   0.692   7.385 -0.2862  0.4095 -0.4425
 8579SOL    HW137370   2.775   0.776   7.404  0.1318  0.3081  0.9915
 8579SOL    HW237371   2.754   0.627   7.357  0.0929  0.4028 -1.3113
 8580SOL     OW37372   0.113   3.782   2.663 -0.1869 -0.2804  0.1612
 8580SOL    HW137373   0.115   3.786   2.567 -1.4127  0.8824  0.1896
 8580SOL    HW237374   0.198   3.826   2.672 -0.7804  0.8191  0.3095
 8581SOL     OW37375   2.766   0.944   8.258 -0.7891 -0.2531 -0.1198
 8581SOL    HW137376   2.774   1.016   8.320  1.0599 -0.1215 -0.5055
 8581SOL    HW237377   2.735   0.876   8.318  0.6368  1.4814  2.5635
 8582SOL     OW37378   4.286   3.009   6.194 -0.4430  0.5107  0.2441
 8582SOL    HW137379   4.288   3.078   6.127 -2.2564  1.7652  1.4897
 8582SOL    HW237380   4.334   3.041   6.270 -0.0475 -2.8781  1.4056
 8583SOL     OW37381   0.786   3.570   3.656  0.1964 -1.0138 -0.5053
 8583SOL    HW137382   0.704   3.617   3.639  0.7826 -1.1272 -3.6819
 8583SOL    HW237383   0.784   3.517   3.576  0.5696 -2.7732  0.6359
 8584SOL     OW37384   0.940   4.433   6.239  0.4116 -0.3184 -0.1486
 8584SOL    HW137385   0.933   4.409   6.146 -0.3277  2.1382 -0.7263
 8584SOL    HW237386   0.924   4.347   6.278  0.0141 -0.2498 -0.1584
 8585SOL     OW37387   1.538   4.237   5.604 -0.4571  0.2681 -0.1678
 8585SOL    HW137388   1.604   4.242   5.535  0.2951 -1.5479  0.4272
 8585SOL    HW237389   1.460   4.230   5.549 -0.1974 -1.2802 -0.3354
 8586SOL     OW37390   1.362   0.002   7.487 -0.5127  0.0963 -0.3467
 8586SOL    HW137391   1.364   4.664   7.424 -0.6958 -1.5728  1.6030
 8586SOL    HW237392   1.397   4.698   7.567 -4.0724 -1.0061  0.6905
 8587SOL     OW37393   1.519   3.207   9.677  0.2040  0.6212  0.3321
 8587SOL    HW137394   1.565   3.280   9.719 -1.5774  1.9851 -0.1111
 8587SOL    HW237395   1.472   3.256   9.610  1.4996  0.7798 -0.4632
 8588SOL     OW37396   3.266   1.294   5.310 -0.1483 -0.1191 -0.1330
 8588SOL    HW137397   3.261   1.207   5.271  0.5038 -0.8641  1.4568
 8588SOL    HW237398   3.181   1.333   5.287  0.9611  1.6164 -1.2657
 8589SOL     OW37399   0.361   0.892  11.752  0.5142  0.0345  0.0565
 8589SOL    HW137400   0.388   0.861  11.666 -0.7333  1.3362 -0.7982
 8589SOL    HW237401   0.349   0.986  11.739  2.3116 -0.0302 -2.1016
 8590SOL     OW37402   4.488   3.272   3.630  0.3411  0.1583  0.0303
 8590SOL    HW137403   4.450   3.202   3.683  0.7701 -0.1086 -0.0132
 8590SOL    HW237404   4.522   3.216   3.560  1.3167  1.9487 -0.9197
 8591SOL     OW37405   3.200   3.557   6.514  0.2304  0.2580 -0.3694
 8591SOL    HW137406   3.199   3.498   6.439  1.2022  1.0796 -1.0201
 8591SOL    HW237407   3.216   3.643   6.475  2.6008 -0.4134 -0.8538
 8592SOL     OW37408   0.820   2.481   3.794 -0.2326 -0.1506  0.0571
 8592SOL    HW137409   0.817   2.484   3.889  5.2932  0.4068  0.2067
 8592SOL    HW237410   0.803   2.387   3.784 -1.8025  0.0038  1.3927
 8593SOL     OW37411   2.200   2.496   1.756  0.4142 -0.2268 -0.8092
 8593SOL    HW137412   2.291   2.465   1.758  0.4781  0.1064  1.4963
 8593SOL    HW237413   2.161   2.448   1.683 -0.0115  0.3468 -0.9609
 8594SOL     OW37414   4.298   4.561   5.983  0.4231  0.8332  0.1043
 8594SOL    HW137415   4.289   4.475   6.024 -0.8553  0.3485 -1.1711
 8594SOL    HW237416   4.377   4.556   5.930 -0.1341  2.6007 -0.8986
 8595SOL     OW37417   2.278   1.333   7.158  0.1231  0.0986 -0.3318
 8595SOL    HW137418   2.210   1.362   7.098  1.6812  1.5209 -1.4001
 8595SOL    HW237419   2.243   1.383   7.232  0.7229  1.0341 -0.6868
 8596SOL     OW37420   1.091   1.537   6.009  0.1410 -0.0384  0.0119
 8596SOL    HW137421   1.056   1.610   6.061 -1.7777 -1.0854  0.1926
 8596SOL    HW237422   1.088   1.579   5.923 -0.2836  1.3342  0.6895
 8597SOL     OW37423   3.285   2.092   6.961  0.0312  0.1128 -0.2417
 8597SOL    HW137424   3.279   2.072   7.054 -1.7752 -1.4335 -0.6786
 8597SOL    HW237425   3.328   2.016   6.922  1.3673  0.7665 -0.0314
 8598SOL     OW37426   2.370   1.181  11.064  0.2421 -0.4454  0.0595
 8598SOL    HW137427   2.452   1.189  11.113  0.0643 -0.8939  0.4348
 8598SOL    HW237428   2.363   1.086  11.058 -0.8978 -0.3763  0.3393
 8599SOL     OW37429   3.704   2.535  17.126  0.4999  0.2326  1.1735
 8599SOL    HW137430   3.760   2.512  17.200 -0.9614 -2.2111  1.5426
 8599SOL    HW237431   3.626   2.487  17.153 -0.4679  0.8646 -0.5029
 8600SOL     OW37432   0.747   3.177  12.459 -0.1531 -0.9590  0.3483
 8600SOL    HW137433   0.829   3.181  12.509  0.0433 -0.0574 -0.0453
 8600SOL    HW237434   0.675   3.167  12.521 -1.6920  0.5370 -1.2098
 8601SOL     OW37435   2.028   2.659   3.653 -0.3373  0.7258 -0.6350
 8601SOL    HW137436   2.046   2.678   3.745  2.1641 -1.3305 -0.6870
 8601SOL    HW237437   2.014   2.564   3.659 -0.1417  0.6967 -0.6268
 8602SOL     OW37438   0.150   2.317   2.100  0.3221  0.5866  0.4158
 8602SOL    HW137439   0.149   2.315   2.196 -1.3375 -0.7208  0.3731
 8602SOL    HW237440   0.212   2.386   2.078  0.0737  1.2047  1.6872
 8603SOL     OW37441   4.170   4.323   9.504  0.5418 -0.1182 -0.3926
 8603SOL    HW137442   4.260   4.305   9.480  0.4252  1.2960 -1.8589
 8603SOL    HW237443   4.165   4.419   9.496 -0.7240 -0.2573 -1.2195
 8604SOL     OW37444   3.566   2.221  16.564 -0.1384 -0.7378 -0.0795
 8604SOL    HW137445   3.545   2.273  16.487  0.4357  1.3432  1.1770
 8604SOL    HW237446   3.661   2.223  16.575 -0.4739 -2.1891  3.0844
 8605SOL     OW37447   0.052   1.172   9.081 -0.1267 -0.3400  0.2782
 8605SOL    HW137448   0.076   1.263   9.103 -2.1206  0.2141  0.1153
 8605SOL    HW237449   0.135   1.139   9.117 -0.6609 -0.5990  1.2749
 8606SOL     OW37450   1.760   4.258  12.365  0.4700 -0.2770 -0.0694
 8606SOL    HW137451   1.813   4.239  12.287  0.9989  2.8511 -0.4875
 8606SOL    HW237452   1.778   4.188  12.428 -1.6415 -1.0333 -0.3153
 8607SOL     OW37453   2.027   4.516   7.541  0.0118  0.3245 -0.0221
 8607SOL    HW137454   2.083   4.440   7.553  0.7861  1.2266  2.0964
 8607SOL    HW237455   2.028   4.555   7.629  0.1330  0.7168 -0.1971
 8608SOL     OW37456   0.313   2.621   8.498 -0.0145 -0.5570 -0.2526
 8608SOL    HW137457   0.315   2.711   8.530  1.7890 -1.4416  2.1230
 8608SOL    HW237458   0.352   2.575   8.573 -0.1429  0.9833  0.7600
 8609SOL     OW37459   1.642   2.530   8.090 -0.5920  0.0820  0.5222
 8609SOL    HW137460   1.650   2.621   8.121  0.9058  0.6098 -1.4243
 8609SOL    HW237461   1.554   2.502   8.115 -0.9023 -1.9833 -2.9399
 8610SOL     OW37462   4.651   3.430   7.432 -0.1027  0.0463  0.4665
 8610SOL    HW137463   4.682   3.515   7.401  1.6538 -0.5923  0.5067
 8610SOL    HW237464   4.560   3.453   7.454 -0.0386  3.4959 -2.7499
 8611SOL     OW37465   4.243   4.035   4.187 -0.1593  0.2495  0.0034
 8611SOL    HW137466   4.162   4.015   4.139  0.9924 -0.5467 -1.6276
 8611SOL    HW237467   4.268   4.111   4.135  2.4598 -1.4658 -1.2354
 8612SOL     OW37468   3.929   3.038  14.888 -0.2931 -0.2710 -0.0362
 8612SOL    HW137469   3.884   3.052  14.805  1.8702  1.4602 -0.9215
 8612SOL    HW237470   4.021   3.050  14.864 -0.1086  0.7700  1.1872
 8613SOL     OW37471   1.741   4.135   8.743 -0.1021  0.5576 -0.7198
 8613SOL    HW137472   1.724   4.087   8.824  1.1539  0.0830 -0.7236
 8613SOL    HW237473   1.695   4.218   8.749  0.9595  1.1792 -1.0242
 8614SOL     OW37474   3.829   4.265  11.044 -0.7144  0.7318 -0.7143
 8614SOL    HW137475   3.811   4.283  11.136 -2.0745 -1.4950 -0.5480
 8614SOL    HW237476   3.814   4.353  11.008 -0.7946  1.0837  0.1757
 8615SOL     OW37477   4.292   4.489   3.758  0.1351  0.0156  0.5980
 8615SOL    HW137478   4.279   4.399   3.729 -0.7380  0.8094 -1.4658
 8615SOL    HW237479   4.206   4.521   3.787  0.0722  0.7949 -0.4380
 8616SOL     OW37480   2.958   3.853   7.377  0.1439  0.1011 -0.1608
 8616SOL    HW137481   3.006   3.867   7.296  1.7562 -0.5991  0.6731
 8616SOL    HW237482   3.017   3.790   7.418  1.4140  1.8609  0.6836
 8617SOL     OW37483   0.348   2.423  13.093  0.4936  0.0189 -0.5916
 8617SOL    HW137484   0.413   2.445  13.026  1.7446 -0.8058  0.3476
 8617SOL    HW237485   0.302   2.351  13.049 -0.5059  1.1207 -1.3446
 8618SOL     OW37486   2.005   1.515   4.531  0.1175  0.0007  0.3828
 8618SOL    HW137487   1.995   1.451   4.460 -1.4761 -2.9440  3.2135
 8618SOL    HW237488   2.079   1.476   4.577 -0.8222 -1.5262  0.6218
 8619SOL     OW37489   3.963   2.754   5.807 -0.5087 -0.5690  0.5254
 8619SOL    HW137490   4.050   2.789   5.827  0.3863 -0.9683 -2.5744
 8619SOL    HW237491   3.988   2.679   5.753  2.0769  0.8818 -0.3367
 8620SOL     OW37492   3.918   1.694   8.931  0.4639 -0.3813  0.3452
 8620SOL    HW137493   3.943   1.647   8.852 -2.1770  2.3721 -2.0917
 8620SOL    HW237494   3.838   1.739   8.905  0.6849 -0.3746 -0.3073
 8621SOL     OW37495   0.181   1.181   2.045  0.0126 -0.4158 -0.3146
 8621SOL    HW137496   0.272   1.183   2.072 -0.6797 -1.1853  2.0568
 8621SOL    HW237497   0.140   1.098   2.069 -0.2985 -0.5939 -1.4392
 8622SOL     OW37498   0.085   1.857  14.724  0.3436 -0.2348 -0.1822
 8622SOL    HW137499   0.073   1.869  14.818  0.2939  0.1749 -0.2423
 8622SOL    HW237500   0.179   1.839  14.726  0.1542 -1.5434 -2.6495
 8623SOL     OW37501   4.715   1.686   6.763 -0.0644 -0.2412 -0.1874
 8623SOL    HW137502   4.668   1.632   6.827  2.0456 -0.9381  0.7848
 8623SOL    HW237503   4.656   1.761   6.764  0.1163 -0.0881 -1.6283
 8624SOL     OW37504   1.720   0.324   3.780  0.0800  0.0578 -0.2016
 8624SOL    HW137505   1.672   0.376   3.844  0.9013 -0.5274  0.8990
 8624SOL    HW237506   1.652   0.323   3.713 -0.4571 -1.8960  0.3649
 8625SOL     OW37507   1.770   1.855  13.827  0.5186  0.2826  0.4747
 8625SOL    HW137508   1.856   1.815  13.843  0.8134  0.4230 -0.7952
 8625SOL    HW237509   1.780   1.867  13.733 -0.9504  0.0027  0.2903
 8626SOL     OW37510   3.015   0.330   1.587 -0.0033  0.4528 -0.1108
 8626SOL    HW137511   3.087   0.292   1.637 -0.3936 -1.9764 -1.3509
 8626SOL    HW237512   3.014   0.420   1.618  0.4182  1.2185 -2.3246
 8627SOL     OW37513   2.084   4.632  15.497 -0.4724  0.2057  0.6595
 8627SOL    HW137514   2.174   4.602  15.512 -0.7407 -1.6525 -1.3836
 8627SOL    HW237515   2.076   4.727  15.505 -0.6483  0.2725 -0.3404
 8628SOL     OW37516   0.506   0.183  10.187  0.3285 -0.1563  0.3143
 8628SOL    HW137517   0.467   0.129  10.117  1.5450 -0.4809 -0.1115
 8628SOL    HW237518   0.572   0.120  10.217  0.0549 -0.7940 -0.4118
 8629SOL     OW37519   4.012   2.100  16.929  0.3652 -0.1389 -0.2843
 8629SOL    HW137520   4.030   2.060  17.014 -0.7642 -2.2517 -1.0140
 8629SOL    HW237521   4.053   2.185  16.917 -0.7611  0.5551  0.7984
 8630SOL     OW37522   4.403   0.790  14.171  0.4370  0.3698  0.0171
 8630SOL    HW137523   4.417   0.796  14.076 -2.0641 -1.4340 -0.4533
 8630SOL    HW237524   4.429   0.878  14.200 -1.4302  0.9586 -0.1164
 8631SOL     OW37525   4.579   4.152   4.366  0.1377  0.2337 -0.1866
 8631SOL    HW137526   4.591   4.219   4.434 -0.4253 -1.0059  1.1443
 8631SOL    HW237527   4.651   4.191   4.317  0.8797  0.2269  0.8749
 8632SOL     OW37528   2.571   0.914   8.016  0.2938  0.2425 -0.0527
 8632SOL    HW137529   2.620   0.924   7.935  1.0223 -1.9611  0.0901
 8632SOL    HW237530   2.638   0.873   8.071 -0.7760 -0.7066  0.5452
 8633SOL     OW37531   3.077   2.294   1.412  0.2549 -0.2173 -0.1121
 8633SOL    HW137532   3.126   2.228   1.363 -0.9182 -0.6809 -0.6559
 8633SOL    HW237533   3.031   2.339   1.341 -1.5658 -0.7180  0.7277
 8634SOL     OW37534   2.455   2.537   7.444 -0.0793  0.0934 -0.0618
 8634SOL    HW137535   2.522   2.472   7.464  0.5743 -0.3078 -3.5224
 8634SOL    HW237536   2.479   2.604   7.508  0.5521 -2.3710  2.2801
 8635SOL     OW37537   3.664   1.352  15.858  0.5915 -0.0909 -0.1400
 8635SOL    HW137538   3.574   1.336  15.886  1.6645 -0.1944  3.1796
 8635SOL    HW237539   3.696   1.375  15.945  0.0270  0.1961 -0.0022
 8636SOL     OW37540   3.925   2.178   3.965  0.7532  0.5193 -0.1249
 8636SOL    HW137541   3.935   2.215   4.052  0.3727  1.8594 -0.6500
 8636SOL    HW237542   3.832   2.156   3.972  1.7580 -2.6689  3.2349
 8637SOL     OW37543   0.664   1.878   2.239  0.0819 -0.2699 -0.6801
 8637SOL    HW137544   0.690   1.954   2.186 -1.1835  0.4371 -0.2958
 8637SOL    HW237545   0.690   1.913   2.325 -3.0870 -2.3136  1.0885
 8638SOL     OW37546   0.878   3.642   2.529  0.0908 -0.4445  0.1147
 8638SOL    HW137547   0.805   3.662   2.469  1.9429  1.8853 -1.3880
 8638SOL    HW237548   0.871   3.550   2.554 -1.0248 -1.2715 -3.2777
 8639SOL     OW37549   2.019   2.930   7.308 -0.2433 -0.3775 -0.2053
 8639SOL    HW137550   1.928   2.931   7.338  0.0509  3.5781  0.4908
 8639SOL    HW237551   2.043   3.021   7.294 -0.8086  0.0230  1.4624
 8640SOL     OW37552   3.572   4.329  11.844 -0.4826  0.1396 -0.3900
 8640SOL    HW137553   3.524   4.400  11.801  0.2008  2.4953  2.7660
 8640SOL    HW237554   3.642   4.377  11.886 -0.8254  0.3814 -0.0972
 8641SOL     OW37555   1.504   4.410  11.821 -0.4362 -0.5702  0.5673
 8641SOL    HW137556   1.480   4.322  11.794 -0.9199 -0.0469 -0.7252
 8641SOL    HW237557   1.418   4.451  11.817 -0.3311 -0.2897  1.1278
 8642SOL     OW37558   0.152   2.438  14.870  0.2648 -0.6081 -0.0904
 8642SOL    HW137559   0.181   2.387  14.945 -0.1099  0.1246  0.5508
 8642SOL    HW237560   0.163   2.530  14.896 -0.3918 -1.6095  3.7070
 8643SOL     OW37561   4.645   2.468   6.796  0.1574 -0.3883  0.5222
 8643SOL    HW137562   4.580   2.437   6.734 -1.8911  0.0618  2.4743
 8643SOL    HW237563   4.597   2.475   6.878 -0.0076  1.0449  0.3001
 8644SOL     OW37564   1.217   1.548  10.390  0.3770 -0.4093 -0.4213
 8644SOL    HW137565   1.170   1.524  10.470  0.7351 -0.2887 -0.1745
 8644SOL    HW237566   1.250   1.636  10.406 -2.0764  0.2205  1.2073
 8645SOL     OW37567   2.996   2.681   2.921  0.6876  0.0359  0.3245
 8645SOL    HW137568   3.089   2.684   2.898  1.1861 -3.9256  1.9957
 8645SOL    HW237569   2.987   2.626   2.998 -1.6224 -0.9439 -0.6565
 8646SOL     OW37570   1.328   0.639  15.351 -0.1147  0.2947  0.1859
 8646SOL    HW137571   1.391   0.655  15.421  0.4517  0.4229 -0.3513
 8646SOL    HW237572   1.325   0.724  15.306  0.6050  0.2155 -0.0076
 8647SOL     OW37573   2.544   3.853  14.230 -0.3538  0.1157 -0.1569
 8647SOL    HW137574   2.477   3.878  14.292  1.2921  0.0940  1.6408
 8647SOL    HW237575   2.566   3.921  14.166 -1.8815  1.4259  0.7457
 8648SOL     OW37576   3.210   1.593   8.428 -0.0621 -0.6199 -0.2109
 8648SOL    HW137577   3.166   1.525   8.377 -2.6751  0.5713  0.4841
 8648SOL    HW237578   3.133   1.642   8.456  0.0003 -0.3095 -0.5884
 8649SOL     OW37579   1.469   1.905   5.824  0.4967  0.3268  0.0230
 8649SOL    HW137580   1.546   1.963   5.831  1.4945 -0.7855 -1.6658
 8649SOL    HW237581   1.507   1.834   5.876 -2.2024  0.5312  2.2179
 8650SOL     OW37582   3.112   0.775   8.940  0.6354 -0.1278  0.3883
 8650SOL    HW137583   3.029   0.771   8.988  0.3184 -0.9940 -0.2297
 8650SOL    HW237584   3.127   0.688   8.902 -1.6017 -1.8298  3.3579
 8651SOL     OW37585   1.789   3.570   8.659  0.1022 -0.1131 -0.0905
 8651SOL    HW137586   1.703   3.597   8.692  1.5310  2.2663  1.6439
 8651SOL    HW237587   1.785   3.474   8.665  0.2568 -0.0117  1.6130
 8652SOL     OW37588   3.521   0.115  12.264 -0.5644 -0.7194  0.0955
 8652SOL    HW137589   3.593   0.079  12.316  0.5192  0.4994 -0.5629
 8652SOL    HW237590   3.450   0.101  12.327 -0.9402 -0.0801 -0.1835
 8653SOL     OW37591   2.531   2.655   0.233  0.1158 -0.0539  0.0849
 8653SOL    HW137592   2.552   2.743   0.263  0.9378  1.7707 -5.8261
 8653SOL    HW237593   2.456   2.630   0.287 -0.7319  0.5940 -0.8004
 8654SOL     OW37594   0.427   4.566   8.782 -0.0499  0.0702  0.7352
 8654SOL    HW137595   0.392   4.508   8.715  0.8999  0.7701 -0.3828
 8654SOL    HW237596   0.521   4.555   8.765  0.1173 -1.6543  2.8457
 8655SOL     OW37597   3.261   4.134   8.031  0.6992  0.0112  0.1692
 8655SOL    HW137598   3.166   4.133   8.044  0.6348 -0.4401 -0.3675
 8655SOL    HW237599   3.292   4.180   8.109 -1.1159  0.2115  0.7529
 8656SOL     OW37600   0.150   4.217   8.477  0.3576  0.4887  0.8846
 8656SOL    HW137601   0.115   4.249   8.394 -2.1526 -1.8793  1.0648
 8656SOL    HW237602   0.090   4.255   8.541 -1.2944 -1.9033  0.7668
 8657SOL     OW37603   2.014   1.111   5.564  0.1023 -0.5044  0.0269
 8657SOL    HW137604   2.064   1.030   5.578 -0.5448 -1.0383 -0.7113
 8657SOL    HW237605   1.923   1.088   5.581 -0.4545  1.9356  0.2077
 8658SOL     OW37606   2.917   4.012   8.519  0.8131  0.0897  0.0691
 8658SOL    HW137607   3.012   3.997   8.513  0.8372  0.6784 -0.9727
 8658SOL    HW237608   2.911   4.107   8.532 -2.3202  0.0878 -1.4808
 8659SOL     OW37609   4.325   1.991   3.267 -0.4581 -0.2728 -0.0102
 8659SOL    HW137610   4.241   1.944   3.271  0.3467 -1.6243  1.0613
 8659SOL    HW237611   4.354   1.972   3.178 -0.5582 -0.5747  0.0197
 8660SOL     OW37612   3.914   2.420   8.833 -0.4333 -0.0994  0.1778
 8660SOL    HW137613   3.830   2.444   8.871 -0.3160 -0.1849  0.4891
 8660SOL    HW237614   3.955   2.507   8.834 -0.4415 -0.0754 -1.1336
 8661SOL     OW37615   2.601   1.724   6.669 -0.0522  0.1377  0.0910
 8661SOL    HW137616   2.662   1.651   6.675  0.6647  0.5961 -1.8625
 8661SOL    HW237617   2.659   1.791   6.634  3.1327 -2.2789  0.7571
 8662SOL     OW37618   1.343   4.479   2.552 -0.1879  0.6539 -0.2553
 8662SOL    HW137619   1.389   4.510   2.474  0.4072 -0.2848 -0.2629
 8662SOL    HW237620   1.412   4.434   2.600  0.4396  0.8790 -0.9525
 8663SOL     OW37621   0.224   3.281  13.172 -0.0129 -0.4348 -0.3479
 8663SOL    HW137622   0.140   3.308  13.134 -0.8494 -0.4161  1.5123
 8663SOL    HW237623   0.285   3.307  13.102 -0.0239 -1.1611 -0.6266
 8664SOL     OW37624   2.153   4.581   0.409 -0.0015 -0.2282  0.3989
 8664SOL    HW137625   2.190   4.667   0.389  0.4646 -0.5064  0.0578
 8664SOL    HW237626   2.154   4.553   0.317  0.2776  0.3094  0.2336
 8665SOL     OW37627   2.937   4.477  12.453  0.0817  0.3129  0.4981
 8665SOL    HW137628   2.916   4.540  12.522 -0.2392 -0.9103  1.5207
 8665SOL    HW237629   2.861   4.420  12.447  0.3849 -0.1378  1.0148
 8666SOL     OW37630   1.707   1.400   7.704  0.3682 -0.2356 -0.3302
 8666SOL    HW137631   1.673   1.394   7.615 -1.8389  0.9148  0.4432
 8666SOL    HW237632   1.668   1.483   7.732  1.5830  0.6010 -1.1099
 8667SOL     OW37633   1.736   2.056   5.795 -0.5344  0.1729  0.1249
 8667SOL    HW137634   1.815   2.009   5.824 -0.9044  1.4150  3.1517
 8667SOL    HW237635   1.725   2.000   5.718  0.0033  0.6835 -0.3226
 8668SOL     OW37636   1.665   0.165   2.904  1.1677  0.1285 -0.1925
 8668SOL    HW137637   1.585   0.204   2.867  0.4414 -0.8356  0.3699
 8668SOL    HW237638   1.674   0.209   2.989 -0.9426  2.4277 -1.1643
 8669SOL     OW37639   1.549   3.879   2.499 -0.1019 -0.2440  0.2655
 8669SOL    HW137640   1.491   3.804   2.489 -0.3416  0.0210 -0.3744
 8669SOL    HW237641   1.491   3.947   2.465  0.5562  0.2344  0.0718
 8670SOL     OW37642   2.369   0.407  17.079 -0.4097 -0.5626  0.6526
 8670SOL    HW137643   2.290   0.366  17.044 -1.7087  0.4699  2.3505
 8670SOL    HW237644   2.340   0.497  17.068 -2.1030 -1.0241  1.3266
 8671SOL     OW37645   1.349   1.791  15.344 -0.1860 -0.0343 -0.2124
 8671SOL    HW137646   1.396   1.863  15.385 -0.5144  0.5756 -0.9096
 8671SOL    HW237647   1.276   1.832  15.296  0.9466  1.5978 -0.5407
 8672SOL     OW37648   2.671   1.221   8.097 -0.0304  0.0395  0.3124
 8672SOL    HW137649   2.666   1.185   8.185 -0.4749  1.5625  0.9079
 8672SOL    HW237650   2.616   1.298   8.109 -0.8814 -0.5029 -0.0974
 8673SOL     OW37651   2.079   2.375  15.277 -0.6317 -0.1424 -0.1818
 8673SOL    HW137652   2.083   2.388  15.182  0.5283  0.9000  0.0042
 8673SOL    HW237653   2.121   2.290  15.285  0.3156  0.4816  1.5006
 8674SOL     OW37654   0.805   4.093   6.120  0.5759 -0.4372  0.2446
 8674SOL    HW137655   0.810   4.174   6.069  2.1119 -0.6156  0.1122
 8674SOL    HW237656   0.710   4.084   6.115  0.6190 -1.8050  1.9064
 8675SOL     OW37657   1.923   1.431   5.485 -0.5966  0.0420  0.2772
 8675SOL    HW137658   1.978   1.397   5.556 -0.2443 -0.9539 -0.4681
 8675SOL    HW237659   1.870   1.489   5.539  0.1368  1.7405 -0.8112
 8676SOL     OW37660   1.084   2.169   4.626  0.1799  0.4218 -0.0455
 8676SOL    HW137661   1.054   2.126   4.706  0.6280  1.1383  0.5094
 8676SOL    HW237662   1.023   2.240   4.607 -3.1339 -2.3559  0.1748
 8677SOL     OW37663   2.336   1.952   1.653  0.8118  0.3781 -0.4314
 8677SOL    HW137664   2.415   1.917   1.695 -0.8159 -1.4596  1.1281
 8677SOL    HW237665   2.267   1.927   1.716 -0.0314  0.7898 -1.1881
 8678SOL     OW37666   3.464   4.722   8.662  0.0771  0.5887 -0.1361
 8678SOL    HW137667   3.501   0.038   8.590 -0.6854  0.2889 -0.7449
 8678SOL    HW237668   3.374   0.019   8.661  0.2259  1.0261  1.2434
 8679SOL     OW37669   0.501   1.914   3.029  0.1525  0.2399 -0.5158
 8679SOL    HW137670   0.445   1.897   3.105 -0.3876  4.6524  0.1037
 8679SOL    HW237671   0.498   2.010   3.031 -2.5443  0.0886  1.3296
 8680SOL     OW37672   3.681   4.205   4.199 -0.0717  0.1330 -0.1780
 8680SOL    HW137673   3.628   4.234   4.125 -0.9401  0.1761  0.4664
 8680SOL    HW237674   3.719   4.284   4.237  0.3118 -0.1203 -0.0368
 8681SOL     OW37675   4.261   4.494  13.512 -0.1414 -0.3809  0.8363
 8681SOL    HW137676   4.331   4.461  13.457 -1.2659 -0.8218 -0.3472
 8681SOL    HW237677   4.224   4.567  13.463  0.0363 -1.8602 -1.4865
 8682SOL     OW37678   3.231   4.206  14.589 -0.6312 -0.3911  0.5614
 8682SOL    HW137679   3.298   4.274  14.598 -0.2204 -1.1714  3.4232
 8682SOL    HW237680   3.258   4.167  14.506 -0.1873  0.0832  0.4815
 8683SOL     OW37681   3.929   1.597   7.874 -0.3436  0.0218 -0.1550
 8683SOL    HW137682   3.940   1.579   7.967 -1.1145 -1.5669 -0.3843
 8683SOL    HW237683   3.995   1.536   7.841  0.4851 -0.1781  1.9145
 8684SOL     OW37684   2.654   0.891   1.487 -0.7156 -0.3021  0.0997
 8684SOL    HW137685   2.694   0.853   1.566 -1.7549 -0.9744  0.3026
 8684SOL    HW237686   2.680   0.979   1.515 -0.8395 -0.0760 -0.5027
 8685SOL     OW37687   1.901   3.215  10.136 -0.5932  0.0647 -0.1453
 8685SOL    HW137688   1.992   3.206  10.106 -0.7258  0.7776 -0.7633
 8685SOL    HW237689   1.914   3.226  10.230  1.1315  0.6030 -0.4271
 8686SOL     OW37690   0.528   2.947   6.193  0.5090 -0.4451 -0.4772
 8686SOL    HW137691   0.555   3.036   6.171  0.1167  0.2815  1.9692
 8686SOL    HW237692   0.580   2.939   6.273  1.9511  0.5842 -1.3264
 8687SOL     OW37693   3.315   3.590   5.063 -0.0310 -0.6611  0.2615
 8687SOL    HW137694   3.315   3.601   4.968 -0.5604 -0.7163  0.2544
 8687SOL    HW237695   3.222   3.568   5.072  0.1113 -0.2855  2.7265
 8688SOL     OW37696   2.427   1.570   6.519  0.2496 -0.0184 -0.2610
 8688SOL    HW137697   2.480   1.618   6.583 -0.6567 -1.3582  1.4937
 8688SOL    HW237698   2.335   1.588   6.542  1.2203  0.7385  3.0405
 8689SOL     OW37699   3.172   1.833   1.814 -0.2692 -0.1024  0.4469
 8689SOL    HW137700   3.093   1.803   1.861 -0.0815 -0.7163  0.3671
 8689SOL    HW237701   3.145   1.886   1.739  1.2447 -1.6713 -1.1915
 8690SOL     OW37702   1.825   0.627  15.555  0.5160 -0.3302 -0.2446
 8690SOL    HW137703   1.864   0.540  15.544  4.0868  1.2057  0.1086
 8690SOL    HW237704   1.899   0.666  15.601  0.5328  1.4153 -1.7818
 8691SOL     OW37705   3.065   1.871   1.536  0.1097  0.4010  0.4419
 8691SOL    HW137706   3.095   1.952   1.495 -0.1357 -0.2939 -1.1291
 8691SOL    HW237707   3.033   1.819   1.462 -2.6715  0.2734  1.7142
 8692SOL     OW37708   2.735   0.519   5.640  0.2387  0.1833 -0.4593
 8692SOL    HW137709   2.746   0.427   5.617 -0.5228  0.1669 -0.7689
 8692SOL    HW237710   2.651   0.505   5.686 -1.2068  1.4166 -2.7571
 8693SOL     OW37711   4.192   4.291  11.293  0.2576 -0.2308 -0.4114
 8693SOL    HW137712   4.268   4.320  11.345  0.2995 -1.8989  0.4761
 8693SOL    HW237713   4.198   4.197  11.310  2.1858 -0.1211 -0.4733
 8694SOL     OW37714   3.710   0.782  14.353 -0.1092 -0.1219  0.1705
 8694SOL    HW137715   3.670   0.740  14.277  1.5542  0.2772 -0.9268
 8694SOL    HW237716   3.647   0.854  14.351  0.2247  0.1462 -0.4610
 8695SOL     OW37717   1.336   2.473   5.059  0.5855  0.1086  0.1189
 8695SOL    HW137718   1.348   2.464   5.154 -0.1299 -0.2484  0.1670
 8695SOL    HW237719   1.412   2.429   5.020  0.9610  0.9097 -0.0599
 8696SOL     OW37720   4.529   0.498  13.413 -0.3312 -0.0029  0.2766
 8696SOL    HW137721   4.593   0.489  13.343  1.2411  0.6907  1.6272
 8696SOL    HW237722   4.583   0.498  13.492 -1.2125 -0.5410  0.8819
 8697SOL     OW37723   4.050   4.299   6.462 -0.2437 -0.3915  0.0759
 8697SOL    HW137724   4.088   4.384   6.438  1.8360 -1.3554 -0.0577
 8697SOL    HW237725   3.988   4.324   6.530  0.4862 -0.6900  0.8476
 8698SOL     OW37726   0.810   3.167  13.965 -0.2916 -0.1218 -0.0901
 8698SOL    HW137727   0.742   3.186  14.030 -0.0113  1.0292 -0.1276
 8698SOL    HW237728   0.806   3.249  13.916 -0.8692 -0.6727 -0.9528
 8699SOL     OW37729   3.287   1.663   9.859 -0.4643  0.6556  0.0318
 8699SOL    HW137730   3.367   1.618   9.832 -0.6329 -0.1901  0.9753
 8699SOL    HW237731   3.261   1.597   9.922 -3.4190  1.7524 -0.0581
 8700SOL     OW37732   1.646   4.130  10.062  0.4810 -0.8062 -0.0461
 8700SOL    HW137733   1.679   4.123  10.152  0.7778 -1.1854 -0.1815
 8700SOL    HW237734   1.576   4.194  10.069  0.7765 -0.5388  0.5044
 8701SOL     OW37735   0.712   0.256   9.839  0.2940 -0.3018 -0.0801
 8701SOL    HW137736   0.634   0.301   9.806  0.9188  0.6881 -0.2140
 8701SOL    HW237737   0.675   0.169   9.858  1.4555 -0.9009 -0.5817
 8702SOL     OW37738   3.390   1.604   0.389 -0.7617 -0.2786 -0.0890
 8702SOL    HW137739   3.321   1.635   0.331 -1.7508  0.0339  1.2427
 8702SOL    HW237740   3.445   1.573   0.317  0.5797  1.2106  0.2835
 8703SOL     OW37741   2.700   0.895   9.501  0.3297  0.3944  0.7938
 8703SOL    HW137742   2.639   0.935   9.564 -1.9061 -2.0204  0.1663
 8703SOL    HW237743   2.630   0.855   9.448  0.8346 -0.6637  0.9235
 8704SOL     OW37744   4.474   0.148   6.426  0.1185  0.2232 -0.4869
 8704SOL    HW137745   4.383   0.169   6.401 -0.4785 -2.7148 -0.6967
 8704SOL    HW237746   4.466   0.153   6.521 -0.8436 -0.2609 -0.5408
 8705SOL     OW37747   4.223   4.390   0.022  0.3910 -0.1513 -0.1094
 8705SOL    HW137748   4.201   4.313  17.709 -1.0922  0.5479 -0.5470
 8705SOL    HW237749   4.290   4.437  17.712  0.7378 -0.7796 -0.2331
 8706SOL     OW37750   0.016   1.868   5.631  0.2403 -0.1300  0.5523
 8706SOL    HW137751   0.102   1.868   5.590  0.0067 -0.3654  0.0655
 8706SOL    HW237752   4.728   1.960   5.617 -4.6666 -1.2389  1.4511
 8707SOL     OW37753   2.189   4.476   0.174  0.4422  0.2659 -0.1740
 8707SOL    HW137754   2.280   4.491   0.148  0.0604  2.1045 -0.4381
 8707SOL    HW237755   2.187   4.380   0.178 -0.2588  0.2282 -1.5136
 8708SOL     OW37756   3.433   2.751  15.190 -0.4054  0.4952 -0.1585
 8708SOL    HW137757   3.488   2.749  15.111  0.3764  0.9297  0.3818
 8708SOL    HW237758   3.386   2.831  15.168  0.3609  1.4935  1.9428
 8709SOL     OW37759   0.814   0.835   3.980  0.0456 -0.1621 -0.3350
 8709SOL    HW137760   0.853   0.767   3.926  0.2531  1.1811 -1.8707
 8709SOL    HW237761   0.724   0.800   3.984 -0.9601  2.2434 -2.5002
 8710SOL     OW37762   1.207   4.257   9.821 -0.0364 -0.4864 -0.1735
 8710SOL    HW137763   1.164   4.268   9.736 -1.4482  0.6113  0.6884
 8710SOL    HW237764   1.238   4.166   9.822 -1.1378 -0.8529  1.1693
 8711SOL     OW37765   0.743   4.154   3.220 -0.1656 -0.2020  0.0296
 8711SOL    HW137766   0.807   4.193   3.279  1.0439  1.0952 -2.1603
 8711SOL    HW237767   0.678   4.225   3.218 -0.5710 -0.5466  0.8533
 8712SOL     OW37768   3.232   0.504  14.524  0.1026 -0.0676 -0.9018
 8712SOL    HW137769   3.141   0.486  14.502  0.0930 -3.1800  1.7701
 8712SOL    HW237770   3.220   0.567  14.595  2.0640 -1.3793  0.5877
 8713SOL     OW37771   0.313   2.870   5.206  0.2159  0.2636  0.5085
 8713SOL    HW137772   0.246   2.904   5.264 -0.3032 -0.6136  0.4219
 8713SOL    HW237773   0.278   2.788   5.172 -0.0047  0.8945 -0.8127
 8714SOL     OW37774   4.210   1.292   9.941 -0.4643  0.5182  0.2236
 8714SOL    HW137775   4.219   1.387   9.947  0.7696  0.4102  0.0896
 8714SOL    HW237776   4.215   1.263  10.032 -1.5147 -1.3272 -0.3127
 8715SOL     OW37777   3.429   0.898   9.597 -0.1278  0.4025  1.0304
 8715SOL    HW137778   3.466   0.907   9.509 -1.4735  2.5084  0.6510
 8715SOL    HW237779   3.340   0.871   9.575  1.0599 -0.7167 -2.3626
 8716SOL     OW37780   1.968   0.133   4.149  0.1198 -0.3499 -0.9393
 8716SOL    HW137781   1.908   0.065   4.117 -0.9484  0.7061 -1.1580
 8716SOL    HW237782   1.958   0.206   4.089 -0.4259  0.4662  0.1463
 8717SOL     OW37783   1.849   2.276   0.469  0.2372 -0.6636 -0.1550
 8717SOL    HW137784   1.936   2.298   0.436 -0.7375 -0.1526 -2.4157
 8717SOL    HW237785   1.807   2.362   0.469  0.8708 -0.3595  0.9252
 8718SOL     OW37786   1.080   1.705   2.750  0.3279  0.7943 -0.4096
 8718SOL    HW137787   0.991   1.708   2.716 -0.0517  0.4461  0.5534
 8718SOL    HW237788   1.138   1.699   2.674  0.3350  0.3816 -0.3706
 8719SOL     OW37789   0.356   1.730   7.008  0.1860  0.2007  0.0433
 8719SOL    HW137790   0.292   1.663   6.982 -1.5211  1.7383  0.2639
 8719SOL    HW237791   0.346   1.785   6.930 -2.0080 -0.1485  0.0595
 8720SOL     OW37792   3.986   4.534   4.733 -0.1034  0.1294  0.0074
 8720SOL    HW137793   3.994   4.519   4.827 -2.0966  2.0806  0.4958
 8720SOL    HW237794   4.036   4.616   4.735 -2.2804  1.4507  0.5261
 8721SOL     OW37795   3.649   3.244  16.639 -0.2895 -0.3205  0.4124
 8721SOL    HW137796   3.677   3.313  16.699  0.8187 -1.0277  0.7295
 8721SOL    HW237797   3.690   3.275  16.559  0.1372 -0.8314  0.4269
 8722SOL     OW37798   3.011   2.949   1.159 -0.5201 -0.0135  0.4525
 8722SOL    HW137799   2.990   3.010   1.230  0.5642  0.4656  0.3546
 8722SOL    HW237800   2.948   2.978   1.094 -0.2832  1.8355  1.0567
 8723SOL     OW37801   4.240   4.224  17.519 -0.1871 -0.0477  0.1338
 8723SOL    HW137802   4.228   4.298  17.458  2.5666 -1.2441 -1.8578
 8723SOL    HW237803   4.164   4.166  17.522 -0.5016  0.2499 -2.0834
 8724SOL     OW37804   2.271   4.092  16.805 -0.1778  0.4725  0.2755
 8724SOL    HW137805   2.280   4.145  16.885  0.1555 -0.1631  0.6541
 8724SOL    HW237806   2.209   4.033  16.847  0.4217 -1.6500 -1.8315
 8725SOL     OW37807   0.105   1.347   8.358  0.2932 -0.3408 -0.5375
 8725SOL    HW137808   0.172   1.363   8.424  0.2539  0.3016 -0.6569
 8725SOL    HW237809   0.043   1.291   8.406 -1.0212  1.4210 -0.1835
 8726SOL     OW37810   1.984   4.393   0.468  0.1812 -0.3363 -0.2796
 8726SOL    HW137811   1.922   4.436   0.409 -1.0389 -0.3253  1.0055
 8726SOL    HW237812   2.052   4.460   0.471 -0.8369  0.6071  1.9797
 8727SOL     OW37813   2.669   0.980   5.444 -0.0685 -0.1495 -0.6010
 8727SOL    HW137814   2.717   1.001   5.524 -1.0750 -2.5329  0.6147
 8727SOL    HW237815   2.686   0.886   5.441 -0.7246 -0.3173  1.1883
 8728SOL     OW37816   3.929   0.153   3.300  0.6308 -0.3297 -0.4122
 8728SOL    HW137817   3.899   0.214   3.233 -0.3587 -1.0071 -0.5897
 8728SOL    HW237818   3.886   0.072   3.271 -1.3711  0.1686  1.1626
 8729SOL     OW37819   4.728   2.263   8.224 -0.1462 -0.5127 -0.1321
 8729SOL    HW137820   0.001   2.218   8.309  0.9939  0.9826  0.5515
 8729SOL    HW237821   4.681   2.341   8.257  0.0459  0.0464 -1.1998
 8730SOL     OW37822   4.729   1.932   2.518 -0.0043  0.3984 -0.0103
 8730SOL    HW137823   0.045   2.013   2.515  1.6580 -0.5389  2.0856
 8730SOL    HW237824   4.733   1.904   2.610 -0.1808 -0.3647 -0.2390
 8731SOL     OW37825   2.776   1.093   1.892  0.4150  0.3046 -0.0409
 8731SOL    HW137826   2.823   1.065   1.813  1.2960  1.5810  0.0317
 8731SOL    HW237827   2.834   1.065   1.962  1.1186  1.7780 -0.0213
 8732SOL     OW37828   2.234   4.250   2.964 -0.6236  0.1925 -0.3865
 8732SOL    HW137829   2.220   4.205   2.881 -1.5514  1.5347 -0.9699
 8732SOL    HW237830   2.255   4.183   3.028 -2.9976 -1.4930 -1.3861
 8733SOL     OW37831   3.628   0.407  17.117 -0.3281  0.1433 -0.0074
 8733SOL    HW137832   3.676   0.327  17.098  0.5788  0.9963 -1.3196
 8733SOL    HW237833   3.701   0.461  17.146 -0.2572 -0.8157  1.5965
 8734SOL     OW37834   1.771   0.545   2.973  0.2423 -0.1115 -0.2173
 8734SOL    HW137835   1.829   0.540   3.050 -0.6387  2.6636  0.6409
 8734SOL    HW237836   1.824   0.515   2.900 -1.4404 -0.7505 -1.1724
 8735SOL     OW37837   0.988   1.560   4.620  0.0366  0.4657  0.4008
 8735SOL    HW137838   0.962   1.552   4.712  1.5742 -0.4931  0.7614
 8735SOL    HW237839   0.938   1.637   4.595 -1.2913  0.2287  2.3402
 8736SOL     OW37840   4.037   0.556   1.744  0.0610  0.2501  0.2796
 8736SOL    HW137841   4.028   0.639   1.790 -0.9197 -0.6721  1.7450
 8736SOL    HW237842   4.037   0.489   1.812  0.6801 -0.6941 -0.6586
 8737SOL     OW37843   4.023   1.982   6.215  0.0725  0.0957  0.0190
 8737SOL    HW137844   4.065   1.920   6.275 -0.8181 -0.0710  0.4815
 8737SOL    HW237845   4.093   1.980   6.150 -0.7932 -1.1135 -0.8757
 8738SOL     OW37846   0.868   2.076   6.475 -0.0078 -0.4051  0.1914
 8738SOL    HW137847   0.808   2.002   6.473  1.4646 -1.5241 -2.4341
 8738SOL    HW237848   0.869   2.092   6.381  0.9443 -0.2701  0.2166
 8739SOL     OW37849   3.872   3.047   4.735 -0.2948  0.1941 -0.2484
 8739SOL    HW137850   3.829   3.083   4.657 -2.2388 -0.5598  0.4698
 8739SOL    HW237851   3.820   3.087   4.804 -1.0617 -0.0408 -0.6930
 8740SOL     OW37852   3.934   1.979   4.513 -0.3323 -0.5059  0.0655
 8740SOL    HW137853   3.875   2.034   4.564  1.3019  1.8130 -0.5266
 8740SOL    HW237854   3.887   1.899   4.488 -2.1101 -0.2435  2.5620
 8741SOL     OW37855   1.611   3.026  10.941 -0.1061  0.2387 -0.6211
 8741SOL    HW137856   1.560   3.093  10.987 -3.3255 -1.8944 -1.0237
 8741SOL    HW237857   1.640   2.965  11.008 -0.9647  0.9707  0.4166
 8742SOL     OW37858   1.517   3.486   1.814  0.0127 -0.2104  0.3475
 8742SOL    HW137859   1.507   3.424   1.886  0.3912 -1.6171 -0.8168
 8742SOL    HW237860   1.577   3.545   1.858  3.3114 -4.3648  1.4292
 8743SOL     OW37861   1.654   0.258  13.400  0.3666 -0.6149 -0.0604
 8743SOL    HW137862   1.630   0.189  13.338 -1.1525  1.7539 -2.0906
 8743SOL    HW237863   1.574   0.277  13.448  1.9200  1.0359  1.8650
 8744SOL     OW37864   4.138   1.738   2.859  0.6116  0.5836 -0.5894
 8744SOL    HW137865   4.080   1.770   2.790 -0.3410 -0.0970 -0.1020
 8744SOL    HW237866   4.189   1.686   2.796  1.0497 -0.2650  0.4813
 8745SOL     OW37867   2.458   1.368   6.303 -0.1381  0.4093  0.0609
 8745SOL    HW137868   2.363   1.370   6.297 -0.2040 -0.5661  0.7651
 8745SOL    HW237869   2.468   1.430   6.375  0.1733 -0.4230  0.7318
 8746SOL     OW37870   1.150   4.234   3.444  0.9519  0.1364  0.2548
 8746SOL    HW137871   1.233   4.258   3.487  2.6131 -0.2264 -2.7714
 8746SOL    HW237872   1.193   4.177   3.380 -0.3006  1.1835 -1.5184
 8747SOL     OW37873   3.185   1.337   7.804  0.2798 -0.4322 -0.3676
 8747SOL    HW137874   3.097   1.367   7.780  1.2269  0.5470 -2.6298
 8747SOL    HW237875   3.222   1.402   7.864  0.0983 -2.2480  1.7007
 8748SOL     OW37876   3.204   1.588  13.991 -0.1238  0.5025  0.0388
 8748SOL    HW137877   3.207   1.548  13.904 -1.9268  0.7050 -0.1262
 8748SOL    HW237878   3.161   1.672  13.977  1.4784  1.3914  0.5063
 8749SOL     OW37879   0.447   1.345   7.179  0.5435 -0.5072 -0.5502
 8749SOL    HW137880   0.352   1.357   7.190  0.7196  0.1365  0.2505
 8749SOL    HW237881   0.465   1.251   7.184  0.6257 -0.5588 -1.8421
 8750SOL     OW37882   2.790   4.373   1.200 -0.2798  0.0338 -0.3867
 8750SOL    HW137883   2.801   4.455   1.153  2.0963  0.6631  1.2908
 8750SOL    HW237884   2.816   4.403   1.287  1.3242 -0.3789 -0.7177
 8751SOL     OW37885   0.997   4.241  11.526  0.0908  0.0843 -0.5594
 8751SOL    HW137886   1.088   4.272  11.531  0.3284 -0.9451  1.3888
 8751SOL    HW237887   0.972   4.258  11.435 -2.3900 -0.6288 -0.0089
 8752SOL     OW37888   1.399   2.604   2.859  0.7184 -0.3545 -0.2452
 8752SOL    HW137889   1.311   2.567   2.855  0.5849 -0.1543  0.8062
 8752SOL    HW237890   1.398   2.605   2.955 -0.4087  0.9775 -0.2552
 8753SOL     OW37891   4.160   3.223   6.027  0.2684 -0.0791  0.3985
 8753SOL    HW137892   4.079   3.217   6.077 -0.2900  1.8329 -0.2504
 8753SOL    HW237893   4.138   3.283   5.955 -0.4500 -0.9445 -0.1050
 8754SOL     OW37894   0.922   0.471  12.779  0.1079  0.0456 -0.5645
 8754SOL    HW137895   0.910   0.458  12.685  1.0914 -2.6834 -0.3311
 8754SOL    HW237896   1.014   0.446  12.788 -0.3376 -0.7432  1.8029
 8755SOL     OW37897   3.321   1.559   8.982  0.6394 -0.8166  0.1854
 8755SOL    HW137898   3.274   1.551   9.066  2.9032 -1.1246  1.4239
 8755SOL    HW237899   3.261   1.605   8.923 -1.6886 -0.6649  2.6482
 8756SOL     OW37900   0.689   3.002   9.085 -0.4929 -0.1632  0.4044
 8756SOL    HW137901   0.701   3.090   9.051  2.8967  0.1156  2.3214
 8756SOL    HW237902   0.623   2.977   9.020 -1.6303  0.6757  1.2380
 8757SOL     OW37903   0.314   3.734   4.964  0.3555 -0.3028  1.0347
 8757SOL    HW137904   0.358   3.665   4.915 -0.3936 -0.0468 -0.0035
 8757SOL    HW237905   0.233   3.742   4.913  1.9008 -2.1782 -1.7414
 8758SOL     OW37906   3.366   3.992   4.059  0.0379 -0.0342 -0.0485
 8758SOL    HW137907   3.447   3.952   4.029  0.8992  0.4696  1.6140
 8758SOL    HW237908   3.305   3.918   4.064 -0.2940  0.4617  3.2687
 8759SOL     OW37909   2.205   2.195   9.401  0.2637 -0.1592  0.3265
 8759SOL    HW137910   2.219   2.285   9.373 -1.6931  0.3530  1.0386
 8759SOL    HW237911   2.146   2.218   9.472 -0.3063  1.0053 -0.5334
 8760SOL     OW37912   0.608   1.497   3.723  0.0187  0.0652  0.4223
 8760SOL    HW137913   0.526   1.452   3.740 -0.6323  1.1777  0.1770
 8760SOL    HW237914   0.583   1.586   3.698  1.5821 -0.0477 -1.6081
 8761SOL     OW37915   4.122   2.886  12.759 -0.6282  0.3692  0.3293
 8761SOL    HW137916   4.027   2.893  12.771 -0.1952  3.0970  2.2145
 8761SOL    HW237917   4.132   2.800  12.719 -1.0719  0.6058 -0.3026
 8762SOL     OW37918   0.035   4.383   5.749 -0.3244 -0.1613 -0.4306
 8762SOL    HW137919   0.078   4.446   5.691 -1.3881  0.5599 -0.4338
 8762SOL    HW237920   0.105   4.329   5.784  0.8276  2.1390  0.8355
 8763SOL     OW37921   4.491   0.662   5.280 -0.1890 -1.0053 -0.0807
 8763SOL    HW137922   4.526   0.581   5.318 -0.3309  0.1002  2.4284
 8763SOL    HW237923   4.551   0.671   5.206  1.1577 -0.4409  1.0680
 8764SOL     OW37924   2.227   2.196   8.143 -0.7909 -0.3906 -0.5652
 8764SOL    HW137925   2.172   2.222   8.217 -4.1762 -0.2400 -3.0864
 8764SOL    HW237926   2.276   2.277   8.130 -1.7747  0.3273  0.1839
 8765SOL     OW37927   0.065   3.132   9.033 -0.0826 -0.6739  0.3658
 8765SOL    HW137928   0.130   3.064   9.051  2.3013  1.1574 -1.3766
 8765SOL    HW237929   4.721   3.080   9.049 -0.7886  0.1232 -0.4937
 8766SOL     OW37930   3.141   0.934   7.471 -0.6047  0.1852  0.5860
 8766SOL    HW137931   3.185   1.003   7.521  0.7986 -0.9535  0.9415
 8766SOL    HW237932   3.084   0.986   7.415 -1.1058  1.0893  1.9242
 8767SOL     OW37933   3.299   1.305  16.407 -0.2735 -0.2913  0.0210
 8767SOL    HW137934   3.285   1.390  16.364 -0.9164 -1.3377 -1.8433
 8767SOL    HW237935   3.394   1.301  16.411 -0.3940 -2.0765  1.0305
 8768SOL     OW37936   1.600   1.917   6.118 -0.0924  0.0179 -0.2605
 8768SOL    HW137937   1.678   1.862   6.121  0.8179  1.3850  0.5874
 8768SOL    HW237938   1.603   1.946   6.209 -0.3145 -0.9486  0.0484
 8769SOL     OW37939   0.263   2.981   5.570 -0.2521 -0.1257 -0.0179
 8769SOL    HW137940   0.226   2.946   5.651 -0.2922 -0.9314 -0.3838
 8769SOL    HW237941   0.332   2.918   5.548 -1.9977 -2.1628  0.3290
 8770SOL     OW37942   3.534   0.441   1.685  0.1359 -0.2613 -0.1146
 8770SOL    HW137943   3.590   0.518   1.687 -0.2241  0.0078 -0.2554
 8770SOL    HW237944   3.451   0.467   1.726 -0.2184  0.2647 -1.1640
 8771SOL     OW37945   4.060   2.011   3.584  0.2860  0.2294 -0.4395
 8771SOL    HW137946   4.015   1.960   3.517  1.1015 -2.3043  0.9779
 8771SOL    HW237947   4.077   1.945   3.651  1.9539  1.1267  0.0362
 8772SOL     OW37948   3.338   0.314   5.702  0.2850 -0.3859  0.3477
 8772SOL    HW137949   3.309   0.241   5.647 -1.6896 -0.5047  1.5183
 8772SOL    HW237950   3.395   0.353   5.636  0.4292 -0.3186  0.5106
 8773SOL     OW37951   1.322   2.532   0.861 -0.4318  0.4482 -0.3141
 8773SOL    HW137952   1.275   2.587   0.799 -2.2642 -0.6828  0.0813
 8773SOL    HW237953   1.376   2.475   0.806  0.2519 -0.1943  1.0366
 8774SOL     OW37954   1.854   4.225   0.663  0.1722  0.2520 -0.2234
 8774SOL    HW137955   1.913   4.173   0.718 -0.2950 -1.2747 -1.1806
 8774SOL    HW237956   1.914   4.282   0.613 -0.9668 -2.3133 -4.4645
 8775SOL     OW37957   2.882   3.299   3.465  0.0684 -0.3155  0.6338
 8775SOL    HW137958   2.882   3.332   3.555  2.4983  1.3256  0.0292
 8775SOL    HW237959   2.884   3.207   3.491  1.7441 -0.8121 -1.2649
 8776SOL     OW37960   0.856   4.138   9.476 -0.1826  0.3264 -0.2837
 8776SOL    HW137961   0.857   4.153   9.571 -2.1792 -0.2815 -0.1667
 8776SOL    HW237962   0.882   4.046   9.476  1.8239  0.8831  2.1802
 8777SOL     OW37963   1.725   4.032   5.246  0.4655 -0.1357 -0.1936
 8777SOL    HW137964   1.639   4.014   5.284  0.6388  1.3862  0.8757
 8777SOL    HW237965   1.733   4.117   5.289 -0.8503 -1.2939  2.3394
 8778SOL     OW37966   3.041   1.508   3.840  0.6528 -0.1659  0.1835
 8778SOL    HW137967   2.974   1.534   3.777  1.8897 -0.4545 -1.2267
 8778SOL    HW237968   3.123   1.517   3.793  0.6747  1.6516  0.5355
 8779SOL     OW37969   3.231   2.202   6.620  0.2038  0.5363  0.1900
 8779SOL    HW137970   3.174   2.133   6.652  0.8522 -0.2909 -0.4192
 8779SOL    HW237971   3.253   2.172   6.532  0.9844  1.3111  0.1056
 8780SOL     OW37972   1.087   0.393   9.090  0.1740 -0.2566  0.1002
 8780SOL    HW137973   1.173   0.353   9.108  0.6100  0.9476  0.6832
 8780SOL    HW237974   1.033   0.316   9.071 -3.5449  2.2909  0.5371
 8781SOL     OW37975   2.460   4.024   4.733  0.0441  0.2957  0.7625
 8781SOL    HW137976   2.522   3.977   4.789  2.6664  2.4048 -0.3718
 8781SOL    HW237977   2.428   4.092   4.792  1.6002  2.0024 -0.3433
 8782SOL     OW37978   0.341   0.333   4.988 -0.0170  0.1216  0.0861
 8782SOL    HW137979   0.431   0.308   4.965  0.1876 -0.1120  1.1570
 8782SOL    HW237980   0.339   0.418   4.944  1.8160  0.4033  0.5553
 8783SOL     OW37981   1.510   3.938  13.234 -0.4719  0.0258  0.0477
 8783SOL    HW137982   1.503   3.901  13.146 -2.6230  0.7573 -0.0885
 8783SOL    HW237983   1.550   3.867  13.284  0.9289  0.2713 -0.7399
 8784SOL     OW37984   4.551   4.715   9.404  0.0048  0.1537  0.1078
 8784SOL    HW137985   4.565   4.693   9.497  0.4845  1.9445  0.4630
 8784SOL    HW237986   4.529   0.073   9.401 -0.5441  0.0963  2.3796
 8785SOL     OW37987   1.572   3.778   5.478  0.2656  0.0722  0.0615
 8785SOL    HW137988   1.588   3.851   5.538 -0.8401 -1.4634  2.2118
 8785SOL    HW237989   1.479   3.771   5.500  0.8239 -0.6209  2.2445
 8786SOL     OW37990   1.656   3.386  17.469  0.1641  0.1366  0.5988
 8786SOL    HW137991   1.690   3.433  17.393  2.2125 -2.0611  0.1352
 8786SOL    HW237992   1.594   3.448  17.506 -0.2831 -0.0741  0.2023
 8787SOL     OW37993   3.030   1.340   7.476 -1.1493  0.5970  0.3643
 8787SOL    HW137994   3.007   1.288   7.553 -0.4930  0.2859  0.3531
 8787SOL    HW237995   2.953   1.395   7.469 -1.1842  0.2771 -1.7474
 8788SOL     OW37996   4.089   4.454  11.758 -0.0509 -0.3353 -0.2084
 8788SOL    HW137997   4.149   4.463  11.684 -0.3213  1.3565 -0.2269
 8788SOL    HW237998   4.149   4.482  11.827  0.1976 -1.1681 -0.0831
 8789SOL     OW37999   1.479   0.075   2.013 -0.2111  0.3773  0.8471
 8789SOL    HW138000   1.520   0.074   2.099 -1.1906  3.5880  1.3557
 8789SOL    HW238001   1.483   4.717   1.989  1.0960  0.9283 -1.1222
 8790SOL     OW38002   4.715   2.504  15.235 -0.3517 -0.3409 -0.4129
 8790SOL    HW138003   4.707   2.539  15.323 -0.0237 -0.0396 -0.5010
 8790SOL    HW238004   4.726   2.582  15.181 -1.5698  0.2643  0.2257
 8791SOL     OW38005   2.768   2.567  14.401  0.6780 -0.5662  0.0448
 8791SOL    HW138006   2.766   2.623  14.323  3.8779  1.2881  1.2955
 8791SOL    HW238007   2.791   2.480  14.368  0.7163  0.1485 -1.8229
 8792SOL     OW38008   4.546   4.145  17.137 -0.2630  0.1367 -0.7108
 8792SOL    HW138009   4.597   4.064  17.142 -0.0059  0.2462 -1.5340
 8792SOL    HW238010   4.489   4.117  17.208 -0.1499  0.5350 -0.4592
 8793SOL     OW38011   1.792   3.684   5.343  0.1901 -0.2144 -0.2239
 8793SOL    HW138012   1.709   3.729   5.360  0.1856  0.8828 -3.0150
 8793SOL    HW238013   1.775   3.632   5.264  1.5331 -1.6621  0.4510
 8794SOL     OW38014   4.292   0.459  13.549  0.9200 -0.5670  0.1497
 8794SOL    HW138015   4.315   0.446  13.641 -0.1461 -0.5887  0.4151
 8794SOL    HW238016   4.366   0.513  13.521  0.9557 -0.5642  0.2490
 8795SOL     OW38017   4.484   3.096   8.659  0.2839 -0.0444 -0.2017
 8795SOL    HW138018   4.538   3.071   8.734  1.7756 -0.2662 -1.3252
 8795SOL    HW238019   4.398   3.062   8.682 -0.3618  0.4451 -1.8329
 8796SOL     OW38020   0.963   2.872  13.281  0.4061  0.0538 -0.4348
 8796SOL    HW138021   0.992   2.784  13.307  1.7918 -0.4143 -3.5838
 8796SOL    HW238022   0.946   2.923  13.359  0.0868 -0.1196 -0.3904
 8797SOL     OW38023   4.022   4.545   2.076  0.1430  0.2641 -0.4271
 8797SOL    HW138024   4.046   4.512   2.162 -1.9828  4.3395  1.7240
 8797SOL    HW238025   4.020   4.471   2.016 -1.3203  1.3180 -1.6999
 8798SOL     OW38026   1.749   0.368   4.338 -0.1145  0.3245  0.2181
 8798SOL    HW138027   1.792   0.453   4.352  2.3019 -0.8616  0.0524
 8798SOL    HW238028   1.701   0.378   4.256 -0.7583  0.3810  0.6082
 8799SOL     OW38029   2.152   2.637   6.927 -0.1332  0.0034  0.0763
 8799SOL    HW138030   2.188   2.625   7.015 -1.1121 -1.5859  0.2629
 8799SOL    HW238031   2.125   2.548   6.905 -0.3583 -0.2791  1.4880
 8800SOL     OW38032   4.520   1.658  14.726  0.0451 -0.2750 -0.0028
 8800SOL    HW138033   4.591   1.688  14.669  0.1538  2.5316  1.5900
 8800SOL    HW238034   4.441   1.673  14.674 -1.0789 -0.1268  1.7418
 8801SOL     OW38035   0.376   0.118   8.255 -0.5005  0.1269  0.1020
 8801SOL    HW138036   0.386   0.111   8.349 -1.1483  2.7065  0.3533
 8801SOL    HW238037   0.343   0.207   8.243  0.3365  0.1833 -1.8788
 8802SOL     OW38038   2.777   1.499   6.639 -0.3049 -0.2212 -0.4265
 8802SOL    HW138039   2.747   1.431   6.699  0.8079  0.6644  1.1139
 8802SOL    HW238040   2.863   1.468   6.609  0.7113 -0.3555  2.6720
 8803SOL     OW38041   0.442   3.397   7.177 -0.1464  0.0117 -0.6316
 8803SOL    HW138042   0.522   3.393   7.230  0.7607  1.8768 -1.8768
 8803SOL    HW238043   0.439   3.306   7.148  2.7086  0.5183 -2.5163
 8804SOL     OW38044   3.782   2.575  12.772  0.1921  0.4797 -0.1593
 8804SOL    HW138045   3.846   2.536  12.711  0.6921  2.9866 -1.2428
 8804SOL    HW238046   3.757   2.651  12.720 -1.7919  1.5719  2.4331
 8805SOL     OW38047   1.016   3.199  12.897 -0.2987  0.3633 -0.0215
 8805SOL    HW138048   1.026   3.106  12.920  1.4220  0.7294  0.6850
 8805SOL    HW238049   1.043   3.244  12.977 -4.3536  2.7091  0.0641
 8806SOL     OW38050   4.098   1.219   2.736 -0.0203  0.0105 -0.2898
 8806SOL    HW138051   4.005   1.216   2.715 -0.2106 -2.5941  0.9456
 8806SOL    HW238052   4.122   1.311   2.740  0.5462 -0.0292 -2.3983
 8807SOL     OW38053   4.620   2.177   9.046 -0.3862 -0.0623 -0.3934
 8807SOL    HW138054   4.560   2.119   9.093  1.9209 -1.5891  0.7300
 8807SOL    HW238055   4.587   2.260   9.077  0.2838  0.1821 -0.3268
 8808SOL     OW38056   0.708   0.248  12.828  0.2242 -0.6356 -0.4915
 8808SOL    HW138057   0.710   0.343  12.815 -0.3638 -0.7252 -1.2715
 8808SOL    HW238058   0.787   0.238  12.881 -1.2532 -1.1643  1.6230
 8809SOL     OW38059   0.937   0.477   8.479 -0.1631  0.1435 -0.0372
 8809SOL    HW138060   0.942   0.406   8.543 -0.9498  1.3305  1.3684
 8809SOL    HW238061   0.908   0.549   8.536  2.1002  0.7866  0.2931
 8810SOL     OW38062   2.712   2.715   1.808 -0.6878 -0.5012 -0.2474
 8810SOL    HW138063   2.784   2.777   1.820 -0.3652 -0.5611 -1.9371
 8810SOL    HW238064   2.688   2.719   1.901 -1.3132  0.4927 -0.4550
 8811SOL     OW38065   3.517   1.189   4.922  0.1317  0.4474  0.1834
 8811SOL    HW138066   3.468   1.156   4.847 -0.1224  1.1452  0.0380
 8811SOL    HW238067   3.450   1.243   4.964 -0.7535 -2.2189  2.1939
 8812SOL     OW38068   2.708   1.653  10.331 -0.4786  0.0342  0.1766
 8812SOL    HW138069   2.620   1.655  10.292  0.1001  1.1850 -1.0712
 8812SOL    HW238070   2.749   1.732  10.294 -2.1750  0.0262 -1.7216
 8813SOL     OW38071   1.845   1.709   0.629  0.1287  0.2001  0.1045
 8813SOL    HW138072   1.905   1.750   0.691 -1.8371  0.8292  1.5897
 8813SOL    HW238073   1.901   1.662   0.567  0.4761 -0.3890  0.8666
 8814SOL     OW38074   0.135   2.167   5.971  0.3536  0.3159  0.6434
 8814SOL    HW138075   0.067   2.132   6.028  0.2731 -1.2172 -0.3795
 8814SOL    HW238076   0.080   2.203   5.902  2.2348  0.0573 -1.0178
 8815SOL     OW38077   2.257   1.483   5.506  0.0955 -0.0179  0.4641
 8815SOL    HW138078   2.235   1.572   5.532 -0.3096  0.3885 -1.2877
 8815SOL    HW238079   2.294   1.517   5.425  0.6934  0.7920  1.0732
 8816SOL     OW38080   2.466   1.279   4.517 -0.2568 -0.2606  0.8374
 8816SOL    HW138081   2.404   1.346   4.546 -0.6650  0.8853 -2.7138
 8816SOL    HW238082   2.477   1.224   4.595 -0.0996 -0.4924  0.6477
 8817SOL     OW38083   0.029   1.015   4.469  0.0602 -0.1554 -0.0183
 8817SOL    HW138084   4.685   1.040   4.420 -0.7289 -1.4851  0.5647
 8817SOL    HW238085   0.014   0.920   4.470 -2.1319  0.1996  1.7335
 8818SOL     OW38086   0.637   3.488   9.724  0.1435  0.1358  0.3214
 8818SOL    HW138087   0.621   3.536   9.805  0.8115 -0.3487  0.7414
 8818SOL    HW238088   0.600   3.550   9.660  1.3734  1.2051  0.6499
 8819SOL     OW38089   1.505   1.218  14.827  0.1212 -0.0131 -0.0026
 8819SOL    HW138090   1.543   1.303  14.805 -3.5382  1.4520 -0.5217
 8819SOL    HW238091   1.484   1.229  14.920 -0.9774  1.1832 -0.4073
 8820SOL     OW38092   1.361   1.207   0.454 -0.0146 -0.3591  0.9261
 8820SOL    HW138093   1.267   1.223   0.444  0.4053  1.7429  0.4400
 8820SOL    HW238094   1.402   1.293   0.445 -1.4569  0.2862  0.4684
 8821SOL     OW38095   3.336   3.385   4.369  0.2813 -0.0510 -0.3207
 8821SOL    HW138096   3.363   3.467   4.327  0.8877 -0.0893 -0.0072
 8821SOL    HW238097   3.390   3.391   4.447 -0.2668  0.3671  0.0198
 8822SOL     OW38098   1.632   1.296   6.338 -0.2341 -0.4497  0.0154
 8822SOL    HW138099   1.666   1.214   6.302 -1.4585 -0.8377 -0.2592
 8822SOL    HW238100   1.715   1.336   6.362 -1.7069  1.9714  1.0830
 8823SOL     OW38101   2.348   3.652  17.158  0.2985  0.0718  0.0149
 8823SOL    HW138102   2.258   3.633  17.182  0.2091  0.1702 -0.2355
 8823SOL    HW238103   2.362   3.585  17.091 -0.4163 -1.3578  1.3178
 8824SOL     OW38104   1.886   0.614   9.280 -0.1067 -0.2409 -0.3017
 8824SOL    HW138105   1.821   0.682   9.297 -0.2796 -0.4690 -0.0396
 8824SOL    HW238106   1.900   0.632   9.187  0.1401  0.2401 -0.1712
 8825SOL     OW38107   0.314   2.314   3.186 -0.0634  0.8650 -0.1880
 8825SOL    HW138108   0.327   2.409   3.182 -2.4763  1.1234 -2.0157
 8825SOL    HW238109   0.233   2.312   3.238 -0.1437 -0.3208 -0.3649
 8826SOL     OW38110   2.571   1.910   5.321  0.2010 -0.8675  0.6048
 8826SOL    HW138111   2.579   1.980   5.386  0.2416  0.5059 -0.8858
 8826SOL    HW238112   2.484   1.945   5.300  0.1371 -1.3206  0.0984
 8827SOL     OW38113   4.428   0.860   4.141  0.2458  0.2724 -0.5856
 8827SOL    HW138114   4.446   0.768   4.120 -1.2474  0.4568 -2.7784
 8827SOL    HW238115   4.457   0.907   4.063  0.3671  2.1678  0.6078
 8828SOL     OW38116   0.649   3.246   7.314 -0.1566  0.3650 -0.5855
 8828SOL    HW138117   0.671   3.187   7.387  0.6516  2.5564  0.9712
 8828SOL    HW238118   0.588   3.193   7.265  0.5593 -0.5857 -0.4520
 8829SOL     OW38119   2.171   2.837   4.626  0.6496  0.1436  0.4334
 8829SOL    HW138120   2.095   2.781   4.640  0.4279 -0.0938 -1.6582
 8829SOL    HW238121   2.136   2.925   4.616 -0.1742 -0.2947 -0.5505
 8830SOL     OW38122   4.213   0.978   8.179 -0.1785 -0.1668 -0.3270
 8830SOL    HW138123   4.233   0.891   8.213  0.4216 -0.4412 -1.3830
 8830SOL    HW238124   4.246   1.031   8.252  1.2960 -2.1025  0.4065
 8831SOL     OW38125   1.924   2.170   4.115  0.0399  1.0778 -0.1548
 8831SOL    HW138126   1.887   2.141   4.198 -0.7956  1.0323 -0.5486
 8831SOL    HW238127   1.945   2.255   4.154  0.6190  0.6500  0.4811
 8832SOL     OW38128   3.422   0.540  14.923  0.4912 -0.0928 -0.1483
 8832SOL    HW138129   3.394   0.626  14.953 -0.3905 -0.3808 -0.1349
 8832SOL    HW238130   3.500   0.569  14.875 -0.6247  1.7718 -0.8414
 8833SOL     OW38131   3.612   4.642   4.860  0.1277  0.0924 -0.0896
 8833SOL    HW138132   3.620   4.596   4.944  1.2511 -1.5824 -1.1299
 8833SOL    HW238133   3.552   4.582   4.815 -0.2451 -0.8298  1.6370
 8834SOL     OW38134   1.860   0.890   3.100 -0.1404 -0.2233 -0.3859
 8834SOL    HW138135   1.924   0.850   3.041  0.3104  1.8137 -1.2694
 8834SOL    HW238136   1.794   0.821   3.103 -1.8702  1.5049  1.1332
 8835SOL     OW38137   0.398   3.614   5.998 -0.8465 -0.4418  0.1577
 8835SOL    HW138138   0.313   3.571   5.986 -0.8238 -0.2128 -0.7653
 8835SOL    HW238139   0.388   3.698   5.954  2.4614 -1.1185 -1.8589
 8836SOL     OW38140   0.810   2.894  12.270  0.1342 -0.0775 -0.6658
 8836SOL    HW138141   0.747   2.834  12.228 -1.3651  1.3981 -0.5164
 8836SOL    HW238142   0.764   2.972  12.301 -0.6625 -1.6911  2.1671
 8837SOL     OW38143   2.059   3.015   7.876 -0.2003  0.4546 -0.1200
 8837SOL    HW138144   2.003   2.987   7.803  0.2880 -0.0812 -0.2927
 8837SOL    HW238145   2.044   2.946   7.941 -2.9750  2.4678  1.3243
 8838SOL     OW38146   3.355   2.637  12.742  0.0449 -0.2691  0.7393
 8838SOL    HW138147   3.269   2.627  12.783 -0.1270  0.6958  0.6294
 8838SOL    HW238148   3.402   2.704  12.791  1.0363 -1.1996  1.0491
 8839SOL     OW38149   2.275   2.226   4.468  0.2673 -0.1981 -0.7649
 8839SOL    HW138150   2.263   2.293   4.535  1.0602 -1.3114  0.4936
 8839SOL    HW238151   2.262   2.140   4.508  0.4009  0.7457  1.3231
 8840SOL     OW38152   0.437   0.067   3.413  0.2364 -0.1705  0.0333
 8840SOL    HW138153   0.521   0.058   3.459  0.6464  0.4495 -0.5812
 8840SOL    HW238154   0.429   4.722   3.361  0.5082 -0.3862  0.3196
 8841SOL     OW38155   1.057   1.326   5.534  0.3776 -0.2257  0.2335
 8841SOL    HW138156   1.047   1.236   5.565 -1.1028 -0.1999 -0.1796
 8841SOL    HW238157   0.980   1.369   5.572 -1.1558 -0.6611 -2.4010
 8842SOL     OW38158   3.232   4.383  13.495 -0.4248 -0.2185 -0.5424
 8842SOL    HW138159   3.303   4.348  13.441  0.8958  1.8006 -0.1219
 8842SOL    HW238160   3.256   4.475  13.501 -4.0861  0.8538 -2.2539
 8843SOL     OW38161   2.769   3.909   5.200 -0.2088 -0.4055  0.0566
 8843SOL    HW138162   2.752   3.990   5.152  0.2689 -0.3224  0.0351
 8843SOL    HW238163   2.710   3.847   5.157 -0.4387  0.0236 -0.2569
 8844SOL     OW38164   1.465   4.201   9.597  0.4658 -0.2254 -0.0334
 8844SOL    HW138165   1.487   4.290   9.626 -0.5308 -0.2821  0.8983
 8844SOL    HW238166   1.484   4.148   9.673 -0.5891 -1.3509 -0.5480
 8845SOL     OW38167   2.168   4.655  16.851 -0.0028 -0.7211 -0.0729
 8845SOL    HW138168   2.163   4.724  16.917  1.7209  2.0076 -2.8187
 8845SOL    HW238169   2.258   4.634  16.875 -0.9042 -1.1402  2.9716
 8846SOL     OW38170   1.263   0.034  11.633  0.6665  0.2988  0.5164
 8846SOL    HW138171   1.252   0.117  11.586 -1.6011 -0.4717 -0.3333
 8846SOL    HW238172   1.331   0.000  11.574  0.6327  0.3189  0.4658
 8847SOL     OW38173   2.453   2.842  11.014 -0.1921  0.1821 -0.1326
 8847SOL    HW138174   2.520   2.775  11.002 -1.6427 -1.8590  2.9589
 8847SOL    HW238175   2.448   2.837  11.110 -1.2431 -0.1050 -0.2000
 8848SOL     OW38176   1.044   2.889   1.892  0.6166  0.6667  0.3231
 8848SOL    HW138177   1.055   2.970   1.942 -0.6904  0.2782  1.2493
 8848SOL    HW238178   1.084   2.919   1.811  1.1036  2.2449  1.1448
 8849SOL     OW38179   0.536   3.047   4.776  0.2828 -0.5001  0.2027
 8849SOL    HW138180   0.567   2.995   4.701 -1.2960  0.7575 -1.3071
 8849SOL    HW238181   0.591   3.032   4.853  1.2719  1.1288 -0.1848
 8850SOL     OW38182   4.252   2.861  17.425 -0.0481 -0.2370  0.3520
 8850SOL    HW138183   4.242   2.765  17.426 -0.1705 -0.2194  1.2333
 8850SOL    HW238184   4.293   2.884  17.508 -0.0481  0.7272  0.0805
 8851SOL     OW38185   0.504   3.111   7.131 -0.1509 -0.3830 -0.0535
 8851SOL    HW138186   0.546   3.065   7.059 -1.4766 -3.2570  1.0218
 8851SOL    HW238187   0.421   3.065   7.140  0.0097 -0.7330 -0.3835
 8852SOL     OW38188   0.765   3.362   1.888 -0.0747 -0.2694 -0.1404
 8852SOL    HW138189   0.841   3.388   1.941 -0.0497 -1.8502  0.6097
 8852SOL    HW238190   0.793   3.278   1.851 -0.6715 -0.6921  0.3689
 8853SOL     OW38191   3.687   2.824   3.945 -0.1274  0.4287  0.1581
 8853SOL    HW138192   3.609   2.770   3.933 -0.8553  1.6025 -0.3509
 8853SOL    HW238193   3.747   2.772   3.891 -1.2190 -0.3331 -0.3175
 8854SOL     OW38194   3.648   3.716   5.395 -0.4903  0.5712 -0.1983
 8854SOL    HW138195   3.678   3.630   5.365  1.5647  1.4604 -0.7508
 8854SOL    HW238196   3.724   3.752   5.441 -0.4420 -0.2805  0.4018
 8855SOL     OW38197   0.069   0.937   3.399 -0.4560  0.2445 -0.1567
 8855SOL    HW138198   0.123   0.942   3.320 -1.5253  0.8066 -0.8651
 8855SOL    HW238199   0.050   0.844   3.411  1.1308 -0.1708 -0.9306
 8856SOL     OW38200   3.837   4.527   2.483  0.0566 -0.2242  0.3493
 8856SOL    HW138201   3.820   4.599   2.543  1.6101  1.1044 -0.7900
 8856SOL    HW238202   3.818   4.451   2.537 -0.7495 -0.6387 -0.5134
 8857SOL     OW38203   0.432   0.373   5.917  0.0438 -0.1987  0.4287
 8857SOL    HW138204   0.454   0.402   5.828 -1.2528 -2.4658 -0.6334
 8857SOL    HW238205   0.518   0.356   5.956  0.7233 -0.3507 -1.1230
 8858SOL     OW38206   1.513   2.491   1.072 -0.2787  0.2655  0.0557
 8858SOL    HW138207   1.499   2.576   1.114  0.7541 -0.3365  1.6008
 8858SOL    HW238208   1.448   2.484   1.002  0.4354  2.2125 -0.7981
 8859SOL     OW38209   4.297   3.190   3.046 -0.1631  0.0366  0.3612
 8859SOL    HW138210   4.393   3.186   3.041 -0.3429 -0.3052 -2.7186
 8859SOL    HW238211   4.271   3.282   3.055  1.2612  0.5699 -1.0371
 8860SOL     OW38212   1.586   3.381   5.800  0.0125 -0.0433  0.3992
 8860SOL    HW138213   1.563   3.446   5.866  0.4714  0.7861 -0.2690
 8860SOL    HW238214   1.662   3.425   5.762  0.2873 -1.1325 -0.3346
 8861SOL     OW38215   3.993   2.557  11.475 -0.1306  0.4463  0.0281
 8861SOL    HW138216   3.978   2.481  11.419 -0.7578 -0.2803  1.1697
 8861SOL    HW238217   4.053   2.521  11.540  0.4811  1.6519  0.1255
 8862SOL     OW38218   1.989   1.225   2.944 -0.0953 -0.1763  0.5074
 8862SOL    HW138219   1.942   1.198   2.865 -1.5088 -0.9180  1.6023
 8862SOL    HW238220   1.920   1.212   3.009 -1.4833  0.8509 -0.7285
 8863SOL     OW38221   0.717   1.835  17.673  0.7780  0.1737  0.9564
 8863SOL    HW138222   0.793   1.778  17.663  0.6909  0.6754 -2.7510
 8863SOL    HW238223   0.751   1.919  17.703 -0.2742  2.3634 -3.8340
 8864SOL     OW38224   3.255   2.238   5.403  0.8877  0.4447  0.4095
 8864SOL    HW138225   3.231   2.254   5.494 -0.4935  0.2727  0.0780
 8864SOL    HW238226   3.350   2.227   5.408  0.5464 -2.7483 -0.0720
 8865SOL     OW38227   3.773   2.848   5.506 -0.3203  0.6844  0.8449
 8865SOL    HW138228   3.850   2.899   5.482 -0.0810  0.9844  2.2357
 8865SOL    HW238229   3.804   2.763   5.476  0.1399  1.4059 -0.7329
 8866SOL     OW38230   3.056   2.209   5.797 -0.7078  0.3386 -0.5614
 8866SOL    HW138231   3.095   2.127   5.826 -1.3773  0.3084  0.2842
 8866SOL    HW238232   3.010   2.174   5.721  0.9368 -0.2113 -1.2895
 8867SOL     OW38233   1.166   2.064   2.985 -0.0831 -0.1093 -0.0961
 8867SOL    HW138234   1.195   2.062   2.894 -0.9204 -1.0300 -0.3431
 8867SOL    HW238235   1.128   1.977   2.993  1.5060 -0.8301 -0.4643
 8868SOL     OW38236   2.719   3.814   2.219 -0.4222 -0.0808 -0.0455
 8868SOL    HW138237   2.655   3.771   2.276  0.1193  0.1173  0.7104
 8868SOL    HW238238   2.801   3.783   2.257  0.5010  2.2722 -0.1062
 8869SOL     OW38239   2.760   0.730   5.447 -0.1232  0.2196  1.0295
 8869SOL    HW138240   2.737   0.672   5.519 -0.2543 -1.1740 -0.1225
 8869SOL    HW238241   2.747   0.662   5.381 -1.1869 -0.7748  2.2669
 8870SOL     OW38242   2.214   3.072   5.801 -0.2733  0.3372  0.0242
 8870SOL    HW138243   2.302   3.106   5.819  0.4328 -2.5814  2.0330
 8870SOL    HW238244   2.246   2.991   5.762 -2.6822 -0.3531 -0.4800
 8871SOL     OW38245   1.521   1.059  17.736  0.1655  0.3278 -0.2299
 8871SOL    HW138246   1.514   1.027   0.087  2.8192 -0.1583 -0.1875
 8871SOL    HW238247   1.430   1.056  17.707  0.5777  0.5678 -1.5395
 8872SOL     OW38248   1.528   4.287  14.423 -0.4031 -0.1787 -0.1201
 8872SOL    HW138249   1.463   4.219  14.441  0.4303 -0.9422  0.0387
 8872SOL    HW238250   1.575   4.284  14.507 -0.3356 -2.3145 -0.2260
 8873SOL     OW38251   1.185   1.516  13.452 -0.1451 -0.3890 -0.8093
 8873SOL    HW138252   1.235   1.522  13.370  1.2750 -2.4506 -0.0879
 8873SOL    HW238253   1.168   1.609  13.467 -0.4380 -1.0700  3.0846
 8874SOL     OW38254   2.985   0.356  14.157  0.0145  0.1172 -0.1640
 8874SOL    HW138255   3.015   0.441  14.125  1.0878  0.3635  1.4988
 8874SOL    HW238256   2.924   0.325  14.091  2.5309  0.5423 -2.6923
 8875SOL     OW38257   0.991   2.984   1.238 -0.3495 -0.6680 -0.0066
 8875SOL    HW138258   0.956   2.904   1.199 -0.5388 -0.5508 -0.0772
 8875SOL    HW238259   1.077   2.976   1.198 -1.0983  1.3493 -2.0228
 8876SOL     OW38260   1.300   4.132   5.519  0.0538  0.6084  0.2003
 8876SOL    HW138261   1.235   4.200   5.503 -0.3567 -0.0795 -1.0809
 8876SOL    HW238262   1.273   4.094   5.603  2.6548 -0.9581  0.3537
 8877SOL     OW38263   3.844   0.990   1.461 -0.1954 -0.2430 -0.1306
 8877SOL    HW138264   3.814   0.998   1.370  0.6533  2.3217 -0.1725
 8877SOL    HW238265   3.762   0.984   1.510  1.5090  1.8332  2.9867
 8878SOL     OW38266   4.658   4.432  15.802 -0.4607 -0.9887 -0.4441
 8878SOL    HW138267   4.579   4.442  15.749 -0.4859 -0.7502 -0.3626
 8878SOL    HW238268   4.617   4.419  15.888 -1.9928 -1.5168 -1.2704
 8879SOL     OW38269   3.158   3.363   2.230  0.1586  0.0284 -0.5603
 8879SOL    HW138270   3.155   3.276   2.189  0.4928 -0.0866 -0.3410
 8879SOL    HW238271   3.081   3.404   2.191 -0.0528  2.0982  2.0305
 8880SOL     OW38272   0.743   1.153  13.738 -0.1292 -0.3349 -0.2175
 8880SOL    HW138273   0.727   1.236  13.693  0.3858  1.7122  3.3004
 8880SOL    HW238274   0.837   1.155  13.757  0.3088 -2.7395 -2.1549
 8881SOL     OW38275   3.639   2.729   3.353 -0.0574 -0.0447 -0.0311
 8881SOL    HW138276   3.729   2.707   3.330 -0.6723 -1.0735 -1.4998
 8881SOL    HW238277   3.595   2.660   3.303 -0.0123 -2.3643  3.1022
 8882SOL     OW38278   1.691   2.852   2.812 -0.1262 -0.3473 -0.0665
 8882SOL    HW138279   1.637   2.798   2.755 -0.7391  1.2579 -1.0198
 8882SOL    HW238280   1.724   2.788   2.875 -0.0959  2.4147  2.7008
 8883SOL     OW38281   2.718   0.335   7.418 -0.0095  0.4815 -0.1492
 8883SOL    HW138282   2.812   0.349   7.415  0.2066 -0.9593 -0.0301
 8883SOL    HW238283   2.726   0.250   7.375 -1.8986  0.3882 -0.3231
 8884SOL     OW38284   1.825   2.379   9.330  0.5287  0.1893  0.1408
 8884SOL    HW138285   1.741   2.360   9.288  0.5172  2.4273 -0.8438
 8884SOL    HW238286   1.875   2.302   9.302  1.4327  0.6407  0.5265
 8885SOL     OW38287   0.542   4.510   9.378 -0.2728 -0.2074  0.7754
 8885SOL    HW138288   0.567   4.418   9.387  0.3366 -0.1501 -0.3766
 8885SOL    HW238289   0.590   4.564   9.440 -0.4602  0.1885  0.5820
 8886SOL     OW38290   0.887   3.572   0.704 -0.5276 -0.0601 -0.3493
 8886SOL    HW138291   0.832   3.650   0.704  0.2847  0.5154  1.0536
 8886SOL    HW238292   0.918   3.570   0.613  1.6576  2.6963  0.3592
 8887SOL     OW38293   0.876   3.582  14.156  0.3633 -0.3656  0.2673
 8887SOL    HW138294   0.805   3.533  14.114  1.4465  0.4602 -2.5490
 8887SOL    HW238295   0.823   3.626  14.222 -2.0957 -0.7443 -1.4437
 8888SOL     OW38296   2.805   2.665   8.179 -0.2896  0.1800  1.0313
 8888SOL    HW138297   2.776   2.587   8.227 -0.4753  0.2839  1.0893
 8888SOL    HW238298   2.885   2.640   8.133 -0.2487  0.1653  1.1112
 8889SOL     OW38299   0.453   3.101   2.156  0.4467  0.6687 -0.7117
 8889SOL    HW138300   0.546   3.085   2.171  0.3686  0.0307 -0.9379
 8889SOL    HW238301   0.425   3.010   2.161  0.8738  0.5690 -0.1368
 8890SOL     OW38302   2.949   1.412   8.991 -0.6647 -0.2498  0.7851
 8890SOL    HW138303   3.006   1.369   9.054  1.2245  0.1583 -0.6433
 8890SOL    HW238304   2.890   1.462   9.048 -0.6040  1.2128 -0.4251
 8891SOL     OW38305   4.121   2.037   6.624 -0.1806 -0.1298  0.2552
 8891SOL    HW138306   4.051   1.978   6.595  0.8621 -0.8090 -0.9137
 8891SOL    HW238307   4.090   2.123   6.595  1.0940 -0.3098 -1.6688
 8892SOL     OW38308   1.302   4.036   1.129 -0.2901 -0.1419 -0.4430
 8892SOL    HW138309   1.373   3.971   1.128  0.6991  0.9553 -0.4012
 8892SOL    HW238310   1.337   4.097   1.193 -2.2713  0.0180  0.5007
 8893SOL     OW38311   3.589   3.863   3.067  0.6656  0.0155 -0.0445
 8893SOL    HW138312   3.653   3.887   3.135 -0.4450  0.6811  0.7621
 8893SOL    HW238313   3.621   3.782   3.028  0.7965  0.0645 -0.0393
 8894SOL     OW38314   3.066   4.521   2.438  0.5151 -0.1766  0.1527
 8894SOL    HW138315   3.129   4.545   2.506  1.8560 -0.2359 -1.0476
 8894SOL    HW238316   3.087   4.428   2.450  1.4291  0.1966  1.4869
 8895SOL     OW38317   1.184   1.911  14.469 -0.0158  0.1670  0.0093
 8895SOL    HW138318   1.104   1.939  14.426  0.1610 -0.0690 -0.4792
 8895SOL    HW238319   1.254   1.911  14.403 -1.8005 -0.8150 -1.8705
 8896SOL     OW38320   4.106   1.385   7.046  0.3692 -0.4325  0.3151
 8896SOL    HW138321   4.020   1.424   7.056  0.3429 -0.2120 -0.7317
 8896SOL    HW238322   4.085   1.296   7.075 -0.1577 -0.8856 -1.4584
 8897SOL     OW38323   4.605   0.925   9.700 -0.1882  0.3750 -0.4406
 8897SOL    HW138324   4.691   0.964   9.690  0.9139 -2.4455 -1.8670
 8897SOL    HW238325   4.557   1.003   9.728 -0.5859  0.2984 -0.9008
 8898SOL     OW38326   4.563   1.230   7.523  0.5871 -0.4965  0.2829
 8898SOL    HW138327   4.552   1.323   7.542  2.5678 -0.4509  1.2055
 8898SOL    HW238328   4.598   1.243   7.435 -0.8631  3.8121  0.3363
 8899SOL     OW38329   3.992   0.057   5.370  0.3359  0.5170 -0.9233
 8899SOL    HW138330   3.967   0.037   5.460  0.7250  0.9399 -0.7191
 8899SOL    HW238331   3.930   0.129   5.358 -1.2112 -0.4997  0.8688
 8900SOL     OW38332   1.061   1.865   3.606 -0.3751 -0.6520  0.0030
 8900SOL    HW138333   0.974   1.892   3.635  0.0156  0.6406 -0.0365
 8900SOL    HW238334   1.102   1.808   3.671  0.0109  0.7985  1.0270
 8901SOL     OW38335   3.847   4.639   3.170  0.7132 -0.0882  0.2394
 8901SOL    HW138336   3.876   4.637   3.079  0.2411 -0.4660  0.0959
 8901SOL    HW238337   3.818   4.548   3.182  0.2146 -0.3368 -2.8774
 8902SOL     OW38338   1.935   2.783   0.313  0.2777 -0.6110 -0.0734
 8902SOL    HW138339   1.888   2.804   0.394 -2.1271  1.3161 -1.9609
 8902SOL    HW238340   1.917   2.867   0.271 -3.4928 -1.5750 -0.4627
 8903SOL     OW38341   4.637   4.658  10.202  0.2058  0.0835  0.2603
 8903SOL    HW138342   4.649   4.645  10.296  1.5855  0.6694  0.1688
 8903SOL    HW238343   4.730   4.643  10.183 -0.2393 -1.2162 -0.8547
 8904SOL     OW38344   1.670   3.679  15.993  0.0115  0.1201  0.3304
 8904SOL    HW138345   1.703   3.608  16.048 -0.5022  0.0109  0.4915
 8904SOL    HW238346   1.747   3.690  15.936 -0.9481 -0.3601 -1.0443
 8905SOL     OW38347   4.063   3.870   9.779  0.2077 -0.0636 -0.8588
 8905SOL    HW138348   4.064   3.936   9.709  0.1282  0.0413 -0.7621
 8905SOL    HW238349   4.057   3.783   9.740 -1.4264  0.1636 -1.1098
 8906SOL     OW38350   3.735   2.351   5.228 -0.3211  0.3660 -0.9541
 8906SOL    HW138351   3.769   2.262   5.234  1.1838  0.8436 -2.2238
 8906SOL    HW238352   3.821   2.390   5.214  0.7177 -2.0156 -1.2559
 8907SOL     OW38353   2.829   0.467  10.256 -0.2531 -0.3541 -0.5951
 8907SOL    HW138354   2.747   0.486  10.303 -1.8421 -1.0545 -3.0641
 8907SOL    HW238355   2.794   0.429  10.175 -1.0118  1.5554 -1.1892
 8908SOL     OW38356   3.718   0.252   2.466  0.3343  1.2157  0.1045
 8908SOL    HW138357   3.735   0.217   2.553 -0.9428  1.3897  0.4337
 8908SOL    HW238358   3.797   0.227   2.419 -2.2822 -2.5360 -2.3383
 8909SOL     OW38359   2.577   1.672   4.256 -0.2770  0.0785  0.1279
 8909SOL    HW138360   2.570   1.670   4.352 -1.0325  2.3213  0.1239
 8909SOL    HW238361   2.544   1.585   4.236  2.5089 -0.7478 -0.8166
 8910SOL     OW38362   0.171   4.075  13.813 -0.7293  0.1465  0.1267
 8910SOL    HW138363   0.242   4.113  13.762  1.3688 -2.2612  1.2740
 8910SOL    HW238364   0.131   4.025  13.742  2.0015  0.5206 -1.6475
 8911SOL     OW38365   3.827   0.391   0.045 -0.3914  0.4777  0.3991
 8911SOL    HW138366   3.770   0.345  17.723 -0.2167  2.5041 -1.2940
 8911SOL    HW238367   3.903   0.333   0.057  0.9801  2.3474  0.7796
 8912SOL     OW38368   4.243   3.086   6.683 -0.5714 -0.4402  0.5844
 8912SOL    HW138369   4.164   3.033   6.666 -0.4312 -0.5888  0.3983
 8912SOL    HW238370   4.304   3.022   6.720 -1.5951 -1.6112  0.2748
 8913SOL     OW38371   0.789   4.086   1.209 -0.1190  0.1405 -0.3141
 8913SOL    HW138372   0.725   4.047   1.269 -0.5213 -2.5276 -2.4808
 8913SOL    HW238373   0.787   4.016   1.143  0.6996 -1.9470  1.8814
 8914SOL     OW38374   0.002   0.466   9.758  0.0073  0.0173 -0.2610
 8914SOL    HW138375   0.075   0.519   9.789  0.9781 -0.7176 -1.3291
 8914SOL    HW238376   4.664   0.529   9.759  0.8992  1.0491  0.5627
 8915SOL     OW38377   1.900   2.737   9.713 -0.5295  0.4354 -0.0796
 8915SOL    HW138378   1.806   2.755   9.710 -0.2808  1.5941 -0.8334
 8915SOL    HW238379   1.936   2.825   9.725  1.1309 -0.1300 -1.0098
 8916SOL     OW38380   1.851   3.355  10.979  0.6239  0.0115  0.3721
 8916SOL    HW138381   1.794   3.381  11.051  1.9077  0.2002  1.3419
 8916SOL    HW238382   1.787   3.367  10.910  2.1065  2.9560 -0.4847
 8917SOL     OW38383   2.375   3.997  15.879 -0.3902 -0.3847  0.0116
 8917SOL    HW138384   2.468   3.985  15.859  0.2804 -0.1236  2.9200
 8917SOL    HW238385   2.372   4.026  15.970  2.2385 -0.2003  0.0342
 8918SOL     OW38386   1.416   1.724   4.813 -0.3424 -0.8565  0.1448
 8918SOL    HW138387   1.324   1.746   4.803 -0.4545 -1.9765 -1.1689
 8918SOL    HW238388   1.425   1.652   4.751 -2.7614  0.5508 -1.8319
 8919SOL     OW38389   0.645   3.577   5.708  0.5878  0.9084 -0.4883
 8919SOL    HW138390   0.609   3.659   5.674 -0.3425  0.7109  0.0115
 8919SOL    HW238391   0.678   3.593   5.797  0.5277  0.1615 -0.3338
 8920SOL     OW38392   1.067   1.047   6.683 -0.3080  0.1775 -0.0968
 8920SOL    HW138393   1.042   1.101   6.758  0.1030  0.7688 -0.3832
 8920SOL    HW238394   0.982   1.006   6.664 -2.2330  3.6338  1.0285
 8921SOL     OW38395   2.069   3.399  10.565  0.4704 -0.1431 -0.8213
 8921SOL    HW138396   2.047   3.374  10.655  0.4202  1.7454 -0.3080
 8921SOL    HW238397   2.003   3.342  10.523  0.4782 -1.3536  0.7769
 8922SOL     OW38398   0.061   2.741   2.546  0.0408 -0.0256 -0.0435
 8922SOL    HW138399   4.711   2.785   2.539 -0.9638 -1.9368  0.3972
 8922SOL    HW238400   0.071   2.730   2.451 -1.6913  2.7967 -0.5613
 8923SOL     OW38401   2.585   0.543  16.008  0.7168  0.1003 -0.3173
 8923SOL    HW138402   2.580   0.508  15.920 -2.7051  1.4482 -0.6792
 8923SOL    HW238403   2.507   0.599  16.007  2.7777  3.0376  0.9496
 8924SOL     OW38404   0.421   4.570   7.209 -0.4971  0.2244 -0.0132
 8924SOL    HW138405   0.395   4.611   7.127  1.2928 -0.4025 -0.8789
 8924SOL    HW238406   0.506   4.609   7.229 -0.4797 -0.7258  1.7747
 8925SOL     OW38407   4.735   4.161   9.678 -0.1637  0.1386  0.3594
 8925SOL    HW138408   0.036   4.164   9.590  1.1421 -2.6271  0.8245
 8925SOL    HW238409   0.066   4.109   9.723  1.4080 -0.0169 -2.1872
 8926SOL     OW38410   0.472   2.381   5.332  0.1607  0.2920  0.1281
 8926SOL    HW138411   0.468   2.407   5.424 -1.2765  0.3614  0.0406
 8926SOL    HW238412   0.558   2.339   5.335  0.2908  0.7351  2.2800
 8927SOL     OW38413   1.322   1.297   8.806 -0.7109 -0.1941 -0.1583
 8927SOL    HW138414   1.301   1.369   8.746 -0.4849  0.9878  1.1730
 8927SOL    HW238415   1.408   1.322   8.842 -1.0644  1.3319 -0.3859
 8928SOL     OW38416   0.054   1.797   8.867 -0.4398  0.3132 -0.4385
 8928SOL    HW138417   0.083   1.888   8.865 -1.0517  0.4946 -0.9300
 8928SOL    HW238418   0.067   1.766   8.778  1.1016  0.4540 -0.2596
 8929SOL     OW38419   2.531   4.502  16.075  0.1792 -0.5597  0.6165
 8929SOL    HW138420   2.595   4.520  16.144 -0.0173  0.0048  0.6467
 8929SOL    HW238421   2.454   4.466  16.119  0.8579 -1.5844  0.9829
 8930SOL     OW38422   0.405   3.273   4.484  0.5354  0.1274  0.0347
 8930SOL    HW138423   0.430   3.228   4.403 -1.3270  2.8136 -2.0626
 8930SOL    HW238424   0.327   3.222   4.506  1.5769 -2.0468 -1.4016
 8931SOL     OW38425   3.613   1.235   3.770  0.1101 -0.6851  0.4193
 8931SOL    HW138426   3.695   1.223   3.722 -0.0289  1.3388 -0.3320
 8931SOL    HW238427   3.579   1.149   3.794 -1.5421  0.0524  0.6751
 8932SOL     OW38428   0.679   2.994   1.261  0.2445  0.1230 -0.8632
 8932SOL    HW138429   0.677   3.077   1.213 -1.3552 -0.4740 -1.8258
 8932SOL    HW238430   0.622   3.006   1.338  0.4527 -0.8858 -0.5447
 8933SOL     OW38431   2.611   4.193   9.583  0.0460 -0.1449 -0.3134
 8933SOL    HW138432   2.536   4.234   9.540  1.7117  0.9366 -2.2010
 8933SOL    HW238433   2.576   4.105   9.566  1.0936 -0.6533  0.1247
 8934SOL     OW38434   2.021   3.517   6.040  0.0388 -0.3677  0.1799
 8934SOL    HW138435   2.060   3.481   6.120  1.7539  0.9684 -0.0350
 8934SOL    HW238436   2.009   3.438   5.988 -0.3965  1.3808 -2.3813
 8935SOL     OW38437   2.121   0.486  11.267 -0.2183  0.4387 -0.8541
 8935SOL    HW138438   2.098   0.578  11.261 -0.4603  0.4308 -0.0138
 8935SOL    HW238439   2.126   0.462  11.359 -1.2545 -0.9844 -1.1687
 8936SOL     OW38440   1.923   2.369  10.139  0.4188  0.2048 -1.0264
 8936SOL    HW138441   1.886   2.339  10.222 -0.4290 -0.6333 -1.7123
 8936SOL    HW238442   1.841   2.399  10.099 -0.0272 -0.4406 -0.5990
 8937SOL     OW38443   1.450   0.695   0.069  0.9385  0.4943 -0.3927
 8937SOL    HW138444   1.534   0.652   0.085  0.1516 -0.4814  1.0686
 8937SOL    HW238445   1.433   0.717   0.161  0.5159 -1.5744  0.0328
 8938SOL     OW38446   4.397   0.456  13.788 -0.4901 -0.1282  0.2532
 8938SOL    HW138447   4.441   0.435  13.871  1.7501  2.3868 -0.2929
 8938SOL    HW238448   4.461   0.521  13.761  0.5991 -0.1218  2.8243
 8939SOL     OW38449   2.804   0.133   4.085 -0.5424 -0.3666 -0.2035
 8939SOL    HW138450   2.745   0.169   4.152 -0.0907  0.8339 -0.4494
 8939SOL    HW238451   2.736   0.090   4.033  1.0279 -0.8502 -1.8260
 8940SOL     OW38452   1.171   1.443   7.282 -0.0095 -0.0459  0.3245
 8940SOL    HW138453   1.156   1.430   7.188  4.2862 -0.7151 -0.2752
 8940SOL    HW238454   1.208   1.356   7.297  0.7749  0.3762  0.8298
 8941SOL     OW38455   0.743   2.615   5.395  0.4465  0.1451  0.1805
 8941SOL    HW138456   0.813   2.681   5.387  2.8913 -2.4027  0.5948
 8941SOL    HW238457   0.744   2.570   5.311 -1.1434  0.3044  0.0904
 8942SOL     OW38458   2.643   1.692   8.223  0.7744 -0.4319  0.4368
 8942SOL    HW138459   2.584   1.748   8.172  0.1243  0.8111  2.5318
 8942SOL    HW238460   2.727   1.693   8.176 -0.3699 -1.7390 -1.6248
 8943SOL     OW38461   1.900   0.360   9.435  0.2482  0.0721 -0.0228
 8943SOL    HW138462   1.883   0.431   9.374  2.3687 -0.1047 -0.8345
 8943SOL    HW238463   1.959   0.302   9.386 -1.9301 -1.3441 -0.9482
 8944SOL     OW38464   1.098   0.096   5.896  0.2704 -0.0254 -0.5600
 8944SOL    HW138465   1.185   0.059   5.879  0.4380  0.1519 -0.0808
 8944SOL    HW238466   1.126   0.174   5.943 -0.4878 -1.4970  2.3385
 8945SOL     OW38467   3.939   1.625  16.226  0.3928  0.1493  0.1835
 8945SOL    HW138468   3.949   1.689  16.156  1.1764  0.3405  0.4813
 8945SOL    HW238469   4.032   1.609  16.242  0.3346  1.2000  1.5312
 8946SOL     OW38470   2.218   2.983   6.511  0.2547  0.1099  0.2173
 8946SOL    HW138471   2.262   2.984   6.426  0.0418 -0.5593  0.1020
 8946SOL    HW238472   2.128   2.967   6.482 -0.2251  3.0221  0.0468
 8947SOL     OW38473   4.653   0.737  16.919 -0.4453  0.7110 -0.3487
 8947SOL    HW138474   4.658   0.659  16.975  1.5459 -2.3425 -4.7624
 8947SOL    HW238475   4.681   0.812  16.970 -0.2448 -0.3618  1.1315
 8948SOL     OW38476   2.189   3.530   9.549 -0.0093 -0.0013 -0.2032
 8948SOL    HW138477   2.147   3.577   9.477 -1.2860  1.4295  1.4775
 8948SOL    HW238478   2.188   3.446   9.503 -0.1448 -1.5930  2.7187
 8949SOL     OW38479   1.559   1.369   6.616  0.2237  0.5429  0.2918
 8949SOL    HW138480   1.474   1.326   6.623  0.1388  0.6809  0.1243
 8949SOL    HW238481   1.587   1.341   6.529 -0.8904  3.0148 -0.8902
 8950SOL     OW38482   2.106   3.084   2.778  0.2305 -0.1859 -0.2067
 8950SOL    HW138483   2.027   3.038   2.748  1.1177 -1.8819  0.0283
 8950SOL    HW238484   2.079   3.176   2.775 -1.5061 -0.7114 -0.8403
 8951SOL     OW38485   1.673   4.066   6.766 -0.2675  0.8328  0.4239
 8951SOL    HW138486   1.595   4.031   6.808 -0.8854  1.8397  0.1265
 8951SOL    HW238487   1.752   4.023   6.799 -1.1448 -0.8688  0.3083
 8952SOL     OW38488   1.254   4.569  11.815 -0.0851 -0.0164  0.1825
 8952SOL    HW138489   1.275   4.656  11.782  0.9699 -0.4216 -0.2190
 8952SOL    HW238490   1.217   4.595  11.899 -0.1166 -0.0992  0.1938
 8953SOL     OW38491   3.218   3.829   0.381  0.1935 -0.3018  0.1843
 8953SOL    HW138492   3.184   3.853   0.295  1.8863  1.0165 -0.1103
 8953SOL    HW238493   3.199   3.735   0.385 -1.1017 -0.0289  0.4268
 8954SOL     OW38494   2.864   2.714  13.982 -0.2493 -0.2461  0.3297
 8954SOL    HW138495   2.896   2.629  14.012 -2.1490 -0.2045  2.5298
 8954SOL    HW238496   2.776   2.718  14.021 -0.0120  1.2180  0.7068
 8955SOL     OW38497   4.367   1.694   5.098 -0.2156  0.7811 -0.5401
 8955SOL    HW138498   4.320   1.612   5.085 -0.9606  1.0804  0.1899
 8955SOL    HW238499   4.451   1.661   5.129  0.2638  0.9828 -1.6457
 8956SOL     OW38500   4.699   3.367  11.770 -0.9905 -0.6047 -0.5686
 8956SOL    HW138501   4.631   3.329  11.825 -0.9823  1.7963  1.0844
 8956SOL    HW238502   4.662   3.377  11.683 -0.9497  0.4042 -0.4627
 8957SOL     OW38503   1.029   3.432  14.366  0.0461  0.4581 -0.0389
 8957SOL    HW138504   1.036   3.381  14.285 -2.1342 -0.2237  0.2024
 8957SOL    HW238505   0.939   3.464  14.364 -0.6571 -1.6371 -1.6662
 8958SOL     OW38506   1.036   3.203   6.485  0.1678 -0.3094  0.7636
 8958SOL    HW138507   1.079   3.229   6.404 -1.4823 -4.3640 -1.3832
 8958SOL    HW238508   1.118   3.177   6.528  0.6717  1.0550  0.6468
 8959SOL     OW38509   0.592   2.638   6.047 -0.3524  0.2844  0.1060
 8959SOL    HW138510   0.676   2.680   6.029 -0.1768  0.1713  0.6755
 8959SOL    HW238511   0.610   2.636   6.141  4.0062 -1.5704 -0.7665
 8960SOL     OW38512   0.265   0.136   2.354 -0.6881  0.5424  0.2449
 8960SOL    HW138513   0.199   0.201   2.376  1.1998  2.3383  0.5716
 8960SOL    HW238514   0.325   0.146   2.428  0.5519 -0.9030 -0.5593
 8961SOL     OW38515   3.508   1.429  11.870 -0.2315 -0.5232  0.1346
 8961SOL    HW138516   3.565   1.447  11.796 -0.5920  1.5757  0.3748
 8961SOL    HW238517   3.470   1.516  11.881  0.6487 -0.0031 -0.9575
 8962SOL     OW38518   3.012   1.324   4.838 -0.6627 -0.0473  0.3007
 8962SOL    HW138519   2.929   1.293   4.803  0.0679 -2.3362  0.6058
 8962SOL    HW238520   3.071   1.295   4.768  0.8493  3.6011  0.0631
 8963SOL     OW38521   2.036   3.158   3.816 -0.1127  0.2456 -0.2360
 8963SOL    HW138522   2.026   3.064   3.826 -1.3290  0.2579 -1.3383
 8963SOL    HW238523   1.966   3.186   3.757 -0.4504  1.6036  0.8211
 8964SOL     OW38524   0.712   3.129   7.553 -1.0394 -0.3247  0.0837
 8964SOL    HW138525   0.772   3.085   7.493 -0.6130  1.0605 -0.4956
 8964SOL    HW238526   0.669   3.056   7.599 -0.9289  1.4009  2.9170
 8965SOL     OW38527   3.735   1.713  17.214  0.5503  0.0273 -0.5064
 8965SOL    HW138528   3.651   1.759  17.225  1.9465  2.3571  0.4176
 8965SOL    HW238529   3.756   1.745  17.126 -2.3994  2.1772 -0.4319
 8966SOL     OW38530   0.431   2.419   2.867 -0.2652  0.0050  0.0107
 8966SOL    HW138531   0.465   2.373   2.790 -1.5876  0.2656 -0.7292
 8966SOL    HW238532   0.515   2.452   2.899 -1.1512  1.8414  0.4895
 8967SOL     OW38533   1.204   2.542   8.914 -0.1210 -0.5264  0.0824
 8967SOL    HW138534   1.141   2.614   8.913  0.4509 -0.0331 -0.1008
 8967SOL    HW238535   1.168   2.485   8.846 -0.3154 -0.7050  0.3328
 8968SOL     OW38536   1.648   1.159  15.092  0.5287  0.0943  0.3072
 8968SOL    HW138537   1.618   1.248  15.076  1.4194  0.4014  0.4002
 8968SOL    HW238538   1.566   1.117  15.119  0.6667 -0.4216 -0.0787
 8969SOL     OW38539   4.554   4.554   4.192  0.1722 -0.1904 -0.1244
 8969SOL    HW138540   4.517   4.530   4.107 -1.1536  1.6845 -0.0731
 8969SOL    HW238541   4.635   4.503   4.182  0.6753  0.2444  1.7796
 8970SOL     OW38542   2.742   0.262   7.953  0.4542  0.3527  0.2363
 8970SOL    HW138543   2.826   0.240   7.995 -0.7445 -1.5329  1.6194
 8970SOL    HW238544   2.770   0.306   7.873  2.3353  1.0206  1.2529
 8971SOL     OW38545   2.400   4.400   6.942  0.1975 -0.4528  0.2986
 8971SOL    HW138546   2.469   4.378   6.879 -0.0866  2.2095 -0.9544
 8971SOL    HW238547   2.455   4.392   7.019  2.1617  0.7435 -0.9804
 8972SOL     OW38548   4.047   2.666  16.198  0.2637  0.1430  0.0964
 8972SOL    HW138549   4.122   2.623  16.239  0.1784  0.3644  0.4853
 8972SOL    HW238550   4.086   2.715  16.126 -2.4366 -0.1177 -1.5571
 8973SOL     OW38551   3.066   2.300   2.951  0.1504 -0.1821 -0.1650
 8973SOL    HW138552   2.992   2.291   3.011 -0.5555 -0.1802 -1.0316
 8973SOL    HW238553   3.068   2.219   2.901  0.3877  0.9684 -2.0599
 8974SOL     OW38554   1.524   0.590   8.120  0.1204  0.0937  0.2946
 8974SOL    HW138555   1.453   0.651   8.142 -1.0220 -1.4878  0.9785
 8974SOL    HW238556   1.509   0.581   8.026  0.9122  2.7338 -0.0846
 8975SOL     OW38557   3.641   4.385  10.826  0.0894 -0.2522  0.0590
 8975SOL    HW138558   3.623   4.378  10.920  1.5299  0.1295  0.3725
 8975SOL    HW238559   3.626   4.297  10.792 -0.7184  0.0540 -0.3640
 8976SOL     OW38560   0.827   0.326   5.509 -0.1985  0.0799  0.0702
 8976SOL    HW138561   0.778   0.259   5.461 -0.2068 -0.6002  1.0313
 8976SOL    HW238562   0.918   0.298   5.497 -0.3300  0.2420 -1.3498
 8977SOL     OW38563   1.523   3.971   7.493  0.8497  0.3297 -0.0587
 8977SOL    HW138564   1.538   4.065   7.494  1.8594  0.1560  0.2518
 8977SOL    HW238565   1.464   3.954   7.567  1.1422  1.7431  0.5024
 8978SOL     OW38566   3.906   0.091   8.797 -0.3517 -0.2313 -0.1869
 8978SOL    HW138567   3.836   0.121   8.739 -0.3996  0.3332  0.1555
 8978SOL    HW238568   3.912   0.161   8.862  1.4638 -0.0329 -0.5747
 8979SOL     OW38569   2.414   0.768  16.068 -0.1370 -0.4761 -0.1428
 8979SOL    HW138570   2.349   0.837  16.076  1.4054  0.6569  2.3748
 8979SOL    HW238571   2.468   0.795  16.142  2.1572 -0.4640 -1.8021
 8980SOL     OW38572   2.407   0.021   3.646  0.1134  0.8676 -0.0490
 8980SOL    HW138573   2.408   4.677   3.701  1.2421  0.5071 -0.5943
 8980SOL    HW238574   2.451   0.089   3.697 -0.0827  0.1236  1.1355
 8981SOL     OW38575   0.990   3.059   3.936  0.2786  0.0301 -0.5445
 8981SOL    HW138576   0.954   2.986   3.885 -0.4734  2.1808 -3.1082
 8981SOL    HW238577   0.945   3.132   3.891 -1.5981  0.5120  2.1250
 8982SOL     OW38578   4.596   1.389   8.967  0.7036 -0.3429 -0.1981
 8982SOL    HW138579   4.525   1.328   8.947 -0.0108 -0.2686  2.1491
 8982SOL    HW238580   4.670   1.332   8.947  0.6020 -0.6372  0.2740
 8983SOL     OW38581   1.414   0.784   5.515  1.1371  0.3832 -0.0233
 8983SOL    HW138582   1.404   0.875   5.542  0.7396 -0.1024  1.4769
 8983SOL    HW238583   1.472   0.802   5.441  0.0359 -0.1686 -1.0169
 8984SOL     OW38584   2.371   3.917  11.125  0.9576 -0.1791  0.1359
 8984SOL    HW138585   2.300   3.980  11.131  3.0043  2.1096  0.2111
 8984SOL    HW238586   2.370   3.894  11.032 -0.0404 -1.2070  0.4000
 8985SOL     OW38587   2.160   4.166   9.863  0.4196  0.2385  0.0817
 8985SOL    HW138588   2.072   4.189   9.891 -0.0242 -0.4797 -0.7175
 8985SOL    HW238589   2.178   4.237   9.801  0.8254 -0.8539 -1.0516
 8986SOL     OW38590   3.309   4.408   2.213 -0.0783 -0.1481  0.0813
 8986SOL    HW138591   3.239   4.471   2.196  2.4367  2.4285 -0.7868
 8986SOL    HW238592   3.362   4.422   2.134 -0.2001 -1.2419 -0.1959
 8987SOL     OW38593   1.111   2.572   1.103  0.2870  0.0988  0.2927
 8987SOL    HW138594   1.166   2.530   1.037  1.2851  3.9512 -1.3240
 8987SOL    HW238595   1.150   2.659   1.104  0.3501  0.0951 -2.6500
 8988SOL     OW38596   4.085   3.623   8.996 -0.4110  0.0949 -0.1949
 8988SOL    HW138597   4.180   3.633   8.995 -0.5407  1.5460  1.1906
 8988SOL    HW238598   4.085   3.529   8.983 -2.4635  0.1310 -0.5222
 8989SOL     OW38599   1.405   4.575  12.377 -0.4046 -0.3775  0.5705
 8989SOL    HW138600   1.339   4.554  12.312 -0.9766  4.5607 -0.4045
 8989SOL    HW238601   1.388   4.668  12.395 -0.5835 -0.3989  0.5104
 8990SOL     OW38602   4.584   3.494   8.664  0.2512 -0.6531  0.4182
 8990SOL    HW138603   4.562   3.508   8.756  1.8115  0.5261  0.6086
 8990SOL    HW238604   4.494   3.506   8.634  0.6692 -0.2688 -0.6771
 8991SOL     OW38605   1.360   2.193   4.673 -0.2413 -0.3752  0.4779
 8991SOL    HW138606   1.351   2.287   4.692 -0.6011 -0.6200  1.5244
 8991SOL    HW238607   1.266   2.178   4.664 -0.2812  1.3056 -1.8888
 8992SOL     OW38608   3.377   0.305  12.123 -0.5476 -0.4389  0.3807
 8992SOL    HW138609   3.419   0.228  12.162 -1.0136 -1.0626 -0.3504
 8992SOL    HW238610   3.428   0.377  12.161  1.2612 -1.0209 -0.9622
 8993SOL     OW38611   3.294   4.541   5.520 -0.1108 -0.0391 -0.3147
 8993SOL    HW138612   3.254   4.595   5.588 -0.3382 -1.8142  0.9543
 8993SOL    HW238613   3.234   4.466   5.524 -0.3966  0.4042  3.1998
 8994SOL     OW38614   2.468   2.086   2.710 -0.6275 -0.1957 -0.4764
 8994SOL    HW138615   2.412   2.072   2.634  0.8824 -1.0331 -1.4344
 8994SOL    HW238616   2.402   2.132   2.762 -0.5903 -0.6790 -0.0035
 8995SOL     OW38617   4.504   3.291  10.856 -0.5857  0.7384 -0.3540
 8995SOL    HW138618   4.454   3.238  10.794 -1.9373  0.4584  0.9753
 8995SOL    HW238619   4.591   3.279  10.817 -0.9868 -0.3539 -0.9218
 8996SOL     OW38620   2.951   3.366   2.447 -0.0979 -0.1119  0.1330
 8996SOL    HW138621   3.021   3.326   2.396 -1.6456 -3.0722  0.2860
 8996SOL    HW238622   2.895   3.388   2.373  0.7624  0.3514 -0.3723
 8997SOL     OW38623   4.280   0.330   6.462 -0.7173  0.2480 -0.3801
 8997SOL    HW138624   4.203   0.310   6.409 -0.6793 -1.8086  0.3378
 8997SOL    HW238625   4.308   0.410   6.418 -1.6158 -0.1098 -1.6159
 8998SOL     OW38626   2.338   0.849   6.235 -0.0989 -0.0417 -0.4147
 8998SOL    HW138627   2.330   0.878   6.326 -0.6430 -0.2944 -0.3794
 8998SOL    HW238628   2.373   0.761   6.247 -1.7530 -0.4489  1.3649
 8999SOL     OW38629   2.168   3.835   5.078 -0.0072  0.2980 -0.0013
 8999SOL    HW138630   2.083   3.848   5.118  0.2486  2.3520 -0.1235
 8999SOL    HW238631   2.230   3.827   5.150  1.0371 -1.6234 -1.0887
 9000SOL     OW38632   1.942   2.437   4.187  0.0902 -0.1352 -0.4425
 9000SOL    HW138633   1.862   2.486   4.170 -1.3139 -2.0281  0.7275
 9000SOL    HW238634   1.969   2.474   4.272 -0.5257  0.0218 -0.3137
 9001SOL     OW38635   0.498   3.934   5.402  0.1421  0.0648  0.0980
 9001SOL    HW138636   0.481   3.883   5.322  1.2768 -1.2349  0.6944
 9001SOL    HW238637   0.460   3.870   5.462  0.1230  0.2573  0.2931
 9002SOL     OW38638   3.373   2.146   1.059  0.1757 -0.1515  0.8625
 9002SOL    HW138639   3.356   2.094   0.980  0.8865  2.1839 -0.8113
 9002SOL    HW238640   3.407   2.224   1.016  0.8287 -0.0291  1.6074
 9003SOL     OW38641   1.760   2.085   3.190 -0.5017  0.2715 -0.2256
 9003SOL    HW138642   1.737   2.127   3.273  1.5258  2.0806 -0.5981
 9003SOL    HW238643   1.677   2.093   3.143 -0.4814 -2.5194 -0.7668
 9004SOL     OW38644   4.589   0.773   1.373 -0.0772 -0.1584  0.2767
 9004SOL    HW138645   4.578   0.850   1.318 -1.7723  0.0715  0.9210
 9004SOL    HW238646   4.629   0.715   1.309 -1.7230  0.8932 -1.7226
 9005SOL     OW38647   3.121   0.066   5.261 -0.4267 -0.2305  0.1790
 9005SOL    HW138648   3.045   0.043   5.315 -0.8996  0.0488 -0.3662
 9005SOL    HW238649   3.130   4.719   5.213  3.1355  1.0855 -1.3745
 9006SOL     OW38650   3.891   3.014  12.878 -0.5817 -0.0283 -0.1027
 9006SOL    HW138651   3.875   3.096  12.831  0.8628  0.7661  0.7869
 9006SOL    HW238652   3.957   3.048  12.938 -0.8517 -0.6800  0.5665
 9007SOL     OW38653   0.325   1.697   2.134 -0.1811 -0.0722  0.3246
 9007SOL    HW138654   0.284   1.769   2.181 -2.9828 -1.5701  0.1496
 9007SOL    HW238655   0.382   1.673   2.207  1.0425 -1.7428 -1.1592
 9008SOL     OW38656   0.038   4.506  14.813  0.4475  0.0183  0.5074
 9008SOL    HW138657   4.712   4.562  14.861  0.0609  1.4534 -1.6411
 9008SOL    HW238658   0.019   4.530  14.722  1.1950  1.8578  0.8466
 9009SOL     OW38659   2.270   2.615   9.586 -0.1627 -0.0036  0.5032
 9009SOL    HW138660   2.312   2.535   9.620  2.0699  0.2512 -1.6128
 9009SOL    HW238661   2.190   2.571   9.557  1.5673 -0.7622 -3.1523
 9010SOL     OW38662   2.877   1.218   5.926  0.5282 -0.9053  0.2006
 9010SOL    HW138663   2.823   1.139   5.933 -0.4230 -0.3339 -0.7057
 9010SOL    HW238664   2.848   1.272   5.999  1.1204 -0.6315  0.2375
 9011SOL     OW38665   4.681   3.394   3.771  0.1330 -0.2830 -0.0484
 9011SOL    HW138666   4.686   3.487   3.747  0.6338  0.1610  1.7398
 9011SOL    HW238667   4.643   3.357   3.691  0.8028  0.8154 -0.8742
 9012SOL     OW38668   2.138   0.774   6.628 -0.1246  0.1088 -0.2826
 9012SOL    HW138669   2.081   0.794   6.553 -1.2091 -2.0742 -0.0499
 9012SOL    HW238670   2.108   0.829   6.700  1.2523  1.7390 -0.9666
 9013SOL     OW38671   3.993   1.868   7.853  0.2790 -0.0980  0.1049
 9013SOL    HW138672   3.897   1.869   7.844  0.2743  0.2952  0.2159
 9013SOL    HW238673   4.006   1.774   7.838  0.2298 -0.5280  2.7423
 9014SOL     OW38674   0.465   1.478   3.089 -0.0779 -0.2863  0.0642
 9014SOL    HW138675   0.385   1.452   3.042 -1.3094  2.4586  0.6533
 9014SOL    HW238676   0.522   1.523   3.027  0.2366  0.2202  0.7317
 9015SOL     OW38677   1.588   2.079   5.377  0.0759 -0.2094 -0.2414
 9015SOL    HW138678   1.657   2.090   5.311 -1.5520  0.3171 -1.8754
 9015SOL    HW238679   1.641   2.049   5.451  1.4726  0.4396 -0.9604
 9016SOL     OW38680   2.965   2.182   4.278  0.2518  0.6333  0.5467
 9016SOL    HW138681   2.986   2.139   4.361  1.5452 -1.2831 -0.7819
 9016SOL    HW238682   2.877   2.219   4.292 -0.4517 -1.2378  1.1019
 9017SOL     OW38683   4.204   3.847   5.799 -0.0016  0.8271 -0.0275
 9017SOL    HW138684   4.145   3.847   5.723  0.0123  2.7654 -0.0273
 9017SOL    HW238685   4.282   3.804   5.764 -1.1410 -0.5810 -0.8564
 9018SOL     OW38686   3.986   0.531   6.486 -0.3020 -0.0494 -0.3065
 9018SOL    HW138687   3.909   0.581   6.514 -0.2718  1.0213 -2.0905
 9018SOL    HW238688   4.001   0.488   6.569  0.2715  2.2899  0.8082
 9019SOL     OW38689   0.683   2.076  15.093 -0.2056 -0.6955 -0.5573
 9019SOL    HW138690   0.645   2.025  15.022 -0.0067  0.5431 -1.5524
 9019SOL    HW238691   0.778   2.062  15.088  0.0846  0.5786  1.3958
 9020SOL     OW38692   3.956   3.079   7.091  0.3369 -0.6112 -0.0701
 9020SOL    HW138693   4.008   3.135   7.032 -0.5541 -1.0394 -1.2715
 9020SOL    HW238694   3.890   3.145   7.109 -1.1666 -1.6470 -1.8019
 9021SOL     OW38695   3.823   2.244   0.209 -0.0362  0.3742  0.1649
 9021SOL    HW138696   3.904   2.276   0.170 -0.7248  0.2524 -1.3828
 9021SOL    HW238697   3.861   2.208   0.289  0.8640 -0.0253 -0.4446
 9022SOL     OW38698   1.621   1.543   0.718  0.0537 -0.3427 -0.4274
 9022SOL    HW138699   1.683   1.481   0.757 -0.1134 -0.5808 -0.5424
 9022SOL    HW238700   1.684   1.605   0.681 -0.4589  0.0174 -0.6906
 9023SOL     OW38701   2.632   0.903   0.586 -0.2988  0.4562 -0.2298
 9023SOL    HW138702   2.661   0.812   0.588  1.5165  1.0568  1.1046
 9023SOL    HW238703   2.672   0.943   0.509 -0.0313 -0.9065 -0.8033
 9024SOL     OW38704   3.182   3.095   2.892  0.5584 -0.6119  1.0302
 9024SOL    HW138705   3.115   3.132   2.835  2.0662  0.7694  0.1191
 9024SOL    HW238706   3.264   3.110   2.845 -0.1057 -0.6783 -0.1301
 9025SOL     OW38707   1.819   0.400   1.590 -0.2910 -0.5162  0.3285
 9025SOL    HW138708   1.810   0.327   1.529  1.1533  0.6356 -1.2577
 9025SOL    HW238709   1.730   0.387   1.622 -0.4534  0.4542  0.2846
 9026SOL     OW38710   1.238   3.280   3.734 -0.4122 -0.2441 -0.2841
 9026SOL    HW138711   1.249   3.199   3.683 -2.1039 -1.6088  1.4939
 9026SOL    HW238712   1.142   3.277   3.737 -0.4019 -1.2743 -1.0588
 9027SOL     OW38713   2.142   0.352   7.060  0.6627  0.1828  0.4961
 9027SOL    HW138714   2.124   0.259   7.074  0.2600  0.0111 -1.1331
 9027SOL    HW238715   2.051   0.382   7.053  0.7187  0.5353  1.2676
 9028SOL     OW38716   2.339   3.336   7.507 -0.6008 -0.1981 -0.5413
 9028SOL    HW138717   2.320   3.249   7.542 -0.4764  0.2087  0.5564
 9028SOL    HW238718   2.362   3.379   7.590 -0.1133  0.0420 -0.8037
 9029SOL     OW38719   3.572   3.817   4.972  0.2120 -0.3414  0.3290
 9029SOL    HW138720   3.620   3.826   4.890  1.7315  0.9582  1.3502
 9029SOL    HW238721   3.489   3.862   4.959  0.1052 -0.7512 -0.4043
 9030SOL     OW38722   4.113   0.477   7.135  0.5479 -0.3342 -0.5441
 9030SOL    HW138723   4.025   0.508   7.111  0.4561 -0.3447 -0.2292
 9030SOL    HW238724   4.163   0.499   7.057 -0.1741  0.7662 -0.6942
 9031SOL     OW38725   3.342   0.924   6.032  0.0690  0.4155  0.2191
 9031SOL    HW138726   3.326   0.890   6.121  2.5643 -3.2153 -0.7499
 9031SOL    HW238727   3.254   0.928   5.995  1.0244  1.0088 -1.9507
 9032SOL     OW38728   3.701   3.092   2.830 -0.1209  0.0450 -0.0276
 9032SOL    HW138729   3.700   3.187   2.816 -0.3188  0.2169  1.2309
 9032SOL    HW238730   3.633   3.079   2.895  0.6997 -1.0914  0.5909
 9033SOL     OW38731   1.972   3.890   5.309  0.2217  0.6305 -0.3766
 9033SOL    HW138732   1.934   3.802   5.302 -0.3241  1.1155 -3.4295
 9033SOL    HW238733   1.894   3.945   5.314  1.3659  2.0579  1.6674
 9034SOL     OW38734   4.220   1.803   2.402  0.2979 -0.4233  0.3885
 9034SOL    HW138735   4.315   1.810   2.411  0.7000 -1.0508 -3.3578
 9034SOL    HW238736   4.194   1.895   2.413 -1.9762 -0.9708 -0.3984
 9035SOL     OW38737   2.853   1.844   0.728  0.5783  0.0344 -0.1838
 9035SOL    HW138738   2.918   1.903   0.768  0.1989 -0.9926  1.9438
 9035SOL    HW238739   2.904   1.778   0.682 -0.4912 -0.1307 -1.1205
 9036SOL     OW38740   0.606   2.906   0.939  0.1039  0.1209 -0.0394
 9036SOL    HW138741   0.577   2.887   0.849  3.0568  0.0754 -1.0063
 9036SOL    HW238742   0.555   2.846   0.993 -0.2196 -0.5967 -1.1331
 9037SOL     OW38743   3.118   2.706   1.440 -0.0097 -0.1227 -0.6359
 9037SOL    HW138744   3.181   2.652   1.488 -0.8748 -1.4189 -0.9341
 9037SOL    HW238745   3.171   2.780   1.411  0.6774 -1.1328 -1.9957
 9038SOL     OW38746   4.525   2.284   5.722 -0.0372 -0.8120 -0.1013
 9038SOL    HW138747   4.527   2.331   5.638  0.7804  0.5986  0.6943
 9038SOL    HW238748   4.461   2.213   5.718 -0.4901 -0.4575  1.1141
 9039SOL     OW38749   0.913   1.974   6.043  0.0514 -0.9595 -0.5874
 9039SOL    HW138750   0.877   1.902   6.095  0.8449 -1.3250 -0.5469
 9039SOL    HW238751   0.994   1.999   6.089  1.1385 -2.6489 -1.5796
 9040SOL     OW38752   4.622   0.007   7.976  0.3105  0.2879  0.4988
 9040SOL    HW138753   4.702   0.045   8.011 -0.9820  1.6288  2.0148
 9040SOL    HW238754   4.555   0.020   8.043  1.2303  1.1036  1.2575
 9041SOL     OW38755   3.219   2.930   6.114 -0.1348 -0.4906 -0.4016
 9041SOL    HW138756   3.298   2.946   6.063  1.2038  0.8670  2.0698
 9041SOL    HW238757   3.142   2.970   6.074  0.0814 -0.9647 -1.2968
 9042SOL     OW38758   1.520   3.182   4.136 -0.4869  0.0652 -0.1393
 9042SOL    HW138759   1.482   3.112   4.083  1.0465 -0.2035 -0.8613
 9042SOL    HW238760   1.470   3.256   4.100  1.3212  1.4364  0.2121
 9043SOL     OW38761   3.069   3.498   7.906 -0.0813 -0.4160 -0.0571
 9043SOL    HW138762   3.154   3.525   7.871 -0.1041 -0.7061 -0.3411
 9043SOL    HW238763   3.035   3.563   7.968  2.4749 -0.1933  1.0903
 9044SOL     OW38764   2.287   3.965   6.636  0.0936 -0.3415  0.2994
 9044SOL    HW138765   2.344   3.902   6.679 -1.0600 -0.2273  2.0052
 9044SOL    HW238766   2.294   4.045   6.688  1.3387  0.4006 -1.0136
 9045SOL     OW38767   1.396   2.106   2.013  0.1289 -0.2152  0.4015
 9045SOL    HW138768   1.321   2.049   2.029 -0.9096  0.6606 -1.3057
 9045SOL    HW238769   1.359   2.179   1.963  0.4655 -1.5893 -1.8352
 9046SOL     OW38770   3.165   2.280  17.091  0.3520  0.0205  0.0649
 9046SOL    HW138771   3.160   2.371  17.060  0.4730  0.4102  1.2151
 9046SOL    HW238772   3.116   2.284  17.173  3.3170 -1.9977  1.9301
 9047SOL     OW38773   2.670   0.965   6.536  0.0302 -0.5437  0.1490
 9047SOL    HW138774   2.763   0.965   6.560  0.1823 -2.7207 -0.4947
 9047SOL    HW238775   2.667   0.885   6.484  1.6166 -0.1986 -0.4711
 9048SOL     OW38776   0.883   1.822   4.588  0.0629 -0.3575  0.0004
 9048SOL    HW138777   0.893   1.893   4.524 -2.6911  0.7360  0.7711
 9048SOL    HW238778   0.826   1.868   4.650  1.2186  1.5494 -0.3718
 9049SOL     OW38779   4.623   2.205   1.684 -0.9283 -0.4207  0.3633
 9049SOL    HW138780   4.584   2.120   1.665  1.8515 -1.1190 -2.1241
 9049SOL    HW238781   4.681   2.218   1.609 -2.7977  0.9412 -0.8459
 9050SOL     OW38782   2.793   3.964   4.121  0.1407 -0.1990 -0.1210
 9050SOL    HW138783   2.870   4.001   4.164  0.5032 -1.6388  0.4529
 9050SOL    HW238784   2.728   3.963   4.191 -0.6961  1.0397 -0.8634
 9051SOL     OW38785   1.447   1.325   2.430 -0.1622  0.7187  0.0684
 9051SOL    HW138786   1.454   1.417   2.454 -2.4521  0.6527  0.9993
 9051SOL    HW238787   1.449   1.340   2.335 -0.1671 -2.2365 -0.4260
 9052SOL     OW38788   4.213   0.149   1.017  0.1431  0.3211  0.1293
 9052SOL    HW138789   4.163   0.116   0.943  0.5229  0.3354 -0.1348
 9052SOL    HW238790   4.234   0.060   1.048 -0.1892 -0.2880 -1.3705
 9053SOL     OW38791   0.054   2.413   1.860 -0.2139  0.5698  0.0762
 9053SOL    HW138792   0.092   2.408   1.948  2.1734  0.9180 -0.9277
 9053SOL    HW238793   0.046   2.320   1.841 -0.1339  0.3137  1.2968
 9054SOL     OW38794   1.186   3.847   9.693 -0.2303 -0.3226  0.2094
 9054SOL    HW138795   1.190   3.918   9.629  0.2827  0.9249  1.6354
 9054SOL    HW238796   1.174   3.905   9.768 -0.9293  0.8956 -0.8360
 9055SOL     OW38797   2.757   4.180   8.109 -0.3489  0.3784 -0.0009
 9055SOL    HW138798   2.716   4.126   8.041  1.5835  0.3736 -1.1583
 9055SOL    HW238799   2.849   4.164   8.086 -0.2030  1.1941  0.0131
 9056SOL     OW38800   1.171   2.427   6.238 -0.3102 -0.2599  0.1450
 9056SOL    HW138801   1.139   2.439   6.148 -0.4583  0.0875  0.2436
 9056SOL    HW238802   1.222   2.346   6.234  1.8866  1.2214 -1.5454
 9057SOL     OW38803   0.213   0.525   6.765 -0.1621  0.4658  0.3627
 9057SOL    HW138804   0.159   0.522   6.844 -0.4294  2.8842  0.2787
 9057SOL    HW238805   0.180   0.450   6.717  0.9793  0.1387  0.0822
 9058SOL     OW38806   4.388   3.237   7.311 -0.3948  0.1000  0.3688
 9058SOL    HW138807   4.430   3.243   7.225 -0.7112 -1.2523  0.1293
 9058SOL    HW238808   4.409   3.323   7.349  0.3045  0.0217  0.1530
 9059SOL     OW38809   1.235   3.406   7.179 -0.0402  0.0704 -0.1727
 9059SOL    HW138810   1.275   3.487   7.147  0.0666  0.6145  1.3415
 9059SOL    HW238811   1.162   3.437   7.233  0.6180  1.7981 -0.2634
 9060SOL     OW38812   2.761   0.968   4.408 -0.2757  0.4865  0.2000
 9060SOL    HW138813   2.696   0.900   4.425  1.6860 -1.8189 -1.5293
 9060SOL    HW238814   2.797   0.958   4.497  0.3327 -0.7858 -0.1796
 9061SOL     OW38815   2.130   4.732   8.949 -0.5039 -0.1718 -0.1289
 9061SOL    HW138816   2.133   4.707   9.041  0.1553 -0.2333 -0.1696
 9061SOL    HW238817   2.049   0.049   8.950  0.7378  1.7751  0.0208
 9062SOL     OW38818   3.373   4.731   4.633  0.1628 -0.3328  0.1487
 9062SOL    HW138819   3.358   4.659   4.573 -2.7255 -0.7936  1.4313
 9062SOL    HW238820   3.452   0.032   4.592 -1.7050  3.3778 -0.1673
 9063SOL     OW38821   2.925   0.985   3.721 -0.3576  0.1491 -0.0461
 9063SOL    HW138822   2.845   1.001   3.771 -1.5829 -2.1818 -1.2760
 9063SOL    HW238823   2.913   0.896   3.689 -1.1735  0.1658  0.2275
 9064SOL     OW38824   3.991   0.523   3.151  0.1627 -0.4507  0.2876
 9064SOL    HW138825   3.919   0.586   3.156 -0.5736 -1.1454 -1.4232
 9064SOL    HW238826   3.983   0.483   3.237 -1.1251  1.4256  1.0484
 9065SOL     OW38827   3.578   3.117   2.526  0.3602  0.6538 -0.2166
 9065SOL    HW138828   3.546   3.073   2.447 -0.9981 -0.2064  0.8168
 9065SOL    HW238829   3.619   3.050   2.581  1.3355 -0.0632 -1.8105
 9066SOL     OW38830   2.932   1.602   6.064  0.6476  0.0392  1.0113
 9066SOL    HW138831   2.948   1.649   5.982 -0.8720 -1.9962 -0.4515
 9066SOL    HW238832   2.941   1.672   6.128 -1.1063  0.6391  0.5948
 9067SOL     OW38833   4.403   1.718   4.594 -0.3816  0.0153  0.1753
 9067SOL    HW138834   4.315   1.756   4.590 -0.5103 -0.3904 -0.7416
 9067SOL    HW238835   4.455   1.798   4.586  0.4480 -0.5832 -0.3561
 9068SOL     OW38836   2.158   1.208   6.462 -0.0358 -0.7598  0.6559
 9068SOL    HW138837   2.156   1.219   6.557  0.3866  2.3843  0.2728
 9068SOL    HW238838   2.250   1.183   6.455 -0.1374 -0.3872 -1.8562
 9069SOL     OW38839   2.941   3.269   4.330  0.0127 -0.3971  0.2363
 9069SOL    HW138840   2.974   3.196   4.382  0.0961 -0.1389  0.5416
 9069SOL    HW238841   3.014   3.282   4.270  1.9227  2.5103  3.2270
 9070SOL     OW38842   4.698   1.720   9.109 -0.4280  0.1672  0.5802
 9070SOL    HW138843   4.700   1.784   9.038  0.2858  0.3385  0.7579
 9070SOL    HW238844   4.713   1.639   9.059 -2.2623  0.5986 -0.6770
 9071SOL     OW38845   2.290   2.185   3.876  0.2476  0.1313 -0.2591
 9071SOL    HW138846   2.279   2.138   3.959  1.9264 -0.2071 -0.2361
 9071SOL    HW238847   2.363   2.128   3.854 -1.1781 -1.9784  0.4539
 9072SOL     OW38848   4.105   1.472  12.633  0.5084  0.3363 -0.1863
 9072SOL    HW138849   4.097   1.498  12.725  0.8054  2.5193 -0.7814
 9072SOL    HW238850   4.061   1.550  12.600  0.5146  0.7284  0.7220
 9073SOL     OW38851   1.600   1.358   8.690 -0.2110  0.1582  0.2869
 9073SOL    HW138852   1.529   1.376   8.629 -1.4857  0.5588  1.8940
 9073SOL    HW238853   1.648   1.440   8.695  1.7619 -0.9505 -0.3902
 9074SOL     OW38854   1.882   2.664   5.999 -0.2514 -0.2994 -0.1992
 9074SOL    HW138855   1.921   2.745   5.966  0.7602 -0.3918  0.7430
 9074SOL    HW238856   1.923   2.600   5.941  2.8306 -0.6389  2.3009
 9075SOL     OW38857   2.125   2.597  10.432 -0.3305  0.1348 -0.3909
 9075SOL    HW138858   2.058   2.626  10.494 -0.1546  0.1136 -0.1891
 9075SOL    HW238859   2.134   2.505  10.456 -0.2436  0.4922  0.9542
 9076SOL     OW38860   4.038   4.664   7.587  0.3420  0.1721 -0.2545
 9076SOL    HW138861   4.079   4.705   7.510 -0.7123 -1.7764 -1.8384
 9076SOL    HW238862   4.101   4.674   7.659  0.2397 -0.1690 -0.1194
 9077SOL     OW38863   2.015   2.107   4.647 -0.3791  0.5266  0.3402
 9077SOL    HW138864   2.109   2.109   4.666 -0.6078 -0.4354  1.5932
 9077SOL    HW238865   1.998   2.014   4.661 -3.6180  0.9443 -0.7398
 9078SOL     OW38866   1.817   2.814   1.896  0.0684  0.1350 -0.0787
 9078SOL    HW138867   1.823   2.807   1.992  1.6348  1.6196 -0.0877
 9078SOL    HW238868   1.847   2.726   1.872  1.5944  0.1873  1.6489
 9079SOL     OW38869   2.538   1.438   8.166 -0.4354 -0.1228 -0.3886
 9079SOL    HW138870   2.582   1.519   8.194 -0.8019 -0.1731  0.3499
 9079SOL    HW238871   2.483   1.418   8.242  1.6035 -1.7118  0.6738
 9080SOL     OW38872   4.193   2.391   0.145 -0.1984  0.0686  0.1312
 9080SOL    HW138873   4.163   2.300   0.150  1.7604 -0.5984 -0.0975
 9080SOL    HW238874   4.213   2.396   0.051 -0.9493 -1.9953 -0.1453
 9081SOL     OW38875   1.994   0.103  15.691  0.3326 -0.4384 -0.5501
 9081SOL    HW138876   2.074   0.149  15.665 -0.9069  1.1050 -1.6027
 9081SOL    HW238877   1.931   0.175  15.688  1.6428  0.7172 -0.4311
 9082SOL     OW38878   1.927   1.376   6.762  0.4488  0.1552  0.3161
 9082SOL    HW138879   1.924   1.306   6.697 -2.3924  3.0851 -2.7614
 9082SOL    HW238880   1.968   1.329   6.834 -2.7930 -1.6668  0.9859
 9083SOL     OW38881   1.349   0.841   4.272  0.0604  0.1959  0.2307
 9083SOL    HW138882   1.290   0.910   4.243  0.5501  0.2898 -0.5516
 9083SOL    HW238883   1.400   0.888   4.337  1.1150  1.4225 -1.4659
 9084SOL     OW38884   0.807   1.408   3.879  0.0399  0.4344  0.2671
 9084SOL    HW138885   0.741   1.435   3.815  0.5781 -1.7997 -1.2447
 9084SOL    HW238886   0.843   1.488   3.918 -0.8235  0.1187  1.6829
 9085SOL     OW38887   3.792   3.119  14.652 -0.0811  0.3707  0.2336
 9085SOL    HW138888   3.741   3.053  14.606 -1.0513  0.9737  0.4394
 9085SOL    HW238889   3.810   3.173  14.575 -1.6808  1.1550  0.4086
 9086SOL     OW38890   1.683   3.079   4.573  0.3692 -0.1978 -0.6005
 9086SOL    HW138891   1.684   3.160   4.522 -2.3071 -0.9958 -1.9295
 9086SOL    HW238892   1.605   3.034   4.539  0.9519  0.1922 -2.4676
 9087SOL     OW38893   2.777   4.649   3.712 -0.4085 -0.2482 -0.6832
 9087SOL    HW138894   2.853   4.695   3.749 -0.4874  0.2070 -1.0862
 9087SOL    HW238895   2.718   4.661   3.787  2.5438  2.1146  1.2990
 9088SOL     OW38896   0.694   0.438  17.354  0.4349  0.3056  0.8465
 9088SOL    HW138897   0.694   0.534  17.364  1.9830  0.3650  0.2872
 9088SOL    HW238898   0.603   0.425  17.327  0.8682 -1.2720  0.2015
 9089SOL     OW38899   4.566   0.393   5.400  0.4469 -0.1587 -0.3058
 9089SOL    HW138900   4.627   0.365   5.332 -0.2590 -1.7628 -0.2835
 9089SOL    HW238901   4.600   0.340   5.472  0.1719 -0.9845 -0.7784
 9090SOL     OW38902   1.302   1.208   2.710  0.6052 -0.0371  0.4816
 9090SOL    HW138903   1.303   1.146   2.783  0.5787  0.5709  1.0012
 9090SOL    HW238904   1.390   1.238   2.687  0.5540 -0.4179 -0.2235
 9091SOL     OW38905   3.519   2.451  16.059  0.8308 -0.5486 -0.4779
 9091SOL    HW138906   3.429   2.429  16.036  0.6629 -1.0260  0.5859
 9091SOL    HW238907   3.555   2.426  15.974  0.1859 -1.1736 -0.5652
 9092SOL     OW38908   2.679   2.958   5.053  0.0903 -0.0181  0.0688
 9092SOL    HW138909   2.660   2.866   5.038 -3.7745  0.7050  0.3443
 9092SOL    HW238910   2.774   2.950   5.049  0.0851 -0.1511  0.2335
 9093SOL     OW38911   0.803   1.592   8.081 -0.9388  0.3179  0.9062
 9093SOL    HW138912   0.818   1.548   7.997 -0.5178 -1.4499  1.9238
 9093SOL    HW238913   0.754   1.671   8.058  1.7436  1.5973 -0.4778
 9094SOL     OW38914   2.914   3.908   3.657 -0.2790  0.1308 -0.2331
 9094SOL    HW138915   2.921   4.003   3.666 -0.4893  0.0609  0.7558
 9094SOL    HW238916   2.942   3.882   3.745 -2.2135 -0.5025  0.2037
 9095SOL     OW38917   0.342   2.537   2.053  0.0471  0.1520  0.1671
 9095SOL    HW138918   0.436   2.524   2.053 -0.1498 -1.2405  0.1627
 9095SOL    HW238919   0.325   2.628   2.026 -1.6064  0.1581  1.1889
 9096SOL     OW38920   3.403   2.471   2.353  0.6337  0.4740  0.1426
 9096SOL    HW138921   3.340   2.444   2.419 -1.9679  0.9550 -2.1294
 9096SOL    HW238922   3.456   2.392   2.340  0.9983  0.6728  0.4241
 9097SOL     OW38923   3.132   3.873   2.428  0.0112 -0.2324 -0.3397
 9097SOL    HW138924   3.077   3.809   2.383 -0.0873 -0.3502 -0.0505
 9097SOL    HW238925   3.118   3.862   2.522 -2.1553 -1.8758 -0.8509
 9098SOL     OW38926   1.782   4.166  15.157  0.5366  0.2945  0.3832
 9098SOL    HW138927   1.697   4.209  15.148  0.0632 -0.4775  1.1958
 9098SOL    HW238928   1.749   4.088  15.111  1.2211 -0.3274  0.9410
 9099SOL     OW38929   3.878   3.787   7.592 -0.0526  0.0048 -0.3018
 9099SOL    HW138930   3.791   3.827   7.597  0.5979  1.4669 -0.7658
 9099SOL    HW238931   3.879   3.733   7.671 -0.2612  0.2819 -0.1088
 9100SOL     OW38932   2.182   0.966   1.054  0.5782 -0.5392 -0.7749
 9100SOL    HW138933   2.210   0.964   1.145 -0.1895  1.4724 -0.4923
 9100SOL    HW238934   2.268   0.941   1.021  0.2497 -0.3366 -1.7773
 9101SOL     OW38935   0.901   4.722   4.348 -0.0038  1.1613  0.1765
 9101SOL    HW138936   0.981   4.682   4.383 -1.8617 -2.0336  0.8466
 9101SOL    HW238937   0.930   0.055   4.288 -0.0165  1.4935  0.5509
 9102SOL     OW38938   3.895   3.127   7.516 -0.4127 -0.4215  0.5132
 9102SOL    HW138939   3.986   3.104   7.533 -0.1232 -0.3054 -0.8923
 9102SOL    HW238940   3.845   3.059   7.563  0.4123 -1.4376 -0.0870
 9103SOL     OW38941   3.645   1.131   1.910 -0.4024  0.3180  0.4969
 9103SOL    HW138942   3.718   1.085   1.950 -0.1746 -0.4165 -0.7666
 9103SOL    HW238943   3.677   1.221   1.902 -0.8889  0.3139 -1.6651
 9104SOL     OW38944   1.134   2.866   1.023  0.3862  0.1316 -0.5611
 9104SOL    HW138945   1.202   2.929   0.997 -1.7168  1.9979 -1.5198
 9104SOL    HW238946   1.085   2.857   0.941  0.4605  0.2065 -0.6143
 9105SOL     OW38947   2.396   1.881   9.993  0.0312  0.7428 -0.2448
 9105SOL    HW138948   2.466   1.860   9.932  0.4316  2.0591 -0.2412
 9105SOL    HW238949   2.328   1.819   9.965  0.2788  0.7992 -0.9635
 9106SOL     OW38950   4.190   0.170  16.389 -0.0685  0.4805  0.0232
 9106SOL    HW138951   4.256   0.141  16.326 -0.7898 -2.1445  0.4608
 9106SOL    HW238952   4.173   0.253  16.344 -1.5782 -0.3391 -0.9109
 9107SOL     OW38953   4.017   0.503   5.777  0.0392 -0.1344  0.3159
 9107SOL    HW138954   3.969   0.451   5.840  1.4009  0.1682  1.6126
 9107SOL    HW238955   4.106   0.469   5.791  0.1945  0.0686 -0.1498
 9108SOL     OW38956   2.292   0.468   4.732  0.5564 -0.1402 -0.1202
 9108SOL    HW138957   2.301   0.423   4.816 -2.0661 -0.5969 -0.0976
 9108SOL    HW238958   2.199   0.485   4.724  0.5834  0.3407  0.5374
 9109SOL     OW38959   3.860   1.299  12.703 -0.0298  0.1262 -0.8663
 9109SOL    HW138960   3.808   1.313  12.782 -2.5000 -3.1151 -1.9208
 9109SOL    HW238961   3.925   1.368  12.712  0.3667 -0.3294 -0.2049
 9110SOL     OW38962   0.926   0.961  15.151 -0.6818  0.0417 -0.1355
 9110SOL    HW138963   0.951   0.985  15.240  0.1437 -2.1138  0.2118
 9110SOL    HW238964   0.996   0.909  15.112  0.0334  1.2874 -0.5062
 9111SOL     OW38965   0.660   4.400   6.946 -0.1473 -0.4838 -0.0313
 9111SOL    HW138966   0.630   4.404   7.037  0.3664  1.8996  0.0424
 9111SOL    HW238967   0.677   4.492   6.925  2.4196 -0.9212  0.0942
 9112SOL     OW38968   1.673   3.043  17.379  0.1581  0.0710 -0.3518
 9112SOL    HW138969   1.677   3.064  17.473 -4.8415  0.4497 -0.2333
 9112SOL    HW238970   1.658   3.130  17.344  1.0108  0.6030  0.5853
 9113SOL     OW38971   2.254   1.711   2.942  0.6212 -0.1583 -0.3732
 9113SOL    HW138972   2.187   1.644   2.930  0.4920 -0.0441 -0.2765
 9113SOL    HW238973   2.197   1.787   2.956  0.2073 -0.7982  1.3620
 9114SOL     OW38974   1.678   3.677   2.963 -0.5796 -0.1498  0.0171
 9114SOL    HW138975   1.756   3.704   3.010 -1.1755  0.5977  0.5762
 9114SOL    HW238976   1.607   3.687   3.026 -0.4445  1.0386 -0.0285
 9115SOL     OW38977   0.367   1.772  14.164 -0.2695 -0.0389  0.4551
 9115SOL    HW138978   0.458   1.753  14.185 -0.0772  0.7886  0.3524
 9115SOL    HW238979   0.381   1.791  14.071 -0.9175 -0.5329  0.2509
 9116SOL     OW38980   1.752   4.245  12.027  0.3053 -0.2449  0.0406
 9116SOL    HW138981   1.721   4.321  11.977  1.6429  0.7278  0.6671
 9116SOL    HW238982   1.844   4.238  12.000  0.1589  1.7206 -1.0205
 9117SOL     OW38983   4.434   3.834   5.103 -0.2995 -0.2020  0.2457
 9117SOL    HW138984   4.404   3.754   5.060  0.5416  0.9620 -2.5046
 9117SOL    HW238985   4.456   3.895   5.032 -0.9419  0.4057  0.5707
 9118SOL     OW38986   1.201   4.515   6.243 -0.5751 -0.1156  0.5821
 9118SOL    HW138987   1.232   4.425   6.247 -0.5452 -0.2565 -2.5005
 9118SOL    HW238988   1.107   4.506   6.225 -0.5138 -0.3118  0.3596
 9119SOL     OW38989   0.601   4.180   2.338 -0.3535 -0.1083 -0.5781
 9119SOL    HW138990   0.546   4.188   2.260 -1.5253  0.2776  0.2875
 9119SOL    HW238991   0.543   4.142   2.403 -0.7994 -1.3155 -1.6712
 9120SOL     OW38992   3.831   3.160   5.304  0.3499  0.2424  0.4140
 9120SOL    HW138993   3.847   3.170   5.398  2.9119  0.8744 -0.0841
 9120SOL    HW238994   3.881   3.082   5.278 -1.1650  0.1574 -2.2039
 9121SOL     OW38995   4.156   1.499   9.614 -0.1624  0.4611 -0.1535
 9121SOL    HW138996   4.124   1.498   9.704  0.1354  2.3065 -0.0168
 9121SOL    HW238997   4.175   1.409   9.589  0.1049  1.5469 -3.9309
 9122SOL     OW38998   2.731   0.465   1.792 -0.2017  0.8568 -0.6847
 9122SOL    HW138999   2.803   0.527   1.807  1.0237 -0.9345  0.7670
 9122SOL    HW239000   2.659   0.524   1.816  0.0610  0.5479  0.8669
 9123SOL     OW39001   0.963   3.326  16.217  0.0212  0.1310  0.7520
 9123SOL    HW139002   1.032   3.259  16.217 -0.4973 -0.4053 -1.4458
 9123SOL    HW239003   0.956   3.319  16.312  1.4421 -1.6083  0.7388
 9124SOL     OW39004   3.237   1.105   8.269  0.1163  0.0179  0.3274
 9124SOL    HW139005   3.320   1.114   8.222 -0.7456  0.5086 -1.1046
 9124SOL    HW239006   3.228   1.009   8.269  0.2176  0.0010 -1.5847
 9125SOL     OW39007   4.587   3.565   6.990  0.3266  0.3999  0.5831
 9125SOL    HW139008   4.563   3.646   6.946  2.2355  2.7939  3.9688
 9125SOL    HW239009   4.505   3.536   7.030 -1.1174  1.6248 -1.4975
 9126SOL     OW39010   2.626   2.768   8.566 -0.0266 -0.0441 -0.4140
 9126SOL    HW139011   2.641   2.676   8.546  1.8908  0.3057 -0.5376
 9126SOL    HW239012   2.626   2.772   8.661  0.5281  0.7198 -0.4448
 9127SOL     OW39013   3.348   1.941   8.600  0.0731 -0.0781 -0.1412
 9127SOL    HW139014   3.384   1.857   8.572 -0.6269 -0.4262 -0.0077
 9127SOL    HW239015   3.320   1.986   8.521 -5.7620  0.7961  2.4245
 9128SOL     OW39016   1.958   1.855   4.682  0.3457  0.1604 -0.1923
 9128SOL    HW139017   2.019   1.803   4.734 -2.5552 -1.8040  1.2787
 9128SOL    HW239018   1.875   1.812   4.703  1.2662 -2.6489 -2.2456
 9129SOL     OW39019   3.666   4.076  11.827  0.1854  0.3431  0.4533
 9129SOL    HW139020   3.661   4.171  11.815 -1.0377  0.4007  1.4915
 9129SOL    HW239021   3.753   4.049  11.795  0.0765 -0.1096  0.5450
 9130SOL     OW39022   1.892   0.656  12.827 -0.3300  0.3452  0.2543
 9130SOL    HW139023   1.876   0.674  12.734 -1.6388  1.7443  0.7454
 9130SOL    HW239024   1.831   0.719  12.866 -0.6342  1.1573 -1.5596
 9131SOL     OW39025   3.106   2.230  15.133 -0.2810 -0.5174 -0.5242
 9131SOL    HW139026   3.158   2.207  15.210  1.6663  2.4118 -0.9623
 9131SOL    HW239027   3.135   2.318  15.106 -1.7189  0.1749  0.1806
 9132SOL     OW39028   3.644   3.632   8.420 -0.5093 -0.7467 -0.4164
 9132SOL    HW139029   3.592   3.685   8.360 -0.3981 -0.0247  0.1112
 9132SOL    HW239030   3.639   3.686   8.499 -0.9221  2.3733 -2.5678
 9133SOL     OW39031   3.746   3.470   5.318  0.1319 -0.3683 -0.6442
 9133SOL    HW139032   3.679   3.492   5.253  0.8169 -1.6430 -1.7799
 9133SOL    HW239033   3.748   3.375   5.308 -2.5044 -0.2310 -2.4540
 9134SOL     OW39034   3.188   3.679   7.439 -0.1229 -0.0614 -0.1514
 9134SOL    HW139035   3.241   3.714   7.511 -1.3282  0.9490  0.2292
 9134SOL    HW239036   3.220   3.589   7.436 -0.3822 -0.1522 -0.1860
 9135SOL     OW39037   2.506   3.055   4.872 -0.2791  0.1014 -0.1321
 9135SOL    HW139038   2.564   3.056   4.949  0.0516 -1.1431 -0.3624
 9135SOL    HW239039   2.565   3.030   4.801 -0.7626 -1.2265 -0.0600
 9136SOL     OW39040   1.969   3.297   5.883  0.5581  0.3685 -0.4788
 9136SOL    HW139041   2.014   3.213   5.884  1.0261  0.6392  1.0084
 9136SOL    HW239042   1.944   3.309   5.791  0.1840 -0.4516 -0.4834
 9137SOL     OW39043   3.862   2.389  10.974  0.0612  0.3049 -0.0806
 9137SOL    HW139044   3.811   2.433  11.042  0.5473  0.1018  0.4150
 9137SOL    HW239045   3.839   2.437  10.894 -0.8555 -0.1450 -0.0878
 9138SOL     OW39046   1.218   1.097   1.063  0.2710  0.5066  0.4350
 9138SOL    HW139047   1.256   1.027   1.008 -2.0414 -0.3486 -0.0807
 9138SOL    HW239048   1.285   1.164   1.052 -1.5958  2.5913  1.9756
 9139SOL     OW39049   3.359   4.011   7.424  0.2704  0.2148  0.3057
 9139SOL    HW139050   3.342   3.965   7.506  0.1224  1.2873  0.8754
 9139SOL    HW239051   3.376   4.101   7.451  2.5764 -0.2202  0.2705
 9140SOL     OW39052   3.611   4.222   7.516  0.3714  0.6492 -0.0184
 9140SOL    HW139053   3.589   4.312   7.489  1.2298  1.3500  1.5921
 9140SOL    HW239054   3.684   4.210   7.456 -0.5568 -0.6236 -0.8795
 9141SOL     OW39055   3.806   2.056   7.514  0.1015  0.1978 -0.1162
 9141SOL    HW139056   3.802   1.964   7.542  0.8091 -0.2891 -1.6030
 9141SOL    HW239057   3.889   2.084   7.552 -0.0700 -0.0173  0.4111
 9142SOL     OW39058   0.962   0.815   7.971  0.0691  0.1502  0.3394
 9142SOL    HW139059   1.001   0.727   7.967  1.4764  0.8211 -0.3971
 9142SOL    HW239060   0.870   0.791   7.956 -0.2460  0.2941  2.0592
 9143SOL     OW39061   1.293   2.909  16.389  0.8035 -0.0606  0.4698
 9143SOL    HW139062   1.371   2.952  16.425  0.3262  2.4978 -1.5625
 9143SOL    HW239063   1.267   2.879  16.476  2.3119  0.3647  1.0697
 9144SOL     OW39064   3.268   1.130   1.708 -0.0119  0.5730  0.2138
 9144SOL    HW139065   3.260   1.170   1.621  0.4548 -0.5552 -0.3420
 9144SOL    HW239066   3.208   1.190   1.753  0.3048 -0.8562  2.5510
 9145SOL     OW39067   4.543   1.705   0.781 -0.4090 -0.5097 -0.3870
 9145SOL    HW139068   4.539   1.661   0.696  1.7346 -1.9922  0.2700
 9145SOL    HW239069   4.486   1.780   0.763 -1.4189 -1.4672 -1.1536
 9146SOL     OW39070   3.987   0.737   7.964  0.1945 -0.7239  0.0465
 9146SOL    HW139071   3.975   0.689   8.046 -0.2829  0.3225  0.5870
 9146SOL    HW239072   4.050   0.675   7.928  0.7489 -1.0610  1.5812
 9147SOL     OW39073   4.292   0.013   9.175  0.5333 -0.9337 -0.4282
 9147SOL    HW139074   4.315   4.662   9.208  0.0593 -0.2996  1.5507
 9147SOL    HW239075   4.209   0.015   9.221 -0.1863 -0.2534 -1.7559
 9148SOL     OW39076   0.452   3.057   0.422 -0.1882  0.2122  0.2111
 9148SOL    HW139077   0.468   2.980   0.367 -2.2741 -0.6475  0.7733
 9148SOL    HW239078   0.538   3.058   0.463 -0.3126 -3.9139  0.5450
 9149SOL     OW39079   3.010   2.051   0.803  0.0488  0.3031 -0.0928
 9149SOL    HW139080   3.076   1.985   0.823 -3.2805 -2.5484  1.3718
 9149SOL    HW239081   3.041   2.137   0.832 -2.5844  1.6232 -1.2141
 9150SOL     OW39082   1.336   0.480   7.496  0.5031  0.1556 -0.2210
 9150SOL    HW139083   1.322   0.394   7.456 -1.0802  1.1221 -1.7576
 9150SOL    HW239084   1.252   0.524   7.483  0.4556  0.1650  0.1088
 9151SOL     OW39085   4.364   0.345  11.716 -0.3792  0.0361  0.0842
 9151SOL    HW139086   4.459   0.339  11.711 -0.4593  0.6607 -2.1475
 9151SOL    HW239087   4.371   0.362  11.810  0.3251 -1.8222  0.3577
 9152SOL     OW39088   2.023   1.702  11.395 -0.9306 -0.3189  0.1421
 9152SOL    HW139089   2.007   1.666  11.482  2.8201 -1.1519  0.5129
 9152SOL    HW239090   2.004   1.621  11.348  2.3934 -1.7348  1.2443
 9153SOL     OW39091   2.251   2.029   5.763 -0.1358  0.0961  0.6136
 9153SOL    HW139092   2.336   2.073   5.771  0.2063 -0.3663 -0.4639
 9153SOL    HW239093   2.270   1.940   5.793 -0.4310 -0.1303  0.1339
 9154SOL     OW39094   1.374   0.917   7.416 -1.0742  1.0047 -0.0763
 9154SOL    HW139095   1.426   0.985   7.372  2.1002 -1.0546  0.4568
 9154SOL    HW239096   1.381   0.840   7.360 -1.9658  1.8817 -1.3828
 9155SOL     OW39097   3.646   0.264  15.411 -0.7029 -0.9741  0.6128
 9155SOL    HW139098   3.723   0.215  15.380 -0.6207  0.5964 -1.6745
 9155SOL    HW239099   3.642   0.231  15.500 -0.9917  1.1181  1.3535
 9156SOL     OW39100   0.623   0.713   8.340  0.4984  0.6600 -0.7282
 9156SOL    HW139101   0.580   0.641   8.386  1.3416  1.1641  0.8142
 9156SOL    HW239102   0.666   0.670   8.266 -0.0358 -0.9158 -0.1115
 9157SOL     OW39103   1.853   3.446   7.956  0.4421 -0.3766  0.0768
 9157SOL    HW139104   1.929   3.491   7.919 -0.1924 -1.3241 -2.3997
 9157SOL    HW239105   1.823   3.506   8.024  1.5437  1.3356 -0.9404
 9158SOL     OW39106   1.810   0.631   8.103  0.3605  0.7270 -0.5662
 9158SOL    HW139107   1.851   0.550   8.071 -2.1609 -1.2454  1.1163
 9158SOL    HW239108   1.718   0.609   8.089  0.8956 -0.3594 -2.4135
 9159SOL     OW39109   1.278   4.005   4.088 -0.6383 -0.1784  0.2887
 9159SOL    HW139110   1.266   3.919   4.048  1.5144 -1.3871  2.2193
 9159SOL    HW239111   1.364   4.027   4.052  0.7275 -1.1978  2.9002
 9160SOL     OW39112   0.071   0.561   8.127 -0.4754  0.2756  0.3114
 9160SOL    HW139113   0.087   0.653   8.145 -0.5789  0.6385 -1.3990
 9160SOL    HW239114   0.044   0.574   8.036 -1.8887 -0.2854  0.6498
 9161SOL     OW39115   0.221   2.640   8.233  0.2791 -0.2266  0.0568
 9161SOL    HW139116   0.127   2.628   8.244  0.0740  0.7725 -0.5849
 9161SOL    HW239117   0.249   2.641   8.325  0.4343 -1.2256  0.0202
 9162SOL     OW39118   3.964   2.290   3.724  0.0592 -0.5199 -0.7374
 9162SOL    HW139119   3.998   2.214   3.677 -3.1089 -1.3384 -1.7016
 9162SOL    HW239120   3.962   2.242   3.807 -0.8190  3.4110  1.5169
 9163SOL     OW39121   4.108   1.948  17.138  0.0198 -0.4840  0.3429
 9163SOL    HW139122   4.186   1.942  17.193  0.6616  2.5642 -0.2560
 9163SOL    HW239123   4.037   1.920  17.196 -0.6031  2.3857  0.9399
 9164SOL     OW39124   2.708   3.703  16.505  0.5887 -0.4135  0.4808
 9164SOL    HW139125   2.723   3.764  16.432 -0.1345  0.8648  1.3884
 9164SOL    HW239126   2.791   3.663  16.529  0.4739 -0.2632  1.1500
 9165SOL     OW39127   3.293   3.322  17.161 -0.1346 -0.2935  0.2603
 9165SOL    HW139128   3.253   3.237  17.144 -0.2136 -0.1574 -0.2442
 9165SOL    HW239129   3.374   3.281  17.191 -0.0309 -1.4164 -1.5660
 9166SOL     OW39130   3.097   0.090   3.442  0.3902  0.1611 -0.2710
 9166SOL    HW139131   3.039   0.050   3.378  1.3049  1.6756 -2.0244
 9166SOL    HW239132   3.186   0.066   3.416  0.4125  1.6906 -1.5863
 9167SOL     OW39133   2.615   3.344   8.036 -0.3644  0.2519 -0.2167
 9167SOL    HW139134   2.560   3.415   8.067 -0.5625  0.2136 -0.4810
 9167SOL    HW239135   2.649   3.302   8.116  2.5955  1.4227 -0.8395
 9168SOL     OW39136   0.066   1.146  16.842 -1.0302 -0.1044  0.3037
 9168SOL    HW139137   0.029   1.201  16.774  2.3855  4.7819  2.3856
 9168SOL    HW239138   0.092   1.068  16.793 -0.4370  0.5628 -0.4517
 9169SOL     OW39139   1.100   0.709   7.091 -0.2723  0.6501 -0.0933
 9169SOL    HW139140   1.129   0.674   7.006 -0.5417 -0.5908  0.3327
 9169SOL    HW239141   1.055   0.788   7.058 -0.5397  0.7597  0.5334
 9170SOL     OW39142   1.777   4.735   3.745  0.2829  0.2963  0.0180
 9170SOL    HW139143   1.719   0.064   3.787 -1.0212 -0.3820 -0.7301
 9170SOL    HW239144   1.799   0.053   3.669 -0.9116  1.0649  0.1962
 9171SOL     OW39145   1.418   3.362   7.430  0.5530  0.1036  0.3683
 9171SOL    HW139146   1.410   3.267   7.431 -1.8220  0.2995 -0.7469
 9171SOL    HW239147   1.391   3.388   7.342 -0.7983  0.0042  0.7500
 9172SOL     OW39148   3.543   1.582   3.598  0.5142  0.1721  0.7190
 9172SOL    HW139149   3.501   1.620   3.521 -0.8484 -3.7291 -0.4673
 9172SOL    HW239150   3.532   1.643   3.671 -0.7820  0.0762  0.6050
 9173SOL     OW39151   4.446   1.973   0.751 -0.1848 -0.8737 -0.3297
 9173SOL    HW139152   4.430   1.997   0.843 -0.5588 -3.8136  0.3634
 9173SOL    HW239153   4.469   2.062   0.722 -0.0527 -1.7219 -2.7779
 9174SOL     OW39154   0.551   1.511   6.442  0.0091  0.2485  0.3668
 9174SOL    HW139155   0.524   1.601   6.461  1.7901  0.9979 -0.5829
 9174SOL    HW239156   0.646   1.521   6.432  0.2978 -2.2638  0.5928
 9175SOL     OW39157   1.683   1.458  10.157  0.4010 -0.0601 -0.2403
 9175SOL    HW139158   1.747   1.527  10.141 -1.8692  1.8411 -1.1149
 9175SOL    HW239159   1.603   1.510  10.149  2.0319  2.5664  0.5216
 9176SOL     OW39160   0.130   2.157   2.485  0.2203 -0.0808 -0.3280
 9176SOL    HW139161   0.118   2.252   2.476 -0.0376 -0.1819 -1.1287
 9176SOL    HW239162   0.188   2.150   2.409 -0.0269 -0.5770 -0.4741
 9177SOL     OW39163   1.389   1.339   7.651  0.4284  0.5317 -0.5304
 9177SOL    HW139164   1.375   1.434   7.649  1.7997  0.7527  0.0731
 9177SOL    HW239165   1.464   1.329   7.710  1.0175 -3.5894 -1.9866
 9178SOL     OW39166   0.652   3.500   2.105 -0.2838  0.1856 -0.2481
 9178SOL    HW139167   0.658   3.430   2.040 -1.2714 -0.4495  0.3488
 9178SOL    HW239168   0.623   3.442   2.175 -0.9112  0.0685 -0.6058
 9179SOL     OW39169   2.707   3.340   5.451 -0.3297 -0.0954 -0.3486
 9179SOL    HW139170   2.743   3.314   5.535 -0.4387 -0.7296 -0.4974
 9179SOL    HW239171   2.749   3.272   5.398  0.4043  1.1188 -1.3338
 9180SOL     OW39172   3.435   3.505   2.696  0.0744  0.3965 -0.0664
 9180SOL    HW139173   3.355   3.484   2.743  1.1029 -1.7364  0.7375
 9180SOL    HW239174   3.406   3.511   2.605 -0.5137  0.4387  0.1268
 9181SOL     OW39175   1.895   3.860   6.119  0.4836 -0.2801  0.0670
 9181SOL    HW139176   1.844   3.788   6.081  1.3628 -0.7644 -0.2181
 9181SOL    HW239177   1.982   3.818   6.119 -0.6428 -2.6170  1.9944
 9182SOL     OW39178   0.479   1.479   2.708  0.1493  0.2600  0.2731
 9182SOL    HW139179   0.471   1.551   2.770 -3.4822 -0.1591  0.2997
 9182SOL    HW239180   0.407   1.427   2.745  0.9871 -2.3732 -1.7983
 9183SOL     OW39181   2.378   3.957   8.751  0.2988 -0.5563 -0.0258
 9183SOL    HW139182   2.349   3.982   8.663 -1.7750 -0.0719  0.7909
 9183SOL    HW239183   2.469   3.946   8.724  0.8897  2.0963  0.9561
 9184SOL     OW39184   3.934   1.905   5.842  0.3712  0.0013 -0.3120
 9184SOL    HW139185   3.949   1.812   5.826  0.1582 -0.0677 -0.1091
 9184SOL    HW239186   3.879   1.908   5.921  0.3782  3.1640 -0.4187
 9185SOL     OW39187   0.371   0.375   3.985  0.0532  0.0803  0.2604
 9185SOL    HW139188   0.428   0.300   4.004  0.4157  1.1894  3.5768
 9185SOL    HW239189   0.338   0.395   4.073 -0.2747  0.7394 -0.0161
 9186SOL     OW39190   2.356   2.314   2.858 -0.0452 -0.5083  0.2526
 9186SOL    HW139191   2.385   2.324   2.768  2.0501  0.0178  0.9741
 9186SOL    HW239192   2.442   2.316   2.900  0.5316  0.3410 -0.9657
 9187SOL     OW39193   4.667   4.111   2.770 -0.0659  0.2060  0.1235
 9187SOL    HW139194   4.715   4.193   2.781  1.5420 -0.8195  0.7063
 9187SOL    HW239195   4.643   4.116   2.677 -1.3070 -0.3672  0.4097
 9188SOL     OW39196   4.732   3.191  10.683  0.3481  0.0814  0.2242
 9188SOL    HW139197   4.718   3.113  10.629  0.7470 -0.0432  0.3000
 9188SOL    HW239198   0.032   3.254  10.620 -1.4374 -0.9028 -1.7815
 9189SOL     OW39199   4.444   2.239   2.901  0.3203  0.2188  0.6847
 9189SOL    HW139200   4.355   2.266   2.877  1.0410  0.9816 -1.1456
 9189SOL    HW239201   4.415   2.155   2.937  0.0995 -0.0603 -0.1375
 9190SOL     OW39202   0.972   1.736   2.298 -0.1348  0.1874  1.1328
 9190SOL    HW139203   0.978   1.644   2.325  2.0563  0.1786  0.6230
 9190SOL    HW239204   0.887   1.737   2.255  0.9407  3.4050 -0.9168
 9191SOL     OW39205   4.089   2.462  17.253 -0.2201 -0.3698  0.0557
 9191SOL    HW139206   4.155   2.446  17.185 -0.7197 -0.4305 -0.4059
 9191SOL    HW239207   4.032   2.387  17.240 -3.1773  2.3198 -2.5268
 9192SOL     OW39208   3.067   2.365   3.888 -0.1851 -0.3204 -0.4747
 9192SOL    HW139209   2.974   2.354   3.871 -0.6068  3.5169 -0.6887
 9192SOL    HW239210   3.099   2.414   3.812 -0.3949 -1.4122 -1.2715
 9193SOL     OW39211   0.969   4.622  13.088 -0.2046 -0.0444  0.2372
 9193SOL    HW139212   0.980   4.668  13.171 -2.4647 -0.5625  0.8190
 9193SOL    HW239213   0.947   4.537  13.125  1.3084 -1.0033 -1.0409
 9194SOL     OW39214   1.341   2.157   6.155 -0.1752 -0.0087  0.7070
 9194SOL    HW139215   1.431   2.140   6.185  0.0533 -1.8129 -1.0053
 9194SOL    HW239216   1.330   2.105   6.076 -0.2845  0.4581  0.4170
 9195SOL     OW39217   0.659   4.317   1.101  0.0044  0.0566  0.4686
 9195SOL    HW139218   0.734   4.263   1.076 -0.1156 -0.8780  2.1501
 9195SOL    HW239219   0.657   4.373   1.023  0.2762 -0.6923 -0.0799
 9196SOL     OW39220   1.009   4.087   4.104 -0.6945 -0.2384 -0.2199
 9196SOL    HW139221   1.017   4.056   4.194  0.2021  0.1625 -0.1589
 9196SOL    HW239222   1.103   4.089   4.089 -0.6331 -0.4437  0.1290
 9197SOL     OW39223   0.420   3.824   2.227 -0.0857  1.1113  0.6543
 9197SOL    HW139224   0.370   3.901   2.201 -1.5097  0.2492  0.8764
 9197SOL    HW239225   0.489   3.821   2.161 -1.0754  0.3239 -0.3486
 9198SOL     OW39226   1.483   4.038   2.782  0.6960  0.3768  0.0687
 9198SOL    HW139227   1.572   4.038   2.746  0.1974  1.7229 -1.1643
 9198SOL    HW239228   1.433   3.977   2.728  0.9751 -1.1794  1.5743
 9199SOL     OW39229   3.813   3.974   7.858  0.1850  0.4974 -0.3684
 9199SOL    HW139230   3.831   4.067   7.842  1.0466  0.3671 -0.1339
 9199SOL    HW239231   3.755   3.961   7.783 -2.1519 -2.7170  1.9734
 9200SOL     OW39232   3.634   0.516   2.234  0.1239  0.0545  0.3332
 9200SOL    HW139233   3.714   0.545   2.192 -0.7523 -2.7899 -3.2862
 9200SOL    HW239234   3.592   0.471   2.161 -2.4266  1.2119  1.0855
 9201SOL     OW39235   1.625   1.055   4.682  0.1525 -0.2745  0.1691
 9201SOL    HW139236   1.569   1.060   4.760 -2.1325 -1.1147 -1.4268
 9201SOL    HW239237   1.707   1.100   4.705  1.2773 -1.9605 -0.5990
 9202SOL     OW39238   0.042   3.690   7.589 -0.2128  0.1420 -0.4611
 9202SOL    HW139239   4.700   3.718   7.540  1.1020  2.7907 -1.0259
 9202SOL    HW239240   4.726   3.650   7.659 -0.6561 -0.3064 -1.0388
 9203SOL     OW39241   1.733   3.249   5.053 -0.6113 -0.3017  0.2267
 9203SOL    HW139242   1.736   3.230   4.959  1.0349  0.9766  0.0159
 9203SOL    HW239243   1.650   3.213   5.082 -0.8364  1.1433  1.4066
 9204SOL     OW39244   2.372   0.861   3.081 -0.2672 -0.3072  0.7670
 9204SOL    HW139245   2.321   0.820   3.151 -1.7242 -0.6030 -0.4643
 9204SOL    HW239246   2.398   0.930   3.141 -2.7797 -0.6892  2.3082
 9205SOL     OW39247   1.013   3.133  12.499 -0.6381 -0.1430  0.1274
 9205SOL    HW139248   1.106   3.111  12.507 -1.2967 -2.6601  1.0872
 9205SOL    HW239249   0.978   3.048  12.526 -0.0698 -0.6986 -0.8841
 9206SOL     OW39250   3.776   0.244   6.260  0.0008  0.6952 -0.1484
 9206SOL    HW139251   3.760   0.158   6.222 -0.4829  0.2527  1.0625
 9206SOL    HW239252   3.702   0.260   6.318  0.3684 -0.8879  0.7501
 9207SOL     OW39253   2.698   2.558  17.447  0.3254  0.3726 -0.4050
 9207SOL    HW139254   2.605   2.538  17.450  0.1442  1.1009 -1.3174
 9207SOL    HW239255   2.717   2.569  17.540 -0.4607 -2.4437  0.0911
 9208SOL     OW39256   2.005   3.766   7.500 -0.2810  0.3690  0.0453
 9208SOL    HW139257   1.965   3.836   7.449  0.0768  2.0474  2.0771
 9208SOL    HW239258   2.037   3.716   7.425 -1.7662 -1.2207  0.4508
 9209SOL     OW39259   1.535   1.607   7.794  0.4738 -0.1436 -0.6941
 9209SOL    HW139260   1.514   1.649   7.711  0.9925 -1.9613 -1.7398
 9209SOL    HW239261   1.459   1.633   7.847  0.5127  0.6871 -1.0595
 9210SOL     OW39262   4.595   4.233  16.898 -0.2382 -0.2325  0.2880
 9210SOL    HW139263   4.686   4.230  16.927 -1.2460 -1.4590  3.3672
 9210SOL    HW239264   4.558   4.192  16.977  1.8233 -2.5333  0.0537
 9211SOL     OW39265   3.487   1.981  17.568  0.2778 -0.0739  0.6865
 9211SOL    HW139266   3.399   2.000  17.600  0.0112 -1.5646  0.8574
 9211SOL    HW239267   3.535   2.041  17.624  0.9183  0.6500 -0.6351
 9212SOL     OW39268   0.202   2.792   5.766  0.0782  0.0166  0.1902
 9212SOL    HW139269   0.264   2.816   5.835 -0.8224  2.0480  0.2849
 9212SOL    HW239270   0.186   2.698   5.773  0.9913 -0.0767  0.9221
 9213SOL     OW39271   2.101   1.213   1.063 -0.4350  0.3278 -0.2460
 9213SOL    HW139272   2.096   1.122   1.032 -1.2356  0.3650 -0.2100
 9213SOL    HW239273   2.068   1.204   1.152 -2.1636  0.3964 -0.8940
 9214SOL     OW39274   0.044   0.021   4.359  0.7004  0.1617  0.1679
 9214SOL    HW139275   0.026   0.102   4.407  0.3577  0.7673 -1.0090
 9214SOL    HW239276   0.056   0.046   4.268 -1.7289  2.1430  0.3868
 9215SOL     OW39277   2.785   1.263  10.719  0.4935  0.2828  0.0977
 9215SOL    HW139278   2.855   1.270  10.784 -0.1484 -0.0516  0.8391
 9215SOL    HW239279   2.712   1.278  10.780 -1.2805 -1.8073 -1.5029
 9216SOL     OW39280   4.526   3.057  15.224 -0.0523 -0.5871 -0.2273
 9216SOL    HW139281   4.469   3.051  15.148 -0.9502  0.9282  0.3316
 9216SOL    HW239282   4.514   2.970  15.263 -0.6036 -0.3387  0.1514
 9217SOL     OW39283   3.589   2.714  10.846  0.2240 -0.5056 -0.7482
 9217SOL    HW139284   3.560   2.789  10.898  0.1449 -1.8799  1.1982
 9217SOL    HW239285   3.569   2.654  10.918  0.1015  0.7541  0.2670
 9218SOL     OW39286   4.104   3.459   4.865  0.7345  0.2962 -0.2741
 9218SOL    HW139287   4.041   3.424   4.927  0.9428  1.0208  0.3517
 9218SOL    HW239288   4.045   3.510   4.809 -0.7394 -0.3088  0.7335
 9219SOL     OW39289   3.691   2.939   0.253 -0.3904  0.2970 -0.1727
 9219SOL    HW139290   3.627   2.997   0.294 -1.3712 -1.8159  1.2764
 9219SOL    HW239291   3.762   2.939   0.317 -0.1279 -0.7216 -0.4629
 9220SOL     OW39292   3.119   1.211   2.368  0.6596  0.1168  0.1241
 9220SOL    HW139293   3.167   1.279   2.415  1.3692  0.3654 -0.9653
 9220SOL    HW239294   3.191   1.194   2.308  0.6411  2.3742 -0.5628
 9221SOL     OW39295   4.009   2.559   4.151 -0.0933 -0.5200 -0.0307
 9221SOL    HW139296   3.977   2.497   4.216 -2.0217 -0.0431 -0.4991
 9221SOL    HW239297   3.938   2.552   4.087 -0.7746  1.9340  0.4392
 9222SOL     OW39298   1.552   1.357   3.773 -0.0079  0.0854  0.2473
 9222SOL    HW139299   1.644   1.385   3.769  0.0181  0.1826  1.5230
 9222SOL    HW239300   1.543   1.309   3.691  1.6966  0.5883 -0.2425
 9223SOL     OW39301   3.377   1.077  17.390 -0.3128  0.1209 -0.2160
 9223SOL    HW139302   3.404   1.085  17.299  2.8774 -2.0744  0.4826
 9223SOL    HW239303   3.341   1.164  17.403  1.4295  0.7692  0.3954
 9224SOL     OW39304   3.349   0.818   9.063 -0.1472  0.5555 -0.1018
 9224SOL    HW139305   3.257   0.803   9.038  1.0368 -1.2492 -3.4321
 9224SOL    HW239306   3.377   0.731   9.091 -0.2623  0.4168 -0.4071
 9225SOL     OW39307   1.046   2.150  14.578  0.1914  0.4074 -0.1560
 9225SOL    HW139308   1.046   2.074  14.519  0.3290  1.0508 -0.9775
 9225SOL    HW239309   1.072   2.116  14.663  0.2626  1.3113  0.1848
 9226SOL     OW39310   2.447   1.895  12.771 -0.3273  0.4322 -0.2772
 9226SOL    HW139311   2.426   1.847  12.691 -0.6164  0.2160 -0.0696
 9226SOL    HW239312   2.480   1.978  12.735  1.1823 -0.6782 -1.4467
 9227SOL     OW39313   0.608   4.543  14.331  0.2623  0.0046  0.4378
 9227SOL    HW139314   0.617   4.508  14.242 -1.1177  1.6152 -0.3122
 9227SOL    HW239315   0.638   4.633  14.318 -0.9973  0.1147 -1.6325
 9228SOL     OW39316   2.997   2.824   7.838  0.8176 -0.6879 -0.7211
 9228SOL    HW139317   2.908   2.841   7.869  1.3126  0.7158 -0.0650
 9228SOL    HW239318   3.029   2.781   7.917 -3.4372  1.5253  2.2088
 9229SOL     OW39319   3.310   3.960   3.136 -0.7939  0.2501  0.4586
 9229SOL    HW139320   3.402   3.941   3.120 -0.3177  3.1304 -0.1350
 9229SOL    HW239321   3.274   3.880   3.175  0.9411 -1.1614 -0.8366
 9230SOL     OW39322   2.619   1.637  11.747 -0.1397  0.1501  0.0629
 9230SOL    HW139323   2.682   1.703  11.717  0.5536 -0.9797 -0.9819
 9230SOL    HW239324   2.598   1.692  11.822 -1.1002  0.4881 -0.4540
 9231SOL     OW39325   1.189   0.324   8.559  0.2923 -0.2440  0.3688
 9231SOL    HW139326   1.154   0.297   8.474  1.2737  1.5941 -0.6284
 9231SOL    HW239327   1.113   0.303   8.613 -1.3036  1.3875 -1.2443
 9232SOL     OW39328   1.967   2.920   3.147 -0.1842  0.2708 -0.1163
 9232SOL    HW139329   1.924   3.005   3.152  0.5173  0.6683 -1.0258
 9232SOL    HW239330   2.057   2.943   3.124  0.0294 -1.1751 -0.7165
 9233SOL     OW39331   3.359   1.019  13.894 -0.0252 -0.0787  0.6375
 9233SOL    HW139332   3.308   0.944  13.863  2.5043 -1.7716  0.5835
 9233SOL    HW239333   3.402   0.986  13.974  0.1081  0.5838  0.8372
 9234SOL     OW39334   2.612   3.735   7.493  0.4950 -0.2395 -0.0894
 9234SOL    HW139335   2.691   3.681   7.498 -0.5575 -1.6870  0.9076
 9234SOL    HW239336   2.560   3.690   7.559 -2.5130  0.8871 -1.6885
 9235SOL     OW39337   1.973   4.188   2.582 -1.2993 -0.2259  0.0175
 9235SOL    HW139338   1.960   4.268   2.533  3.9128  0.7679  0.2312
 9235SOL    HW239339   1.893   4.141   2.559  0.2003 -2.5860 -0.4342
 9236SOL     OW39340   1.917   4.465   7.925  0.4778  0.4896  0.0022
 9236SOL    HW139341   1.883   4.452   8.013  2.4933  0.6230  0.8017
 9236SOL    HW239342   2.009   4.482   7.942  0.4092 -0.0155  0.8591
 9237SOL     OW39343   3.525   1.996   0.804  0.1654 -0.2579 -0.2899
 9237SOL    HW139344   3.515   1.920   0.748  0.0518  0.1187 -0.7819
 9237SOL    HW239345   3.589   2.050   0.758  2.0378 -3.2569 -1.1628
 9238SOL     OW39346   4.025   1.365   8.878 -0.5519  0.1480  0.2014
 9238SOL    HW139347   4.042   1.309   8.954 -0.2014  0.4551  0.3504
 9238SOL    HW239348   4.099   1.425   8.891 -1.6774  1.5648  0.1281
 9239SOL     OW39349   1.282   4.386   4.708  0.2267  0.3879  0.0867
 9239SOL    HW139350   1.358   4.430   4.670  1.7586 -0.9679  1.5758
 9239SOL    HW239351   1.240   4.365   4.624 -2.5974 -1.5528  1.9716
 9240SOL     OW39352   0.857   3.089   8.594  0.1078 -0.2750  0.4373
 9240SOL    HW139353   0.896   3.173   8.619  2.1214 -0.4749 -1.9906
 9240SOL    HW239354   0.925   3.030   8.563 -1.3239 -1.9316  0.4421
 9241SOL     OW39355   4.647   1.537  15.147  0.1322  0.2433 -0.1901
 9241SOL    HW139356   4.577   1.528  15.083  1.0609 -2.8193 -0.7923
 9241SOL    HW239357   4.628   1.617  15.196  0.2513  0.2481 -0.1518
 9242SOL     OW39358   3.947   4.179  11.792 -0.5022 -0.0072  0.5941
 9242SOL    HW139359   3.918   4.192  11.882 -2.0875 -0.2277  0.1265
 9242SOL    HW239360   3.967   4.268  11.763  1.9972 -1.2697 -1.5907
 9243SOL     OW39361   2.065   2.622   4.381  0.5507 -0.1680 -0.0619
 9243SOL    HW139362   2.045   2.637   4.474 -2.0098  0.5178 -0.7271
 9243SOL    HW239363   2.159   2.640   4.384  0.2014  1.8311 -1.0054
 9244SOL     OW39364   3.854   3.939  12.563 -0.0815  0.2238 -0.0275
 9244SOL    HW139365   3.854   3.886  12.484 -2.4352 -0.4261  0.4178
 9244SOL    HW239366   3.828   3.877  12.631  0.6017  3.2847  3.0473
 9245SOL     OW39367   4.197   3.226   5.632 -0.3610 -0.0776  0.1468
 9245SOL    HW139368   4.208   3.138   5.597 -0.6056  0.5200 -1.4351
 9245SOL    HW239369   4.289   3.245   5.652 -0.5323  1.1486 -0.2319
 9246SOL     OW39370   2.200   3.782   7.014  0.4284 -0.2361  0.0887
 9246SOL    HW139371   2.281   3.830   7.033  0.7107 -1.2990  1.6296
 9246SOL    HW239372   2.133   3.815   7.074  0.1140  2.2442 -1.6647
 9247SOL     OW39373   1.598   0.489  15.580  0.4590  0.5924  0.2816
 9247SOL    HW139374   1.567   0.550  15.648  5.0848  3.3726 -0.1720
 9247SOL    HW239375   1.677   0.534  15.552  1.7529  0.3049  3.4727
 9248SOL     OW39376   2.574   2.828   3.505  0.0528  0.5466  0.4159
 9248SOL    HW139377   2.637   2.847   3.435 -0.8822 -2.6090 -1.2785
 9248SOL    HW239378   2.551   2.917   3.531  1.5956  0.7992  0.9302
 9249SOL     OW39379   4.705   0.270   2.921 -0.3906  0.6744  0.1494
 9249SOL    HW139380   4.634   0.271   2.857 -1.5862 -2.5351  1.3972
 9249SOL    HW239381   4.651   0.269   3.000  0.0872  2.3337  0.4917
 9250SOL     OW39382   3.970   0.268   7.278 -0.2850  0.1675 -0.2938
 9250SOL    HW139383   3.900   0.328   7.302  1.2564  1.1725  1.6487
 9250SOL    HW239384   3.991   0.291   7.187  0.4102  0.9552  0.0596
 9251SOL     OW39385   2.427   3.435   9.393 -0.7932 -0.0441 -0.1865
 9251SOL    HW139386   2.523   3.436   9.389 -0.7841 -0.5933 -0.1690
 9251SOL    HW239387   2.405   3.343   9.377  4.6262 -1.2489 -0.6591
 9252SOL     OW39388   1.034   4.714   9.612  0.0373  0.2073 -0.1629
 9252SOL    HW139389   1.092   0.017   9.547  1.1277 -1.2477 -0.0433
 9252SOL    HW239390   0.991   0.055   9.650  0.6208  1.5978 -2.3221
 9253SOL     OW39391   1.231   2.583   9.837 -0.4481 -0.6717  0.2212
 9253SOL    HW139392   1.151   2.570   9.889  0.4506  1.0647  2.0781
 9253SOL    HW239393   1.279   2.636   9.901 -1.1964 -0.0739  0.3005
 9254SOL     OW39394   1.053   2.018   5.145  0.1732  0.6294  0.1855
 9254SOL    HW139395   1.001   2.087   5.186 -1.4414 -0.2049 -0.4478
 9254SOL    HW239396   1.102   1.990   5.222 -2.1834 -2.4206  0.6085
 9255SOL     OW39397   1.274   1.375  16.089 -0.3844 -1.1719 -0.0175
 9255SOL    HW139398   1.274   1.297  16.145 -0.2128  0.5234  2.3241
 9255SOL    HW239399   1.300   1.443  16.151  1.5957 -1.7220 -0.2276
 9256SOL     OW39400   3.061   1.255   8.552  0.0287 -0.0643 -0.2609
 9256SOL    HW139401   3.051   1.325   8.617  1.7708  1.1285 -1.2736
 9256SOL    HW239402   2.992   1.194   8.576  0.5882 -0.7946 -0.5343
 9257SOL     OW39403   2.514   0.451  17.311  0.0355 -0.1872  0.0638
 9257SOL    HW139404   2.454   0.414  17.246 -0.6150 -0.3462  0.7628
 9257SOL    HW239405   2.503   0.543  17.287  3.3735 -0.9719 -4.3966
 9258SOL     OW39406   0.440   0.378   3.526 -0.3095  0.1169 -0.4300
 9258SOL    HW139407   0.462   0.471   3.538  2.9822 -0.6289 -0.7813
 9258SOL    HW239408   0.499   0.343   3.592  0.0179 -3.2144 -2.5157
 9259SOL     OW39409   4.073   2.943   1.173 -0.0060 -0.1224  0.3059
 9259SOL    HW139410   3.988   2.967   1.137 -0.4453 -1.1168  0.6764
 9259SOL    HW239411   4.055   2.855   1.207 -2.5950 -0.6112 -2.3178
 9260SOL     OW39412   0.377   1.882   3.277  0.0840 -0.0941 -0.4018
 9260SOL    HW139413   0.346   1.928   3.355  0.7383 -0.2532 -0.0542
 9260SOL    HW239414   0.469   1.884   3.301  0.1048 -0.1461 -0.4772
 9261SOL     OW39415   2.902   2.078   8.324  0.3388  0.2038  0.0764
 9261SOL    HW139416   2.956   2.079   8.403  2.0753  0.9905 -1.1254
 9261SOL    HW239417   2.954   2.115   8.254  0.6115 -0.9752 -0.3533
 9262SOL     OW39418   4.403   3.050   3.766  0.2113  0.2403 -0.1154
 9262SOL    HW139419   4.373   2.966   3.732  3.4421 -0.1473 -1.9867
 9262SOL    HW239420   4.473   3.012   3.819 -0.1763 -2.3017 -1.4094
 9263SOL     OW39421   2.990   0.325   8.612 -0.0304 -0.2268  0.5461
 9263SOL    HW139422   3.030   0.407   8.643  2.8423 -1.4641  0.1840
 9263SOL    HW239423   3.065   0.264   8.611  0.3138  0.1895  0.7991
 9264SOL     OW39424   1.406   3.035   0.684  0.0314  0.0096  0.4302
 9264SOL    HW139425   1.451   3.113   0.717 -0.9134 -0.3613  2.5657
 9264SOL    HW239426   1.466   3.018   0.611 -1.6087  1.5423 -1.2590
 9265SOL     OW39427   1.176   4.320   4.466 -0.0898  0.1136 -0.7743
 9265SOL    HW139428   1.240   4.269   4.416  1.6575  2.2948 -0.7402
 9265SOL    HW239429   1.125   4.247   4.500 -0.6063  1.0157  0.3850
 9266SOL     OW39430   0.471   1.136   2.271 -0.3859  0.5199  0.3461
 9266SOL    HW139431   0.434   1.048   2.278 -0.1938  0.4510  0.5097
 9266SOL    HW239432   0.441   1.168   2.357 -0.2061 -1.1656  1.0358
 9267SOL     OW39433   2.257   2.000   4.628 -0.4506 -0.2577  0.3872
 9267SOL    HW139434   2.350   1.999   4.605 -1.2288  2.0241 -2.8161
 9267SOL    HW239435   2.245   1.907   4.649 -0.1353 -0.2494  0.6112
 9268SOL     OW39436   4.253   4.660   4.629 -0.0184  0.0798  0.2061
 9268SOL    HW139437   4.250   4.565   4.617 -0.2304  0.1354 -0.1644
 9268SOL    HW239438   4.348   4.671   4.621  0.1537 -1.2650  0.4087
 9269SOL     OW39439   4.433   2.947   8.122  0.5735  0.0087 -0.3412
 9269SOL    HW139440   4.426   2.906   8.036  0.2908 -0.8892  0.1090
 9269SOL    HW239441   4.354   3.001   8.125 -0.1040 -0.9818 -0.5226
 9270SOL     OW39442   3.890   4.435   3.943 -0.5575  0.1978  0.1618
 9270SOL    HW139443   3.795   4.452   3.939 -0.3847  1.8095  2.3972
 9270SOL    HW239444   3.923   4.489   3.872 -1.5119  2.0086  1.0842
 9271SOL     OW39445   2.174   4.346  13.078 -0.6697  0.0317 -0.3094
 9271SOL    HW139446   2.183   4.322  13.170  0.1724  0.0870 -0.3715
 9271SOL    HW239447   2.256   4.395  13.064  0.1629 -0.8349  1.5759
 9272SOL     OW39448   3.074   2.070   4.529  0.2717  0.7745  0.0774
 9272SOL    HW139449   3.087   1.976   4.541 -0.1722  0.7664  0.4907
 9272SOL    HW239450   3.138   2.111   4.587  0.2883  0.5389  0.2285
 9273SOL     OW39451   0.527   4.173  16.545 -0.3212 -0.2113 -0.0630
 9273SOL    HW139452   0.569   4.097  16.584  2.6072  1.8643  0.8735
 9273SOL    HW239453   0.593   4.177  16.475 -2.6538  0.4218 -2.2177
 9274SOL     OW39454   2.190   3.669   7.930 -0.1649 -0.3110 -0.1293
 9274SOL    HW139455   2.198   3.764   7.940 -0.6730 -0.4070  1.2033
 9274SOL    HW239456   2.111   3.671   7.877 -0.4328  0.0826  0.2902
 9275SOL     OW39457   0.442   3.602   8.613  0.1116  0.4059  0.4545
 9275SOL    HW139458   0.509   3.625   8.548 -1.5485  0.2955 -1.2879
 9275SOL    HW239459   0.371   3.576   8.555  1.9598  2.3765 -2.7065
 9276SOL     OW39460   2.853   2.730  13.703  0.2765 -0.0218 -0.1994
 9276SOL    HW139461   2.857   2.823  13.680  0.4499 -0.6083 -2.5226
 9276SOL    HW239462   2.818   2.720  13.792 -1.4924  1.0576 -0.7684
 9277SOL     OW39463   2.308   2.403   4.658  0.5479  0.2641 -0.0462
 9277SOL    HW139464   2.395   2.376   4.688  0.1561 -0.9217 -0.0066
 9277SOL    HW239465   2.324   2.497   4.649  2.0238  0.0650  0.5469
 9278SOL     OW39466   0.551   3.013  10.012  0.1644 -0.2950 -0.0926
 9278SOL    HW139467   0.568   3.057   9.928  2.4647  1.7247  1.4518
 9278SOL    HW239468   0.556   3.087  10.072 -1.2568  1.4942 -2.1874
 9279SOL     OW39469   2.805   1.921   3.862 -0.1234  0.3726 -0.1628
 9279SOL    HW139470   2.898   1.917   3.843 -0.1674  2.0932 -0.6474
 9279SOL    HW239471   2.794   2.009   3.899 -0.3512  0.4694 -0.4641
 9280SOL     OW39472   2.458   3.678   5.577 -0.1375 -0.5350 -0.5528
 9280SOL    HW139473   2.374   3.631   5.575 -1.5456  1.9435  0.3896
 9280SOL    HW239474   2.426   3.768   5.568  1.6169 -0.0768 -2.1984
 9281SOL     OW39475   2.922   1.925  11.499  0.3713 -0.5668  0.0160
 9281SOL    HW139476   2.963   1.902  11.416  0.9625  0.4123  0.0379
 9281SOL    HW239477   2.949   2.016  11.510 -1.0574 -0.0448 -0.6525
 9282SOL     OW39478   3.017   3.322   0.771 -1.0267  0.0375  0.7149
 9282SOL    HW139479   2.923   3.343   0.768 -1.1126 -0.6352 -2.0053
 9282SOL    HW239480   3.011   3.255   0.702  0.8611  0.1454  0.4668
 9283SOL     OW39481   2.930   0.035   4.440 -0.5464 -0.2574  0.0516
 9283SOL    HW139482   3.005   4.717   4.413  1.0500  0.6708  2.6671
 9283SOL    HW239483   2.860   4.728   4.391 -1.4830  0.3562  0.8690
 9284SOL     OW39484   3.600   1.816  15.437  0.5545  1.0433 -0.2995
 9284SOL    HW139485   3.590   1.901  15.395 -0.5798 -0.0058 -2.1723
 9284SOL    HW239486   3.511   1.784  15.452 -0.0091  2.3581 -0.8584
 9285SOL     OW39487   3.187   3.600  11.951  0.1125 -0.3533 -0.0533
 9285SOL    HW139488   3.188   3.688  11.990  1.7195 -0.9407  1.1847
 9285SOL    HW239489   3.250   3.550  12.002 -1.4179 -0.9340  1.2678
 9286SOL     OW39490   1.315   2.308  13.439  0.0242 -0.1202 -0.3881
 9286SOL    HW139491   1.304   2.295  13.345  0.9294  0.0652 -0.5195
 9286SOL    HW239492   1.384   2.248  13.467  0.3072  0.3836 -0.0096
 9287SOL     OW39493   1.474   0.167   6.196 -0.0166  0.0626  0.4281
 9287SOL    HW139494   1.401   0.114   6.226 -1.1686  2.2464  1.4564
 9287SOL    HW239495   1.549   0.112   6.220 -0.8556 -1.3681 -0.2084
 9288SOL     OW39496   4.702   1.551   3.724 -0.1100  0.2408  0.8557
 9288SOL    HW139497   4.707   1.610   3.649  1.3966  0.5402  1.1908
 9288SOL    HW239498   4.663   1.473   3.684 -0.5014  0.8969 -0.0364
 9289SOL     OW39499   3.018   1.848   4.753  0.5447  0.1458  0.3439
 9289SOL    HW139500   2.943   1.899   4.723  1.5318  1.5055  0.1972
 9289SOL    HW239501   2.974   1.775   4.796 -1.9316  1.3378 -0.1830
 9290SOL     OW39502   3.072   1.981  11.719  0.2030  0.2490 -0.8665
 9290SOL    HW139503   3.051   1.932  11.799 -3.1463  0.5545 -1.5391
 9290SOL    HW239504   3.009   1.940  11.660 -0.6834 -0.0837  0.2971
 9291SOL     OW39505   0.374   0.182   5.202  0.6443  0.1939  0.2942
 9291SOL    HW139506   0.317   0.208   5.274 -0.3147  0.0794 -0.4095
 9291SOL    HW239507   0.348   0.246   5.135 -0.0701 -0.4258 -0.0258
 9292SOL     OW39508   1.685   4.463   3.306 -0.4083 -0.7026 -0.2110
 9292SOL    HW139509   1.657   4.374   3.324 -0.9105 -0.2342  1.3439
 9292SOL    HW239510   1.726   4.483   3.390  0.4522  1.1347 -1.0746
 9293SOL     OW39511   0.963   1.004   5.188 -0.0260 -0.0046  0.0766
 9293SOL    HW139512   1.010   1.006   5.272  0.4081  0.9736 -0.1887
 9293SOL    HW239513   0.891   1.056   5.224 -0.3323 -1.5749  1.6970
 9294SOL     OW39514   1.960   4.467   9.202 -0.4782 -0.2372  0.0383
 9294SOL    HW139515   1.995   4.396   9.256  1.0415 -1.1745 -2.1950
 9294SOL    HW239516   2.045   4.507   9.185 -0.2422 -0.1566  1.4253
 9295SOL     OW39517   0.640   3.950  11.144 -0.7717 -0.1496  0.2812
 9295SOL    HW139518   0.572   3.883  11.145 -1.8831  1.0314  3.1362
 9295SOL    HW239519   0.628   3.986  11.056 -2.1362  0.0921  0.5780
 9296SOL     OW39520   4.683   1.519   0.948 -0.2903 -0.1119 -0.7644
 9296SOL    HW139521   0.037   1.553   0.946  0.3489 -1.7557 -0.4653
 9296SOL    HW239522   4.634   1.562   0.878  1.3419  2.2728 -0.4530
 9297SOL     OW39523   1.088   2.642   9.586  0.0039  0.3502 -0.2572
 9297SOL    HW139524   1.173   2.634   9.629 -1.1717 -0.2815  1.8952
 9297SOL    HW239525   1.061   2.726   9.623  1.1637  0.4148  0.4493
 9298SOL     OW39526   1.301   2.980   8.511 -0.1612  0.1095  0.0439
 9298SOL    HW139527   1.378   3.037   8.502 -0.4034  0.3080 -0.7826
 9298SOL    HW239528   1.342   2.894   8.502  2.5868  1.3622  0.5346
 9299SOL     OW39529   2.925   4.697  10.428  0.4674 -0.1297 -0.0632
 9299SOL    HW139530   3.002   0.019  10.417 -0.7971  1.7341  0.8725
 9299SOL    HW239531   2.960   4.625  10.480 -0.3577 -0.1162  0.4944
 9300SOL     OW39532   0.981   2.848   2.626  0.1811 -0.3544 -0.1266
 9300SOL    HW139533   0.947   2.861   2.537 -0.6468  0.0624  0.2470
 9300SOL    HW239534   0.960   2.757   2.643 -1.0454  0.5246  3.0608
 9301SOL     OW39535   2.131   3.810   9.826  0.2915 -0.1512 -0.1716
 9301SOL    HW139536   2.212   3.767   9.799  0.2721 -0.6394  0.5296
 9301SOL    HW239537   2.153   3.902   9.813  0.6916 -0.3004 -0.5543
 9302SOL     OW39538   3.524   1.428   7.697  0.2406 -0.0488  0.3357
 9302SOL    HW139539   3.467   1.450   7.771  1.2790  0.9877  0.8279
 9302SOL    HW239540   3.588   1.370   7.737 -1.2836 -0.8669  1.5972
 9303SOL     OW39541   4.349   1.591   6.752  0.1518 -0.3901 -0.3599
 9303SOL    HW139542   4.301   1.674   6.746 -0.2565 -0.5679  0.5408
 9303SOL    HW239543   4.399   1.600   6.833  2.7535  0.9748 -2.0885
 9304SOL     OW39544   1.241   3.780   5.546 -0.5223  0.4354  0.2069
 9304SOL    HW139545   1.195   3.713   5.496  1.2663  0.7001 -1.8079
 9304SOL    HW239546   1.223   3.853   5.486 -0.2335  0.2523 -0.1020
 9305SOL     OW39547   4.611   2.638   7.222  0.3214  0.4335  0.0531
 9305SOL    HW139548   4.537   2.596   7.176 -0.0828 -0.4334  1.4872
 9305SOL    HW239549   4.670   2.563   7.214  1.0699  1.0920 -0.5633
 9306SOL     OW39550   3.439   0.053  17.118  0.5842  0.2434  0.5835
 9306SOL    HW139551   3.460   0.030  17.027  1.3445  1.7890  0.3764
 9306SOL    HW239552   3.523   0.018  17.148  0.5733 -1.0240 -0.8292
 9307SOL     OW39553   0.172   3.864   0.462  0.1781  0.3699 -0.6269
 9307SOL    HW139554   0.220   3.888   0.541 -2.4562  1.8591  0.5363
 9307SOL    HW239555   0.081   3.864   0.492  0.8864 -0.1304  1.5809
 9308SOL     OW39556   4.367   0.098   6.827  0.3405 -0.0102 -0.2597
 9308SOL    HW139557   4.352   0.029   6.761  0.1527 -0.2983  0.0845
 9308SOL    HW239558   4.460   0.082   6.839  0.5268  1.8424  0.6856
 9309SOL     OW39559   4.294   1.786   6.137  0.3063  0.1025  0.4742
 9309SOL    HW139560   4.250   1.838   6.069  0.6285  0.2276  0.3563
 9309SOL    HW239561   4.342   1.729   6.076 -0.0936 -0.3611  0.5988
 9310SOL     OW39562   4.463   4.731  17.207 -0.4869  0.5297 -0.1819
 9310SOL    HW139563   4.395   4.664  17.212 -0.6576  1.0117  3.9315
 9310SOL    HW239564   4.537   4.682  17.173 -0.2836  0.1867  0.7674
 9311SOL     OW39565   0.770   3.384   3.404 -0.0579  0.3569 -0.1627
 9311SOL    HW139566   0.696   3.324   3.411 -1.1512  1.5047 -2.2118
 9311SOL    HW239567   0.835   3.326   3.444  0.4709 -0.5072 -2.3209
 9312SOL     OW39568   1.582   1.069   9.158 -0.4686  0.4848 -0.1626
 9312SOL    HW139569   1.632   1.010   9.101  0.6141  0.8750  0.3901
 9312SOL    HW239570   1.609   1.159   9.142 -2.0150  0.6036 -2.0753
 9313SOL     OW39571   2.841   3.460   2.238  0.3605  0.5674  0.3417
 9313SOL    HW139572   2.879   3.445   2.151  1.5362 -0.0015  0.9536
 9313SOL    HW239573   2.749   3.451   2.213  0.1911  1.4311  0.6521
 9314SOL     OW39574   3.404   0.489  10.660 -0.1048  0.1564  0.3158
 9314SOL    HW139575   3.391   0.547  10.734 -0.3140 -1.0736  1.2297
 9314SOL    HW239576   3.498   0.469  10.657  0.1942  1.5623  0.0874
 9315SOL     OW39577   0.839   4.195  12.074 -0.3117 -0.2526  0.0872
 9315SOL    HW139578   0.832   4.129  12.143  0.7485  1.3844  1.7620
 9315SOL    HW239579   0.783   4.268  12.101  1.0270  1.4545 -1.6587
 9316SOL     OW39580   4.153   1.517   7.491  0.1328  0.8080 -0.7973
 9316SOL    HW139581   4.125   1.484   7.576  2.6078 -1.7484 -0.9959
 9316SOL    HW239582   4.238   1.538   7.530  0.6826 -0.4058 -1.3578
 9317SOL     OW39583   3.610   2.535  13.461 -0.2209 -0.1834 -0.2838
 9317SOL    HW139584   3.700   2.566  13.463 -0.3753  0.0557  3.3510
 9317SOL    HW239585   3.603   2.477  13.537 -0.3215 -0.5898 -0.5998
 9318SOL     OW39586   0.656   3.715  10.918  0.0733 -0.3047  0.0336
 9318SOL    HW139587   0.608   3.707  11.000 -1.6677 -0.8733 -1.0619
 9318SOL    HW239588   0.741   3.680  10.947  2.0853  1.6795 -3.5084
 9319SOL     OW39589   3.896   1.681   5.208  0.2013 -0.1722 -0.0483
 9319SOL    HW139590   3.943   1.748   5.159 -0.3559 -0.2336 -0.6753
 9319SOL    HW239591   3.888   1.729   5.290 -0.5154 -0.7930  0.2514
 9320SOL     OW39592   3.268   3.343  16.200 -0.9603 -0.3449 -0.1357
 9320SOL    HW139593   3.308   3.314  16.119 -0.0924  0.5538 -0.0251
 9320SOL    HW239594   3.354   3.360  16.239 -2.0561  0.2516  2.0240
 9321SOL     OW39595   3.316   3.163   5.156  0.6286  0.2693 -0.5121
 9321SOL    HW139596   3.410   3.173   5.173  0.0219  2.5269  1.5258
 9321SOL    HW239597   3.306   3.192   5.066  0.3196  1.4258 -0.1077
 9322SOL     OW39598   2.386   2.209   7.601  0.1265 -0.4398 -0.0496
 9322SOL    HW139599   2.331   2.250   7.667 -0.4018  0.9458 -1.3552
 9322SOL    HW239600   2.332   2.196   7.523  0.5580 -2.5809  0.0019
 9323SOL     OW39601   0.613   4.234   8.230  0.6471  0.2970  0.3129
 9323SOL    HW139602   0.680   4.190   8.282  0.7699 -0.2764 -0.3214
 9323SOL    HW239603   0.528   4.211   8.268  0.2938  1.4849  0.2583
 9324SOL     OW39604   3.654   0.421   3.463 -0.0916  0.5166  0.0249
 9324SOL    HW139605   3.572   0.386   3.431  1.1665 -0.8065 -1.7311
 9324SOL    HW239606   3.624   0.480   3.532  0.5923 -0.3397  1.0582
 9325SOL     OW39607   1.203   2.736   7.370  0.2358  0.2047  0.1713
 9325SOL    HW139608   1.216   2.830   7.363  0.0776  0.2599  0.6125
 9325SOL    HW239609   1.215   2.715   7.277  0.4311  0.9788  0.0213
 9326SOL     OW39610   4.467   0.612   7.973  0.0083 -0.0203  0.1241
 9326SOL    HW139611   4.493   0.643   8.060  1.0836 -0.7796  0.0765
 9326SOL    HW239612   4.429   0.696   7.945 -0.3623 -0.0197  0.6285
 9327SOL     OW39613   0.877   3.764   5.597  0.1817  0.1826  0.0048
 9327SOL    HW139614   0.868   3.859   5.589  1.5214  0.1888 -1.4167
 9327SOL    HW239615   0.969   3.750   5.575  0.0781 -0.0577 -0.2929
 9328SOL     OW39616   0.796   3.479   7.460  0.5339 -0.1541  0.5751
 9328SOL    HW139617   0.739   3.513   7.529 -0.8522 -0.8977 -0.2110
 9328SOL    HW239618   0.760   3.391   7.457  0.1713  0.0194 -0.1293
 9329SOL     OW39619   0.111   1.954   4.142  0.3956 -0.5761 -0.1256
 9329SOL    HW139620   0.085   1.921   4.227 -0.2941 -0.7114 -0.3855
 9329SOL    HW239621   0.078   2.042   4.160  1.4333 -0.4532  1.1816
 9330SOL     OW39622   2.487   2.014   3.575 -0.2934 -0.0403 -0.0576
 9330SOL    HW139623   2.434   1.956   3.521  2.5263 -0.6740 -2.1653
 9330SOL    HW239624   2.509   1.959   3.650  1.8057 -1.5101 -1.7497
 9331SOL     OW39625   1.010   4.289   5.030  0.1561  0.0222 -1.0608
 9331SOL    HW139626   1.093   4.329   5.005 -0.5518  1.0957 -1.6913
 9331SOL    HW239627   0.946   4.348   4.988 -0.8358  0.7442  1.4621
 9332SOL     OW39628   3.156   1.205   5.959 -0.2112  0.6304  0.9149
 9332SOL    HW139629   3.063   1.220   5.945 -0.0776  0.4208 -0.2206
 9332SOL    HW239630   3.149   1.110   5.972 -0.3593  0.3718 -1.0535
 9333SOL     OW39631   0.022   2.553   8.615 -0.2445  0.5767 -0.6561
 9333SOL    HW139632   4.718   2.639   8.600 -0.5591  0.3977 -0.8753
 9333SOL    HW239633   0.104   2.559   8.567 -0.2426 -1.1312 -0.8642
 9334SOL     OW39634   3.185   0.599  14.753  0.0505 -0.6495 -0.4438
 9334SOL    HW139635   3.252   0.580  14.818 -2.4044 -0.0095  2.2805
 9334SOL    HW239636   3.114   0.628  14.811  0.1571 -1.2379 -0.0251
 9335SOL     OW39637   3.027   1.149   6.624  0.0513 -0.4735 -0.0506
 9335SOL    HW139638   2.976   1.068   6.631 -0.9672  0.2867  1.4140
 9335SOL    HW239639   3.110   1.103   6.615  0.7052  0.5766  0.5800
 9336SOL     OW39640   0.992   1.597   1.291 -0.0965 -0.3640 -0.2365
 9336SOL    HW139641   1.034   1.540   1.226 -1.0748 -0.6044 -0.6521
 9336SOL    HW239642   1.061   1.643   1.339  0.1522 -0.1879 -0.7591
 9337SOL     OW39643   1.778   1.959  11.554  0.6632  0.0256 -0.6696
 9337SOL    HW139644   1.838   2.018  11.599  1.2005 -0.0159 -1.3493
 9337SOL    HW239645   1.720   1.931  11.626 -0.8996  0.8922 -1.5913
 9338SOL     OW39646   1.347   3.677   7.109  0.2647 -0.1173  0.2081
 9338SOL    HW139647   1.436   3.706   7.132  0.6879 -0.9245 -0.4075
 9338SOL    HW239648   1.293   3.755   7.119  2.6929  1.3842  1.7354
 9339SOL     OW39649   3.078   3.587   2.545  0.3714  0.1432  0.3968
 9339SOL    HW139650   3.004   3.535   2.515 -1.3478  2.7097  0.2628
 9339SOL    HW239651   3.109   3.530   2.615  0.5676 -0.0308  0.1669
 9340SOL     OW39652   1.585   2.085   7.379  0.4240 -0.1666  0.1416
 9340SOL    HW139653   1.532   2.053   7.452  1.3767  0.4453  1.0945
 9340SOL    HW239654   1.651   2.136   7.426  0.2951  0.9170 -0.8291
 9341SOL     OW39655   1.479   3.631   0.828  0.3811  0.0905  0.0314
 9341SOL    HW139656   1.400   3.577   0.836  0.9577 -0.7478  0.0871
 9341SOL    HW239657   1.547   3.572   0.861 -0.9518 -1.4094  0.1145
 9342SOL     OW39658   1.627   0.708   3.207 -0.4014  0.4239  0.1066
 9342SOL    HW139659   1.552   0.745   3.254  0.3063 -0.0633  1.6115
 9342SOL    HW239660   1.675   0.659   3.274 -1.0006 -2.0136 -1.2321
 9343SOL     OW39661   2.154   4.022  15.447 -0.5001 -0.1171  0.0901
 9343SOL    HW139662   2.072   4.068  15.429 -1.2102 -1.1159  0.7610
 9343SOL    HW239663   2.134   3.978  15.530  0.3522  1.8908  1.3398
 9344SOL     OW39664   2.156   0.797   1.791  0.3629  0.2120 -0.2771
 9344SOL    HW139665   2.151   0.702   1.792 -2.7338  0.3455 -3.4165
 9344SOL    HW239666   2.231   0.820   1.846  0.1864 -3.5400  1.5528
 9345SOL     OW39667   1.667   0.853  15.172 -0.1749  0.3739 -0.1500
 9345SOL    HW139668   1.602   0.825  15.108  0.3355  0.6166 -0.7768
 9345SOL    HW239669   1.738   0.796  15.142 -0.4491  1.7272 -3.2974
 9346SOL     OW39670   0.067   3.215   7.378  0.2238 -0.0675  0.2084
 9346SOL    HW139671   4.731   3.157   7.353  2.2957 -2.2382 -0.6649
 9346SOL    HW239672   0.022   3.297   7.398  0.7487  0.3685 -0.3988
 9347SOL     OW39673   3.626   3.164   0.654 -0.4689  0.2726  0.0051
 9347SOL    HW139674   3.593   3.148   0.566  1.7008 -1.9943 -0.3830
 9347SOL    HW239675   3.627   3.260   0.664  0.1131  0.2969 -0.2982
 9348SOL     OW39676   3.684   0.833   7.658 -0.3896 -0.3199 -0.1471
 9348SOL    HW139677   3.703   0.829   7.752 -2.6854 -3.6208  0.1683
 9348SOL    HW239678   3.670   0.926   7.640 -1.7180 -0.9353 -2.2373
 9349SOL     OW39679   2.015   1.054   1.542  0.6958 -0.2067  0.4417
 9349SOL    HW139680   2.014   1.109   1.463 -1.6812 -1.5096 -0.4346
 9349SOL    HW239681   1.985   1.117   1.607  2.2331 -1.7310  2.6022
 9350SOL     OW39682   3.896   3.483   8.527 -0.4058 -0.2596  0.9655
 9350SOL    HW139683   3.965   3.544   8.502 -0.4758 -0.6708 -0.2599
 9350SOL    HW239684   3.819   3.524   8.488  0.0679 -0.6084 -0.3529
 9351SOL     OW39685   1.249   4.376   4.975 -0.2083 -0.1465 -0.2033
 9351SOL    HW139686   1.257   4.393   4.882 -0.5271 -0.5702 -0.3067
 9351SOL    HW239687   1.325   4.321   4.995 -0.6333  0.2301  2.4927
 9352SOL     OW39688   0.287   2.482   7.368 -0.0636 -0.0676 -0.6648
 9352SOL    HW139689   0.263   2.405   7.420 -0.9886  1.3927  1.0624
 9352SOL    HW239690   0.378   2.470   7.340  0.1571 -0.3600  0.1790
 9353SOL     OW39691   1.089   0.781  14.995  0.1374 -0.5833  0.1639
 9353SOL    HW139692   1.143   0.841  14.944 -0.6062 -1.9016 -2.1869
 9353SOL    HW239693   1.135   0.702  14.968 -0.7699 -0.6496 -1.2239
 9354SOL     OW39694   0.648   2.554   6.763 -0.2694  0.1283 -0.4012
 9354SOL    HW139695   0.597   2.541   6.843  1.0038  1.1759  0.5774
 9354SOL    HW239696   0.599   2.503   6.698 -0.4124 -0.4845  0.1836
 9355SOL     OW39697   1.747   2.528   0.385 -0.2932 -0.0899 -0.4433
 9355SOL    HW139698   1.791   2.493   0.308  2.5776  0.8408  0.7859
 9355SOL    HW239699   1.657   2.496   0.374  1.0390 -4.1425  0.3981
 9356SOL     OW39700   2.899   1.000   8.682 -0.1467  0.6016 -0.0281
 9356SOL    HW139701   2.959   0.981   8.609 -1.7094 -1.3718 -0.8036
 9356SOL    HW239702   2.818   0.962   8.648  0.6088  1.5190 -2.8895
 9357SOL     OW39703   1.497   0.209   5.479  0.7014  0.1125  0.1153
 9357SOL    HW139704   1.578   0.254   5.501  0.5641  0.6643 -0.4962
 9357SOL    HW239705   1.538   0.123   5.474  1.6883  0.6996 -1.9564
 9358SOL     OW39706   4.589   4.616   3.103 -0.2849  0.1818  0.1379
 9358SOL    HW139707   4.549   4.660   3.178 -2.3074 -1.4065 -0.0034
 9358SOL    HW239708   4.513   4.619   3.044 -0.2794 -2.1502  0.0193
 9359SOL     OW39709   3.779   3.438   6.890  0.4524  0.7887 -0.3778
 9359SOL    HW139710   3.799   3.511   6.948 -0.1154  3.3413 -3.3974
 9359SOL    HW239711   3.760   3.491   6.812  0.9859 -0.2602 -1.2259
 9360SOL     OW39712   0.269   4.039   2.223 -0.2618 -0.5868 -0.0920
 9360SOL    HW139713   0.296   4.113   2.277  1.2646 -0.6238 -0.8088
 9360SOL    HW239714   0.188   4.034   2.274  0.1127 -1.4662  0.4218
 9361SOL     OW39715   3.065   4.168   2.658  0.5636 -0.5072 -0.4370
 9361SOL    HW139716   3.021   4.238   2.707  0.0307  0.6848 -2.6109
 9361SOL    HW239717   3.045   4.194   2.568  2.1431 -1.2638 -1.0102
 9362SOL     OW39718   0.154   0.501   3.298  0.6810  0.1147 -1.1004
 9362SOL    HW139719   0.192   0.421   3.333 -0.8978  0.8126  2.1904
 9362SOL    HW239720   0.170   0.489   3.204 -1.9641  0.6522 -1.6254
 9363SOL     OW39721   0.581   1.377   5.106  0.2071  0.1262 -0.6069
 9363SOL    HW139722   0.550   1.466   5.123 -0.9160  0.0520 -2.3131
 9363SOL    HW239723   0.505   1.324   5.083 -0.7817  0.9659  0.7265
 9364SOL     OW39724   4.089   1.630   1.766  0.1730 -0.5759  0.2972
 9364SOL    HW139725   4.172   1.604   1.725  1.2539  0.8531  1.6015
 9364SOL    HW239726   4.083   1.573   1.842 -0.4357  0.9590  1.3879
 9365SOL     OW39727   0.931   0.751   2.848 -0.3815 -0.0362 -0.0094
 9365SOL    HW139728   0.909   0.658   2.846 -1.2227  0.1104  2.9864
 9365SOL    HW239729   0.893   0.783   2.766  3.1474  1.8091 -0.9217
 9366SOL     OW39730   2.047   3.161  12.807 -0.8415  0.4321  0.0710
 9366SOL    HW139731   2.003   3.160  12.892  1.7650  0.0297  1.3814
 9366SOL    HW239732   2.122   3.104  12.820  0.7528  2.2916 -1.0929
 9367SOL     OW39733   3.654   0.438   0.673 -0.8177  0.1305  0.0952
 9367SOL    HW139734   3.682   0.529   0.678  2.3506 -0.7270 -2.1338
 9367SOL    HW239735   3.685   0.401   0.755 -1.9930 -1.4523 -0.1710
 9368SOL     OW39736   1.892   3.003  15.536 -0.4609  0.0122  0.1307
 9368SOL    HW139737   1.926   2.923  15.496 -0.7090  0.1655 -0.3833
 9368SOL    HW239738   1.858   3.040  15.455  1.4197 -0.8370 -1.0440
 9369SOL     OW39739   2.562   4.117   5.867 -0.0134 -0.0834 -0.5026
 9369SOL    HW139740   2.590   4.133   5.957  0.3255 -0.7510 -0.4882
 9369SOL    HW239741   2.521   4.034   5.891  2.2000 -0.4535  2.0051
 9370SOL     OW39742   2.005   3.076  15.165 -0.3082 -0.3429 -0.6016
 9370SOL    HW139743   2.057   3.135  15.111 -1.9434  1.8898  0.2939
 9370SOL    HW239744   2.057   2.996  15.155 -0.1683 -0.3239  0.0266
 9371SOL     OW39745   2.659   4.259   4.336 -0.5996  0.3773 -0.0572
 9371SOL    HW139746   2.746   4.291   4.362  0.5388  0.4839 -3.9572
 9371SOL    HW239747   2.662   4.171   4.374 -0.0377  0.5217  0.2437
 9372SOL     OW39748   3.366   2.269   1.294  0.5630  0.0525  0.3242
 9372SOL    HW139749   3.367   2.202   1.225 -5.4309  0.0575  0.2564
 9372SOL    HW239750   3.330   2.336   1.236 -1.0220 -1.8175 -0.8582
 9373SOL     OW39751   4.579   3.846   6.937 -0.0078  0.0806  0.4430
 9373SOL    HW139752   4.517   3.875   6.870 -0.1209  0.8432  0.8778
 9373SOL    HW239753   4.575   3.929   6.983 -0.7838 -0.6807  1.7545
 9374SOL     OW39754   4.484   2.905   3.377 -0.2024 -0.5302  0.4885
 9374SOL    HW139755   4.557   2.876   3.321 -2.0622 -2.3236 -0.9858
 9374SOL    HW239756   4.511   2.996   3.387 -1.5416  0.1224 -2.0967
 9375SOL     OW39757   3.406   2.051  16.743  0.6767  0.3154  0.6321
 9375SOL    HW139758   3.452   2.115  16.688  0.1124  0.0945 -0.0983
 9375SOL    HW239759   3.345   2.104  16.794 -0.3449  2.3320 -2.7042
 9376SOL     OW39760   4.220   0.819   4.291 -0.0649  0.0103  0.1607
 9376SOL    HW139761   4.308   0.836   4.256  0.2760 -0.3341  0.8325
 9376SOL    HW239762   4.198   0.741   4.241  0.1610 -1.0741  1.7651
 9377SOL     OW39763   3.030   4.490  11.674 -0.1972 -0.3107 -0.1940
 9377SOL    HW139764   3.042   4.577  11.637 -0.2192  0.3017  1.2174
 9377SOL    HW239765   3.041   4.504  11.768  0.3700  0.5491 -0.3838
 9378SOL     OW39766   4.414   2.578   8.232  0.0783 -0.1857  0.0039
 9378SOL    HW139767   4.411   2.664   8.275 -1.0671 -0.4292  0.3892
 9378SOL    HW239768   4.340   2.591   8.173  1.3157  0.2772 -1.4488
 9379SOL     OW39769   4.104   1.819   7.025  0.0357  0.2667  0.5066
 9379SOL    HW139770   4.085   1.767   7.103 -2.0809  0.6291  0.2279
 9379SOL    HW239771   4.195   1.847   7.036  0.1647  0.2330 -0.4899
 9380SOL     OW39772   2.128   2.873   2.146  0.6839  0.1255 -0.4469
 9380SOL    HW139773   2.100   2.934   2.077  0.3917  2.3019  1.6171
 9380SOL    HW239774   2.198   2.922   2.188  1.4580 -1.0721 -0.3252
 9381SOL     OW39775   4.572   0.195   3.919 -0.0463  0.4968  0.3702
 9381SOL    HW139776   4.519   0.169   3.994  1.0774 -2.4873  0.1360
 9381SOL    HW239777   4.528   0.153   3.846  1.5919  0.6145 -0.6977
 9382SOL     OW39778   0.269   0.256   7.096 -0.2586  0.3206 -0.5660
 9382SOL    HW139779   0.299   0.220   7.013  1.1175  2.7919 -1.1139
 9382SOL    HW239780   0.174   0.258   7.089 -0.4363 -0.2914  1.5853
 9383SOL     OW39781   4.412   2.983   2.286  0.1391 -0.1610 -0.4799
 9383SOL    HW139782   4.387   3.072   2.260 -3.5678 -1.0255  0.0632
 9383SOL    HW239783   4.346   2.940   2.230  0.1133  0.9144 -1.2762
 9384SOL     OW39784   3.118   1.532   6.406  0.0876  0.4418 -0.4805
 9384SOL    HW139785   3.036   1.565   6.444  0.5158  0.3787  0.5046
 9384SOL    HW239786   3.176   1.561   6.477  0.6063  2.8694 -1.8650
 9385SOL     OW39787   2.694   0.747   8.434  0.4496  0.1419 -0.0477
 9385SOL    HW139788   2.615   0.697   8.412  0.4996  1.2308 -2.6410
 9385SOL    HW239789   2.669   0.801   8.510  0.4566 -1.3073  0.9986
 9386SOL     OW39790   2.315   4.208   8.610 -0.3025 -0.3012 -0.0188
 9386SOL    HW139791   2.263   4.264   8.552 -0.2805 -0.7296 -0.4527
 9386SOL    HW239792   2.270   4.223   8.693 -0.1694  0.2413 -0.0447
 9387SOL     OW39793   1.069   2.607  13.634  0.0426 -0.6182 -0.0970
 9387SOL    HW139794   0.987   2.610  13.684 -1.9479 -0.8839 -3.2797
 9387SOL    HW239795   1.046   2.621  13.542 -0.7848  0.1051  0.2153
 9388SOL     OW39796   3.861   1.635  15.645  0.2478  0.2761 -0.8489
 9388SOL    HW139797   3.879   1.728  15.653 -0.6597  0.4756 -1.1251
 9388SOL    HW239798   3.948   1.596  15.639 -1.1178 -2.5942 -2.0226
 9389SOL     OW39799   1.193   2.871   9.400  0.0434 -0.3261  0.2485
 9389SOL    HW139800   1.176   2.799   9.462  3.4306 -1.3806 -0.0229
 9389SOL    HW239801   1.103   2.873   9.367  1.4812  2.1197 -3.3879
 9390SOL     OW39802   2.954   1.080   7.326  0.2788 -0.0955  0.1764
 9390SOL    HW139803   2.868   1.042   7.309 -0.8212  2.8012 -0.6376
 9390SOL    HW239804   2.942   1.121   7.412 -0.1331  0.1554 -0.0014
 9391SOL     OW39805   4.057   4.595  15.337  0.3855 -0.7819 -0.4758
 9391SOL    HW139806   4.000   4.525  15.370 -0.8829  0.3667 -0.2135
 9391SOL    HW239807   4.053   4.575  15.244 -2.1104  1.2234 -0.7948
 9392SOL     OW39808   2.439   1.634   2.490  0.6142 -0.2761 -0.2102
 9392SOL    HW139809   2.447   1.575   2.565  1.3005  1.2256  0.9201
 9392SOL    HW239810   2.364   1.682   2.525  0.2460 -0.7671 -0.3348
 9393SOL     OW39811   2.503   2.385   7.886 -0.1302 -0.6635  0.3804
 9393SOL    HW139812   2.427   2.397   7.829  2.0346 -1.0035 -2.5261
 9393SOL    HW239813   2.550   2.466   7.865 -1.0001  0.1996  1.7164
 9394SOL     OW39814   0.021   2.495   5.397 -0.2855  0.0539 -0.0861
 9394SOL    HW139815   0.087   2.507   5.465  1.0071  1.4001 -1.5685
 9394SOL    HW239816   0.070   2.459   5.322 -0.7265  0.3708 -0.5257
 9395SOL     OW39817   3.689   4.346   6.357 -0.2987 -0.5558  0.1847
 9395SOL    HW139818   3.741   4.270   6.330  0.5073 -0.3068  1.0712
 9395SOL    HW239819   3.737   4.375   6.434 -1.8935  2.9436 -0.1421
 9396SOL     OW39820   2.340   3.101   8.703  0.2081 -0.2214  0.0012
 9396SOL    HW139821   2.316   3.139   8.787 -1.5345  1.1100 -1.1012
 9396SOL    HW239822   2.430   3.132   8.692 -0.3229  0.0931 -3.5728
 9397SOL     OW39823   0.459   0.000   2.202 -0.6737 -0.4636  0.3917
 9397SOL    HW139824   0.521   4.728   2.274 -0.3714  2.9526  0.4766
 9397SOL    HW239825   0.389   0.051   2.244  0.5091  2.6718 -1.4585
 9398SOL     OW39826   0.906   1.554   4.875  0.1518  0.3247 -0.3042
 9398SOL    HW139827   0.821   1.596   4.884  0.1595  0.9117 -2.9449
 9398SOL    HW239828   0.912   1.516   4.963  0.0183  0.0795 -0.3980
 9399SOL     OW39829   2.359   1.170   8.281 -0.1204 -0.5960 -0.1179
 9399SOL    HW139830   2.392   1.238   8.340 -1.3752 -0.4386  0.3974
 9399SOL    HW239831   2.329   1.102   8.340 -3.0574  0.1816 -0.7455
 9400SOL     OW39832   0.090   1.991  12.793  0.1534  0.3649 -0.3699
 9400SOL    HW139833   0.104   1.951  12.878 -0.3754  0.9329 -0.0162
 9400SOL    HW239834   0.069   1.917  12.735  0.2352 -0.5078  0.7140
 9401SOL     OW39835   0.896   2.122  14.154  0.4527  0.7434 -0.4419
 9401SOL    HW139836   0.973   2.178  14.144  1.3733 -0.5296 -0.5514
 9401SOL    HW239837   0.844   2.140  14.076 -0.4106 -3.0644 -0.7264
 9402SOL     OW39838   2.451   2.713   7.861  0.0344 -0.1021 -0.4726
 9402SOL    HW139839   2.452   2.780   7.930 -1.5076  0.6015 -1.1171
 9402SOL    HW239840   2.541   2.682   7.858 -0.3987 -1.3341 -0.4294
 9403SOL     OW39841   2.224   2.364  16.077 -0.2738 -0.1945  0.0030
 9403SOL    HW139842   2.166   2.427  16.033  0.5640  3.5246  4.2671
 9403SOL    HW239843   2.186   2.280  16.049  1.2585 -1.0376  0.4492
 9404SOL     OW39844   1.935   2.384   5.965  0.0675 -0.0879 -0.0122
 9404SOL    HW139845   2.022   2.421   5.980 -0.2146 -0.4808  2.6027
 9404SOL    HW239846   1.888   2.378   6.048 -1.4211  1.4892 -0.7422
 9405SOL     OW39847   2.823   2.164   6.701 -0.1966 -0.1543  0.9173
 9405SOL    HW139848   2.804   2.227   6.770 -1.5345 -0.5238  0.8889
 9405SOL    HW239849   2.877   2.216   6.641 -2.8221 -0.4570 -1.7043
 9406SOL     OW39850   2.013   0.650   9.017 -0.0808 -0.7993 -0.8835
 9406SOL    HW139851   2.021   0.555   9.011 -0.0093 -0.8542  0.0915
 9406SOL    HW239852   2.055   0.661   8.931 -0.6091 -2.1981 -1.3135
 9407SOL     OW39853   0.287   4.706   8.981 -0.6084  0.4711  0.1870
 9407SOL    HW139854   0.351   4.662   8.925  0.1105 -0.3469  1.6501
 9407SOL    HW239855   0.302   0.064   8.964 -0.7135  0.7511  1.6406
 9408SOL     OW39856   3.769   0.185  17.046 -0.4679  0.1037 -0.3941
 9408SOL    HW139857   3.746   0.093  17.048 -1.8056  0.4278 -1.0050
 9408SOL    HW239858   3.789   0.199  16.953 -0.3212  2.9973  0.0648
 9409SOL     OW39859   2.208   1.485   8.636 -0.2695  0.1929  0.3403
 9409SOL    HW139860   2.155   1.548   8.684 -0.4805  0.0220  0.3305
 9409SOL    HW239861   2.150   1.470   8.561  1.8976  0.6123 -1.4440
 9410SOL     OW39862   0.636   2.913  12.592 -0.0151 -0.3847 -0.3937
 9410SOL    HW139863   0.605   2.904  12.682  1.8406 -0.8146  0.2063
 9410SOL    HW239864   0.550   2.902  12.552 -0.7050 -0.4850  1.1024
 9411SOL     OW39865   2.761   3.226   0.341 -0.2818  0.3245  0.6487
 9411SOL    HW139866   2.719   3.165   0.402 -2.2221  1.1880  0.2022
 9411SOL    HW239867   2.732   3.187   0.258  1.4613  0.3988  0.0131
 9412SOL     OW39868   2.780   0.861   7.044  0.2484 -0.1303 -0.3147
 9412SOL    HW139869   2.711   0.924   7.067 -0.4871 -0.7595 -0.7843
 9412SOL    HW239870   2.730   0.780   7.035  0.2890 -0.3045  1.0253
 9413SOL     OW39871   1.435   4.190   5.072  0.5681  0.1785  0.4709
 9413SOL    HW139872   1.519   4.213   5.032 -1.1265 -1.6806 -4.1067
 9413SOL    HW239873   1.448   4.095   5.080 -1.8391 -0.1858 -0.0652
 9414SOL     OW39874   1.978   2.090   6.315  0.3665  0.4956  0.5999
 9414SOL    HW139875   2.068   2.066   6.292 -0.7020 -2.3425 -0.6064
 9414SOL    HW239876   1.958   2.032   6.389 -1.9610  1.0975  0.4304
 9415SOL     OW39877   3.931   0.812   6.694 -0.2567  0.6209  0.0355
 9415SOL    HW139878   3.961   0.858   6.616 -0.8694  0.3427 -0.3638
 9415SOL    HW239879   4.009   0.761   6.712  0.6063  2.1107  0.5262
 9416SOL     OW39880   4.170   2.269   2.944 -0.2556 -1.0629  0.2953
 9416SOL    HW139881   4.131   2.209   3.008 -0.4165 -1.0950  0.1670
 9416SOL    HW239882   4.158   2.359   2.973 -0.3911 -0.9347 -0.1723
 9417SOL     OW39883   3.755   1.744   6.396  0.0056 -0.1454  1.0469
 9417SOL    HW139884   3.745   1.723   6.304  0.6594  2.1161  0.4594
 9417SOL    HW239885   3.727   1.659   6.429  0.6972 -1.4641 -1.7431
 9418SOL     OW39886   3.998   2.587   7.263  0.4735 -0.2913  0.1341
 9418SOL    HW139887   3.918   2.635   7.286 -0.8004 -1.0426 -2.6949
 9418SOL    HW239888   4.068   2.640   7.302  0.9519 -0.2157 -0.8331
 9419SOL     OW39889   2.333   3.667   2.581  0.6443  0.1943 -0.2766
 9419SOL    HW139890   2.332   3.579   2.619  2.4316  1.0076  1.6426
 9419SOL    HW239891   2.282   3.647   2.502  0.8871 -0.0360 -0.3726
 9420SOL     OW39892   4.048   1.093  12.592 -0.0122  0.2860 -0.0698
 9420SOL    HW139893   4.020   1.132  12.675 -1.0218  0.1432 -0.3463
 9420SOL    HW239894   4.108   1.025  12.622 -1.3696 -0.6513  0.5138
 9421SOL     OW39895   1.346   2.358   9.061 -0.3186  0.1778  0.2815
 9421SOL    HW139896   1.277   2.412   9.021 -0.2823 -0.3788 -0.5362
 9421SOL    HW239897   1.286   2.324   9.127  1.6199 -0.8197  1.5129
 9422SOL     OW39898   1.000   0.022   1.119 -0.1173 -1.0809  1.1308
 9422SOL    HW139899   0.909   0.040   1.143 -0.4475 -0.7690 -0.3339
 9422SOL    HW239900   1.051   0.032   1.199 -0.1173  2.1143  0.7621
 9423SOL     OW39901   0.824   0.527   9.727 -0.1258 -0.5839  0.1413
 9423SOL    HW139902   0.899   0.548   9.671 -0.7837  0.0450 -0.4866
 9423SOL    HW239903   0.868   0.528   9.812  3.1947  1.8316 -1.5826
 9424SOL     OW39904   4.239   0.815   1.445  0.1792  0.2294  0.2641
 9424SOL    HW139905   4.306   0.867   1.399  1.4457 -1.7435 -0.1346
 9424SOL    HW239906   4.233   0.745   1.380  0.9382  0.8177 -0.4477
 9425SOL     OW39907   3.219   1.137   8.872  0.6600  0.5251  0.5301
 9425SOL    HW139908   3.165   1.158   8.948  0.1028  2.9562 -0.5529
 9425SOL    HW239909   3.154   1.084   8.825  0.2998  2.9876 -1.7671
 9426SOL     OW39910   3.088   1.628  15.805 -0.3121 -0.1172 -0.2132
 9426SOL    HW139911   3.066   1.721  15.816  3.3155  0.7693 -0.6478
 9426SOL    HW239912   3.009   1.595  15.762 -0.1870 -2.2447  1.2311
 9427SOL     OW39913   4.586   4.502   6.148 -0.0689  0.1932 -0.1413
 9427SOL    HW139914   4.637   4.525   6.070  0.9657 -1.5342  0.0368
 9427SOL    HW239915   4.530   4.579   6.156  2.6747  2.2421 -0.2769
 9428SOL     OW39916   4.021   3.030   7.857 -0.3173 -0.0021 -0.6979
 9428SOL    HW139917   3.960   2.968   7.816  0.3420 -2.1171  1.4629
 9428SOL    HW239918   4.004   3.010   7.949  0.9883  0.2346 -0.4057
 9429SOL     OW39919   3.619   4.186   5.507  0.1663 -0.0489 -0.3511
 9429SOL    HW139920   3.686   4.240   5.549 -0.3095  1.3699 -1.3924
 9429SOL    HW239921   3.586   4.121   5.569 -1.5930  0.9504 -0.2602
 9430SOL     OW39922   3.981   4.409   0.136 -0.3635  0.5438 -0.0471
 9430SOL    HW139923   4.069   4.409   0.099 -0.4010 -0.7154 -0.1313
 9430SOL    HW239924   3.967   4.317   0.159  1.0607 -0.3681 -2.7709
 9431SOL     OW39925   3.277   2.196   4.278  0.0875  0.0992  0.2436
 9431SOL    HW139926   3.206   2.167   4.221 -1.5203  0.7749  1.9132
 9431SOL    HW239927   3.326   2.114   4.290  0.1515  0.3770  1.8894
 9432SOL     OW39928   3.188   0.669   1.496  0.2622  0.2673 -0.1007
 9432SOL    HW139929   3.187   0.640   1.588 -0.1445  1.1119  0.1563
 9432SOL    HW239930   3.115   0.621   1.458 -0.4112  0.1194  1.3572
 9433SOL     OW39931   4.082   3.380   0.356 -0.4902 -0.1854  0.5412
 9433SOL    HW139932   4.046   3.454   0.405  0.6487  1.4854 -1.1252
 9433SOL    HW239933   4.177   3.384   0.374 -0.1958 -2.9790 -0.4032
 9434SOL     OW39934   2.404   4.661  14.015 -0.4785 -0.2165  0.2923
 9434SOL    HW139935   2.355   4.603  13.957  1.3698 -0.0320 -1.4783
 9434SOL    HW239936   2.438   4.598  14.079 -1.9974 -0.4650  0.8494
 9435SOL     OW39937   1.594   1.290   2.887 -0.3553  0.1145 -0.1601
 9435SOL    HW139938   1.653   1.215   2.877 -0.1277  0.4874 -1.5720
 9435SOL    HW239939   1.577   1.278   2.981  0.9372 -2.6707 -0.2711
 9436SOL     OW39940   4.311   4.581   1.029 -0.4882 -0.3177 -0.0839
 9436SOL    HW139941   4.320   4.504   0.974 -1.7631 -0.2461 -0.3865
 9436SOL    HW239942   4.331   4.546   1.116  1.9094  0.4301 -0.3379
 9437SOL     OW39943   3.987   4.205  13.632 -0.4050  0.0226 -1.0926
 9437SOL    HW139944   3.953   4.133  13.580 -1.8824  2.3953 -3.4332
 9437SOL    HW239945   3.988   4.274  13.566  0.7815  0.2786 -0.8190
 9438SOL     OW39946   4.107   1.388   2.349 -0.5544  0.1774  0.0279
 9438SOL    HW139947   4.061   1.461   2.308 -0.8296  0.4169  0.7660
 9438SOL    HW239948   4.102   1.325   2.277 -2.4810 -0.4512  0.7172
 9439SOL     OW39949   2.687   2.990   4.653  0.1347  0.2131  0.0341
 9439SOL    HW139950   2.640   2.928   4.597 -0.2746  0.1858  0.4073
 9439SOL    HW239951   2.774   2.986   4.613 -0.3734  3.4821 -1.3870
 9440SOL     OW39952   1.885   4.318   6.271 -0.2849  0.1055  0.3113
 9440SOL    HW139953   1.969   4.274   6.282  0.1065  0.8889  0.4560
 9440SOL    HW239954   1.834   4.264   6.331 -0.2621 -0.1406  0.1052
 9441SOL     OW39955   3.087   4.446   1.935 -0.2273  0.1027 -0.4427
 9441SOL    HW139956   3.171   4.400   1.932  0.1951  0.8154  0.2913
 9441SOL    HW239957   3.094   4.488   2.021 -0.9994  0.6109 -0.6254
 9442SOL     OW39958   4.196   2.078   2.375 -1.0454  0.0789  1.2176
 9442SOL    HW139959   4.291   2.076   2.382 -0.9466  3.1760  0.5002
 9442SOL    HW239960   4.171   2.168   2.356  2.9353  0.4782 -2.1534
 9443SOL     OW39961   3.859   1.660   4.806  0.0235  0.6814  0.2986
 9443SOL    HW139962   3.836   1.582   4.858 -2.5568  1.0688 -0.2559
 9443SOL    HW239963   3.778   1.680   4.758 -0.2038 -0.2671  0.2789
 9444SOL     OW39964   3.915   0.438   3.388 -0.4218  0.3304  0.3685
 9444SOL    HW139965   3.940   0.354   3.350 -2.0229 -0.9909  2.2320
 9444SOL    HW239966   3.824   0.420   3.411 -0.6568  1.8568  0.6099
 9445SOL     OW39967   1.316   0.549   2.226 -0.1486  0.2942 -0.6691
 9445SOL    HW139968   1.256   0.624   2.218 -1.4438 -0.5448  1.2463
 9445SOL    HW239969   1.400   0.578   2.263 -0.2994  0.6593 -0.6045
 9446SOL     OW39970   3.432   2.405  14.271 -0.2255  0.0704  0.5330
 9446SOL    HW139971   3.499   2.466  14.241  1.8007 -1.4471  1.9317
 9446SOL    HW239972   3.357   2.464  14.282  2.1159  2.9847  0.9431
 9447SOL     OW39973   2.986   1.431   1.315 -0.0013  0.2071 -0.4084
 9447SOL    HW139974   2.932   1.426   1.236 -0.1624 -1.1276 -0.1979
 9447SOL    HW239975   3.069   1.396   1.282  0.8011 -1.3600  3.2879
 9448SOL     OW39976   3.841   4.542  10.964 -0.0594 -0.2953 -0.4118
 9448SOL    HW139977   3.936   4.551  10.958  0.0610 -0.9843  0.3719
 9448SOL    HW239978   3.815   4.601  10.893 -0.8621 -3.1030 -2.4413
 9449SOL     OW39979   1.890   4.697   8.315  0.1519  0.6047 -0.0399
 9449SOL    HW139980   1.979   4.686   8.283  0.2297 -0.5053  0.5489
 9449SOL    HW239981   1.894   0.051   8.350 -4.9602  0.7162  0.3510
 9450SOL     OW39982   4.012   2.981  17.480  0.0019 -0.1539  0.1230
 9450SOL    HW139983   3.952   2.909  17.498 -2.2321  1.9425  1.0672
 9450SOL    HW239984   4.094   2.934  17.463  1.3554  1.9139  0.9141
 9451SOL     OW39985   2.578   0.533   7.332 -0.1940  0.2562  0.2094
 9451SOL    HW139986   2.492   0.500   7.356 -1.2432  0.6853 -2.9333
 9451SOL    HW239987   2.628   0.453   7.351  0.9159  0.4751 -1.7371
 9452SOL     OW39988   2.159   2.774   3.449  0.1068 -0.4999 -0.4834
 9452SOL    HW139989   2.126   2.731   3.528 -0.6455 -0.6474 -0.8870
 9452SOL    HW239990   2.145   2.704   3.386  3.1510 -2.2886  0.8336
 9453SOL     OW39991   2.526   2.188  10.054 -0.3298 -0.1051  0.0855
 9453SOL    HW139992   2.577   2.119  10.097  0.5440  0.0220 -0.7440
 9453SOL    HW239993   2.499   2.245  10.125  2.2257 -0.7957  1.6191
 9454SOL     OW39994   1.995   1.970  11.372  0.5640  0.0696  0.3699
 9454SOL    HW139995   1.922   1.996  11.428 -0.5998 -0.9481 -0.6486
 9454SOL    HW239996   1.997   1.876  11.386 -0.1758  0.2411  1.6273
 9455SOL     OW39997   0.144   3.536  16.101  0.6598 -0.2930 -0.0410
 9455SOL    HW139998   0.153   3.511  16.009 -1.5428 -1.6122  0.0992
 9455SOL    HW239999   0.108   3.623  16.083  0.2260 -0.9537 -2.2958
 9456SOL     OW40000   0.203   3.381   2.009 -0.1350  0.0491  0.1059
 9456SOL    HW140001   0.208   3.399   1.915  1.6468 -2.5518 -0.2808
 9456SOL    HW240002   0.232   3.461   2.053  3.0188 -0.2998 -1.3895
 9457SOL     OW40003   3.743   0.304  15.150  0.5872  0.0211 -0.4601
 9457SOL    HW140004   3.677   0.262  15.205  1.4087 -1.7628 -0.8364
 9457SOL    HW240005   3.687   0.354  15.091 -0.6896  0.4021  1.0857
 9458SOL     OW40006   3.236   4.353   6.256 -0.7174  0.2771 -0.4057
 9458SOL    HW140007   3.248   4.427   6.196 -0.9230 -0.4123 -1.2994
 9458SOL    HW240008   3.286   4.389   6.329  0.2170 -2.6713  0.4270
 9459SOL     OW40009   3.891   2.553   1.637 -0.4565 -0.1964 -0.1827
 9459SOL    HW140010   3.883   2.622   1.703 -0.3292 -0.0134 -0.3615
 9459SOL    HW240011   3.980   2.568   1.607 -0.5869 -0.9256 -0.9269
 9460SOL     OW40012   2.387   2.947   2.601  0.4185  0.1481 -0.1062
 9460SOL    HW140013   2.398   2.892   2.678 -0.8107  2.4447  1.7012
 9460SOL    HW240014   2.442   2.911   2.531  0.4243 -1.6797  0.8482
 9461SOL     OW40015   1.843   0.617   4.381  0.5357  0.0420  0.1630
 9461SOL    HW140016   1.795   0.697   4.400  0.0877 -0.7483  2.5037
 9461SOL    HW240017   1.913   0.653   4.328  1.1081 -0.6391  0.4453
 9462SOL     OW40018   3.505   1.150   8.139  0.0138  0.1386  0.1866
 9462SOL    HW140019   3.490   1.240   8.111  0.0132 -0.1401 -0.6887
 9462SOL    HW240020   3.546   1.111   8.062  0.7312  0.5356  0.3709
 9463SOL     OW40021   4.211   2.881   1.459  0.3191 -0.0046  0.4101
 9463SOL    HW140022   4.117   2.878   1.440  0.6691 -0.4566 -1.1836
 9463SOL    HW240023   4.231   2.793   1.492 -1.3054 -0.7875 -0.7238
 9464SOL     OW40024   1.459   2.829  15.633 -0.1338  0.1713 -0.3108
 9464SOL    HW140025   1.511   2.910  15.630  0.7162 -0.2849  1.8565
 9464SOL    HW240026   1.466   2.809  15.540  0.1497 -0.4043 -0.1706
 9465SOL     OW40027   3.860   1.400   4.973 -0.1973 -0.0158 -0.4460
 9465SOL    HW140028   3.906   1.401   5.057  0.1811 -1.5432 -0.6317
 9465SOL    HW240029   3.792   1.339   5.002  1.7535 -2.4518 -0.9582
 9466SOL     OW40030   2.922   2.174   6.068  0.6673 -0.2718 -0.0742
 9466SOL    HW140031   2.994   2.183   6.130  0.7095  0.3330 -0.2112
 9466SOL    HW240032   2.968   2.179   5.984 -2.4652 -1.2158 -1.8247
 9467SOL     OW40033   1.947   4.381   1.402  0.2666 -0.6961  0.0185
 9467SOL    HW140034   1.889   4.364   1.476 -0.7322  1.2332 -0.3205
 9467SOL    HW240035   1.916   4.312   1.343 -1.1115 -0.8965  0.9804
 9468SOL     OW40036   2.157   2.392  12.344  0.4641  0.5136  0.3592
 9468SOL    HW140037   2.151   2.317  12.284 -0.7594 -0.4255  1.6488
 9468SOL    HW240038   2.186   2.461  12.285  0.6145  0.0223 -0.1405
 9469SOL     OW40039   2.776   3.061   3.573 -0.0869 -0.0505 -0.7647
 9469SOL    HW140040   2.728   3.062   3.655 -1.9251  2.8432 -1.8878
 9469SOL    HW240041   2.840   2.992   3.593  0.5653  0.7677 -0.0373
 9470SOL     OW40042   0.654   4.450   8.950  0.5411  0.2969  0.2849
 9470SOL    HW140043   0.569   4.438   8.994  1.3461  0.5604  1.9105
 9470SOL    HW240044   0.633   4.413   8.864  0.4586 -0.0085  0.4384
 9471SOL     OW40045   3.879   0.525   0.274  0.1828 -1.0359  0.4659
 9471SOL    HW140046   3.865   0.471   0.196 -2.0014 -0.1746  0.2457
 9471SOL    HW240047   3.821   0.476   0.332  0.1970 -1.6353 -0.0327
 9472SOL     OW40048   1.815   3.071   6.180  0.3371  0.2097  0.0648
 9472SOL    HW140049   1.835   3.165   6.180 -0.9072  0.4744  1.1716
 9472SOL    HW240050   1.744   3.061   6.118 -1.1190  1.4536  1.5260
 9473SOL     OW40051   1.070   2.153   3.562  0.0047  0.3911 -0.8626
 9473SOL    HW140052   1.066   2.058   3.575 -1.1272  0.3744 -1.3337
 9473SOL    HW240053   0.978   2.162   3.536 -0.3622 -0.6697  0.0844
 9474SOL     OW40054   1.910   3.633   4.688  0.2487 -0.3743 -0.0965
 9474SOL    HW140055   1.930   3.715   4.644 -0.7450  0.3507  0.8056
 9474SOL    HW240056   1.891   3.663   4.777 -0.2484 -0.9497 -0.0080
 9475SOL     OW40057   4.280   1.605  11.912 -0.4362  0.0303 -0.1482
 9475SOL    HW140058   4.195   1.629  11.873 -0.0577  2.5068  0.5110
 9475SOL    HW240059   4.255   1.578  12.000 -1.7142 -1.6297 -1.0429
 9476SOL     OW40060   3.143   1.097  15.898 -0.0462 -0.7901  0.2236
 9476SOL    HW140061   3.159   1.138  15.983 -0.2522  1.1953 -0.6914
 9476SOL    HW240062   3.078   1.154  15.857  0.8162  0.3173  0.3757
 9477SOL     OW40063   3.540   1.086   7.493 -0.2738  0.0616 -0.1548
 9477SOL    HW140064   3.558   1.089   7.587 -0.5723  0.7936 -0.1227
 9477SOL    HW240065   3.480   1.159   7.477 -0.2190  0.4589  1.4827
 9478SOL     OW40066   1.064   4.062  17.096  0.3433  0.3490 -0.0782
 9478SOL    HW140067   1.152   4.037  17.069  1.2897  2.2865  1.1340
 9478SOL    HW240068   1.045   4.129  17.030 -0.8222 -0.3111 -0.4117
 9479SOL     OW40069   2.799   4.368  16.390 -0.2308 -0.1132 -0.2987
 9479SOL    HW140070   2.766   4.380  16.479 -1.3950  1.2316 -0.9154
 9479SOL    HW240071   2.786   4.451  16.344  0.8997  0.5393  0.5483
 9480SOL     OW40072   0.342   3.533   2.722  0.1061 -0.8798  0.4957
 9480SOL    HW140073   0.283   3.558   2.793 -1.2541 -0.1239 -0.9079
 9480SOL    HW240074   0.365   3.443   2.745  0.0124 -1.6848 -2.6416
 9481SOL     OW40075   0.505   1.555   9.245  0.6068  0.5082  0.4147
 9481SOL    HW140076   0.586   1.557   9.295  0.1772  1.5735  1.0887
 9481SOL    HW240077   0.437   1.581   9.308 -0.8946 -0.2254 -0.8958
 9482SOL     OW40078   1.867   1.155  14.440 -0.0545  0.0280  0.2285
 9482SOL    HW140079   1.876   1.176  14.347 -0.6369  0.7829  0.3471
 9482SOL    HW240080   1.776   1.179  14.458 -0.5994 -1.1945 -0.9205
 9483SOL     OW40081   4.415   2.392   6.658  0.0274  0.1172 -0.0640
 9483SOL    HW140082   4.357   2.377   6.584 -1.1875  2.4665  0.4122
 9483SOL    HW240083   4.437   2.303   6.685 -1.8752  0.5065  2.7676
 9484SOL     OW40084   2.156   2.849  15.159 -0.0348 -0.4352 -0.0599
 9484SOL    HW140085   2.206   2.817  15.084  1.7930  1.3234  0.4271
 9484SOL    HW240086   2.225   2.863  15.224  1.7504 -0.1098 -2.0165
 9485SOL     OW40087   4.435   1.345  14.697  0.4547 -0.1407 -0.1103
 9485SOL    HW140088   4.444   1.440  14.691  0.0236 -0.0998 -0.0906
 9485SOL    HW240089   4.340   1.345  14.700  0.4175 -0.8371 -1.2520
 9486SOL     OW40090   4.571   4.461  17.175  0.2888  0.4810 -0.2628
 9486SOL    HW140091   4.609   4.447  17.262 -0.8107  0.8382  0.2871
 9486SOL    HW240092   4.552   4.372  17.146 -2.4684  1.6590 -2.0641
 9487SOL     OW40093   2.738   3.057   0.093 -0.8467  0.2703  0.4388
 9487SOL    HW140094   2.799   3.097   0.031 -1.3373 -0.0197 -0.2322
 9487SOL    HW240095   2.663   3.038   0.036 -1.9439  0.5270  1.8099
 9488SOL     OW40096   1.657   4.549  11.291 -0.5179 -0.3530  0.0294
 9488SOL    HW140097   1.700   4.485  11.235  0.3856 -1.4782  1.9957
 9488SOL    HW240098   1.707   4.626  11.262  0.6291 -1.0158  0.2460
 9489SOL     OW40099   2.206   2.630   0.742  0.0830  0.3247  0.1546
 9489SOL    HW140100   2.180   2.708   0.790  0.6408  1.1614 -0.8982
 9489SOL    HW240101   2.169   2.561   0.797  0.3406  0.3007  0.2957
 9490SOL     OW40102   0.155   1.671   2.921 -0.4324 -0.5635 -0.0342
 9490SOL    HW140103   0.169   1.683   3.015  0.2515  2.6927 -0.5456
 9490SOL    HW240104   0.211   1.743   2.892  1.6794 -1.6579  1.3967
 9491SOL     OW40105   0.673   1.386   7.326 -0.1600  0.3149 -0.6475
 9491SOL    HW140106   0.605   1.353   7.267  1.1685 -2.3312 -0.7203
 9491SOL    HW240107   0.630   1.353   7.405 -0.0479 -1.1399 -1.1867
 9492SOL     OW40108   4.522   1.846   6.883  0.2057  0.3042  0.7097
 9492SOL    HW140109   4.575   1.834   6.962  0.0741 -1.3497  0.5319
 9492SOL    HW240110   4.441   1.873   6.925 -0.9780  0.2631 -1.5306
 9493SOL     OW40111   3.189   3.264   0.031 -0.8030 -0.0541 -0.2864
 9493SOL    HW140112   3.229   3.350   0.039  0.7584 -0.9436  1.5974
 9493SOL    HW240113   3.125   3.275   0.102  2.5232  1.5700  2.4351
 9494SOL     OW40114   3.988   1.503  12.878  0.0371  0.0371 -0.0756
 9494SOL    HW140115   3.935   1.492  12.958 -0.1871  0.7984 -0.1175
 9494SOL    HW240116   4.067   1.529  12.925 -0.2308  0.8640 -0.0858
 9495SOL     OW40117   0.863   3.600   5.151  0.0047 -0.0117  0.7123
 9495SOL    HW140118   0.945   3.610   5.201 -1.5786  0.1780  3.2891
 9495SOL    HW240119   0.802   3.577   5.221 -0.2613  0.4700  0.6390
 9496SOL     OW40120   1.170   1.049   5.368 -0.0257  0.2729  0.6029
 9496SOL    HW140121   1.128   1.045   5.454  1.1024 -1.4132  1.0832
 9496SOL    HW240122   1.261   1.029   5.388 -0.1393 -0.5845  0.2863
 9497SOL     OW40123   0.935   4.662   9.927 -0.3666 -0.1540 -0.3953
 9497SOL    HW140124   1.028   4.684   9.932  0.0344 -2.0085  0.0302
 9497SOL    HW240125   0.940   4.585   9.871 -0.8354  0.1306 -0.8400
 9498SOL     OW40126   1.127   3.652   5.354 -1.0120 -0.5452 -0.0063
 9498SOL    HW140127   1.178   3.591   5.302  0.4715 -0.4292  1.3319
 9498SOL    HW240128   1.140   3.739   5.316 -1.2079 -0.5060  0.0165
 9499SOL     OW40129   0.004   0.653   7.878 -0.2609  0.2607 -0.0219
 9499SOL    HW140130   4.647   0.636   7.858 -0.5697  1.1373  0.6578
 9499SOL    HW240131   0.004   0.748   7.891  2.0405  0.4567 -1.4157
 9500SOL     OW40132   0.206   0.134   6.832 -0.3451  0.4183  0.3955
 9500SOL    HW140133   0.136   0.112   6.770  0.7807 -1.4679 -0.2080
 9500SOL    HW240134   0.274   0.169   6.774  1.6514 -2.9552  0.7204
 9501SOL     OW40135   1.266   4.560   5.211  0.1864  0.6079  0.0409
 9501SOL    HW140136   1.281   4.471   5.181  1.7647  0.8126  0.2299
 9501SOL    HW240137   1.190   4.582   5.157 -1.4520 -2.6762  1.0141
 9502SOL     OW40138   0.939   1.223   6.861 -0.5172 -0.3963  0.6077
 9502SOL    HW140139   0.867   1.188   6.914 -0.7389  1.0639  1.2632
 9502SOL    HW240140   0.908   1.308   6.829 -0.5363  0.1531  2.0938
 9503SOL     OW40141   1.668   3.496  15.490  0.1434  0.2464  0.1061
 9503SOL    HW140142   1.714   3.573  15.524  0.7117  0.7386 -1.7552
 9503SOL    HW240143   1.601   3.491  15.558 -0.0982  0.7384 -0.0906
 9504SOL     OW40144   0.301   0.742   7.464  0.1695  0.6261  0.0406
 9504SOL    HW140145   0.292   0.745   7.368  0.3995  2.0596  0.0614
 9504SOL    HW240146   0.209   0.756   7.488 -0.0390 -0.3804 -0.1685
 9505SOL     OW40147   1.354   0.842   1.413  0.3078  0.0236 -0.2648
 9505SOL    HW140148   1.395   0.885   1.488  0.3235 -2.8909  1.3959
 9505SOL    HW240149   1.302   0.775   1.459  0.1315 -0.4044 -1.0862
 9506SOL     OW40150   4.305   3.004   1.225 -0.5124 -0.0871  0.0767
 9506SOL    HW140151   4.316   2.957   1.308  0.2612 -2.2715 -1.2561
 9506SOL    HW240152   4.219   2.975   1.193 -0.5106 -0.0384  0.0268
 9507SOL     OW40153   3.165   4.439   8.839  0.6313  0.2332 -0.3928
 9507SOL    HW140154   3.237   4.501   8.825 -0.3251  1.3995 -0.1390
 9507SOL    HW240155   3.091   4.482   8.796  0.5041 -0.7545 -1.1573
 9508SOL     OW40156   0.203   0.814   2.512  0.5030 -0.2419 -0.0163
 9508SOL    HW140157   0.260   0.858   2.448 -0.4757  0.2155 -0.5686
 9508SOL    HW240158   0.272   0.777   2.567 -0.8501 -3.9919 -0.8945
 9509SOL     OW40159   1.976   2.265  12.767  0.2739 -0.1357 -0.5269
 9509SOL    HW140160   2.060   2.259  12.813 -0.6571 -1.0838  1.0462
 9509SOL    HW240161   1.994   2.197  12.702 -0.0756 -0.6069 -0.1279
 9510SOL     OW40162   3.298   1.056  12.428  0.0623 -0.1432 -0.2439
 9510SOL    HW140163   3.387   1.087  12.413  0.5820 -1.1063  0.8192
 9510SOL    HW240164   3.251   1.136  12.406  1.0597  0.1131 -1.3984
 9511SOL     OW40165   4.358   1.996  14.805  0.3049  0.2414 -0.6793
 9511SOL    HW140166   4.267   1.965  14.803  0.9122 -1.5912  0.4285
 9511SOL    HW240167   4.409   1.919  14.831 -0.1377  0.1875  0.0120
 9512SOL     OW40168   3.843   4.087   7.129 -0.2623  0.3483 -0.4232
 9512SOL    HW140169   3.843   4.164   7.185 -0.2826  0.1221 -0.1095
 9512SOL    HW240170   3.766   4.042   7.164  0.5515  0.3091  1.3137
 9513SOL     OW40171   4.023   0.897   7.570 -0.0157 -0.4532  0.3492
 9513SOL    HW140172   3.992   0.807   7.587  1.8370 -1.0761  0.4742
 9513SOL    HW240173   4.063   0.886   7.484  2.9957  1.3837  1.4767
 9514SOL     OW40174   4.058   4.630   8.726  0.8418  0.3783  0.2364
 9514SOL    HW140175   4.005   4.709   8.738 -2.0860 -1.1451 -2.6415
 9514SOL    HW240176   4.040   4.585   8.809 -2.3025 -1.1934 -1.3189
 9515SOL     OW40177   1.394   1.709   0.402  0.1374  0.4148  0.0833
 9515SOL    HW140178   1.479   1.746   0.427 -0.0976  2.0095 -1.4654
 9515SOL    HW240179   1.414   1.616   0.400  0.7473  0.5654 -0.9987
 9516SOL     OW40180   3.421   1.852  16.564 -0.4281 -0.3978 -0.5028
 9516SOL    HW140181   3.401   1.933  16.610 -1.1757 -1.1172  0.4153
 9516SOL    HW240182   3.491   1.818  16.620 -0.3984 -1.4061 -1.1390
 9517SOL     OW40183   1.624   4.484   7.193 -0.8100  0.0560  0.2587
 9517SOL    HW140184   1.541   4.494   7.147 -0.8567 -0.7168  0.1752
 9517SOL    HW240185   1.674   4.560   7.165  0.5506  0.1980  3.0322
 9518SOL     OW40186   4.665   3.935   4.202 -0.3291 -0.5571 -0.3760
 9518SOL    HW140187   4.652   4.020   4.243 -0.7961 -0.2033 -1.2604
 9518SOL    HW240188   0.015   3.958   4.163 -1.9622  2.0947 -2.4086
 9519SOL     OW40189   1.167   0.963   3.905  0.4628 -0.1378  0.0791
 9519SOL    HW140190   1.122   1.041   3.940 -1.0592  0.1306 -2.4194
 9519SOL    HW240191   1.197   1.007   3.825  0.0272 -2.5854 -1.4124
 9520SOL     OW40192   1.692   3.345   6.350  0.1381 -0.4357  0.0525
 9520SOL    HW140193   1.637   3.336   6.428 -0.2015  1.5383  0.0356
 9520SOL    HW240194   1.775   3.301   6.368 -0.3539 -1.9750 -1.4717
 9521SOL     OW40195   4.574   1.803  10.346  0.2507  0.0781 -0.0229
 9521SOL    HW140196   4.515   1.877  10.365  1.4010  0.8100  0.7003
 9521SOL    HW240197   4.550   1.792  10.254  0.5404 -1.2340  0.0592
 9522SOL     OW40198   2.337   1.093  17.277  0.5453  0.1059 -0.0737
 9522SOL    HW140199   2.323   1.004  17.245 -1.9967  0.1287  0.9842
 9522SOL    HW240200   2.252   1.135  17.264 -1.3532 -2.7701  2.9936
 9523SOL     OW40201   1.404   1.235   7.955 -0.0871 -0.3526 -0.0599
 9523SOL    HW140202   1.440   1.149   7.933 -0.5439 -0.8817  1.2551
 9523SOL    HW240203   1.330   1.230   7.895  1.5746 -3.0378 -1.8715
 9524SOL     OW40204   1.674   0.186  15.264 -0.6996  0.2597  0.1789
 9524SOL    HW140205   1.677   0.173  15.359  1.7101 -0.9203 -0.0901
 9524SOL    HW240206   1.636   0.101  15.244 -0.6849  0.5060 -0.9058
 9525SOL     OW40207   2.624   4.017  11.174 -0.0960  0.1736  0.3864
 9525SOL    HW140208   2.652   3.939  11.221 -1.9418 -1.5873 -1.4685
 9525SOL    HW240209   2.537   3.990  11.145  0.2723 -1.6333  0.9640
 9526SOL     OW40210   2.751   2.262   8.016 -0.0569  0.5516 -0.1295
 9526SOL    HW140211   2.815   2.325   7.983 -0.1980  1.9820  2.3140
 9526SOL    HW240212   2.680   2.291   7.958 -0.7072 -0.5499  0.1335
 9527SOL     OW40213   2.231   3.273   7.016  0.2851  0.2165  0.0331
 9527SOL    HW140214   2.158   3.236   6.966 -0.9067 -0.5077  2.3591
 9527SOL    HW240215   2.296   3.278   6.945  0.5691 -1.5800  0.1615
 9528SOL     OW40216   4.398   4.056  17.342 -0.3590  0.4737 -0.6738
 9528SOL    HW140217   4.453   3.997  17.394  0.1304  1.2591 -0.2855
 9528SOL    HW240218   4.352   4.106  17.410 -0.9741  1.0673 -1.5305
 9529SOL     OW40219   2.715   4.591  16.268  0.1434 -0.4762 -0.0098
 9529SOL    HW140220   2.758   4.676  16.257  1.0642 -0.8497  0.6952
 9529SOL    HW240221   2.631   4.613  16.310  0.6987  1.2818  0.1765
 9530SOL     OW40222   1.017   3.284   8.671 -0.1707  0.3280  0.2429
 9530SOL    HW140223   1.018   3.376   8.648 -1.2412  0.0392 -0.9447
 9530SOL    HW240224   1.058   3.243   8.595 -0.1869 -0.1767  0.5053
 9531SOL     OW40225   3.210   2.040   7.532 -0.4024  0.0785 -0.5158
 9531SOL    HW140226   3.149   2.080   7.594 -0.4783 -0.0831 -0.4868
 9531SOL    HW240227   3.281   2.094   7.567  0.7934 -1.6534 -0.2436
 9532SOL     OW40228   0.556   0.507   8.051  0.5181  0.1947 -0.4412
 9532SOL    HW140229   0.601   0.456   8.118  1.8082  0.8228 -0.8386
 9532SOL    HW240230   0.569   0.448   7.976  0.7557  1.8645 -1.7130
 9533SOL     OW40231   0.764   3.636   9.370  0.1816 -0.0950 -0.5461
 9533SOL    HW140232   0.835   3.684   9.413  0.2905 -0.3521 -0.4420
 9533SOL    HW240233   0.778   3.554   9.418 -1.7478  0.5713  1.1510
 9534SOL     OW40234   3.328   2.930   8.106  0.2744  0.0245 -0.1553
 9534SOL    HW140235   3.329   3.025   8.091 -0.3668 -0.0032 -0.3826
 9534SOL    HW240236   3.364   2.900   8.023 -0.4373  2.7673 -1.4488
 9535SOL     OW40237   3.166   4.489   7.549  0.2142 -0.0701  0.3942
 9535SOL    HW140238   3.172   4.583   7.565  0.4752 -0.3151  1.8154
 9535SOL    HW240239   3.159   4.484   7.454 -1.6858  1.2461  0.4483
 9536SOL     OW40240   1.498   2.624   3.130 -0.0540 -0.0720 -0.1207
 9536SOL    HW140241   1.455   2.547   3.167 -2.1099  1.0166 -0.2109
 9536SOL    HW240242   1.469   2.676   3.205  0.5467  0.7629 -0.4638
 9537SOL     OW40243   1.299   3.699   5.811  0.9187  0.0948 -0.1018
 9537SOL    HW140244   1.384   3.740   5.827  1.4171 -1.3037  0.8075
 9537SOL    HW240245   1.268   3.739   5.730  0.7577 -0.3713 -0.2715
 9538SOL     OW40246   0.416   1.758   8.661  0.1966  0.1180  0.4242
 9538SOL    HW140247   0.504   1.793   8.671  0.5035  0.0704 -2.1765
 9538SOL    HW240248   0.431   1.672   8.698  0.6796  0.1156  0.2226
 9539SOL     OW40249   2.374   2.662   2.045  0.4264  0.4304 -0.0710
 9539SOL    HW140250   2.305   2.709   1.998  0.9942  1.9663  0.6387
 9539SOL    HW240251   2.362   2.585   1.989 -0.3102  0.4848 -0.0004
 9540SOL     OW40252   4.526   1.642  15.560 -0.0191  0.7710 -0.8673
 9540SOL    HW140253   4.544   1.573  15.623  0.8182  1.3110 -0.5280
 9540SOL    HW240254   4.502   1.714  15.618 -0.0657 -0.1786  0.2791
 9541SOL     OW40255   1.199   4.143   5.797  0.1994  0.0820 -0.2907
 9541SOL    HW140256   1.103   4.134   5.793  0.4046 -1.7463 -1.2135
 9541SOL    HW240257   1.214   4.066   5.852 -1.2963 -1.1402 -1.6023
 9542SOL     OW40258   2.494   0.404   5.722 -1.1445 -0.0167  0.2971
 9542SOL    HW140259   2.469   0.340   5.789 -0.0504 -0.8053 -0.0501
 9542SOL    HW240260   2.484   0.363   5.636 -1.5566 -2.3779  1.4759
 9543SOL     OW40261   3.366   1.266   6.439  0.0125 -0.4622  0.3737
 9543SOL    HW140262   3.314   1.188   6.459 -1.6033  0.1256 -1.5057
 9543SOL    HW240263   3.347   1.272   6.346  0.8505 -0.0105  0.2351
 9544SOL     OW40264   4.484   1.689   1.351  1.0319  0.4958 -0.2158
 9544SOL    HW140265   4.392   1.663   1.348  0.8042  1.2580  0.1515
 9544SOL    HW240266   4.485   1.716   1.443 -2.9861  0.4512 -0.1761
 9545SOL     OW40267   4.278   2.485  15.392 -0.4825  0.4042  0.1336
 9545SOL    HW140268   4.340   2.444  15.332  1.3591  2.1247  0.8722
 9545SOL    HW240269   4.292   2.578  15.376 -0.0003  0.4914  1.0469
 9546SOL     OW40270   1.784   2.916  10.552  0.5124  0.1394 -0.1079
 9546SOL    HW140271   1.729   2.967  10.611 -0.9669 -0.0712 -1.3013
 9546SOL    HW240272   1.750   2.826  10.559  2.3537 -0.7350 -2.5782
 9547SOL     OW40273   2.627   1.465  12.616 -0.0097  0.7609  0.0992
 9547SOL    HW140274   2.694   1.468  12.548 -1.0671  0.0960 -0.9779
 9547SOL    HW240275   2.682   1.430  12.686  0.0243  1.0906  0.2376
 9548SOL     OW40276   2.569   3.130  12.196  0.1240  0.1830  0.1255
 9548SOL    HW140277   2.644   3.173  12.238 -2.4659  1.8099  3.0328
 9548SOL    HW240278   2.604   3.040  12.201 -0.0521  0.0530 -1.1540
 9549SOL     OW40279   0.088   0.562   7.013 -0.2916 -0.3492  0.2575
 9549SOL    HW140280   0.006   0.609   6.998  0.6094  0.9169 -0.6711
 9549SOL    HW240281   0.146   0.629   7.050  0.4173  0.8956 -3.1105
 9550SOL     OW40282   3.605   2.544   5.672  0.5928 -0.5027 -0.3108
 9550SOL    HW140283   3.638   2.561   5.584  2.3877 -0.7276  0.3168
 9550SOL    HW240284   3.512   2.564   5.659  0.7882  0.9209  0.4954
 9551SOL     OW40285   2.054   2.179   9.633  0.2095 -0.1621  0.1533
 9551SOL    HW140286   2.043   2.229   9.714  0.0825 -1.8683  1.1894
 9551SOL    HW240287   1.979   2.119   9.642 -0.3015  0.8210  2.3410
 9552SOL     OW40288   2.835   4.098   5.757 -0.3863  0.0272 -0.1400
 9552SOL    HW140289   2.842   4.164   5.688 -0.6718 -0.0260 -0.2195
 9552SOL    HW240290   2.750   4.054   5.750 -2.5649  3.6641  3.6533
 9553SOL     OW40291   4.128   4.330   7.088 -0.3054  0.0774 -0.1180
 9553SOL    HW140292   4.128   4.390   7.013 -1.3955 -0.8469 -0.8481
 9553SOL    HW240293   4.037   4.322   7.114 -0.2468  1.1977  0.4230
 9554SOL     OW40294   2.231   1.194   3.137  0.2161  0.0550 -0.2020
 9554SOL    HW140295   2.230   1.286   3.164 -2.2503  0.0242 -0.1377
 9554SOL    HW240296   2.149   1.175   3.092  0.9068 -1.0436 -0.9912
 9555SOL     OW40297   0.703   1.256   2.470 -0.1016  0.5486  0.0136
 9555SOL    HW140298   0.620   1.303   2.475  0.4804  1.6046 -0.3276
 9555SOL    HW240299   0.718   1.245   2.377 -1.7042 -0.8899 -0.0900
 9556SOL     OW40300   3.026   3.859  16.857 -0.2213 -0.4295 -0.0115
 9556SOL    HW140301   2.965   3.785  16.858 -0.2758 -0.3789  0.4455
 9556SOL    HW240302   3.062   3.855  16.769 -1.1052  0.1110 -0.3945
 9557SOL     OW40303   3.953   1.006   3.049  0.0595  0.3179 -0.0253
 9557SOL    HW140304   3.892   0.944   3.091  1.5837 -0.0077  1.7281
 9557SOL    HW240305   3.907   1.089   3.058 -0.1699  0.2494 -0.5603
 9558SOL     OW40306   4.369   0.876   5.413 -0.3363 -0.3210  0.2132
 9558SOL    HW140307   4.364   0.848   5.505  1.3746 -4.2659 -0.9179
 9558SOL    HW240308   4.397   0.794   5.375 -0.1079  0.2666 -0.8721
 9559SOL     OW40309   2.769   1.611   0.872  0.0127 -0.1713 -0.1885
 9559SOL    HW140310   2.694   1.567   0.831 -0.4998 -0.2412  0.8113
 9559SOL    HW240311   2.785   1.683   0.811 -0.8154 -0.4385 -0.7345
 9560SOL     OW40312   0.056   3.481   5.458 -0.0383  0.7512  0.0148
 9560SOL    HW140313   0.041   3.502   5.550 -0.8392  0.8250 -0.1267
 9560SOL    HW240314   0.032   3.388   5.452  2.3965  0.2857 -2.5380
 9561SOL     OW40315   1.919   4.124  15.388 -0.2239  0.3418  0.6553
 9561SOL    HW140316   1.843   4.136  15.446  1.1348  3.0132  1.9039
 9561SOL    HW240317   1.882   4.166  15.310  0.1792 -1.8496 -0.6837
 9562SOL     OW40318   3.953   2.680   2.592 -0.1429  0.2363 -0.0476
 9562SOL    HW140319   3.894   2.615   2.554 -0.4919  0.6118 -0.1484
 9562SOL    HW240320   3.947   2.652   2.684  0.4969 -1.1777 -0.4367
 9563SOL     OW40321   2.365   3.680  11.284  0.0209 -0.3707 -0.1249
 9563SOL    HW140322   2.291   3.667  11.343 -0.7426 -2.3122 -1.5228
 9563SOL    HW240323   2.357   3.774  11.268  0.1500  0.2588  3.5166
 9564SOL     OW40324   3.293   3.939  15.424 -0.0994 -0.0117 -0.0125
 9564SOL    HW140325   3.266   3.995  15.496  0.2056  2.7316 -2.0419
 9564SOL    HW240326   3.227   3.963  15.359  1.8533  2.1453 -1.1960
 9565SOL     OW40327   3.622   0.683  12.853 -0.0873  0.2670 -0.1166
 9565SOL    HW140328   3.679   0.677  12.777  0.4306  1.5645  0.1650
 9565SOL    HW240329   3.550   0.735  12.816 -0.2731  0.6500  0.7689
 9566SOL     OW40330   2.690   1.180   7.831 -0.0646 -0.2946 -0.3990
 9566SOL    HW140331   2.676   1.196   7.924 -0.5419  1.2656 -0.7408
 9566SOL    HW240332   2.599   1.172   7.805 -0.1899 -1.8313  0.5156
 9567SOL     OW40333   4.420   0.574   8.861  0.2512 -0.1784  0.2534
 9567SOL    HW140334   4.404   0.517   8.937 -0.7135 -2.2287 -1.4773
 9567SOL    HW240335   4.349   0.637   8.868  0.3683  0.0815 -0.9621
 9568SOL     OW40336   4.273   0.422   4.186  0.4713 -0.1322 -0.3418
 9568SOL    HW140337   4.311   0.392   4.269 -2.0157 -1.1377  0.4353
 9568SOL    HW240338   4.349   0.472   4.154 -0.1857  1.2530  0.2329
 9569SOL     OW40339   3.122   0.065   8.987  0.0908 -0.1428  0.5162
 9569SOL    HW140340   3.066   0.095   8.915 -0.6180  1.4128  1.7162
 9569SOL    HW240341   3.058   0.049   9.056 -1.2405  2.5304 -0.1325
 9570SOL     OW40342   0.584   2.442   4.769 -0.0900  0.7373  0.6550
 9570SOL    HW140343   0.589   2.492   4.851 -1.4580  2.0719 -0.0597
 9570SOL    HW240344   0.624   2.358   4.791 -0.9555  0.8095  2.5540
 9571SOL     OW40345   4.511   3.099   5.949  0.0072  0.1703  0.3291
 9571SOL    HW140346   4.468   3.184   5.941  1.5418  0.6459 -2.6722
 9571SOL    HW240347   4.573   3.128   6.016 -1.5472  0.5477  1.6025
   4.73503   4.73503  17.73900
