Membrane in water
40347
    1TMC1    C1    1   1.696   1.549  11.719  0.0364 -0.6264  0.4231
    1TMC1    C2    2   1.613   1.648  11.774  0.2623  0.1594 -0.8061
    1TMC1    C3    3   1.607   1.766  11.708 -0.6330  0.0118  0.2032
    1TMC1    C4    4   1.759   1.565  11.599  0.4349 -0.1367  0.5278
    1TMC1    C5    5   1.760   1.686  11.546 -0.4592 -0.4086  0.3007
    1TMC1    C6    6   1.682   1.785  11.598  0.5115 -0.4685  0.6274
    1TMC1     C    7   1.633   1.424  11.737  0.8927 -0.0307  0.8529
    1TMC1     O    8   1.506   1.428  11.744 -0.6679 -0.2983 -0.3700
    1TMC1     H    9   1.556   1.633  11.866  2.3765 -0.3553  0.4248
    1TMC1    H1   10   1.790   1.474  11.548 -1.9422  0.2396 -1.5660
    1TMC1    H2   11   1.682   1.882  11.550 -1.0972  0.0139  1.6013
    1TMC1    C7   12   1.803   1.706  11.411 -0.9324 -0.0880 -0.2511
    1TMC1    C8   13   1.537   1.882  11.765 -0.1145 -0.7477  0.2200
    1TMC1    O1   14   1.753   1.770  11.319 -0.5052  0.0163 -0.0125
    1TMC1    O2   15   1.597   1.990  11.775  0.3850  0.0886 -0.5929
    1TMC1    O3   16   1.895   1.612  11.389  0.2591  0.1877 -0.2954
    1TMC1    H3   17   1.953   1.594  11.465  1.2963  1.4330 -0.7815
    1TMC1    O5   18   1.418   1.848  11.822  0.0156 -0.2248 -0.6689
    1TMC1    H5   19   1.396   1.760  11.787  0.4908 -0.8415  0.5858
    2MPD2     C   20   1.668   0.913  11.740  1.1406 -0.2190 -0.5240
    2MPD2    C1   21   1.558   1.002  11.745  0.2207 -0.5534 -0.4124
    2MPD2    C2   22   1.575   1.138  11.755  0.1942  0.5556  0.7211
    2MPD2    C3   23   1.705   1.189  11.752 -0.6086  0.1575 -1.2733
    2MPD2    C4   24   1.810   1.099  11.750 -0.0312  0.2579 -0.2976
    2MPD2    C5   25   1.790   0.967  11.754 -0.1274  0.1265  0.0953
    2MPD2     H   26   1.491   1.202  11.777  0.2100  2.2494 -4.1980
    2MPD2    H1   27   1.908   1.142  11.767  0.0497  0.5223 -1.3979
    2MPD2    H2   28   1.663   0.805  11.745 -0.5525 -0.0441  1.7610
    2MPD2    H3   29   1.875   0.902  11.773  2.9951  3.4565 -2.4046
    2MPD2     N   30   1.728   1.326  11.754 -0.2299 -0.3075 -0.0653
    2MPD2    H5   31   1.825   1.354  11.738 -1.1411  1.3403 -2.9137
    2MPD2    N1   32   1.426   0.956  11.738 -0.5212  0.4338  0.4753
    2MPD2    H7   33   1.358   1.028  11.758  0.0514  0.9390  0.6280
    3TMC1    C1   34   0.384   1.529  10.607  0.3446  0.0415 -0.5721
    3TMC1    C2   35   0.458   1.595  10.520 -0.1612  0.1372  0.5554
    3TMC1    C3   36   0.475   1.537  10.398  0.1866 -0.4056 -0.0495
    3TMC1    C4   37   0.344   1.400  10.584  0.2491 -0.8162 -0.2341
    3TMC1    C5   38   0.357   1.345  10.459  0.4695 -0.1678 -0.8411
    3TMC1    C6   39   0.428   1.411  10.369 -0.7558 -0.3682 -0.6215
    3TMC1     C   40   0.359   1.580  10.746 -0.0336 -0.0432 -0.4960
    3TMC1     O   41   0.331   1.494  10.828  0.2625  0.2870  0.2824
    3TMC1     H   42   0.504   1.689  10.547 -0.2961 -0.1366  1.7493
    3TMC1    H1   43   0.278   1.350  10.654  0.0364 -0.2345 -0.0221
    3TMC1    H2   44   0.453   1.359  10.277  1.8705  3.9627 -2.3372
    3TMC1    C7   45   0.355   1.200  10.452 -0.2072  0.2253 -0.0995
    3TMC1    C8   46   0.521   1.617  10.288  0.4539  0.1811 -0.1529
    3TMC1    O1   47   0.286   1.138  10.532 -0.2195 -0.4123  0.3443
    3TMC1    O2   48   0.579   1.573  10.192 -0.5469  1.0132 -0.4266
    3TMC1    O3   49   0.479   1.161  10.413 -0.3183 -0.4346 -0.1401
    3TMC1    H3   50   0.534   1.235  10.381 -2.0288  1.6915  1.7940
    3TMC1    O5   51   0.502   1.747  10.314 -0.1067  0.3614 -0.3259
    3TMC1    H5   52   0.440   1.757  10.389 -1.6005  0.5871 -1.5876
    4MPD2     C   53   0.472   1.905  11.128 -0.7737  0.1265  0.2380
    4MPD2    C1   54   0.474   1.978  11.014 -0.7609 -0.6090 -0.5431
    4MPD2    C2   55   0.445   1.912  10.895  0.0064 -0.8589 -0.2680
    4MPD2    C3   56   0.429   1.776  10.889 -0.5392  0.1868 -0.1070
    4MPD2    C4   57   0.422   1.699  11.007  0.1290  0.1496 -0.1602
    4MPD2    C5   58   0.445   1.772  11.120  0.3375  0.1229 -0.0170
    4MPD2     H   59   0.448   1.971  10.804  0.1503  0.8986  0.8948
    4MPD2    H1   60   0.415   1.592  11.021  0.1200  0.1817  0.0919
    4MPD2    H2   61   0.493   1.952  11.223 -0.0086 -0.8023  0.5262
    4MPD2    H3   62   0.450   1.711  11.209 -2.3807  0.0221  0.0768
    4MPD2     N   63   0.403   1.708  10.763  0.5670  0.1577 -0.0625
    4MPD2    H5   64   0.408   1.771  10.683 -3.3114  1.2991  0.6302
    4MPD2    N1   65   0.507   2.111  11.006  0.0621 -0.0861  0.1480
    4MPD2    H7   66   0.497   2.158  10.917  1.8655  2.4604  1.2869
    5TCq1    O1   67   1.113   3.071   9.432 -0.1385  0.4240  0.3261
    5TCq1    C1   68   1.135   3.051   9.566 -0.3076  0.3439  0.1918
    5TCq1    O2   69   1.229   2.989   9.610  0.0776 -0.3758 -0.0107
    5TCq1    C2   70   1.052   3.150   9.638 -0.0388 -0.1181  0.2468
    5TCq1    C3   71   0.918   3.152   9.625  0.2401  0.3983  0.1334
    5TCq1    C4   72   0.847   3.227   9.713 -0.6406  0.0945  0.2672
    5TCq1    C5   73   0.920   3.312   9.797 -0.4697 -0.7436 -0.2641
    5TCq1    C6   74   1.057   3.320   9.797 -0.1297 -0.0659 -0.1035
    5TCq1    C7   75   1.130   3.236   9.713 -0.0593  0.5073  0.1583
    5TCq1    C8   76   1.123   3.383   9.898  0.5009  1.0148 -0.1666
    5TCq1    O4   77   1.056   3.399  10.000 -0.6613 -0.3872  0.0904
    5TCq1    C9   78   0.704   3.226   9.720  0.3493 -0.8925 -0.2610
    5TCq1    O5   79   0.640   3.310   9.789  0.1320  0.5461 -0.6020
    5TCq1    O6   80   0.653   3.126   9.661 -0.7462  0.2879 -0.0643
    5TCq1    H1   81   1.046   3.143   9.422 -0.3779  0.3538  1.5027
    5TCq1    H2   82   0.873   3.081   9.557  2.6912 -1.8132  0.8296
    5TCq1    H3   83   0.863   3.369   9.869  1.0175  0.0164  0.3296
    5TCq1    H4   84   1.238   3.235   9.708 -0.0567  0.9838  0.1136
    6MPD2     C   85   1.422   3.608   9.878 -0.2630  0.1246  0.5502
    6MPD2    C1   86   1.324   3.528   9.939  0.6824  0.3465  0.2875
    6MPD2    C2   87   1.300   3.556  10.071  0.3844 -0.0941  0.4458
    6MPD2    C3   88   1.369   3.659  10.141 -0.6335 -1.0128 -0.4860
    6MPD2    C4   89   1.460   3.736  10.073 -0.0533 -0.9579 -0.6033
    6MPD2    C5   90   1.486   3.709   9.940  0.1473  0.1108 -0.0857
    6MPD2     H   91   1.222   3.507  10.128 -1.2045  0.0332 -1.6214
    6MPD2    H1   92   1.524   3.816  10.108 -2.3187  1.0546 -1.0817
    6MPD2    H2   93   1.458   3.595   9.777 -0.5605  1.8003  0.2360
    6MPD2    H3   94   1.564   3.764   9.888  0.5252 -0.7748 -0.4607
    6MPD2     N   95   1.344   3.667  10.279 -0.1249 -0.1817 -0.2934
    6MPD2    H5   96   1.287   3.596  10.324  1.0994 -0.7653  0.3171
    6MPD2    N1   97   1.238   3.445   9.863  0.7656  0.0614  0.0588
    6MPD2    H7   98   1.265   3.434   9.766  3.0565 -0.4555  0.7676
    7TCq1    O1   99   3.781   3.536  13.699  0.0577  0.0768 -0.3147
    7TCq1    C1  100   3.712   3.429  13.655 -1.1100 -0.3486  0.7173
    7TCq1    O2  101   3.642   3.355  13.724 -0.2789  0.2061  0.6813
    7TCq1    C2  102   3.669   3.455  13.518  0.5023 -0.2448 -0.1837
    7TCq1    C3  103   3.631   3.583  13.486  0.4735  0.0778 -0.5873
    7TCq1    C4  104   3.556   3.603  13.379  0.7851  0.1829 -0.1659
    7TCq1    C5  105   3.506   3.495  13.305  0.0586  0.4725 -0.8369
    7TCq1    C6  106   3.545   3.373  13.334  0.4141 -0.0737  0.3431
    7TCq1    C7  107   3.617   3.355  13.449 -0.5642  0.6608  0.5952
    7TCq1    C8  108   3.524   3.250  13.261 -0.8426 -0.2816  0.0984
    7TCq1    O4  109   3.555   3.144  13.315 -0.2723 -0.3358 -0.7526
    7TCq1    C9  110   3.522   3.743  13.344 -0.2716  0.0809 -0.9004
    7TCq1    O5  111   3.424   3.759  13.265  0.0546 -0.4456  0.1411
    7TCq1    O6  112   3.591   3.835  13.388  0.2152  0.1866 -0.0514
    7TCq1    H1  113   3.839   3.583  13.636 -0.7668  0.2080 -0.9822
    7TCq1    H2  114   3.666   3.671  13.538 -2.2545  1.3765 -0.9606
    7TCq1    H3  115   3.447   3.517  13.216  0.0405 -0.3324 -1.0241
    7TCq1    H4  116   3.666   3.260  13.467  0.1178  0.6109 -1.5326
    8MPD2     C  117   3.329   2.986  12.883  0.9428 -0.0828 -0.1039
    8MPD2    C1  118   3.324   2.963  13.021 -0.1580 -0.7187 -0.2115
    8MPD2    C2  119   3.381   3.054  13.103 -0.2563 -0.2474 -0.0421
    8MPD2    C3  120   3.434   3.172  13.050  0.3910 -0.3855  0.0084
    8MPD2    C4  121   3.425   3.205  12.920  0.2477  0.0888  0.3851
    8MPD2    C5  122   3.369   3.111  12.837 -0.2823  0.0046  0.3615
    8MPD2     H  123   3.395   3.026  13.206 -2.2386  1.6511  0.7346
    8MPD2    H1  124   3.479   3.291  12.883  1.5889 -0.3773  1.2253
    8MPD2    H2  125   3.286   2.918  12.811  0.5457 -1.3265  1.3186
    8MPD2    H3  126   3.372   3.116  12.729 -2.1585  0.3326  0.3275
    8MPD2     N  127   3.483   3.271  13.135  0.8512  0.1042 -0.2585
    8MPD2    H5  128   3.481   3.364  13.095  0.6799  0.6906  1.0919
    8MPD2    N1  129   3.256   2.847  13.058 -0.4934 -0.6438  0.3240
    8MPD2    H7  130   3.239   2.777  12.986 -1.5203  0.2284 -0.2804
    9TMC1    C1  131   1.559   2.357  11.218  0.4648 -0.3757 -0.8586
    9TMC1    C2  132   1.449   2.441  11.221  0.3677 -0.3350  0.7129
    9TMC1    C3  133   1.450   2.544  11.131 -0.6739  0.3476  0.3557
    9TMC1    C4  134   1.663   2.371  11.132  1.0087 -0.1042 -0.1823
    9TMC1    C5  135   1.657   2.475  11.046  0.0872  0.3320  0.4209
    9TMC1    C6  136   1.560   2.574  11.054  0.0966 -0.1546  0.2033
    9TMC1     C  137   1.565   2.238  11.305  0.6843  0.1369  0.3324
    9TMC1     O  138   1.659   2.168  11.278  0.0033  0.2364 -0.3043
    9TMC1     H  139   1.356   2.410  11.268 -0.5470 -0.6472 -1.2657
    9TMC1    H1  140   1.749   2.306  11.135  1.5524  0.7491  2.1506
    9TMC1    H2  141   1.570   2.665  10.997 -3.4235  0.6388  0.8252
    9TMC1    C7  142   1.779   2.501  10.976 -0.3887  0.5683  0.2470
    9TMC1    C8  143   1.330   2.624  11.133  0.1736 -0.3730  0.2817
    9TMC1    O1  144   1.814   2.616  10.964 -0.2074  0.2040 -0.0122
    9TMC1    O2  145   1.254   2.618  11.230  0.6922 -0.3882  0.5010
    9TMC1    O3  146   1.812   2.392  10.900  0.0699  0.4688  0.4057
    9TMC1    H3  147   1.747   2.324  10.927 -0.5992  1.0619  0.3002
    9TMC1    O5  148   1.294   2.640  11.006  0.6536  0.2124 -0.3319
    9TMC1    H5  149   1.351   2.622  10.928 -0.4289 -1.8750 -0.6205
   10MPD2     C  150   1.456   1.980  11.350  0.2608  0.9104  0.3322
   10MPD2    C1  151   1.410   2.095  11.415  0.3174  0.2138  0.1388
   10MPD2    C2  152   1.298   2.087  11.500  0.0195  0.1610  0.3013
   10MPD2    C3  153   1.244   1.963  11.523 -0.6850  0.0891  0.3598
   10MPD2    C4  154   1.285   1.850  11.457  0.5051  0.2406 -0.1397
   10MPD2    C5  155   1.384   1.865  11.368 -0.9196  0.6353 -0.4404
   10MPD2     H  156   1.266   2.177  11.550 -0.1893 -0.8652  2.0238
   10MPD2    H1  157   1.235   1.755  11.470 -1.1543  1.1664  0.2448
   10MPD2    H2  158   1.533   1.980  11.274  0.0668  1.1483  0.1330
   10MPD2    H3  159   1.429   1.784  11.312 -0.0396 -0.2743  1.6223
   10MPD2     N  160   1.139   1.940  11.613  0.3331 -0.2993 -0.2306
   10MPD2    H5  161   1.116   1.842  11.627  0.4780 -0.2833  0.1340
   10MPD2    N1  162   1.452   2.220  11.379 -0.4012  0.1750  0.2999
   10MPD2    H7  163   1.393   2.297  11.408 -1.2913  0.5082 -2.4429
   11TCq1    O1  164   1.779   1.397  14.438 -0.3727 -0.0146  0.3332
   11TCq1    C1  165   1.761   1.372  14.309  0.1609  0.0420  1.4073
   11TCq1    O2  166   1.830   1.289  14.246 -0.1843 -0.4948 -0.1382
   11TCq1    C2  167   1.623   1.399  14.273 -0.6281  0.3086 -0.3816
   11TCq1    C3  168   1.557   1.492  14.347  0.1729 -0.8523 -0.2658
   11TCq1    C4  169   1.418   1.475  14.367 -0.1177  0.1118  0.0164
   11TCq1    C5  170   1.349   1.375  14.314  0.0730 -0.4162  0.2958
   11TCq1    C6  171   1.421   1.281  14.247 -0.3729 -0.5658  0.1539
   11TCq1    C7  172   1.555   1.292  14.224 -0.0837  0.4325  0.2072
   11TCq1    C8  173   1.342   1.180  14.188 -1.0466  0.1908  0.6026
   11TCq1    O4  174   1.231   1.206  14.140 -0.2945  0.3740  0.0392
   11TCq1    C9  175   1.353   1.570  14.447  0.4663  0.1288 -0.0545
   11TCq1    O5  176   1.236   1.543  14.490  0.0577  0.4354 -0.3578
   11TCq1    O6  177   1.432   1.658  14.492 -0.8206  0.0322 -0.2684
   11TCq1    H1  178   1.731   1.473  14.480 -0.9191  0.6315 -1.4754
   11TCq1    H2  179   1.608   1.581  14.379 -0.0561 -1.0759  0.7092
   11TCq1    H3  180   1.241   1.378  14.316 -0.0274 -0.6197 -3.1954
   11TCq1    H4  181   1.610   1.229  14.154  0.8815  0.8849  0.5600
   12MPD2     C  182   1.278   0.954  14.017  0.1130  0.5469  0.3618
   12MPD2    C1  183   1.369   0.946  14.125 -0.0735 -0.6398 -0.1865
   12MPD2    C2  184   1.411   0.819  14.174 -0.1872  0.2188  0.5225
   12MPD2    C3  185   1.382   0.704  14.094 -0.0778  0.2746 -0.0042
   12MPD2    C4  186   1.286   0.717  13.991 -0.8260  0.3714  0.1492
   12MPD2    C5  187   1.233   0.837  13.958 -0.3398  0.0774  0.4476
   12MPD2     H  188   1.477   0.817  14.260 -1.8812  2.0773  1.8560
   12MPD2    H1  189   1.253   0.626  13.943  0.1546  2.0038 -3.5964
   12MPD2    H2  190   1.247   1.046  13.969 -2.6232 -0.1666  0.8128
   12MPD2    H3  191   1.157   0.828  13.882 -2.1650 -1.5517  2.4593
   12MPD2     N  192   1.424   0.575  14.130  0.1177  0.1834  0.3284
   12MPD2    H5  193   1.388   0.503  14.069  0.3775 -0.9018  1.4419
   12MPD2    N1  194   1.416   1.066  14.184 -0.0007  0.1046  0.6527
   12MPD2    H7  195   1.489   1.058  14.254  0.1398 -1.7666  0.2883
   13TCq1    O1  196   1.031   2.595  10.582  0.2001 -0.6406  0.0802
   13TCq1    C1  197   0.964   2.531  10.486 -0.1406 -0.1916 -0.2646
   13TCq1    O2  198   0.952   2.572  10.371  0.4923  0.1789 -0.2499
   13TCq1    C2  199   0.976   2.389  10.522 -0.3831 -0.2164  0.2863
   13TCq1    C3  200   1.020   2.302  10.426  0.0755 -0.4588  0.1044
   13TCq1    C4  201   1.051   2.169  10.464 -0.2353  0.6789 -0.2589
   13TCq1    C5  202   1.005   2.124  10.587 -0.2857  0.4987  0.2871
   13TCq1    C6  203   0.956   2.219  10.672 -0.2860  0.0966  0.3841
   13TCq1    C7  204   0.960   2.350  10.649 -0.1699  0.0759 -0.4389
   13TCq1    C8  205   0.925   2.176  10.812  0.6674  0.2004 -0.1949
   13TCq1    O4  206   0.837   2.235  10.877  0.8570  0.2809 -0.2181
   13TCq1    C9  207   1.116   2.093  10.361 -0.1294  0.1100 -0.1668
   13TCq1    O5  208   1.150   2.150  10.252  0.0193  0.0104 -0.5511
   13TCq1    O6  209   1.165   1.984  10.402  0.4312 -0.2154 -0.4676
   13TCq1    H1  210   1.056   2.535  10.656  1.4056  1.4155  1.3578
   13TCq1    H2  211   1.039   2.332  10.324 -0.5411  1.2434  0.4977
   13TCq1    H3  212   1.023   2.020  10.610 -1.9843 -0.1578 -1.4187
   13TCq1    H4  213   0.933   2.416  10.730  1.2927  1.8427 -1.3911
   14MPD2     C  214   1.128   1.911  10.973 -0.5894  0.4519  0.2948
   14MPD2    C1  215   1.021   1.997  10.961 -0.0552 -0.3484 -0.1232
   14MPD2    C2  216   0.915   1.996  11.059  0.2586 -0.8203  0.2490
   14MPD2    C3  217   0.922   1.918  11.172 -0.3352  0.4558  0.3247
   14MPD2    C4  218   1.036   1.848  11.185 -0.1590 -0.0770  0.2946
   14MPD2    C5  219   1.134   1.839  11.092  0.2805 -0.3927  0.0114
   14MPD2     H  220   0.833   2.067  11.058  1.1316  0.1813 -0.4988
   14MPD2    H1  221   1.067   1.785  11.267 -3.1241  0.3947  1.7872
   14MPD2    H2  222   1.201   1.891  10.896 -1.5471  1.2019 -0.8136
   14MPD2    H3  223   1.213   1.770  11.118  0.5931  0.5902  1.6929
   14MPD2     N  224   0.819   1.928  11.265 -0.3622 -0.1469  0.6123
   14MPD2    H5  225   0.747   1.998  11.253 -0.8073 -0.6310  0.4445
   14MPD2    N1  226   1.019   2.079  10.849  0.1289  0.1381  0.1516
   14MPD2    H7  227   1.088   2.078  10.775  1.4587 -0.8395  1.4073
   15TCq1    O1  228   4.107   0.957   0.891 -0.1338  0.6226  0.2021
   15TCq1    C1  229   4.073   0.825   0.877  0.1003  0.4031  0.2238
   15TCq1    O2  230   4.149   0.743   0.828  0.1349 -0.1234  0.1690
   15TCq1    C2  231   3.952   0.795   0.946  0.0682  0.6188 -0.2282
   15TCq1    C3  232   3.894   0.888   1.028 -0.5434 -0.0862 -0.1872
   15TCq1    C4  233   3.777   0.859   1.090  0.6791 -0.1098 -0.3228
   15TCq1    C5  234   3.704   0.746   1.065  0.4961  0.0871  0.0750
   15TCq1    C6  235   3.756   0.657   0.976  0.1017 -0.6794 -0.5659
   15TCq1    C7  236   3.882   0.680   0.926  0.4118  0.0388 -0.4125
   15TCq1    C8  237   3.693   0.529   0.957  0.3379 -0.2997 -0.5079
   15TCq1    O4  238   3.771   0.455   0.892  0.5731  0.4421  0.3266
   15TCq1    C9  239   3.718   0.962   1.171 -0.7982 -0.5540 -0.4473
   15TCq1    O5  240   3.610   0.929   1.226 -0.5587 -0.2406 -0.3555
   15TCq1    O6  241   3.776   1.071   1.176 -0.5023  0.6862  0.2817
   15TCq1    H1  242   4.031   1.015   0.911 -1.5690 -0.8649 -0.9027
   15TCq1    H2  243   3.944   0.977   1.064 -0.5583  0.4724 -1.5589
   15TCq1    H3  244   3.604   0.729   1.104  0.3308  0.8810 -0.0027
   15TCq1    H4  245   3.933   0.614   0.857 -0.1701  0.1053 -0.8965
   16MPD2     C  246   3.378   0.373   1.088 -0.5466 -0.6282 -0.0358
   16MPD2    C1  247   3.502   0.382   1.023 -0.1234  0.4847  0.0420
   16MPD2    C2  248   3.556   0.265   0.957 -0.9804  0.0101 -0.4141
   16MPD2    C3  249   3.487   0.146   0.963  0.1451 -0.1553  0.1180
   16MPD2    C4  250   3.360   0.147   1.017  0.4700  0.0055 -0.0143
   16MPD2    C5  251   3.313   0.254   1.085  0.0936  0.4380  0.3049
   16MPD2     H  252   3.654   0.270   0.912 -0.5991 -0.2073  0.3783
   16MPD2    H1  253   3.305   0.056   1.039 -2.7712  1.4789 -2.0195
   16MPD2    H2  254   3.323   0.457   1.129 -0.5764 -1.2680  1.2546
   16MPD2    H3  255   3.219   0.256   1.139 -0.3754 -1.9065 -0.4457
   16MPD2     N  256   3.555   0.027   0.923  0.2657  0.3582  0.4536
   16MPD2    H5  257   3.653   0.035   0.897  0.7446 -2.4163  1.4512
   16MPD2    N1  258   3.572   0.506   1.020  0.5558 -0.1544  0.4532
   16MPD2    H7  259   3.530   0.593   1.051  1.3598  0.1014  0.8379
   17TMC1    C1  260   0.229   0.889  11.658  0.5649 -0.2312  0.7539
   17TMC1    C2  261   0.252   1.017  11.697 -0.5863 -0.4395 -0.6113
   17TMC1    C3  262   0.236   1.050  11.833 -0.4132 -0.1638 -0.5154
   17TMC1    C4  263   0.191   0.793  11.749 -0.7057  0.4608 -0.1180
   17TMC1    C5  264   0.174   0.832  11.884 -0.1860 -0.2924 -0.5177
   17TMC1    C6  265   0.202   0.959  11.930 -0.7280  0.4825 -0.1233
   17TMC1     C  266   0.280   0.830  11.535  0.1903 -0.1591  0.5222
   17TMC1     O  267   0.223   0.729  11.497  0.7324  0.2867 -0.0318
   17TMC1     H  268   0.270   1.096  11.625 -0.8507  2.7675  2.8134
   17TMC1    H1  269   0.172   0.692  11.715 -2.6559  1.2105 -1.2358
   17TMC1    H2  270   0.181   0.985  12.034 -0.0661  1.4291 -0.2279
   17TMC1    C7  271   0.207   0.733  11.988 -0.1497  0.3554  0.4765
   17TMC1    C8  272   0.254   1.183  11.888  0.3691 -0.1338 -0.0583
   17TMC1    O1  273   0.226   0.769  12.104 -0.0209  0.6898  0.7295
   17TMC1    O2  274   0.213   1.215  12.000  0.9608  0.1943 -0.1009
   17TMC1    O3  275   0.237   0.608  11.947  0.2331  0.1600  0.2323
   17TMC1    H3  276   0.233   0.595  11.849 -1.2071  2.5231  0.0015
   17TMC1    O5  277   0.343   1.250  11.808  0.0396 -0.0137 -0.2922
   17TMC1    H5  278   0.382   1.187  11.744  0.0516  1.8768 -2.1414
   18MPD2     C  279   0.402   0.771  11.270 -0.1460 -0.2639 -0.2589
   18MPD2    C1  280   0.454   0.862  11.363  0.4911  0.3599 -0.4157
   18MPD2    C2  281   0.573   0.927  11.337 -0.5377  0.5508 -0.4195
   18MPD2    C3  282   0.645   0.895  11.225 -0.3210  0.0086 -0.4217
   18MPD2    C4  283   0.590   0.812  11.132  0.5333  0.4925 -0.2608
   18MPD2    C5  284   0.470   0.747  11.152  0.4062 -0.0361  0.6421
   18MPD2     H  285   0.613   1.006  11.399  0.3202 -0.1307 -0.0964
   18MPD2    H1  286   0.645   0.793  11.041  0.5233 -1.2049  0.0825
   18MPD2    H2  287   0.309   0.715  11.280 -0.3083 -0.2751 -1.7985
   18MPD2    H3  288   0.429   0.678  11.079  2.2711 -1.0002  0.4992
   18MPD2     N  289   0.774   0.951  11.200  0.4907  0.2174  0.1899
   18MPD2    H5  290   0.817   0.929  11.110  3.2126 -0.0491  1.5639
   18MPD2    N1  291   0.384   0.905  11.483  0.1323  0.4072 -0.3485
   18MPD2    H7  292   0.419   0.979  11.542 -1.0793  0.8470 -0.1747
   19TMC2    C1  293   2.340   1.477  14.149 -0.7435 -0.0947 -0.1547
   19TMC2    C2  294   2.250   1.573  14.123 -0.4058 -0.8244  0.5375
   19TMC2    C3  295   2.117   1.536  14.101  0.1707  0.1162 -0.5054
   19TMC2    C4  296   2.308   1.345  14.155 -0.2022 -0.0621  0.4296
   19TMC2    C5  297   2.181   1.304  14.123  0.0097 -0.1728 -0.5162
   19TMC2    C6  298   2.081   1.402  14.105 -0.0602 -0.4156  0.4006
   19TMC2     C  299   2.477   1.522  14.148  0.0345  0.2923  0.0332
   19TMC2     O  300   2.498   1.628  14.096 -0.4835 -0.2119 -0.7697
   19TMC2     H  301   2.264   1.681  14.125  1.3953 -1.0491 -1.5091
   19TMC2    H1  302   2.386   1.274  14.181  0.2397 -0.0677 -0.9008
   19TMC2    H2  303   1.982   1.376  14.070  0.7497 -2.3539 -0.3940
   19TMC2    C7  304   2.156   1.165  14.098 -0.1143 -0.8046 -0.6716
   19TMC2    C8  305   2.014   1.636  14.125 -0.4595  0.4794 -0.0028
   19TMC2    O1  306   2.257   1.095  14.087 -0.2609  0.1855 -0.1063
   19TMC2    O2  307   1.904   1.601  14.170 -0.1608 -0.3906  0.0271
   19TMC2    O5  308   2.025   1.730  14.027  0.0193  0.3664  0.7574
   19TMC2    H5  309   2.099   1.737  13.963  0.1274  0.2943  0.8756
   20MPD2     C  310   2.772   1.537  14.105 -0.4583  0.3577 -0.3215
   20MPD2    C1  311   2.710   1.440  14.174  0.4878 -0.6018 -0.6848
   20MPD2    C2  312   2.782   1.334  14.218 -0.2211 -0.3918  0.9812
   20MPD2    C3  313   2.918   1.313  14.171 -0.1625 -0.6988  0.0862
   20MPD2    C4  314   2.976   1.408  14.088 -0.5750  1.1985 -0.3205
   20MPD2    C5  315   2.902   1.521  14.055 -0.6326  0.7377  0.6300
   20MPD2     H  316   2.729   1.256  14.272 -1.0161  0.5569  1.5803
   20MPD2    H1  317   3.064   1.399  14.025  0.6996  1.4252  1.4203
   20MPD2    H2  318   2.711   1.617  14.066 -0.8383 -0.4991 -1.4897
   20MPD2    H3  319   2.935   1.604  13.994 -1.4882  0.5380 -0.1165
   20MPD2     N  320   2.997   1.200  14.189 -0.4837 -0.0569 -0.2995
   20MPD2    H5  321   3.094   1.204  14.158 -0.6982  0.7914 -0.8565
   20MPD2    N1  322   2.569   1.437  14.202  0.0513  0.0277  0.1876
   20MPD2    H7  323   2.532   1.352  14.243  2.2080 -0.3438  1.3874
   21TMC2    C1  324   4.585   1.377  14.730  0.0127 -0.2262  0.0079
   21TMC2    C2  325   4.615   1.348  14.861  0.5386 -0.1920 -0.4046
   21TMC2    C3  326   4.603   1.452  14.950  0.6723  0.2178 -0.5934
   21TMC2    C4  327   4.535   1.495  14.678 -0.4629 -0.2137  0.2952
   21TMC2    C5  328   4.515   1.586  14.778  0.0680  0.0240 -0.5388
   21TMC2    C6  329   4.535   1.562  14.915  0.7716 -0.7659  0.0748
   21TMC2     C  330   4.629   1.278  14.624  0.1901  0.2568  0.2331
   21TMC2     O  331   4.728   1.209  14.659  0.0529 -0.4777  0.2533
   21TMC2     H  332   4.657   1.253  14.892 -1.4548 -1.6844 -2.2886
   21TMC2    H1  333   4.519   1.512  14.572  0.4814  0.8618  0.3256
   21TMC2    H2  334   4.506   1.642  14.982  0.3268 -1.2007  0.4016
   21TMC2    C7  335   4.448   1.704  14.735 -0.2399 -0.6885  0.1894
   21TMC2    C8  336   4.645   1.446  15.087  0.2826 -0.1087  0.4212
   21TMC2    O1  337   4.371   1.754  14.815 -0.0009 -0.1117 -0.2246
   21TMC2    O2  338   4.590   1.516  15.175 -0.3585  0.1736 -0.3432
   21TMC2    O5  339   0.018   1.368  15.097  0.5227  0.3729  0.1292
   21TMC2    H5  340   0.052   1.327  15.015 -2.2475 -0.0176 -0.8323
   22MPD2     C  341   4.616   1.104  14.148 -0.7879  0.1945 -0.7242
   22MPD2    C1  342   4.713   1.091  14.241 -0.2207  0.7580 -0.5639
   22MPD2    C2  343   4.685   1.135  14.365  0.0786 -0.5935  0.6104
   22MPD2    C3  344   4.570   1.206  14.395 -0.2938 -0.3929  0.1176
   22MPD2    C4  345   4.482   1.232  14.288  0.6350  0.0396  0.2181
   22MPD2    C5  346   4.499   1.174  14.168 -0.2245  0.4323 -0.0717
   22MPD2     H  347   0.007   1.122  14.454 -2.4668 -2.2700  2.1039
   22MPD2    H1  348   4.386   1.280  14.309  0.9361  0.0657  1.5676
   22MPD2    H2  349   4.628   1.058  14.050 -0.5179 -0.1221 -0.5418
   22MPD2    H3  350   4.430   1.191  14.086  0.4165  0.5467 -0.5893
   22MPD2     N  351   4.548   1.264  14.517  0.2499 -0.7062  0.8719
   22MPD2    H5  352   4.469   1.328  14.521 -0.4713 -1.7091  2.5228
   22MPD2    N1  353   0.095   1.028  14.211 -0.1291 -0.5082 -0.7999
   22MPD2    H7  354   0.161   1.017  14.288  0.1621 -0.7417 -1.0820
   23TMC2    C1  355   1.455   2.869  14.190 -0.8491 -0.4095 -0.2525
   23TMC2    C2  356   1.501   2.900  14.064 -0.2011 -0.8209 -0.3238
   23TMC2    C3  357   1.411   2.921  13.961  0.4084 -0.3891 -0.0415
   23TMC2    C4  358   1.320   2.846  14.216  0.3305  0.0057 -0.5700
   23TMC2    C5  359   1.232   2.880  14.117 -0.3747 -0.4913 -0.2574
   23TMC2    C6  360   1.274   2.914  13.993  0.4813 -0.5988 -0.1340
   23TMC2     C  361   1.547   2.806  14.286 -0.0338 -0.2221 -0.1950
   23TMC2     O  362   1.493   2.778  14.396  0.2007 -0.1811 -0.3697
   23TMC2     H  363   1.599   2.944  14.045 -0.7332  0.1538 -0.7882
   23TMC2    H1  364   1.290   2.836  14.320  2.6531  1.1091  0.1990
   23TMC2    H2  365   1.199   2.928  13.916 -1.1782 -0.5325  1.4909
   23TMC2    C7  366   1.100   2.826  14.128 -0.3383 -0.0525 -0.7305
   23TMC2    C8  367   1.443   2.997  13.847 -0.5296 -0.3344  0.2801
   23TMC2    O1  368   1.018   2.857  14.045  0.0823 -0.1599  0.6009
   23TMC2    O2  369   1.372   3.084  13.799 -0.0023  0.2932  0.1768
   23TMC2    O5  370   1.573   2.972  13.814 -0.2801  0.2662 -0.4269
   23TMC2    H5  371   1.621   2.895  13.852 -1.8288 -0.1083  0.7546
   24MPD2     C  372   1.997   2.610  14.425  0.4798  0.0001 -0.8003
   24MPD2    C1  373   1.874   2.606  14.491 -0.2249 -0.8415 -0.0734
   24MPD2    C2  374   1.767   2.677  14.436 -0.1956  0.7124 -0.1416
   24MPD2    C3  375   1.780   2.746  14.315 -0.1190 -0.4396 -0.5519
   24MPD2    C4  376   1.900   2.734  14.247 -0.5078 -0.1716 -0.3494
   24MPD2    C5  377   2.009   2.671  14.305  0.2205 -0.3182 -0.1139
   24MPD2     H  378   1.667   2.663  14.477  0.0026  0.7886  0.3610
   24MPD2    H1  379   1.915   2.784  14.152 -1.2262  1.6542  0.5010
   24MPD2    H2  380   2.086   2.561  14.462 -1.1554 -0.1125  2.9915
   24MPD2    H3  381   2.101   2.668  14.248 -0.6978 -0.8629 -1.5773
   24MPD2     N  382   1.671   2.793  14.239  0.6101  0.0594 -0.8407
   24MPD2    H5  383   1.698   2.819  14.144  1.3594  1.1444 -0.3246
   24MPD2    N1  384   1.854   2.539  14.615 -0.3193 -0.9341 -0.0915
   24MPD2    H7  385   1.768   2.549  14.668 -0.7592 -1.0280 -0.7836
   25TMC2    C1  386   0.631   0.769  12.245 -0.9408  0.0409 -0.9386
   25TMC2    C2  387   0.723   0.793  12.341 -0.0311 -0.5193 -0.2204
   25TMC2    C3  388   0.701   0.733  12.463 -0.0215  0.3511  0.0848
   25TMC2    C4  389   0.514   0.704  12.273  0.1916 -0.4713  0.5109
   25TMC2    C5  390   0.485   0.659  12.400 -0.5881 -1.0399 -0.8887
   25TMC2    C6  391   0.577   0.678  12.493 -0.6901  0.0908  0.3530
   25TMC2     C  392   0.672   0.795  12.107 -0.5578 -0.9348 -0.1623
   25TMC2     O  393   0.746   0.889  12.086  0.3430  0.3295 -0.2164
   25TMC2     H  394   0.812   0.855  12.330 -1.3766  1.3967 -0.3162
   25TMC2    H1  395   0.436   0.701  12.197 -0.2631 -1.4494  1.0160
   25TMC2    H2  396   0.546   0.649  12.593  3.0524  0.0264  1.4972
   25TMC2    C7  397   0.364   0.593  12.437  0.4028  0.3144 -0.4529
   25TMC2    C8  398   0.777   0.773  12.582  0.3237  0.0303 -0.2763
   25TMC2    O1  399   0.370   0.522  12.536  0.1428  0.3990  0.7846
   25TMC2    O2  400   0.744   0.729  12.692  0.4573 -0.0969 -0.1954
   25TMC2    O5  401   0.894   0.831  12.564 -0.5848  0.5919  0.0150
   25TMC2    H5  402   0.915   0.853  12.470  0.0423 -2.8607 -0.6622
   26MPD2     C  403   0.657   0.714  11.592  0.1079 -0.0414 -0.4608
   26MPD2    C1  404   0.564   0.633  11.649  0.5094  0.3390  0.8171
   26MPD2    C2  405   0.549   0.635  11.786  0.8058 -0.2943  0.2819
   26MPD2    C3  406   0.633   0.709  11.865  0.1323  0.2014 -0.0434
   26MPD2    C4  407   0.719   0.792  11.804 -0.7113  0.4981 -0.3532
   26MPD2    C5  408   0.744   0.790  11.666  0.1468  0.0184  0.1924
   26MPD2     H  409   0.494   0.557  11.837 -0.5461  0.0464 -0.6610
   26MPD2    H1  410   0.783   0.852  11.867 -1.7037  1.5798 -0.3735
   26MPD2    H2  411   0.671   0.698  11.486 -1.2437  3.4852 -1.1754
   26MPD2    H3  412   0.830   0.838  11.622 -0.3397  1.2979  0.6296
   26MPD2     N  413   0.616   0.706  12.012 -0.0572 -0.1919 -0.5231
   26MPD2    H5  414   0.552   0.636  12.049  0.0079 -0.0751 -0.1901
   26MPD2    N1  415   0.484   0.552  11.565 -0.2003  0.1695 -0.8518
   26MPD2    H7  416   0.515   0.539  11.469  1.0698 -1.6887 -0.1849
   27TMC2    C1  417   4.384   2.439  12.000 -0.0073 -0.3002  0.3703
   27TMC2    C2  418   4.347   2.482  11.875  0.3988  0.0549  0.5209
   27TMC2    C3  419   4.305   2.611  11.858 -0.5527  0.5901  0.4754
   27TMC2    C4  420   4.412   2.529  12.097 -0.1454  0.3748 -0.0717
   27TMC2    C5  421   4.378   2.657  12.080 -0.0480  0.5885  0.7884
   27TMC2    C6  422   4.318   2.699  11.961 -0.3607 -0.4293  0.1782
   27TMC2     C  423   4.329   2.319  12.049 -0.4279  0.0392  0.2140
   27TMC2     O  424   4.408   2.247  12.114  0.4215 -0.1017 -0.3131
   27TMC2     H  425   4.316   2.412  11.798 -2.8420  0.0164  1.8324
   27TMC2    H1  426   4.445   2.509  12.199 -2.1252  2.8086  1.0399
   27TMC2    H2  427   4.278   2.799  11.949  0.0407 -0.2329  0.5118
   27TMC2    C7  428   4.328   2.719  12.202  0.0093  0.3072 -0.3737
   27TMC2    C8  429   4.255   2.644  11.720  0.5878 -0.5850  0.4185
   27TMC2    O1  430   4.341   2.664  12.308  0.1716  0.9429 -0.0091
   27TMC2    O2  431   4.267   2.577  11.618 -0.0016  0.2964  0.4877
   27TMC2    O5  432   4.196   2.762  11.721  0.2666 -0.1104 -0.1935
   27TMC2    H5  433   4.179   2.791  11.813  2.3829 -0.1045  0.1862
   28MPD2     C  434   3.947   2.224  12.365 -0.5703  0.1502  0.0210
   28MPD2    C1  435   3.907   2.332  12.280  0.0946 -0.2651 -0.2389
   28MPD2    C2  436   3.991   2.359  12.172 -0.1536 -0.2786  0.1032
   28MPD2    C3  437   4.115   2.290  12.159 -0.0705  0.7118 -0.0581
   28MPD2    C4  438   4.150   2.190  12.245 -1.2940  0.3683 -0.1068
   28MPD2    C5  439   4.063   2.160  12.346 -0.3671 -1.0401  0.6235
   28MPD2     H  440   3.969   2.446  12.111 -0.1211 -0.2633  0.1129
   28MPD2    H1  441   4.241   2.133  12.226 -0.9974  0.9170 -0.3108
   28MPD2    H2  442   3.885   2.193  12.448  0.8123 -2.7281 -0.0144
   28MPD2    H3  443   4.092   2.078  12.412  1.6827 -0.2575  0.6860
   28MPD2     N  444   4.195   2.340  12.058 -0.6708  0.2106  0.8379
   28MPD2    H5  445   4.148   2.418  12.013  2.1709  0.2827 -1.9817
   28MPD2    N1  446   3.796   2.410  12.316 -0.3945  0.2739  0.1481
   28MPD2    H7  447   3.744   2.379  12.398 -0.6492  1.4415  0.4228
   29TMC2    C1  448   3.320   4.654  14.237  0.0944 -0.1153 -0.5922
   29TMC2    C2  449   3.348   4.638  14.366 -0.3385 -0.2236 -0.5874
   29TMC2    C3  450   3.357   0.015  14.442 -0.0174 -0.5103  0.6854
   29TMC2    C4  451   3.295   0.039  14.179  0.3404  0.0034  0.5499
   29TMC2    C5  452   3.298   0.147  14.261 -0.7790 -0.6397 -0.3805
   29TMC2    C6  453   3.335   0.142  14.392 -0.4118 -0.1923  0.0281
   29TMC2     C  454   3.310   4.536  14.151 -0.1786  0.8630 -1.1174
   29TMC2     O  455   3.359   4.433  14.196  0.0609 -0.1158  0.2246
   29TMC2     H  456   3.377   4.539  14.400  1.1701  1.0042  1.6940
   29TMC2    H1  457   3.274   0.055  14.074 -0.6192 -2.5510  0.3705
   29TMC2    H2  458   3.330   0.227  14.458  2.4887  1.8893 -2.4063
   29TMC2    C7  459   3.300   0.276  14.196 -0.3920 -0.7438 -0.0546
   29TMC2    C8  460   3.400   4.728  14.576 -0.0969 -0.6586 -0.2375
   29TMC2    O1  461   3.236   0.287  14.094 -0.5255 -0.1500 -0.5650
   29TMC2    O2  462   3.367   4.629  14.644 -0.1803 -0.1433  0.9947
   29TMC2    O5  463   3.518   0.046  14.579 -0.0177  0.1318  0.2514
   29TMC2    H5  464   3.531   0.114  14.510 -0.4462  0.8905  0.9212
   30MPD2     C  465   3.157   4.273  13.736  0.1023  0.0171 -0.3186
   30MPD2    C1  466   3.254   4.240  13.826  0.1712 -0.1190  1.1242
   30MPD2    C2  467   3.266   4.327  13.937 -0.0941  0.2272 -0.9227
   30MPD2    C3  468   3.211   4.457  13.937 -0.0840  0.8030  0.0324
   30MPD2    C4  469   3.117   4.484  13.846 -0.1601 -0.1849 -0.1747
   30MPD2    C5  470   3.084   4.387  13.755 -0.6318 -0.4175  1.0110
   30MPD2     H  471   3.329   4.298  14.020  0.2779  0.5612 -1.0882
   30MPD2    H1  472   3.054   4.572  13.846 -0.3695 -0.3325 -0.4253
   30MPD2    H2  473   3.123   4.216  13.650 -1.0634  2.3030 -1.3550
   30MPD2    H3  474   3.007   4.415  13.684  2.5660  0.1050 -2.2382
   30MPD2     N  475   3.236   4.555  14.040  0.1351  0.2182 -0.0042
   30MPD2    H5  476   3.184   4.642  14.035 -1.6122 -0.7707  1.1614
   30MPD2    N1  477   3.330   4.116  13.822  0.2898 -0.2723 -0.1246
   30MPD2    H7  478   3.404   4.104  13.890 -1.0128 -0.8279  1.1864
   31TMC2    C1  479   1.199   3.284  15.374 -0.6291 -0.4589 -0.5783
   31TMC2    C2  480   1.065   3.282  15.349  0.7108  0.2185 -0.4836
   31TMC2    C3  481   0.983   3.240  15.449  0.1458  0.1532 -0.4221
   31TMC2    C4  482   1.247   3.256  15.500  0.4214 -0.1018  0.0414
   31TMC2    C5  483   1.152   3.230  15.599 -0.9029  0.3069  0.0768
   31TMC2    C6  484   1.028   3.195  15.572  0.3156 -0.8273 -0.2013
   31TMC2     C  485   1.281   3.347  15.277 -0.8681 -0.5079  0.1116
   31TMC2     O  486   1.233   3.381  15.170  0.2186  0.3720 -0.5588
   31TMC2     H  487   1.032   3.310  15.249  1.4169 -0.8068 -1.0023
   31TMC2    H1  488   1.353   3.264  15.526  0.7403  0.3747 -1.4474
   31TMC2    H2  489   0.960   3.187  15.656  0.1918  0.1440 -0.2155
   31TMC2    C7  490   1.206   3.230  15.737  0.3261  0.3838 -0.6062
   31TMC2    C8  491   0.844   3.229  15.411  0.5975 -0.1407 -0.4052
   31TMC2    O1  492   1.150   3.174  15.831  0.5096 -0.0549  0.0477
   31TMC2    O2  493   0.797   3.307  15.326  0.0043 -0.0439 -0.2812
   31TMC2    O5  494   0.784   3.160  15.512  0.0261  0.3225  0.3014
   31TMC2    H5  495   0.687   3.171  15.510  0.0861  1.1633  2.5484
   32MPD2     C  496   1.724   3.443  15.049 -0.0163  0.2665 -0.1109
   32MPD2    C1  497   1.602   3.503  15.032  0.4582  0.1448  0.0762
   32MPD2    C2  498   1.498   3.461  15.116  0.4210  0.5507 -0.7786
   32MPD2    C3  499   1.518   3.376  15.224 -0.5441  0.3033 -0.0009
   32MPD2    C4  500   1.642   3.332  15.251  0.6276  0.4275 -0.2904
   32MPD2    C5  501   1.740   3.350  15.151  0.1897 -0.4499 -0.6229
   32MPD2     H  502   1.401   3.509  15.115 -0.5074 -1.3752 -1.3846
   32MPD2    H1  503   1.665   3.275  15.340 -2.8959 -0.5104  0.0174
   32MPD2    H2  504   1.812   3.467  14.991  1.0245 -0.6400  1.0908
   32MPD2    H3  505   1.840   3.309  15.162  0.1665 -0.0419  1.1344
   32MPD2     N  506   1.413   3.324  15.303 -0.0256 -0.5481  0.3872
   32MPD2    H5  507   1.436   3.268  15.385 -0.6801 -0.5468  0.5716
   32MPD2    N1  508   1.588   3.593  14.926  0.3406  0.4979  0.7298
   32MPD2    H7  509   1.671   3.614  14.871  1.8041 -1.2169  2.2662
   33TMC2    C1  510   1.098   1.390  10.214 -0.0905 -0.0536 -0.2756
   33TMC2    C2  511   1.058   1.296  10.127 -0.9594 -0.0169  0.4337
   33TMC2    C3  512   1.077   1.323   9.992  0.0040 -0.1755 -0.3194
   33TMC2    C4  513   1.173   1.499  10.170  0.5363  0.0201 -0.1518
   33TMC2    C5  514   1.197   1.518  10.039  0.3327 -0.3202 -0.4138
   33TMC2    C6  515   1.145   1.431   9.943 -0.5378  0.1511 -0.0652
   33TMC2     C  516   1.088   1.362  10.355 -0.0777 -0.4504  0.6863
   33TMC2     O  517   1.100   1.253  10.407  0.1663 -0.4647  0.2805
   33TMC2     H  518   1.025   1.203  10.172 -0.8604 -0.6275 -0.7597
   33TMC2    H1  519   1.217   1.563  10.246  1.9533 -0.2614 -0.7391
   33TMC2    H2  520   1.144   1.461   9.839  0.2051  1.4291  0.3005
   33TMC2    C7  521   1.271   1.635  10.000  0.4711 -0.1696  0.2655
   33TMC2    C8  522   1.004   1.239   9.898  0.2391 -0.6618 -0.1986
   33TMC2    O1  523   1.292   1.725  10.081  0.1242 -0.0981  0.0709
   33TMC2    O2  524   0.914   1.159   9.928  0.3819 -0.4284 -0.0208
   33TMC2    O5  525   1.081   1.213   9.791  0.1642 -0.2989 -0.0102
   33TMC2    H5  526   1.168   1.259   9.789 -0.0711  0.2482  2.3066
   34MPD2     C  527   1.087   1.560  10.823 -0.3461  0.2110 -0.3554
   34MPD2    C1  528   1.102   1.427  10.789 -0.2719 -0.5648 -0.5723
   34MPD2    C2  529   1.083   1.396  10.655 -0.1651  0.3733  1.1803
   34MPD2    C3  530   1.066   1.494  10.563  0.0670 -0.2974  1.0924
   34MPD2    C4  531   1.062   1.624  10.604  0.1091 -0.1430 -0.0450
   34MPD2    C5  532   1.080   1.658  10.733  0.2990  0.2261 -0.0143
   34MPD2     H  533   1.087   1.294  10.619 -3.4406  0.9693 -0.8583
   34MPD2    H1  534   1.051   1.704  10.531 -0.8595  0.1441  0.4237
   34MPD2    H2  535   1.089   1.587  10.928 -0.6546 -1.6297  0.1396
   34MPD2    H3  536   1.071   1.762  10.762  0.5696  0.9198 -2.4137
   34MPD2     N  537   1.064   1.478  10.421 -0.2535  0.0403  0.1647
   34MPD2    H5  538   1.059   1.562  10.366  3.7581  0.9574  1.1525
   34MPD2    N1  539   1.110   1.340  10.901  0.0168  0.3515 -0.8870
   34MPD2    H7  540   1.126   1.382  10.992 -1.1130  2.8209 -1.8166
   35TMC2    C1  541   2.136   2.962  11.444  0.3592 -0.0925  0.6359
   35TMC2    C2  542   2.062   3.076  11.471  0.4023 -1.0612  0.0083
   35TMC2    C3  543   1.936   3.052  11.516 -0.0726 -0.0749 -0.1101
   35TMC2    C4  544   2.093   2.834  11.477  0.0814 -0.1411 -0.6177
   35TMC2    C5  545   1.979   2.818  11.556 -0.3175 -0.1813 -0.3055
   35TMC2    C6  546   1.893   2.926  11.561 -0.5484 -0.7718 -0.0768
   35TMC2     C  547   2.274   2.970  11.405  0.0761  0.0798 -0.8064
   35TMC2     O  548   2.310   3.076  11.356 -0.1251 -0.4540 -0.5139
   35TMC2     H  549   2.104   3.174  11.457  1.3182 -1.1729  2.0175
   35TMC2    H1  550   2.151   2.745  11.455  0.0326 -0.4096  0.3546
   35TMC2    H2  551   1.796   2.934  11.608 -0.5217 -0.5878 -0.0528
   35TMC2    C7  552   1.949   2.691  11.612 -0.4460 -0.7423 -0.2913
   35TMC2    C8  553   1.867   3.173  11.567 -0.3242 -0.3555  0.3383
   35TMC2    O1  554   2.038   2.607  11.609 -0.2877  0.6891  0.1915
   35TMC2    O2  555   1.801   3.174  11.672  0.1825  0.0090 -0.3735
   35TMC2    O5  556   1.815   3.228  11.451 -0.0241 -0.2990 -0.2454
   35TMC2    H5  557   1.851   3.195  11.366 -0.5639 -0.8776 -0.2463
   36MPD2     C  558   2.767   2.849  11.405  0.3782 -0.1839 -0.2676
   36MPD2    C1  559   2.707   2.801  11.518  0.2612 -0.8402  0.7405
   36MPD2    C2  560   2.571   2.811  11.529  0.0389  0.3591  0.3389
   36MPD2    C3  561   2.493   2.868  11.439  0.1166  0.3503 -0.8004
   36MPD2    C4  562   2.551   2.921  11.327  0.4098 -0.2962 -0.2565
   36MPD2    C5  563   2.690   2.915  11.305  0.6757  0.8172  0.0240
   36MPD2     H  564   2.511   2.754  11.600  0.0176 -0.0461 -0.0019
   36MPD2    H1  565   2.497   2.966  11.244  0.8098  1.5860  0.5083
   36MPD2    H2  566   2.875   2.840  11.404  0.3363 -0.3926 -2.3962
   36MPD2    H3  567   2.748   2.950  11.221  0.0843  0.1149 -0.6817
   36MPD2     N  568   2.355   2.875  11.461  0.0979 -0.3171 -0.4657
   36MPD2    H5  569   2.316   2.819  11.536  1.6192 -1.2239 -0.3389
   36MPD2    N1  570   2.782   2.743  11.618 -0.9661  0.0322 -0.3827
   36MPD2    H7  571   2.883   2.741  11.607 -1.0432 -2.6968 -0.8186
   37TMC2    C1  572   0.430   2.758  12.001  0.5623 -0.0767  0.3839
   37TMC2    C2  573   0.339   2.742  11.901 -0.4531 -0.1271  0.9087
   37TMC2    C3  574   0.380   2.781  11.778  0.6341  0.9847 -0.0515
   37TMC2    C4  575   0.555   2.810  11.985  0.4773  0.0129  0.6262
   37TMC2    C5  576   0.587   2.851  11.857 -0.0185  0.0715  0.0791
   37TMC2    C6  577   0.499   2.838  11.750 -0.0681  0.7090 -0.8765
   37TMC2     C  578   0.374   2.776  12.135 -0.4204 -0.5080 -0.5481
   37TMC2     O  579   0.271   2.836  12.140 -0.7223  0.5650 -0.1125
   37TMC2     H  580   0.234   2.729  11.920 -0.7638 -1.8479 -1.9659
   37TMC2    H1  581   0.629   2.824  12.062  2.1763 -1.3273 -0.7728
   37TMC2    H2  582   0.517   2.861  11.646 -1.4931  1.9272 -0.8714
   37TMC2    C7  583   0.719   2.914  11.842 -0.0157  0.6581 -0.4432
   37TMC2    C8  584   0.293   2.777  11.662 -0.5450  0.2892  0.3447
   37TMC2    O1  585   0.793   2.917  11.938  0.1446 -0.0420 -0.0366
   37TMC2    O2  586   0.298   2.851  11.565  0.1606 -0.2308 -0.0822
   37TMC2    O5  587   0.221   2.664  11.671  0.2221  0.7755 -0.3675
   37TMC2    H5  588   0.249   2.622  11.755  0.1400 -1.5071 -1.4726
   38MPD2     C  589   0.349   2.687  12.637 -0.0457 -0.1446 -0.1458
   38MPD2    C1  590   0.482   2.652  12.592  0.4487  0.2865 -0.2995
   38MPD2    C2  591   0.512   2.669  12.459  0.5485 -0.1847 -0.0054
   38MPD2    C3  592   0.414   2.712  12.370  0.4576  0.1411 -0.1743
   38MPD2    C4  593   0.283   2.737  12.412  0.6043 -0.3891  0.3329
   38MPD2    C5  594   0.257   2.728  12.545  0.1534 -0.3776  0.0390
   38MPD2     H  595   0.610   2.641  12.423  1.0847  3.0554 -1.0005
   38MPD2    H1  596   0.204   2.770  12.345  1.2657  1.0146  0.2519
   38MPD2    H2  597   0.315   2.666  12.738  2.4814  0.8408  0.9319
   38MPD2    H3  598   0.157   2.745  12.582  0.3779  1.6260 -0.2788
   38MPD2     N  599   0.453   2.721  12.230 -0.2017  0.7838  0.0971
   38MPD2    H5  600   0.542   2.678  12.207 -0.5395  1.2719 -2.1081
   38MPD2    N1  601   0.588   2.605  12.676 -0.1884 -0.0753  0.1343
   38MPD2    H7  602   0.672   2.578  12.627 -0.1416  0.8023 -0.2859
   39TMC2    C1  603   3.518   0.075   1.355  0.5377  0.2886  0.3335
   39TMC2    C2  604   3.439   0.173   1.412 -0.5889  0.2915 -0.2816
   39TMC2    C3  605   3.479   0.306   1.414  0.5377  0.3252  0.7756
   39TMC2    C4  606   3.632   0.105   1.289  0.5628  0.2085  0.1065
   39TMC2    C5  607   3.676   0.230   1.304  0.4493 -0.3451 -0.1517
   39TMC2    C6  608   3.605   0.335   1.366  0.4615 -0.3061 -0.2602
   39TMC2     C  609   3.443   4.699   1.314 -0.0698 -0.2197  0.0213
   39TMC2     O  610   3.323   4.705   1.292 -0.4807  0.0388 -0.6727
   39TMC2     H  611   3.350   0.147   1.469 -0.5995  1.6661  0.3316
   39TMC2    H1  612   3.681   0.019   1.245 -1.7142 -1.4579  0.8059
   39TMC2    H2  613   3.630   0.439   1.383  0.1409 -0.3976  0.7731
   39TMC2    C7  614   3.800   0.265   1.242 -0.2359 -0.1908  1.0142
   39TMC2    C8  615   3.450   0.369   1.542 -0.9202  0.2086  0.4000
   39TMC2    O1  616   3.849   0.202   1.149 -0.6142  0.2545 -0.0518
   39TMC2    O2  617   3.442   0.301   1.646 -0.2866 -0.0629 -0.4897
   39TMC2    O5  618   3.474   0.502   1.543  0.2343 -0.2246 -0.4082
   39TMC2    H5  619   3.480   0.545   1.455 -1.8568  0.0128 -0.4311
   40MPD2     C  620   3.591   4.365   1.271 -0.0118 -0.6595  0.3510
   40MPD2    C1  621   3.499   4.466   1.264  0.6930 -0.1375  0.0655
   40MPD2    C2  622   3.381   4.445   1.198 -0.2603  0.7505 -0.2386
   40MPD2    C3  623   3.363   4.324   1.129  0.1899 -0.0455  0.4196
   40MPD2    C4  624   3.454   4.224   1.141  0.1049  0.8701  0.2014
   40MPD2    C5  625   3.570   4.240   1.213 -0.3977  0.3009 -0.5746
   40MPD2     H  626   3.297   4.513   1.185 -0.6170  0.5518  1.0583
   40MPD2    H1  627   3.422   4.124   1.112  0.1927  1.1100 -0.7162
   40MPD2    H2  628   3.685   4.383   1.323 -0.8485 -0.3309  1.7585
   40MPD2    H3  629   3.643   4.161   1.227 -0.1547  0.8398  1.1247
   40MPD2     N  630   3.253   4.314   1.035  0.9847 -0.4602 -0.2322
   40MPD2    H5  631   3.259   4.233   0.974 -0.3082 -0.3319 -0.5170
   40MPD2    N1  632   3.527   4.588   1.323 -0.4341 -0.0958  0.6426
   40MPD2    H7  633   3.620   4.598   1.362  0.0833 -3.8838  0.3181
   41TMC2    C1  634   2.519   2.735  14.267  0.5668  0.6454 -0.2091
   41TMC2    C2  635   2.429   2.817  14.213  0.9257  0.1753  0.5826
   41TMC2    C3  636   2.464   2.898  14.108 -0.2678 -0.2835 -0.2493
   41TMC2    C4  637   2.638   2.720  14.199 -0.0857  0.4878  0.5901
   41TMC2    C5  638   2.663   2.785  14.085  0.0036 -0.6659  0.0387
   41TMC2    C6  639   2.584   2.885  14.038  0.0392 -0.6236 -0.9516
   41TMC2     C  640   2.488   2.648  14.386 -0.1003  0.2986 -0.4653
   41TMC2     O  641   2.571   2.561  14.405  0.0115  0.4491  0.5300
   41TMC2     H  642   2.333   2.828  14.263  1.0813 -3.1430  1.6106
   41TMC2    H1  643   2.712   2.649  14.234  1.1049  0.6088 -1.6902
   41TMC2    H2  644   2.609   2.951  13.956 -0.1358 -0.2919 -0.7386
   41TMC2    C7  645   2.775   2.747  14.008 -0.4287  0.2158 -0.8209
   41TMC2    C8  646   2.375   3.006  14.099 -0.4248  0.2187 -0.9702
   41TMC2    O1  647   2.854   2.671  14.067  0.3254 -0.6661  0.1108
   41TMC2    O2  648   2.256   3.000  14.084 -0.5966  0.3065 -0.0064
   41TMC2    O5  649   2.457   3.112  14.098  0.3393  0.4208  0.4791
   41TMC2    H5  650   2.545   3.090  14.136 -0.1060 -0.1626  1.1564
   42MPD2     C  651   2.405   2.518  14.636 -0.0780 -0.5296 -0.3041
   42MPD2    C1  652   2.353   2.641  14.594 -0.2423 -0.4481  0.4672
   42MPD2    C2  653   2.256   2.705  14.673  0.2926 -0.2699 -0.3224
   42MPD2    C3  654   2.234   2.657  14.805 -0.0263 -0.0332 -0.0821
   42MPD2    C4  655   2.290   2.540  14.850 -0.0597 -0.0782  0.1413
   42MPD2    C5  656   2.368   2.475  14.761  0.4527 -0.1294  0.4669
   42MPD2     H  657   2.219   2.802  14.641 -0.2353  0.6548  3.0939
   42MPD2    H1  658   2.249   2.488  14.936 -3.9307  2.8819  0.1002
   42MPD2    H2  659   2.477   2.460  14.579  1.2586  1.8652 -1.0478
   42MPD2    H3  660   2.411   2.385  14.803  1.0668 -0.1130 -0.1171
   42MPD2     N  661   2.136   2.711  14.894 -0.4737  0.0718  0.2566
   42MPD2    H5  662   2.125   2.669  14.986 -0.1665 -3.5191 -1.3492
   42MPD2    N1  663   2.377   2.692  14.461 -0.2647  0.4353  0.0809
   42MPD2    H7  664   2.314   2.768  14.438 -1.4136 -0.9126 -1.2134
   43TMC2    C1  665   3.938   0.863   0.500  0.2219  0.3717  0.0323
   43TMC2    C2  666   3.840   0.880   0.594  0.7601  0.3353 -0.2706
   43TMC2    C3  667   3.809   1.002   0.643  0.1567  0.6824 -0.2793
   43TMC2    C4  668   4.018   0.969   0.471 -0.2679 -0.4990  0.1523
   43TMC2    C5  669   3.997   1.087   0.528  0.4585  0.5284  0.2533
   43TMC2    C6  670   3.886   1.110   0.608  0.0933  0.7870 -0.6867
   43TMC2     C  671   3.977   0.733   0.457  0.4614  0.5369 -0.3199
   43TMC2     O  672   4.092   0.710   0.431 -0.2129 -0.0791 -0.5240
   43TMC2     H  673   3.776   0.801   0.631 -0.5670  1.6306  0.1975
   43TMC2    H1  674   4.105   0.967   0.405 -0.6996  1.0940 -0.4537
   43TMC2    H2  675   3.864   1.211   0.640 -0.9458 -0.0291  1.1984
   43TMC2    C7  676   4.095   1.198   0.510 -0.0891 -0.7340 -0.4064
   43TMC2    C8  677   3.703   1.026   0.733  0.0579  0.1419 -0.0882
   43TMC2    O1  678   4.163   1.207   0.408  0.3516 -0.2048 -0.2455
   43TMC2    O2  679   3.696   1.126   0.801 -0.5079  0.4090 -0.4572
   43TMC2    O5  680   3.596   0.946   0.715 -0.0378  0.0531 -0.3136
   43TMC2    H5  681   3.608   0.857   0.676 -0.2239 -1.0497  2.1385
   44MPD2     C  682   3.878   0.237   0.418 -0.6403  0.3450  0.0688
   44MPD2    C1  683   3.987   0.306   0.390  0.0205  0.4720 -0.4469
   44MPD2    C2  684   3.998   0.438   0.414 -0.0367 -0.1680  0.2192
   44MPD2    C3  685   3.882   0.509   0.444  0.0030  0.0499 -0.8113
   44MPD2    C4  686   3.760   0.437   0.458 -0.4549 -0.0900  0.2215
   44MPD2    C5  687   3.769   0.302   0.455  0.0197  0.4546 -0.0635
   44MPD2     H  688   4.098   0.480   0.410  1.2272 -3.2052  0.5197
   44MPD2    H1  689   3.673   0.495   0.486 -0.2781  1.6820 -2.8371
   44MPD2    H2  690   3.875   0.129   0.414 -3.8054  0.4695 -0.7809
   44MPD2    H3  691   3.681   0.243   0.477  0.0160  0.2966 -0.4872
   44MPD2     N  692   3.874   0.648   0.465  0.0710  0.0148  0.6911
   44MPD2    H5  693   3.779   0.679   0.482  0.0817 -0.1586  1.0628
   44MPD2    N1  694   4.108   0.242   0.345  0.8208 -0.1041 -0.5293
   44MPD2    H7  695   4.183   0.311   0.346  1.5336 -0.8815 -0.0501
   45TMC2    C1  696   4.016   3.947   9.887 -0.0453  0.0104 -0.6257
   45TMC2    C2  697   3.896   3.997   9.927 -0.0762 -0.1945 -0.3829
   45TMC2    C3  698   3.895   4.097  10.017  0.5520 -0.0462  0.1381
   45TMC2    C4  699   4.131   3.988   9.945  0.1014  0.5456  0.3888
   45TMC2    C5  700   4.130   4.099  10.031 -0.3997  0.2683  0.1578
   45TMC2    C6  701   4.010   4.153  10.069 -0.7034  0.7562  0.7260
   45TMC2     C  702   4.025   3.840   9.791 -0.4789  0.1923  0.6337
   45TMC2     O  703   4.130   3.822   9.731  0.3597 -0.2089 -0.3484
   45TMC2     H  704   3.805   3.973   9.874  0.3646 -1.3072 -0.6484
   45TMC2    H1  705   4.226   3.936   9.943 -0.1094  0.1742  0.1156
   45TMC2    H2  706   4.004   4.235  10.139 -0.1297  1.4783 -0.0735
   45TMC2    C7  707   4.249   4.174  10.073  0.0454  0.3209  0.3059
   45TMC2    C8  708   3.762   4.132  10.068  0.7335  0.3372  0.4106
   45TMC2    O1  709   4.358   4.115  10.060 -0.1535  0.1246 -0.4188
   45TMC2    O2  710   3.671   4.049  10.074 -0.0570  0.1162 -0.2968
   45TMC2    O5  711   3.747   4.263  10.041 -0.8322 -0.7844  0.4830
   45TMC2    H5  712   3.826   4.310  10.006  0.3649 -2.3729  1.0742
   46MPD2     C  713   3.973   3.585   9.638 -0.2899  1.0609  0.2958
   46MPD2    C1  714   3.894   3.641   9.729  0.4069 -0.8373 -0.1470
   46MPD2    C2  715   3.785   3.569   9.784  0.5067 -0.2721 -0.0047
   46MPD2    C3  716   3.772   3.434   9.755 -0.3075 -1.1103  0.8626
   46MPD2    C4  717   3.857   3.372   9.672  0.1077  0.0705 -0.3917
   46MPD2    C5  718   3.954   3.452   9.609 -0.1008  0.7378 -0.1814
   46MPD2     H  719   3.723   3.622   9.856  0.8278 -3.6355  2.7574
   46MPD2    H1  720   3.845   3.269   9.639 -0.5253 -0.1260  0.4721
   46MPD2    H2  721   4.052   3.639   9.587  1.0615 -1.7421 -0.5829
   46MPD2    H3  722   4.022   3.399   9.543 -0.1689  1.0923 -0.5364
   46MPD2     N  723   3.668   3.365   9.826  0.3498  0.1754 -0.3092
   46MPD2    H5  724   3.612   3.414   9.895  1.2802  0.8729 -0.0493
   46MPD2    N1  725   3.911   3.763   9.791  0.2269 -0.4019  0.2495
   46MPD2    H7  726   3.845   3.784   9.865  0.5531 -1.5973  0.8766
   47TMC2    C1  727   3.186   3.189   9.218 -0.0902  0.1981 -0.8274
   47TMC2    C2  728   3.280   3.201   9.117 -0.2092  0.2738  0.2446
   47TMC2    C3  729   3.234   3.227   8.995  0.0981  0.6308  0.1911
   47TMC2    C4  730   3.050   3.201   9.208  0.0063  0.4415 -0.7228
   47TMC2    C5  731   3.010   3.234   9.077  0.4121 -0.4470  0.0366
   47TMC2    C6  732   3.097   3.252   8.971 -0.3945  1.3291  0.2749
   47TMC2     C  733   3.234   3.208   9.357  0.0064 -0.5401  0.0260
   47TMC2     O  734   3.335   3.278   9.377  0.3847  0.5930  0.1389
   47TMC2     H  735   3.384   3.177   9.139 -0.3144 -0.8436 -0.4476
   47TMC2    H1  736   2.984   3.212   9.293 -1.4089 -0.4401 -1.6939
   47TMC2    H2  737   3.061   3.278   8.873  1.0877 -0.2778 -0.6995
   47TMC2    C7  738   2.867   3.232   9.049 -0.2908  0.1760 -0.2428
   47TMC2    C8  739   3.313   3.245   8.875 -0.0766  0.4223  0.1075
   47TMC2    O1  740   2.829   3.275   8.941 -0.5222 -0.1356 -0.2027
   47TMC2    O2  741   3.259   3.226   8.763  0.0304 -0.7735 -0.1359
   47TMC2    O5  742   3.440   3.204   8.908 -0.1248  0.4825 -0.3366
   47TMC2    H5  743   3.463   3.240   8.996  2.5953 -0.6488 -0.5852
   48MPD2     C  744   3.218   3.256   9.655 -0.7672  0.0402  0.8106
   48MPD2    C1  745   3.147   3.158   9.589  0.0550  0.1771  0.1274
   48MPD2    C2  746   3.061   3.086   9.667 -0.0936  0.2604 -0.4282
   48MPD2    C3  747   3.039   3.101   9.802 -0.8989 -0.7100 -0.1910
   48MPD2    C4  748   3.118   3.188   9.865 -0.0537 -0.5080  0.1561
   48MPD2    C5  749   3.198   3.272   9.792 -0.2260 -0.9032 -0.3324
   48MPD2     H  750   3.000   3.007   9.624 -0.9971  0.7037  0.0499
   48MPD2    H1  751   3.106   3.204   9.972 -0.0019 -0.2320  0.1217
   48MPD2    H2  752   3.292   3.320   9.608 -0.2349 -1.0893  0.1342
   48MPD2    H3  753   3.267   3.331   9.850  0.4335 -0.8178 -1.1988
   48MPD2     N  754   2.961   3.004   9.871  0.1714  0.1215  0.2890
   48MPD2    H5  755   2.912   2.931   9.820  0.8349  0.0279 -0.2201
   48MPD2    N1  756   3.151   3.138   9.448  0.1940  0.1319  0.3124
   48MPD2    H7  757   3.104   3.057   9.409  0.0810  0.5510 -0.4133
   49TMC2    C1  758   0.839   1.958  10.126 -0.3444 -0.6487 -0.3261
   49TMC2    C2  759   0.918   2.059  10.087 -0.3687  1.2023 -0.3043
   49TMC2    C3  760   1.002   2.031   9.980 -0.0177  0.3120  0.1270
   49TMC2    C4  761   0.840   1.833  10.080 -0.1670  0.1458 -0.5315
   49TMC2    C5  762   0.923   1.810   9.972 -0.2271 -0.8434  0.6381
   49TMC2    C6  763   1.007   1.909   9.921  0.1347 -0.6774  0.2730
   49TMC2     C  764   0.786   1.980  10.260 -0.7083 -0.2633  0.6118
   49TMC2     O  765   0.742   2.096  10.291 -0.0467  0.1316  0.5639
   49TMC2     H  766   0.908   2.157  10.133  0.2195  0.6438  1.0021
   49TMC2    H1  767   0.772   1.756  10.114  2.5987 -0.7066  3.1115
   49TMC2    H2  768   1.072   1.908   9.835 -1.1147  3.1447 -0.6958
   49TMC2    C7  769   0.895   1.689   9.899  0.3352 -0.3718  0.0410
   49TMC2    C8  770   1.092   2.131   9.925 -0.3678  0.7840  0.0698
   49TMC2    O1  771   0.809   1.614   9.948  0.3339  0.0433 -0.4152
   49TMC2    O2  772   1.123   2.141   9.807  0.4290 -0.2595 -0.4646
   49TMC2    O5  773   1.090   2.234  10.010  0.1398  0.4627 -0.3471
   49TMC2    H5  774   1.089   2.208  10.105 -2.3602  0.8264 -0.2746
   50MPD2     C  775   0.725   1.977  10.555 -0.1706  0.1816  0.3519
   50MPD2    C1  776   0.749   1.868  10.476 -0.1573  0.4206 -0.3397
   50MPD2    C2  777   0.749   1.738  10.536  0.1910  0.2289 -0.0548
   50MPD2    C3  778   0.735   1.723  10.674 -0.0670 -0.2844  0.0995
   50MPD2    C4  779   0.724   1.838  10.745 -0.2542 -0.4501 -0.6393
   50MPD2    C5  780   0.713   1.958  10.688  0.4923 -0.2605  0.9586
   50MPD2     H  781   0.732   1.660  10.463  0.5580 -0.4577  0.5956
   50MPD2    H1  782   0.734   1.830  10.852 -0.5314  0.8558 -0.5078
   50MPD2    H2  783   0.716   2.078  10.516  1.9880 -0.2079 -1.1120
   50MPD2    H3  784   0.693   2.047  10.747 -0.1000  0.4358 -0.2931
   50MPD2     N  785   0.727   1.603  10.747  0.1397 -0.1293 -0.4180
   50MPD2    H5  786   0.733   1.599  10.848 -3.0452  0.9244 -0.1644
   50MPD2    N1  787   0.780   1.869  10.339  0.4540 -0.3828  0.1728
   50MPD2    H7  788   0.814   1.784  10.296  1.4416 -0.1283  0.4416
   51TMC2    C1  789   1.219   0.011   0.345 -0.4121  0.3239  0.1368
   51TMC2    C2  790   1.236   0.093   0.238  0.6276 -0.5609 -0.2584
   51TMC2    C3  791   1.338   0.063   0.157  0.9602  0.4018  0.5562
   51TMC2    C4  792   1.311   4.645   0.372  0.1334 -0.2041 -0.0483
   51TMC2    C5  793   1.424   4.633   0.294  0.4314 -0.3224 -0.2983
   51TMC2    C6  794   1.441   4.711   0.181 -0.0715 -0.7033  0.3423
   51TMC2     C  795   1.106   0.028   0.436 -0.2332 -0.2955 -0.4415
   51TMC2     O  796   1.109   4.691   0.531  0.0815 -0.0108  0.4770
   51TMC2     H  797   1.167   0.164   0.194  1.1268  0.1872  0.1708
   51TMC2    H1  798   1.298   4.584   0.461  2.1945 -2.2573 -1.1761
   51TMC2    H2  799   1.529   4.698   0.119 -0.2117  2.1845 -0.4627
   51TMC2    C7  800   1.541   4.560   0.351  0.2749 -0.2785  0.7334
   51TMC2    C8  801   1.388   0.157   0.064  0.4457  0.0963  0.4963
   51TMC2    O1  802   1.650   4.584   0.302  0.2060  0.9180  0.6129
   51TMC2    O2  803   1.461   0.126  17.723  0.5325  0.0411 -0.3861
   51TMC2    O5  804   1.410   0.256   0.160  0.4315 -0.3916  0.3482
   51TMC2    H5  805   1.358   0.237   0.241 -2.2945  2.0241 -0.8556
   52MPD2     C  806   0.634   0.172   0.582 -0.5141  0.0939 -0.5414
   52MPD2    C1  807   0.723   0.077   0.627  0.0674  0.3500 -0.1963
   52MPD2    C2  808   0.850   0.056   0.568  0.5555  0.2746 -0.2446
   52MPD2    C3  809   0.889   0.135   0.458 -0.1720 -0.1186 -0.0038
   52MPD2    C4  810   0.806   0.232   0.415  0.3173 -0.7909 -0.8207
   52MPD2    C5  811   0.678   0.245   0.470  0.2839 -0.2525  0.5721
   52MPD2     H  812   0.915   4.716   0.606 -0.2639 -0.4640 -0.3881
   52MPD2    H1  813   0.834   0.291   0.328  1.1374 -0.3330 -0.2542
   52MPD2    H2  814   0.527   0.168   0.600 -0.1982  1.7747  1.6884
   52MPD2    H3  815   0.612   0.311   0.416 -1.7760 -2.7309  0.0305
   52MPD2     N  816   1.007   0.114   0.393  0.1615 -0.4100 -0.7268
   52MPD2    H5  817   1.020   0.178   0.315  0.9494  1.2356  0.7581
   52MPD2    N1  818   0.689   4.721   0.716 -0.3437 -0.0428  0.0895
   52MPD2    H7  819   0.771   4.668   0.740  0.1791  1.0468  0.7348
   53TMC2    C1  820   1.426   3.052  11.812 -0.3644  0.1951  0.0410
   53TMC2    C2  821   1.540   3.119  11.847 -0.5858 -0.9540  0.0328
   53TMC2    C3  822   1.587   3.094  11.976 -0.2118 -0.7144 -0.2486
   53TMC2    C4  823   1.367   2.960  11.892  0.6157  0.0744 -0.4752
   53TMC2    C5  824   1.408   2.943  12.022 -0.1036  0.4617 -0.4706
   53TMC2    C6  825   1.513   3.019  12.068 -0.3832  0.5989 -0.1683
   53TMC2     C  826   1.332   3.114  11.714  0.4090 -0.7118  0.3913
   53TMC2     O  827   1.363   3.184  11.617  0.3165  0.6141  0.0654
   53TMC2     H  828   1.588   3.196  11.787  1.9251 -2.1481  0.5028
   53TMC2    H1  829   1.289   2.894  11.855 -1.2316  2.5751 -1.0511
   53TMC2    H2  830   1.540   3.033  12.172  0.3679  0.4577 -0.3419
   53TMC2    C7  831   1.290   2.926  12.105  0.8194  0.1876 -0.3394
   53TMC2    C8  832   1.672   3.197  12.031 -0.6141  0.0653  0.2405
   53TMC2    O1  833   1.178   2.934  12.052 -0.2288  0.5510 -0.1019
   53TMC2    O2  834   1.644   3.265  12.131  0.1939 -0.0958 -0.8100
   53TMC2    O5  835   1.788   3.199  11.963 -0.1845  0.5045  0.2952
   53TMC2    H5  836   1.794   3.126  11.898  2.3459  1.7115 -0.8164
   54MPD2     C  837   1.069   3.163  11.560 -0.2938  0.3003 -0.1813
   54MPD2    C1  838   1.085   3.103  11.683  0.1349  0.3495 -0.1473
   54MPD2    C2  839   0.973   3.040  11.735  0.5255 -0.2912 -0.2342
   54MPD2    C3  840   0.851   3.035  11.668  0.4677  0.1051 -0.0964
   54MPD2    C4  841   0.842   3.101  11.544 -0.3463  0.3045  0.6784
   54MPD2    C5  842   0.952   3.168  11.493 -0.1040 -0.4297  0.4919
   54MPD2     H  843   0.981   2.985  11.827  3.3099  1.8075  0.7640
   54MPD2    H1  844   0.744   3.120  11.501 -0.6829 -0.3188  1.1584
   54MPD2    H2  845   1.150   3.211  11.506  0.7187  2.2867  3.1383
   54MPD2    H3  846   0.954   3.227  11.403  1.2838 -0.4134  0.5358
   54MPD2     N  847   0.736   2.975  11.717  0.0079 -0.8669  0.7454
   54MPD2    H5  848   0.654   2.974  11.657  0.2429 -0.7459  0.4254
   54MPD2    N1  849   1.206   3.076  11.747  0.3505 -0.9064 -0.3924
   54MPD2    H7  850   1.201   3.015  11.828 -0.6285  0.2186  0.3983
   55TMC2    C1  851   2.061   1.567  16.947 -0.2971  0.3239 -0.4121
   55TMC2    C2  852   2.099   1.633  16.834 -1.0959 -0.3706 -0.1848
   55TMC2    C3  853   2.219   1.603  16.769 -0.6127 -0.2717  0.1042
   55TMC2    C4  854   2.154   1.486  17.006 -0.2702  0.6989 -0.3650
   55TMC2    C5  855   2.268   1.446  16.927  0.3172  0.0671 -0.0313
   55TMC2    C6  856   2.307   1.511  16.811 -0.4902 -0.6055  0.0528
   55TMC2     C  857   1.934   1.583  17.007  0.1757 -0.3355 -0.4763
   55TMC2     O  858   1.897   1.520  17.106 -0.5512 -0.1334 -0.2186
   55TMC2     H  859   2.022   1.688  16.780  1.2466  2.4306 -0.6065
   55TMC2    H1  860   2.118   1.418  17.082  1.4281 -0.5610 -0.6833
   55TMC2    H2  861   2.404   1.493  16.767 -0.0666  0.2769  0.6237
   55TMC2    C7  862   2.377   1.378  16.987 -0.1115 -0.1648 -0.3461
   55TMC2    C8  863   2.257   1.678  16.641  0.1312  0.0378 -0.3890
   55TMC2    O1  864   2.493   1.391  16.942 -0.2064 -0.1038  0.0933
   55TMC2    O2  865   2.359   1.649  16.576 -0.2546  0.1223  0.5961
   55TMC2    O5  866   2.198   1.805  16.648  0.2082 -0.4230 -0.0922
   55TMC2    H5  867   2.149   1.830  16.729  0.2563  0.2143 -0.2545
   56MPD2     C  868   1.668   1.831  16.936 -0.5570  0.2797 -0.1051
   56MPD2    C1  869   1.736   1.739  17.012  0.3500 -0.0267  0.2695
   56MPD2    C2  870   1.688   1.706  17.139 -1.1147 -0.0459 -0.2826
   56MPD2    C3  871   1.565   1.737  17.176 -0.2940  0.5045 -0.7090
   56MPD2    C4  872   1.491   1.817  17.093  0.6257  0.5448  0.0229
   56MPD2    C5  873   1.547   1.874  16.981  0.3732 -0.0629  1.1007
   56MPD2     H  874   1.749   1.646  17.207 -2.7778  1.1574  2.2472
   56MPD2    H1  875   1.389   1.851  17.109 -0.0789 -0.0875 -3.2731
   56MPD2    H2  876   1.716   1.880  16.851  1.8956 -0.8683  0.6142
   56MPD2    H3  877   1.493   1.949  16.926 -0.8760 -1.7738 -0.0024
   56MPD2     N  878   1.506   1.691  17.301  0.0478  0.6692  0.3649
   56MPD2    H5  879   1.566   1.641  17.366 -2.2565 -0.9867  1.2272
   56MPD2    N1  880   1.867   1.697  16.961  0.2764 -1.1298 -0.4747
   56MPD2    H7  881   1.909   1.750  16.885 -1.8798  1.2238 -0.0327
   57TMC2    C1  882   1.087   1.818  14.264  0.2291 -0.0500 -0.2089
   57TMC2    C2  883   1.181   1.895  14.332  0.3692 -0.2423 -0.5983
   57TMC2    C3  884   1.303   1.905  14.276 -0.2996  0.1526  0.3709
   57TMC2    C4  885   1.116   1.755  14.148 -0.1135 -0.4895 -0.3516
   57TMC2    C5  886   1.241   1.772  14.097  0.1298  0.1999 -0.1152
   57TMC2    C6  887   1.336   1.840  14.160  1.0808  0.5460  0.6962
   57TMC2     C  888   0.956   1.822  14.318 -0.2447  0.3980 -0.2180
   57TMC2     O  889   0.876   1.753  14.262  0.2213  0.5432 -0.3853
   57TMC2     H  890   1.166   1.935  14.432  2.1142  0.0530 -0.4522
   57TMC2    H1  891   1.046   1.697  14.089 -1.7809  0.1262  1.0190
   57TMC2    H2  892   1.426   1.871  14.109  0.7016 -0.1972 -0.4194
   57TMC2    C7  893   1.285   1.688  13.982  0.3460  0.3407 -0.6624
   57TMC2    C8  894   1.407   1.981  14.343 -0.2675 -0.7566  0.4972
   57TMC2    O1  895   1.237   1.581  13.954  0.0473 -0.6047 -0.2465
   57TMC2    O2  896   1.435   2.095  14.307 -0.6858 -0.4124 -0.4512
   57TMC2    O5  897   1.494   1.884  14.378  0.0299  0.0339  0.2065
   57TMC2    H5  898   1.455   1.806  14.423 -2.5679  1.4774  0.3992
   58MPD2     C  899   0.591   2.164  14.470  1.1014 -0.1164 -0.4279
   58MPD2    C1  900   0.591   2.066  14.369  0.4675  0.2330 -0.5524
   58MPD2    C2  901   0.701   1.978  14.355  0.1388 -0.3231 -0.2597
   58MPD2    C3  902   0.814   1.998  14.426  0.0742  0.7412 -0.1449
   58MPD2    C4  903   0.817   2.097  14.524 -0.6875  0.9584  0.0902
   58MPD2    C5  904   0.703   2.171  14.547 -0.8980  0.4321 -0.0037
   58MPD2     H  905   0.713   1.916  14.267 -3.1479  0.0783 -0.9914
   58MPD2    H1  906   0.905   2.110  14.585 -0.0132 -0.3962 -0.5926
   58MPD2    H2  907   0.501   2.220  14.498  0.9001  0.4976 -2.3090
   58MPD2    H3  908   0.701   2.243  14.628 -1.7115  1.5487 -1.0192
   58MPD2     N  909   0.935   1.928  14.401 -0.0968  0.0557  0.2173
   58MPD2    H5  910   1.014   1.946  14.462  0.9574 -1.9134 -0.5799
   58MPD2    N1  911   0.494   2.041  14.268 -0.4711 -0.0624 -0.0504
   58MPD2    H7  912   0.518   1.973  14.197  1.1755  0.8934 -0.4014
   59TMC2    C1  913   3.047   2.003  12.790 -0.9143  0.0819  0.1824
   59TMC2    C2  914   3.166   1.994  12.721 -0.6401  1.0394 -0.3053
   59TMC2    C3  915   3.151   1.927  12.603 -0.0705  0.5621  0.7340
   59TMC2    C4  916   2.927   1.963  12.730 -0.3988 -0.6203  1.1699
   59TMC2    C5  917   2.923   1.895  12.608  0.2293  0.3460 -0.3333
   59TMC2    C6  918   3.040   1.869  12.546 -0.2530 -0.1851  0.3200
   59TMC2     C  919   3.050   2.025  12.935 -0.6793  0.3764 -0.1607
   59TMC2     O  920   2.952   1.990  13.000 -0.5737 -0.2483  0.1768
   59TMC2     H  921   3.261   2.038  12.751 -0.8059  0.2889  1.3188
   59TMC2    H1  922   2.835   1.985  12.781  0.5387  2.4852  1.5103
   59TMC2    H2  923   3.040   1.814  12.452 -1.9246 -0.0435  0.2282
   59TMC2    C7  924   2.810   1.930  12.527 -0.0307  0.0433 -0.2571
   59TMC2    C8  925   3.263   1.932  12.512 -0.3836  0.3430 -0.4884
   59TMC2    O1  926   2.697   1.906  12.569  0.5693  0.1978  0.0926
   59TMC2    O2  927   3.253   1.925  12.391  0.1675 -0.3142  0.0832
   59TMC2    O5  928   3.374   1.902  12.591 -0.0242  0.0969 -0.0016
   59TMC2    H5  929   3.385   1.886  12.688  3.5341 -0.4411 -0.4824
   60MPD2     C  930   3.156   2.004  13.205 -0.2153 -0.2947  0.0551
   60MPD2    C1  931   3.203   2.096  13.118 -0.2260 -0.1588 -0.0743
   60MPD2    C2  932   3.299   2.188  13.160  1.0554 -0.4470 -0.4301
   60MPD2    C3  933   3.347   2.185  13.291 -0.5000  0.2837  0.6967
   60MPD2    C4  934   3.291   2.094  13.376 -0.9285  0.6677  0.2400
   60MPD2    C5  935   3.193   2.012  13.333  0.2559 -0.2576 -0.3106
   60MPD2     H  936   3.332   2.263  13.089 -0.0122 -0.4572 -0.9357
   60MPD2    H1  937   3.325   2.086  13.478 -0.6156  1.2015  0.1764
   60MPD2    H2  938   3.099   1.917  13.174 -0.0894 -0.0271 -0.9364
   60MPD2    H3  939   3.161   1.930  13.396 -0.6124  0.9540  0.8053
   60MPD2     N  940   3.460   2.256  13.332  0.3036 -0.8757 -0.3704
   60MPD2    H5  941   3.477   2.254  13.432  0.2361  0.9151 -0.3172
   60MPD2    N1  942   3.163   2.086  12.981  0.6072  0.0473  0.0917
   60MPD2    H7  943   3.212   2.149  12.919  1.2861 -1.0891 -0.5386
   61TMC2    C1  944   2.769   2.491  15.543  0.3615 -0.7291 -0.1895
   61TMC2    C2  945   2.815   2.453  15.670  0.0393  0.3270  0.7966
   61TMC2    C3  946   2.744   2.500  15.777 -0.7774 -0.0351  0.1253
   61TMC2    C4  947   2.657   2.565  15.526 -0.4686  0.2038  0.8396
   61TMC2    C5  948   2.594   2.621  15.636  0.3529  0.6902 -0.2075
   61TMC2    C6  949   2.642   2.587  15.760  0.0129  0.4227  0.2847
   61TMC2     C  950   2.869   2.486  15.442 -0.2908  0.8988 -0.4854
   61TMC2     O  951   2.984   2.448  15.478  0.0957 -0.2786  0.1043
   61TMC2     H  952   2.908   2.399  15.684 -0.2090 -0.3276 -0.0757
   61TMC2    H1  953   2.613   2.577  15.428  1.2918 -1.2335 -0.1158
   61TMC2    H2  954   2.607   2.630  15.853 -1.4707  0.3904 -0.2540
   61TMC2    C7  955   2.492   2.712  15.613 -0.1119 -0.4084 -0.0405
   61TMC2    C8  956   2.781   2.470  15.913 -0.3422 -0.6891  0.7016
   61TMC2    O1  957   2.495   2.755  15.496 -0.2855  0.1925 -0.1227
   61TMC2    O2  958   2.784   2.551  16.006  0.4724  0.3937  0.0266
   61TMC2    O5  959   2.833   2.349  15.927  0.7558 -0.5899  0.2819
   61TMC2    H5  960   2.824   2.284  15.854  0.3466  0.8375 -0.9427
   62MPD2     C  961   3.048   2.510  15.202 -0.7543 -0.8024 -0.2727
   62MPD2    C1  962   2.918   2.533  15.207  0.6326  0.1668 -0.4657
   62MPD2    C2  963   2.865   2.586  15.093  0.1456  0.7561 -0.4292
   62MPD2    C3  964   2.932   2.599  14.970 -0.1656  0.5895  0.1042
   62MPD2    C4  965   3.068   2.572  14.972 -0.9298 -0.2617  0.1197
   62MPD2    C5  966   3.123   2.524  15.088 -0.0348  0.5147 -0.3649
   62MPD2     H  967   2.759   2.604  15.105 -0.0618 -1.1451  0.5447
   62MPD2    H1  968   3.129   2.584  14.883  0.6875 -0.5888  1.1830
   62MPD2    H2  969   3.104   2.479  15.289 -2.1609  0.5650  1.1296
   62MPD2    H3  970   3.229   2.503  15.087 -0.4339 -1.4718  0.2521
   62MPD2     N  971   2.875   2.637  14.849  0.0384  0.3871  0.3494
   62MPD2    H5  972   2.947   2.661  14.781 -1.9831 -1.7387 -2.5344
   62MPD2    N1  973   2.835   2.529  15.314  0.1681 -0.4017 -0.1554
   62MPD2    H7  974   2.737   2.551  15.300  0.2501  0.5672  0.8259
   63TMC2    C1  975   2.365   3.509  10.032 -0.9865 -0.6664 -0.3258
   63TMC2    C2  976   2.463   3.586  10.088  0.2162 -0.0747  0.6160
   63TMC2    C3  977   2.562   3.631  10.003 -0.2729  0.0208  0.0825
   63TMC2    C4  978   2.367   3.483   9.898  0.4295 -0.1433  0.2630
   63TMC2    C5  979   2.462   3.543   9.818 -0.3768 -0.2089  0.1285
   63TMC2    C6  980   2.565   3.605   9.867  0.4336  1.0600  0.6084
   63TMC2     C  981   2.253   3.464  10.106 -0.1982  0.1245 -0.7482
   63TMC2     O  982   2.150   3.444  10.045  0.4532  0.2415  0.0146
   63TMC2     H  983   2.472   3.611  10.193  1.9271  0.1314  0.4231
   63TMC2    H1  984   2.283   3.435   9.849 -0.0225 -0.2150  1.1043
   63TMC2    H2  985   2.630   3.666   9.805  0.6778  0.4199  0.2405
   63TMC2    C7  986   2.420   3.599   9.696  0.2636  0.1536 -0.4008
   63TMC2    C8  987   2.669   3.706  10.059  0.3402  0.5563  0.0761
   63TMC2    O1  988   2.435   3.721   9.679 -0.5230  0.9556  0.1602
   63TMC2    O2  989   2.786   3.712  10.024 -0.1194 -0.4058  0.3731
   63TMC2    O5  990   2.601   3.794  10.127  1.0804  0.4120 -0.3615
   63TMC2    H5  991   2.504   3.791  10.114  1.1689  0.6234 -1.0691
   64MPD2     C  992   1.986   3.371  10.542  0.0675  0.5842  0.7561
   64MPD2    C1  993   2.116   3.322  10.552 -0.4526  0.4476  0.0508
   64MPD2    C2  994   2.211   3.349  10.453 -0.1444 -0.2860 -0.1086
   64MPD2    C3  995   2.178   3.421  10.337  1.1371  0.0736 -0.1669
   64MPD2    C4  996   2.046   3.452  10.318  0.0086  0.2808  0.1337
   64MPD2    C5  997   1.951   3.420  10.419  0.7191 -0.7579 -0.3661
   64MPD2     H  998   2.311   3.310  10.464 -0.3211 -1.0799 -1.2497
   64MPD2    H1  999   2.019   3.518  10.236 -0.1282  1.4699  1.1291
   64MPD2    H2 1000   1.909   3.362  10.618  1.5121 -0.0381  2.1435
   64MPD2    H3 1001   1.847   3.449  10.404  1.0904  0.7311 -0.0427
   64MPD2     N 1002   2.278   3.434  10.238 -0.1949 -0.2462 -0.0228
   64MPD2    H5 1003   2.376   3.414  10.257  0.2059 -0.1048 -1.9680
   64MPD2    N1 1004   2.158   3.246  10.663 -0.2533 -0.5549  0.1203
   64MPD2    H7 1005   2.249   3.201  10.663 -1.1352 -2.4185  3.3374
   65TMC2    C1 1006   3.908   2.754  15.660  0.0360  0.2821 -0.4244
   65TMC2    C2 1007   4.036   2.803  15.678  0.2113 -0.2586  0.4536
   65TMC2    C3 1008   4.064   2.918  15.610  0.9032 -0.2591 -0.4441
   65TMC2    C4 1009   3.811   2.825  15.593 -0.0468 -0.2505  0.1909
   65TMC2    C5 1010   3.846   2.943  15.528  0.7798 -0.2695  0.0176
   65TMC2    C6 1011   3.976   2.995  15.533 -0.5424  0.3229 -0.4624
   65TMC2     C 1012   3.891   2.614  15.699 -0.6878  0.4962  0.9388
   65TMC2     O 1013   3.983   2.558  15.756  0.1987  0.8120 -0.2147
   65TMC2     H 1014   4.112   2.748  15.733  0.7377 -1.0148 -1.0515
   65TMC2    H1 1015   3.709   2.787  15.589 -0.1194 -0.0545  0.2112
   65TMC2    H2 1016   4.000   3.093  15.493  1.3607  0.2820  0.6005
   65TMC2    C7 1017   3.736   3.027  15.491  0.1524 -0.4353  0.4476
   65TMC2    C8 1018   4.169   2.996  15.674  0.2402 -0.3306 -0.4938
   65TMC2    O1 1019   3.764   3.113  15.407  0.2092  0.4537 -0.4234
   65TMC2    O2 1020   4.279   3.017  15.623  0.1300  1.2523 -0.3002
   65TMC2    O5 1021   4.104   3.104  15.721  0.0712 -0.4899  0.1463
   65TMC2    H5 1022   4.016   3.076  15.753 -0.8509  1.3396 -0.8271
   66MPD2     C 1023   3.764   2.369  15.803  0.5856 -0.1474  0.3225
   66MPD2    C1 1024   3.735   2.429  15.686 -0.1070  0.4642  0.5013
   66MPD2    C2 1025   3.636   2.379  15.609  0.6255 -0.2847 -0.2263
   66MPD2    C3 1026   3.583   2.261  15.644 -0.5680  0.1753 -0.6158
   66MPD2    C4 1027   3.610   2.193  15.764  0.1195  0.4451  0.0908
   66MPD2    C5 1028   3.711   2.248  15.841 -0.6345  0.6984 -0.2249
   66MPD2     H 1029   3.608   2.425  15.515 -0.9422 -1.4496 -0.3349
   66MPD2    H1 1030   3.562   2.106  15.807 -0.4600  1.4024  1.3753
   66MPD2    H2 1031   3.832   2.408  15.878 -0.3572  1.5686  0.3010
   66MPD2    H3 1032   3.745   2.206  15.935 -1.4586  2.1073  0.6886
   66MPD2     N 1033   3.487   2.188  15.570  0.8570  0.1472  0.2391
   66MPD2    H5 1034   3.433   2.114  15.613  1.9924  0.3861  2.0887
   66MPD2    N1 1035   3.775   2.555  15.659  0.5605 -0.2709  0.1385
   66MPD2    H7 1036   3.720   2.604  15.590  1.0145 -0.1286 -0.1258
   67TMC2    C1 1037   3.249   1.824  14.280 -0.7239  0.4214 -0.3196
   67TMC2    C2 1038   3.154   1.806  14.372 -0.7202 -0.6323 -0.1860
   67TMC2    C3 1039   3.190   1.827  14.497  0.2378  0.4025 -0.3239
   67TMC2    C4 1040   3.376   1.871  14.305 -0.0697 -0.6658  0.0732
   67TMC2    C5 1041   3.410   1.889  14.437 -0.5253  0.1603  0.6549
   67TMC2    C6 1042   3.321   1.853  14.536  0.9234  0.7944 -0.2405
   67TMC2     C 1043   3.225   1.788  14.144 -0.0268 -0.1150 -0.1298
   67TMC2     O 1044   3.318   1.757  14.072  0.4522 -0.3583  0.2057
   67TMC2     H 1045   3.060   1.758  14.348 -0.7117  0.0473 -1.6143
   67TMC2    H1 1046   3.438   1.884  14.217  1.8994 -0.5721  1.4717
   67TMC2    H2 1047   3.343   1.858  14.642 -2.5795  0.1318  0.5244
   67TMC2    C7 1048   3.554   1.896  14.456  0.3789 -0.2496  0.2959
   67TMC2    C8 1049   3.088   1.794  14.597  0.0209 -0.0521  0.3284
   67TMC2    O1 1050   3.626   1.886  14.356  0.4529  0.1242  0.0186
   67TMC2    O2 1051   2.995   1.721  14.568  0.0856 -0.3506  0.1708
   67TMC2    O5 1052   3.094   1.886  14.698 -0.5310  0.1249 -0.3378
   67TMC2    H5 1053   3.172   1.945  14.690 -0.4992  0.0822 -0.3416
   68MPD2     C 1054   3.103   1.822  13.856  0.1986 -0.0480  0.1332
   68MPD2    C1 1055   3.045   1.837  13.980 -0.7371  1.1675  0.0278
   68MPD2    C2 1056   2.907   1.865  13.977  0.1742 -0.3417  0.5463
   68MPD2    C3 1057   2.839   1.894  13.861  0.0188  0.0482  0.6390
   68MPD2    C4 1058   2.906   1.895  13.737  0.0925 -0.3180  0.3616
   68MPD2    C5 1059   3.035   1.854  13.736 -0.2654 -0.2732 -0.0844
   68MPD2     H 1060   2.855   1.851  14.071 -0.6332  0.0657  0.1611
   68MPD2    H1 1061   2.855   1.912  13.644 -0.7946  1.5952  1.1889
   68MPD2    H2 1062   3.206   1.790  13.846  0.1288 -0.8320  1.8326
   68MPD2    H3 1063   3.088   1.845  13.642 -1.2554 -2.5000 -0.4127
   68MPD2     N 1064   2.704   1.935  13.865 -0.2927  0.4880 -0.3670
   68MPD2    H5 1065   2.670   1.978  13.780  1.4896 -0.7206 -1.6714
   68MPD2    N1 1066   3.097   1.826  14.108  0.0596  0.3811  0.1948
   68MPD2    H7 1067   3.031   1.847  14.182  0.0278 -0.0262  0.2832
   69TMC2    C1 1068   0.989   3.609  12.515  0.1057 -0.2877 -0.2220
   69TMC2    C2 1069   0.873   3.677  12.525  0.0766  0.0292 -0.2493
   69TMC2    C3 1070   0.819   3.728  12.414 -0.1797 -0.1099  0.5669
   69TMC2    C4 1071   1.057   3.604  12.401 -0.6962  0.2955 -0.1449
   69TMC2    C5 1072   0.998   3.642  12.286 -0.0143  0.0451  0.1015
   69TMC2    C6 1073   0.880   3.713  12.294 -0.2326  0.2203  0.7004
   69TMC2     C 1074   1.019   3.519  12.627  0.4751  0.8777  0.2916
   69TMC2     O 1075   0.966   3.535  12.732  0.3531  0.2023 -0.2580
   69TMC2     H 1076   0.809   3.663  12.612 -0.6909 -0.3962 -0.8866
   69TMC2    H1 1077   1.146   3.544  12.384 -1.8002 -1.6306  0.8789
   69TMC2    H2 1078   0.836   3.759  12.206  2.1847  0.2211 -0.5274
   69TMC2    C7 1079   1.071   3.609  12.166 -0.3949 -0.3605  0.4527
   69TMC2    C8 1080   0.696   3.806  12.407 -0.1572 -0.8010 -0.1445
   69TMC2    O1 1081   1.189   3.583  12.175  0.2062  0.3684  0.0352
   69TMC2    O2 1082   0.669   3.864  12.305 -0.3724  0.0173 -0.5234
   69TMC2    O5 1083   0.600   3.763  12.493  0.5083 -0.3494  0.3020
   69TMC2    H5 1084   0.639   3.721  12.573 -0.8716 -2.8411 -0.3167
   70MPD2     C 1085   1.256   3.236  12.602  0.1331  0.2750 -0.0741
   70MPD2    C1 1086   1.140   3.306  12.646  1.1494  0.3461  0.3402
   70MPD2    C2 1087   1.054   3.245  12.736 -0.7563  0.2983  0.2104
   70MPD2    C3 1088   1.084   3.124  12.784 -0.1287 -0.9138 -0.9480
   70MPD2    C4 1089   1.198   3.060  12.743  0.3704  0.4425  0.5121
   70MPD2    C5 1090   1.284   3.114  12.655 -0.0372  0.2415  1.0980
   70MPD2     H 1091   0.970   3.300  12.775 -1.0782 -0.0403 -0.0032
   70MPD2    H1 1092   1.209   2.960  12.785  2.5629  0.0623 -0.9451
   70MPD2    H2 1093   1.310   3.282  12.520 -0.7027  0.5090 -0.4884
   70MPD2    H3 1094   1.364   3.057  12.609 -0.3326 -0.3821  1.3612
   70MPD2     N 1095   0.997   3.050  12.872  0.0012  0.5870 -0.3071
   70MPD2    H5 1096   1.038   2.975  12.927  0.7357  0.8373 -0.5166
   70MPD2    N1 1097   1.115   3.427  12.584  0.3906  0.0522 -0.2327
   70MPD2    H7 1098   1.169   3.446  12.501  0.9325  0.1254  0.1342
   71TMC2    C1 1099   2.595   4.289   0.961  0.5997 -0.6841 -0.5410
   71TMC2    C2 1100   2.670   4.394   1.011 -0.0667 -0.4013 -0.0567
   71TMC2    C3 1101   2.601   4.510   1.026 -0.7791 -0.6856 -0.0257
   71TMC2    C4 1102   2.458   4.297   0.949 -0.0251 -0.4399  0.3973
   71TMC2    C5 1103   2.396   4.411   0.995  0.1316 -0.7799  0.1893
   71TMC2    C6 1104   2.466   4.523   1.023 -0.1448 -0.1435 -0.2161
   71TMC2     C 1105   2.663   4.170   0.919 -0.3208 -0.2168 -0.2301
   71TMC2     O 1106   2.768   4.136   0.976 -0.1493 -0.1053 -0.4252
   71TMC2     H 1107   2.777   4.383   1.021 -0.0216  0.8440  0.8449
   71TMC2    H1 1108   2.399   4.207   0.936 -1.0410  0.0699  1.4762
   71TMC2    H2 1109   2.427   4.621   1.048 -0.9727 -0.2249 -1.2079
   71TMC2    C7 1110   2.250   4.419   0.990  0.5853  0.4711 -0.5162
   71TMC2    C8 1111   2.674   4.631   1.020  0.7720  0.2291 -0.4421
   71TMC2    O1 1112   2.201   4.525   0.962 -0.0571  0.4977 -0.1118
   71TMC2    O2 1113   2.629   0.003   0.984 -0.2543 -0.1443 -0.3147
   71TMC2    O5 1114   2.800   4.605   1.060  0.4175  0.2348  0.1169
   71TMC2    H5 1115   2.790   4.522   1.111 -0.6285  0.8030  0.8514
   72MPD2     C 1116   2.684   3.728   0.647 -0.4949  1.1570 -0.1188
   72MPD2    C1 1117   2.778   3.782   0.736 -0.0105  0.1902  0.5992
   72MPD2    C2 1118   2.741   3.905   0.800  1.3558  0.0970 -0.5052
   72MPD2    C3 1119   2.620   3.963   0.773  0.5134 -0.4572  0.5106
   72MPD2    C4 1120   2.528   3.906   0.687 -0.1937 -0.6777 -0.4557
   72MPD2    C5 1121   2.567   3.792   0.625  1.1764  0.0355 -0.8554
   72MPD2     H 1122   2.818   3.942   0.866 -0.4936  0.7521  1.2574
   72MPD2    H1 1123   2.436   3.960   0.669  1.2114  2.5421  2.0122
   72MPD2    H2 1124   2.704   3.647   0.578 -0.8412  1.9453 -1.1522
   72MPD2    H3 1125   2.498   3.742   0.558 -1.5728 -0.6994  2.5233
   72MPD2     N 1126   2.591   4.094   0.827  0.3540 -0.2595  0.0740
   72MPD2    H5 1127   2.510   4.144   0.792  0.7953 -0.0528 -0.6476
   72MPD2    N1 1128   2.902   3.725   0.753  0.0070 -0.3466  0.2131
   72MPD2    H7 1129   2.966   3.786   0.802  0.3806 -0.1999 -0.4576
   73TMC2    C1 1130   2.565   0.831  13.972  0.6026 -0.2395 -1.0172
   73TMC2    C2 1131   2.518   0.885  14.094  0.6537 -0.1469 -0.3430
   73TMC2    C3 1132   2.578   0.854  14.207 -0.0187 -0.0867 -0.3582
   73TMC2    C4 1133   2.688   0.771  13.971 -0.8498  0.4064 -0.1230
   73TMC2    C5 1134   2.748   0.752  14.091  0.0618  0.1722  0.4685
   73TMC2    C6 1135   2.696   0.789  14.210  0.1723 -0.5256  0.7405
   73TMC2     C 1136   2.525   0.901  13.847 -0.2060 -0.1760 -0.3714
   73TMC2     O 1137   2.588   0.862  13.747 -0.1269  0.5730 -0.6659
   73TMC2     H 1138   2.423   0.935  14.098 -0.3206 -1.8204 -2.2582
   73TMC2    H1 1139   2.731   0.727  13.883 -0.4044  0.2875  0.1531
   73TMC2    H2 1140   2.763   0.794  14.295 -1.2071  2.1259  1.6624
   73TMC2    C7 1141   2.888   0.794  14.079  0.1609  0.2629  0.3793
   73TMC2    C8 1142   2.566   0.972  14.291 -0.2251 -0.0264 -1.3312
   73TMC2    O1 1143   2.971   0.739  14.153  0.4324 -0.3144 -0.3050
   73TMC2    O2 1144   2.592   0.972  14.409 -0.0987  0.3280  0.3866
   73TMC2    O5 1145   2.560   1.085  14.215  0.3298  0.0922 -0.1039
   73TMC2    H5 1146   2.588   1.058  14.125  1.8525  0.0622  0.3728
   74MPD2     C 1147   2.450   1.371  13.653 -0.0866  0.2118  0.1249
   74MPD2    C1 1148   2.544   1.273  13.623  0.1324  0.8006  0.6233
   74MPD2    C2 1149   2.545   1.154  13.689 -0.0853 -0.7097 -0.5502
   74MPD2    C3 1150   2.440   1.121  13.774  0.5660  0.1235 -0.1361
   74MPD2    C4 1151   2.343   1.218  13.793 -0.0116 -0.0602 -0.1189
   74MPD2    C5 1152   2.356   1.347  13.744 -0.8722 -0.7757 -0.1095
   74MPD2     H 1153   2.630   1.090  13.666  2.9977  2.8922  0.7544
   74MPD2    H1 1154   2.255   1.191  13.850 -0.1755 -1.5802 -1.0842
   74MPD2    H2 1155   2.444   1.469  13.607  0.2916 -1.6592 -3.9394
   74MPD2    H3 1156   2.274   1.418  13.757 -0.7878 -1.0483  1.8689
   74MPD2     N 1157   2.440   1.012  13.858 -0.0001  0.1966 -0.2879
   74MPD2    H5 1158   2.385   1.023  13.942  3.3518  2.1728  1.6155
   74MPD2    N1 1159   2.653   1.304  13.548  0.2794 -0.0569  0.4523
   74MPD2    H7 1160   2.666   1.401  13.519  0.0872  0.0938  0.8848
   75TMC2    C1 1161   2.504   2.026  13.939 -0.3266  0.3057  0.4826
   75TMC2    C2 1162   2.388   2.007  14.003 -0.2785 -0.0189  0.0533
   75TMC2    C3 1163   2.291   2.101  13.983  0.2151  0.1759 -0.2652
   75TMC2    C4 1164   2.525   2.138  13.861  0.4774 -0.8459  0.8666
   75TMC2    C5 1165   2.423   2.228  13.842 -0.0197  0.0783  0.4058
   75TMC2    C6 1166   2.296   2.205  13.895  0.5308  0.7357 -0.2416
   75TMC2     C 1167   2.620   1.955  13.978  0.0640 -1.0014  0.0413
   75TMC2     O 1168   2.639   1.920  14.088 -0.4266  0.1734  0.4474
   75TMC2     H 1169   2.366   1.930  14.076  0.9812  0.4365  0.9031
   75TMC2    H1 1170   2.619   2.152  13.809 -0.4383 -2.3901 -1.2353
   75TMC2    H2 1171   2.228   2.289  13.902  0.2190  0.3985  0.8726
   75TMC2    C7 1172   2.438   2.324  13.737 -0.7562  0.2910 -0.3501
   75TMC2    C8 1173   2.151   2.063  14.029 -0.5703  0.8355 -0.0342
   75TMC2    O1 1174   2.347   2.370  13.675 -0.2218  0.0672 -0.0755
   75TMC2    O2 1175   2.137   1.995  14.132 -0.0994  0.4325  0.0434
   75TMC2    O5 1176   2.055   2.125  13.962 -0.2364 -0.0312  0.2848
   75TMC2    H5 1177   2.084   2.141  13.869  0.2773  1.0780  0.6318
   76TMC2    C1 1178   2.333   2.965  12.205  0.2745 -0.4355 -0.3600
   76TMC2    C2 1179   2.294   2.834  12.205  0.1740 -0.2945  0.0189
   76TMC2    C3 1180   2.382   2.752  12.270 -0.0384  0.7081  0.4093
   76TMC2    C4 1181   2.460   3.005  12.236  0.3935  0.7682  0.0618
   76TMC2    C5 1182   2.549   2.920  12.280  0.2910  0.1249 -0.1308
   76TMC2    C6 1183   2.511   2.784  12.300 -0.3345  0.1378  0.2507
   76TMC2     C 1184   2.230   3.065  12.163  0.0634  0.1776  0.4952
   76TMC2     O 1185   2.139   3.025  12.095 -0.1894  0.7112  0.1025
   76TMC2     H 1186   2.195   2.801  12.177  1.0294 -2.8123 -0.0757
   76TMC2    H1 1187   2.497   3.107  12.234 -2.1427  1.6618 -0.1056
   76TMC2    H2 1188   2.583   2.721  12.350 -2.2388 -1.8202  0.5137
   76TMC2    C7 1189   2.678   2.975  12.309  0.1118  0.1909 -0.2112
   76TMC2    C8 1190   2.339   2.615  12.300  0.4472  0.3795 -0.1397
   76TMC2    O1 1191   2.712   3.081  12.256  0.2591  0.4829 -0.1472
   76TMC2    O2 1192   2.250   2.562  12.237  0.4006  0.2362 -0.2180
   76TMC2    O5 1193   2.349   2.616  12.432 -0.0190 -0.4523 -0.1671
   76TMC2    H5 1194   2.435   2.645  12.470 -1.2880  1.6614  1.1152
   77MPD2     C 1195   2.112   3.543  12.058  0.1208 -0.1372 -0.8748
   77MPD2    C1 1196   2.071   3.425  11.997 -0.2509  0.0375 -0.1477
   77MPD2    C2 1197   2.122   3.308  12.044  0.6812  0.2238 -0.2310
   77MPD2    C3 1198   2.214   3.310  12.148  0.4054  0.0568 -0.4904
   77MPD2    C4 1199   2.261   3.424  12.206 -0.1655 -0.6589 -1.0409
   77MPD2    C5 1200   2.200   3.544  12.166 -0.1097  0.1449 -0.4215
   77MPD2     H 1201   2.103   3.212  11.996 -1.2877  0.8779 -0.7656
   77MPD2    H1 1202   2.355   3.415  12.257 -0.6592 -2.0493 -0.3851
   77MPD2    H2 1203   2.062   3.635  12.028 -2.9650 -1.0895  1.3836
   77MPD2    H3 1204   2.234   3.639  12.204 -1.3635  0.5523 -0.3180
   77MPD2     N 1205   2.270   3.188  12.197  0.3361 -0.5986  0.8309
   77MPD2    H5 1206   2.327   3.194  12.281 -1.8935 -1.0686  2.3528
   77MPD2    N1 1207   1.977   3.415  11.896 -0.3043  0.7688 -0.0593
   77MPD2    H7 1208   1.919   3.332  11.904 -0.5937  0.7444 -2.3172
   78TMC2    C1 1209   3.825   3.082   1.844 -0.7352 -0.1526 -0.5342
   78TMC2    C2 1210   3.800   3.144   1.963  0.5049  0.6052 -0.1217
   78TMC2    C3 1211   3.776   3.274   1.968  0.2418  0.1508 -0.1568
   78TMC2    C4 1212   3.850   3.158   1.732 -0.7902 -0.6612 -0.3210
   78TMC2    C5 1213   3.830   3.293   1.743  0.5922 -1.2029  0.6140
   78TMC2    C6 1214   3.786   3.355   1.856 -0.1430 -0.0869 -0.1227
   78TMC2     C 1215   3.887   2.953   1.848 -0.4472 -0.0974 -0.4423
   78TMC2     O 1216   3.896   2.893   1.738 -0.2157  0.4339  0.3100
   78TMC2     H 1217   3.780   3.085   2.052 -0.0903 -0.2221 -0.8000
   78TMC2    H1 1218   3.888   3.116   1.640  0.9972 -1.5400  0.8147
   78TMC2    H2 1219   3.763   3.461   1.863  1.2626  0.0980  1.7104
   78TMC2    C7 1220   3.911   3.378   1.660  0.5199 -0.6482  0.0657
   78TMC2    C8 1221   3.763   3.323   2.104 -0.3432  0.2441 -0.0841
   78TMC2    O1 1222   4.000   3.321   1.598  0.4357 -0.3922  0.5096
   78TMC2    O2 1223   3.760   3.241   2.197 -0.3992 -0.6481 -0.1177
   78TMC2    O5 1224   3.800   3.452   2.116 -0.2506 -0.1383  0.1514
   78TMC2    H5 1225   3.784   3.508   2.037 -2.7842 -1.0159  0.0456
   79MPD1     C 1226   4.237   2.649   2.040  0.6864 -0.4485  0.0248
   79MPD1    C1 1227   4.193   2.654   1.907 -0.2240 -0.0885 -0.5153
   79MPD1    C2 1228   4.095   2.753   1.881 -0.2529 -0.4392 -0.0647
   79MPD1    C3 1229   4.035   2.825   1.986  0.5875 -0.6390 -0.3275
   79MPD1    C4 1230   4.071   2.801   2.112 -0.0022 -0.3355  0.5150
   79MPD1    C5 1231   4.175   2.721   2.139  0.5429 -0.0307  0.5721
   79MPD1     H 1232   4.066   2.778   1.779 -0.3545  1.8985  0.5396
   79MPD1    H1 1233   4.041   2.860   2.198 -0.5798 -1.8654  1.3632
   79MPD1    H2 1234   4.322   2.592   2.075  1.7673  0.6391 -0.8149
   79MPD1    H3 1235   4.214   2.711   2.240  2.1202  0.5432  0.0072
   79MPD1     N 1236   3.940   2.927   1.971 -0.1601 -0.2400  0.0586
   79MPD1    H5 1237   3.918   2.984   2.052  2.4017  0.0335  0.5795
   79MPD1    N1 1238   4.256   2.582   1.802  0.4535  0.5426  0.0356
   79MPD1    H6 1239   4.309   2.500   1.831  0.0293 -0.0958 -1.0297
   79MPD1    H7 1240   4.189   2.562   1.728 -0.4299 -0.1551  1.0295
   80TMC2    C1 1241   1.389   2.318  12.235 -0.4488  0.2866 -0.0374
   80TMC2    C2 1242   1.424   2.420  12.155  0.7692  0.1938 -0.6080
   80TMC2    C3 1243   1.327   2.476  12.083 -0.4321 -0.0085 -0.3065
   80TMC2    C4 1244   1.265   2.263  12.241 -0.3088  0.1233  0.1475
   80TMC2    C5 1245   1.171   2.317  12.158  0.1330  0.0006  0.1625
   80TMC2    C6 1246   1.199   2.422  12.075  0.0832  0.0614  0.2262
   80TMC2     C 1247   1.446   2.323  12.370 -0.2060 -0.0833 -0.7144
   80TMC2     O 1248   1.567   2.339  12.382 -0.0389  0.3335  0.5137
   80TMC2     H 1249   1.522   2.465  12.157  1.0371 -0.3048 -3.0846
   80TMC2    H1 1250   1.251   2.170  12.295  1.6154  0.6097  1.4737
   80TMC2    H2 1251   1.119   2.476  12.025  0.2954 -0.3834 -0.5986
   80TMC2    C7 1252   1.029   2.301  12.181 -0.0669  0.2413  0.0627
   80TMC2    C8 1253   1.365   2.593  12.008  0.0437  0.1121  1.3217
   80TMC2    O1 1254   0.946   2.363  12.114  0.4107  0.8587 -1.2108
   80TMC2    O2 1255   1.466   2.659  12.030  0.5785 -0.2082  0.2116
   80TMC2    O5 1256   1.279   2.612  11.909  0.1571  0.3389 -0.1811
   80TMC2    H5 1257   1.199   2.555  11.915  0.2755  0.1592 -0.2908
   81MPD2     C 1258   1.475   2.339  12.656  0.2518  0.4234  0.1733
   81MPD2    C1 1259   1.357   2.357  12.592  0.5476  0.3166 -0.1682
   81MPD2    C2 1260   1.247   2.408  12.658  0.5504 -0.5000 -0.6492
   81MPD2    C3 1261   1.256   2.449  12.793  0.0106 -0.2210 -0.0724
   81MPD2    C4 1262   1.375   2.432  12.855  0.8251 -0.3964  0.2208
   81MPD2    C5 1263   1.484   2.385  12.785  0.3625  0.2424  1.0451
   81MPD2     H 1264   1.155   2.426  12.604 -0.2439  1.5877  1.3805
   81MPD2    H1 1265   1.398   2.455  12.958  0.7208 -0.1693  0.1927
   81MPD2    H2 1266   1.562   2.287  12.616  0.0711  0.5181 -0.3385
   81MPD2    H3 1267   1.574   2.365  12.841  1.0463 -0.5665 -0.3598
   81MPD2     N 1268   1.142   2.505  12.867 -0.5306  0.4000  0.1401
   81MPD2    H5 1269   1.150   2.517  12.968 -1.1298 -2.4479  0.5225
   81MPD2    N1 1270   1.341   2.332  12.457  0.4623  0.0422 -0.1070
   81MPD2    H7 1271   1.251   2.345  12.412  0.7177  1.3945 -0.2241
   82TMC2    C1 1272   4.161   1.634  11.681 -0.2011 -0.0636 -0.4314
   82TMC2    C2 1273   4.243   1.675  11.582  0.5321  0.1059 -0.1913
   82TMC2    C3 1274   4.340   1.584  11.539  0.7109 -0.3039  0.6195
   82TMC2    C4 1275   4.166   1.498  11.719  0.1792 -0.1535 -1.0455
   82TMC2    C5 1276   4.273   1.412  11.691 -0.3936 -1.1794  0.0823
   82TMC2    C6 1277   4.369   1.462  11.602  0.2197  0.5446 -0.1718
   82TMC2     C 1278   4.033   1.707  11.695  1.1121 -0.6586  0.1566
   82TMC2     O 1279   4.023   1.806  11.627 -0.1259  0.7780 -0.4352
   82TMC2     H 1280   4.241   1.774  11.540 -0.1569  0.7996  1.4799
   82TMC2    H1 1281   4.096   1.457  11.791 -0.8538  2.3412 -0.6205
   82TMC2    H2 1282   4.457   1.407  11.572  0.5754  0.2006  1.5166
   82TMC2    C7 1283   4.294   1.290  11.767 -0.2902 -0.1337  0.1262
   82TMC2    C8 1284   4.439   1.636  11.442 -0.1046 -0.2528 -0.2092
   82TMC2    O1 1285   4.405   1.270  11.808  0.2235  0.3340  0.6893
   82TMC2    O2 1286   4.450   1.755  11.420  0.0134 -0.2144  0.2995
   82TMC2    O5 1287   4.476   1.531  11.370 -0.4853  0.4257  0.0185
   82TMC2    H5 1288   4.444   1.442  11.396 -1.2983  0.9979  0.9682
   83MPD2     C 1289   3.600   1.834  11.928 -0.1591  0.5541 -0.4556
   83MPD2    C1 1290   3.643   1.848  11.800  0.1958 -0.4916 -1.0046
   83MPD2    C2 1291   3.760   1.784  11.763  0.0378 -0.1888  0.9408
   83MPD2    C3 1292   3.843   1.722  11.850  0.1640  0.0475 -0.5399
   83MPD2    C4 1293   3.799   1.711  11.976  0.1191 -0.3685  0.0304
   83MPD2    C5 1294   3.677   1.769  12.023 -0.0119 -0.2027  0.0197
   83MPD2     H 1295   3.783   1.791  11.657  1.1504 -1.7452  1.0982
   83MPD2    H1 1296   3.865   1.670  12.052  2.7547  3.0894 -0.3802
   83MPD2    H2 1297   3.510   1.881  11.967 -0.7876 -0.3805 -0.7719
   83MPD2    H3 1298   3.640   1.754  12.124  0.5799 -2.2714 -0.0748
   83MPD2     N 1299   3.963   1.661  11.806 -1.1181  0.0985  0.3434
   83MPD2    H5 1300   4.021   1.613  11.874  1.3879  1.5689 -0.7530
   83MPD2    N1 1301   3.559   1.906  11.705 -0.1345 -0.3491  0.2335
   83MPD2    H7 1302   3.464   1.929  11.734  0.4481  1.8423  0.3813
   84TMC2    C1 1303   0.586   1.280  10.937 -0.1739  0.1849  0.1759
   84TMC2    C2 1304   0.622   1.153  10.899  0.2843  0.4515  0.0205
   84TMC2    C3 1305   0.701   1.136  10.787 -0.5005 -0.1748  0.2522
   84TMC2    C4 1306   0.639   1.389  10.881  0.1185 -0.1438  0.3615
   84TMC2    C5 1307   0.723   1.366  10.774  0.0236  0.0640  0.2385
   84TMC2    C6 1308   0.750   1.246  10.719  0.7495 -0.3937 -0.1792
   84TMC2     C 1309   0.502   1.293  11.052  0.1876 -0.2802 -0.1150
   84TMC2     O 1310   0.520   1.385  11.130  0.4148  0.3110  0.2090
   84TMC2     H 1311   0.592   1.062  10.950 -1.7314  1.8518  1.3044
   84TMC2    H1 1312   0.613   1.490  10.910 -1.7653 -0.9326  1.4189
   84TMC2    H2 1313   0.796   1.233  10.622  1.8059  0.5154  0.1992
   84TMC2    C7 1314   0.730   1.482  10.683 -0.2227  0.6028 -0.0254
   84TMC2    C8 1315   0.704   1.014  10.708  0.2760 -0.2243 -0.0807
   84TMC2    O1 1316   0.728   1.457  10.567 -1.0268  0.4733  0.5465
   84TMC2    O2 1317   0.628   0.918  10.726  0.5320 -0.1149  1.0102
   84TMC2    O5 1318   0.833   0.992  10.703  0.2270 -0.8306  0.4552
   84TMC2    H5 1319   0.891   1.070  10.705  0.8880 -1.3565  1.9228
   85TMC2    C1 1320   0.835   3.816  16.230  0.5111 -0.2821  0.0979
   85TMC2    C2 1321   0.878   3.729  16.329 -0.2030 -0.3505  0.0915
   85TMC2    C3 1322   0.981   3.767  16.411  0.0402  0.0815 -0.4089
   85TMC2    C4 1323   0.891   3.942  16.211  0.2448 -0.0302 -0.7946
   85TMC2    C5 1324   0.980   3.980  16.307 -0.1739 -0.1394  0.8628
   85TMC2    C6 1325   1.038   3.890  16.399 -0.1651 -0.3018  0.2690
   85TMC2     C 1326   0.743   3.774  16.128 -0.5180 -0.4352  0.0182
   85TMC2     O 1327   0.715   3.865  16.048 -0.0475 -0.3960 -0.4881
   85TMC2     H 1328   0.820   3.639  16.341  0.2011 -0.9369 -2.2102
   85TMC2    H1 1329   0.858   4.002  16.127 -0.9331  0.7235  0.2156
   85TMC2    H2 1330   1.119   3.921  16.464  0.9667 -0.7343 -0.9303
   85TMC2    C7 1331   1.055   4.093  16.265 -0.6845  0.6056 -0.5753
   85TMC2    C8 1332   1.011   3.688  16.535 -0.3557 -0.2080  0.3479
   85TMC2    O1 1333   0.998   4.166  16.186  0.2796  0.1819 -0.2501
   85TMC2    O2 1334   0.930   3.631  16.605  0.1645 -0.0205 -0.3860
   85TMC2    O5 1335   1.146   3.685  16.555  0.0409  0.4660 -0.4005
   85TMC2    H5 1336   1.193   3.720  16.476 -2.6464  2.3699 -1.1523
   86MPD2     C 1337   0.474   3.453  15.833  0.5279  0.0201  0.0579
   86MPD2    C1 1338   0.481   3.404  15.963  0.6283 -1.1213  0.6211
   86MPD2    C2 1339   0.551   3.474  16.060  0.0960  0.1053  0.9149
   86MPD2    C3 1340   0.617   3.590  16.029 -0.5814 -0.5626  0.2200
   86MPD2    C4 1341   0.613   3.639  15.902  0.1147 -0.1718  0.3789
   86MPD2    C5 1342   0.551   3.567  15.806 -0.5057 -0.1727 -0.2745
   86MPD2     H 1343   0.563   3.428  16.157 -1.1043  1.0709  1.5328
   86MPD2    H1 1344   0.670   3.723  15.866 -1.4302  0.4372 -0.6224
   86MPD2    H2 1345   0.410   3.420  15.752  0.9202 -3.8300  1.3176
   86MPD2    H3 1346   0.550   3.612  15.708 -0.8056  0.8358  0.1968
   86MPD2     N 1347   0.697   3.643  16.134 -0.1995 -0.1189 -0.1439
   86MPD2    H5 1348   0.722   3.585  16.214 -2.2291  0.0838  0.6440
   86MPD2    N1 1349   0.436   3.271  16.002 -0.4645 -0.1311 -0.5047
   86MPD2    H7 1350   0.450   3.245  16.099 -0.5153  1.0259 -0.1864
   87TMC2    C1 1351   3.762   2.519   1.324  0.4391  0.7763  0.8511
   87TMC2    C2 1352   3.867   2.496   1.410 -0.1677 -0.2224 -0.2683
   87TMC2    C3 1353   3.864   2.542   1.537  0.3699 -0.1134 -0.4713
   87TMC2    C4 1354   3.658   2.600   1.380 -0.4749  0.9714  0.4048
   87TMC2    C5 1355   3.665   2.659   1.501  0.2423  0.0379 -0.1903
   87TMC2    C6 1356   3.773   2.631   1.589  0.2228 -0.0061 -0.0745
   87TMC2     C 1357   3.757   2.476   1.185  0.4821  0.0635 -0.0604
   87TMC2     O 1358   3.642   2.484   1.137  0.1314 -0.3261  0.6684
   87TMC2     H 1359   3.959   2.448   1.377 -0.7496  0.9865 -3.6953
   87TMC2    H1 1360   3.572   2.629   1.321 -0.3772 -2.1273 -1.2578
   87TMC2    H2 1361   3.791   2.685   1.681 -1.4089  0.5938 -0.0913
   87TMC2    C7 1362   3.598   2.789   1.508  0.2070  0.1929 -0.5020
   87TMC2    C8 1363   3.974   2.514   1.618 -0.6327  0.1531 -0.5127
   87TMC2    O1 1364   3.567   2.843   1.403  0.2440 -0.2064 -0.7185
   87TMC2    O2 1365   4.093   2.520   1.577 -0.7785  0.2793  0.5217
   87TMC2    O5 1366   3.937   2.444   1.729 -0.1468 -0.7243 -0.1900
   87TMC2    H5 1367   3.841   2.428   1.715  0.2211 -1.9682 -1.3368
   88MPD2     C 1368   3.484   2.975   1.806  0.5392  0.3405  0.5958
   88MPD2    C1 1369   3.534   2.964   1.677 -0.3796  0.5905 -0.0921
   88MPD2    C2 1370   3.557   3.072   1.598 -1.1132  0.2570  0.0061
   88MPD2    C3 1371   3.511   3.196   1.644 -0.2714  0.4766  0.1152
   88MPD2    C4 1372   3.466   3.210   1.776 -0.1542  0.0823 -0.2186
   88MPD2    C5 1373   3.450   3.099   1.858  1.0150 -0.0903 -0.0486
   88MPD2     H 1374   3.598   3.056   1.499 -1.3370  1.1589 -0.2392
   88MPD2    H1 1375   3.438   3.302   1.828 -2.2261 -1.1946  0.8966
   88MPD2    H2 1376   3.469   2.894   1.876  1.2929 -1.8174 -1.7266
   88MPD2    H3 1377   3.418   3.112   1.961  1.6263 -2.0275  0.3908
   88MPD2     N 1378   3.527   3.316   1.568  0.3310  0.2635  0.0663
   88MPD2    H5 1379   3.490   3.400   1.612  1.6107 -0.8216  3.2753
   88MPD2    N1 1380   3.580   2.833   1.636  0.3633  0.7779  0.2481
   88MPD2    H7 1381   3.591   2.767   1.713 -0.5466  0.7873  0.3837
   89TMC2    C1 1382   4.151   1.036   1.342 -0.1888 -0.2078  0.4567
   89TMC2    C2 1383   4.026   1.077   1.368 -0.8681  0.8560  0.0230
   89TMC2    C3 1384   4.003   1.207   1.400 -0.6384  1.1650 -0.4143
   89TMC2    C4 1385   4.256   1.130   1.324 -0.5659  0.3172  0.5549
   89TMC2    C5 1386   4.224   1.261   1.365  0.8592 -0.1828 -0.1840
   89TMC2    C6 1387   4.102   1.302   1.404  0.1847  0.9937 -0.2575
   89TMC2     C 1388   4.176   0.905   1.279 -0.1170 -0.5252  0.5015
   89TMC2     O 1389   4.232   0.912   1.168  0.6443  0.9870 -0.0039
   89TMC2     H 1390   3.942   1.009   1.365  0.2617 -0.5151 -1.1142
   89TMC2    H1 1391   4.357   1.091   1.319 -0.6692 -0.0817  1.6353
   89TMC2    H2 1392   4.091   1.400   1.450 -3.5747 -0.3124  1.6438
   89TMC2    C7 1393   4.332   1.363   1.385 -0.3803 -0.0370  0.2844
   89TMC2    C8 1394   3.873   1.244   1.467  0.2386  0.9824  0.0037
   89TMC2    O1 1395   4.318   1.448   1.475 -0.0691 -0.3840  0.7308
   89TMC2    O2 1396   3.866   1.335   1.547 -0.7928 -0.0685  0.4413
   89TMC2    O5 1397   3.766   1.206   1.396  0.0613 -0.2763 -0.2320
   89TMC2    H5 1398   3.779   1.154   1.313 -0.2535  0.2033 -0.5843
   90MPD2     C 1399   4.045   0.428   1.146  0.8216  0.5055 -0.7905
   90MPD2    C1 1400   3.961   0.468   1.247  0.6179 -0.2241  0.2398
   90MPD2    C2 1401   3.982   0.588   1.312 -0.1442  0.2871  0.1412
   90MPD2    C3 1402   4.087   0.673   1.277 -0.2542 -0.0148  0.7659
   90MPD2    C4 1403   4.166   0.626   1.177 -0.5917 -0.6637  0.3223
   90MPD2    C5 1404   4.148   0.509   1.110 -0.3370 -0.2345  0.0533
   90MPD2     H 1405   3.913   0.621   1.389  0.2708  0.4093  0.4615
   90MPD2    H1 1406   4.246   0.693   1.148  0.0613 -1.0984  1.1091
   90MPD2    H2 1407   4.039   0.328   1.106 -2.0937  0.4493 -0.2278
   90MPD2    H3 1408   4.210   0.480   1.026 -1.0386 -0.5358 -0.3618
   90MPD2     N 1409   4.091   0.810   1.331  0.1875 -0.0638 -1.0132
   90MPD2    H5 1410   4.031   0.838   1.407  0.5248 -0.5134 -0.5756
   90MPD2    N1 1411   3.852   0.385   1.288  0.0113  0.1782 -0.2228
   90MPD2    H7 1412   3.815   0.416   1.378 -1.4691 -2.9167  0.2180
   91TMC2    C1 1413   0.465   4.657  16.258 -0.5268 -0.8136  0.4685
   91TMC2    C2 1414   0.539   4.642  16.369  0.2557 -0.8057 -0.4485
   91TMC2    C3 1415   0.512   4.546  16.457 -0.1438  0.3927 -0.2862
   91TMC2    C4 1416   0.359   4.575  16.235 -0.3518 -0.0527  0.1137
   91TMC2    C5 1417   0.342   4.466  16.316 -0.2429 -0.2131 -0.0700
   91TMC2    C6 1418   0.410   4.458  16.438  0.7816  0.0527  0.4467
   91TMC2     C 1419   0.488   0.016  16.160 -0.4655 -0.0776  0.1323
   91TMC2     O 1420   0.394   0.036  16.085  0.1654  0.2545 -0.0770
   91TMC2     H 1421   0.632   4.695  16.388 -0.4713  0.4420 -0.3054
   91TMC2    H1 1422   0.302   4.588  16.144  2.1671  1.5084 -1.2535
   91TMC2    H2 1423   0.391   4.381  16.511  2.7807  1.0308  1.9837
   91TMC2    C7 1424   0.249   4.359  16.290  0.0970  0.5678 -0.3660
   91TMC2    C8 1425   0.575   4.566  16.587 -0.8003 -0.3205  0.0220
   91TMC2    O1 1426   0.229   4.280  16.385 -0.2518 -0.2426  0.2549
   91TMC2    O2 1427   0.578   4.472  16.663 -0.5098 -0.6793 -0.0598
   91TMC2    O5 1428   0.562   4.694  16.624  0.1266  0.2842 -0.1371
   91TMC2    H5 1429   0.573   0.026  16.557  1.0263 -0.4828 -0.7868
   92MPD2     C 1430   0.592   0.197  15.952 -0.3442  0.3692 -0.1495
   92MPD2    C1 1431   0.670   0.143  16.059  0.1623 -0.6207  0.0467
   92MPD2    C2 1432   0.811   0.165  16.058  0.3878  0.4646 -0.1252
   92MPD2    C3 1433   0.865   0.224  15.942 -0.6834 -0.1973  0.1845
   92MPD2    C4 1434   0.787   0.272  15.838  0.3589  0.1974  0.8122
   92MPD2    C5 1435   0.649   0.265  15.849  0.2159  0.0357 -0.1971
   92MPD2     H 1436   0.870   0.135  16.143 -1.8132 -0.0718  1.2115
   92MPD2    H1 1437   0.835   0.308  15.747 -1.0016  0.2725  0.1261
   92MPD2    H2 1438   0.484   0.192  15.961 -0.2976 -1.4664 -0.4217
   92MPD2    H3 1439   0.587   0.316  15.776 -1.3723 -2.9195 -0.9207
   92MPD2     N 1440   1.006   0.218  15.944 -0.3497 -0.0995 -0.2290
   92MPD2    H5 1441   1.048   0.191  16.032  1.6846  1.1900 -0.8075
   92MPD2    N1 1442   0.617   0.066  16.162 -0.3084  0.4570 -0.2594
   92MPD2    H7 1443   0.690   0.029  16.222 -2.3604 -0.9074  1.4139
   93TMC2    C1 1444   2.772   0.114  13.893  0.4605  0.1443 -0.0221
   93TMC2    C2 1445   2.699   0.209  13.953 -0.1377 -0.0410  0.6516
   93TMC2    C3 1446   2.740   0.339  13.954  1.0822 -0.2405 -0.3676
   93TMC2    C4 1447   2.895   0.138  13.837 -0.3996 -0.4154  0.1037
   93TMC2    C5 1448   2.944   0.263  13.859  0.2034 -0.3010 -0.6439
   93TMC2    C6 1449   2.866   0.372  13.912 -0.5267 -1.0252 -1.0393
   93TMC2     C 1450   2.722   4.717  13.894 -0.7005 -0.2110  0.1091
   93TMC2     O 1451   2.813   4.636  13.920  0.3474  0.4155  0.1517
   93TMC2     H 1452   2.605   0.173  13.994 -0.4275  0.0660  0.0721
   93TMC2    H1 1453   2.939   0.063  13.773 -0.7559  1.6506 -2.5778
   93TMC2    H2 1454   2.912   0.468  13.933 -1.0148 -0.5687 -2.0762
   93TMC2    C7 1455   3.083   0.278  13.828  0.3409 -0.5364  0.1586
   93TMC2    C8 1456   2.681   0.422  14.053  0.4124  0.3805  0.0116
   93TMC2    O1 1457   3.141   0.178  13.793  0.5611 -0.1642  0.2205
   93TMC2    O2 1458   2.577   0.478  14.037 -0.0570  0.7031  0.1584
   93TMC2    O5 1459   2.712   0.355  14.167  0.2814 -0.1278  0.0846
   93TMC2    H5 1460   2.805   0.325  14.170  0.3793  0.0752 -1.0160
   94MPD2     C 1461   2.595   4.451  13.905 -0.1016 -1.1646  0.3651
   94MPD2    C1 1462   2.520   4.566  13.882 -0.3066 -0.3561  0.1365
   94MPD2    C2 1463   2.382   4.566  13.865 -0.2601 -0.0246 -0.2044
   94MPD2    C3 1464   2.312   4.451  13.899  0.1376  0.0383 -0.1144
   94MPD2    C4 1465   2.385   4.342  13.925  0.0647  0.3229  0.2439
   94MPD2    C5 1466   2.522   4.338  13.923  0.2099  0.1712 -0.6796
   94MPD2     H 1467   2.331   4.660  13.850 -0.1800 -0.2784 -2.0347
   94MPD2    H1 1468   2.336   4.251  13.958  0.6178  0.3862  1.2342
   94MPD2    H2 1469   2.702   4.443  13.897 -0.1420 -1.0303 -0.3318
   94MPD2    H3 1470   2.571   4.245  13.951 -0.2512  0.2426  0.3521
   94MPD2     N 1471   2.173   4.444  13.899 -0.0069 -0.1534  1.2541
   94MPD2    H5 1472   2.123   4.358  13.923 -1.2641  0.1810 -0.1514
   94MPD2    N1 1473   2.588   4.695  13.869 -0.7017  0.0140 -0.1485
   94MPD2    H7 1474   2.545   0.047  13.851  1.2661  1.0462  0.4129
   95TMC2    C1 1475   2.659   1.807  16.041  0.4733  0.5988 -0.4952
   95TMC2    C2 1476   2.609   1.682  16.053 -0.0815  0.2986  0.1925
   95TMC2    C3 1477   2.559   1.645  16.173 -0.3571  0.5794 -0.5814
   95TMC2    C4 1478   2.673   1.896  16.143 -0.1775  0.3421  0.7149
   95TMC2    C5 1479   2.630   1.848  16.262  0.0166 -0.0779  0.0741
   95TMC2    C6 1480   2.583   1.723  16.284 -0.7566 -0.2236  0.4960
   95TMC2     C 1481   2.721   1.838  15.907 -0.4812 -0.6945  0.6100
   95TMC2     O 1482   2.804   1.927  15.901 -0.3927 -0.3864  0.1730
   95TMC2     H 1483   2.623   1.607  15.977 -2.5176  0.6774 -0.6302
   95TMC2    H1 1484   2.726   1.987  16.117 -0.3633  0.3166  0.2436
   95TMC2    H2 1485   2.557   1.689  16.384  0.5033 -1.3385  0.4377
   95TMC2    C7 1486   2.631   1.927  16.382  0.6624  0.0988  0.1398
   95TMC2    C8 1487   2.487   1.520  16.178 -0.2572  0.9340  0.4275
   95TMC2    O1 1488   2.570   1.882  16.474 -0.1809 -0.1886  0.0272
   95TMC2    O2 1489   2.528   1.416  16.123 -0.1026  0.3962 -0.2888
   95TMC2    O5 1490   2.387   1.537  16.271  0.3247 -0.1491 -0.2831
   95TMC2    H5 1491   2.372   1.627  16.308  0.4504 -0.4653  0.5225
   96MPD2     C 1492   2.759   1.760  15.408  0.0527  0.2911  0.1942
   96MPD2    C1 1493   2.848   1.824  15.488  0.0250  0.8050  0.3328
   96MPD2    C2 1494   2.816   1.851  15.623  0.0817 -0.2263  0.3248
   96MPD2    C3 1495   2.696   1.792  15.677  0.5317 -0.2458 -0.1803
   96MPD2    C4 1496   2.605   1.736  15.592  0.6372  0.4358 -0.3807
   96MPD2    C5 1497   2.635   1.712  15.457 -0.7109  0.6676 -0.2518
   96MPD2     H 1498   2.894   1.877  15.693 -1.9008  1.2050  1.9766
   96MPD2    H1 1499   2.509   1.695  15.620  1.0557 -0.3545 -0.1007
   96MPD2    H2 1500   2.799   1.730  15.312 -1.8743  0.2590 -0.6037
   96MPD2    H3 1501   2.572   1.656  15.390 -0.0110 -0.6670  0.1952
   96MPD2     N 1502   2.661   1.773  15.807 -0.5852 -0.4973 -0.1690
   96MPD2    H5 1503   2.568   1.736  15.825 -1.4663  0.5616 -2.5496
   96MPD2    N1 1504   2.963   1.878  15.427 -0.1740 -0.0623 -0.4109
   96MPD2    H7 1505   2.988   1.836  15.338 -0.9002 -2.3057  0.4604
   97TMC2    C1 1506   0.743   4.197  17.718  0.3752  0.3627  0.2501
   97TMC2    C2 1507   0.614   4.187  17.680 -0.2370  0.0279 -0.7069
   97TMC2    C3 1508   0.556   4.293  17.613  0.6295  0.0355  0.3065
   97TMC2    C4 1509   0.816   4.305  17.693  0.6409 -0.0163 -0.6858
   97TMC2    C5 1510   0.768   4.404  17.612  0.2582 -0.0940 -0.2646
   97TMC2    C6 1511   0.638   4.396  17.568  0.5331 -0.0578  0.2370
   97TMC2     C 1512   0.785   4.103   0.070 -0.0278 -0.0882 -0.1599
   97TMC2     O 1513   0.693   4.056   0.132  0.3671 -0.0185  0.2277
   97TMC2     H 1514   0.547   4.114  17.723  3.9643 -2.8484  0.9522
   97TMC2    H1 1515   0.922   4.316  17.715  0.4324  0.8377 -0.0962
   97TMC2    H2 1516   0.585   4.471  17.510 -0.2794 -1.3517 -0.6989
   97TMC2    C7 1517   0.795   4.544  17.646 -0.1148 -0.2412  0.7407
   97TMC2    C8 1518   0.411   4.326  17.640 -0.2222  0.1683  0.2834
   97TMC2    O1 1519   0.903   4.597  17.635 -0.8955 -0.0541  0.4695
   97TMC2    O2 1520   0.370   4.441  17.652 -0.4612  0.7461  0.0968
   97TMC2    O5 1521   0.346   4.215  17.673 -0.1847 -0.0483  0.0845
   97TMC2    H5 1522   0.377   4.124  17.654  0.5081  0.2517 -0.2259
   98MPD2     C 1523   1.103   3.727   0.206  1.2639 -0.0067  0.3834
   98MPD2    C1 1524   1.002   3.785   0.282 -0.0466 -0.3471 -0.2188
   98MPD2    C2 1525   0.943   3.902   0.238 -0.0217 -0.5038 -0.1148
   98MPD2    C3 1526   0.976   3.951   0.108  0.1515 -0.4230 -0.2031
   98MPD2    C4 1527   1.087   3.898   0.037  0.4281 -0.1624 -0.1948
   98MPD2    C5 1528   1.150   3.789   0.094 -0.4556  0.1960  0.1415
   98MPD2     H 1529   0.865   3.952   0.295 -0.7910 -1.4326 -0.3488
   98MPD2    H1 1530   1.117   3.950  17.699  2.9320 -0.5175  0.4444
   98MPD2    H2 1531   1.154   3.637   0.238  1.5521 -0.1330 -0.4241
   98MPD2    H3 1532   1.231   3.737   0.044  0.4305  1.7354 -0.0301
   98MPD2     N 1533   0.915   4.056   0.046  0.8039  0.3869 -0.2258
   98MPD2    H5 1534   0.951   4.081  17.707  1.3330  0.6000  0.0433
   98MPD2    N1 1535   0.967   3.728   0.413  0.1309 -0.0383  0.0384
   98MPD2    H7 1536   1.009   3.641   0.442  1.6577  0.5900 -0.2627
   99TMC2    C1 1537   4.320   1.720   1.137 -0.3430  0.4390  0.2470
   99TMC2    C2 1538   4.410   1.772   1.221  0.3588  0.1251  0.7759
   99TMC2    C3 1539   4.365   1.813   1.341 -0.3445 -0.2306  0.7604
   99TMC2    C4 1540   4.185   1.719   1.165 -0.4730 -0.2203  0.4385
   99TMC2    C5 1541   4.142   1.762   1.287 -0.0960 -0.4851  0.2266
   99TMC2    C6 1542   4.235   1.805   1.380  0.0545 -0.4573 -0.0358
   99TMC2     C 1543   4.370   1.681   1.006 -0.2287  0.2289  0.0135
   99TMC2     O 1544   4.479   1.720   0.974 -0.3104 -0.7292  0.4569
   99TMC2     H 1545   4.514   1.787   1.195  0.9819 -2.7549  1.5927
   99TMC2    H1 1546   4.114   1.688   1.089 -2.4402  1.7309  1.5145
   99TMC2    H2 1547   4.198   1.841   1.476 -0.4396  1.5728 -0.9930
   99TMC2    C7 1548   4.013   1.734   1.337  0.3234 -0.5567 -0.7362
   99TMC2    C8 1549   4.469   1.865   1.429  0.0885 -0.2599  0.0963
   99TMC2    O1 1550   3.990   1.783   1.448 -0.7624 -0.6153 -0.5236
   99TMC2    O2 1551   4.589   1.877   1.404 -0.3219 -0.3963  0.3673
   99TMC2    O5 1552   4.423   1.842   1.552  0.2210  0.1034 -0.7900
   99TMC2    H5 1553   4.340   1.790   1.558  1.9332 -2.3218  1.7601
  100MPD2     C 1554   4.391   1.577   0.736 -0.3693  0.1788 -0.0282
  100MPD2    C1 1555   4.296   1.533   0.819  0.2075 -0.0357 -0.1989
  100MPD2    C2 1556   4.204   1.439   0.779  0.3671 -0.2953 -0.1789
  100MPD2    C3 1557   4.198   1.378   0.655 -0.0646 -0.5273 -0.2275
  100MPD2    C4 1558   4.298   1.414   0.564  0.2660  1.3439  0.0505
  100MPD2    C5 1559   4.388   1.516   0.607 -1.5783  0.1499  0.2738
  100MPD2     H 1560   4.132   1.404   0.853 -1.3449  1.2037 -1.1187
  100MPD2    H1 1561   4.307   1.366   0.467  0.4747  1.4182  0.0315
  100MPD2    H2 1562   4.463   1.655   0.757 -0.6998  0.6718 -0.7082
  100MPD2    H3 1563   4.464   1.544   0.536 -2.1859 -0.1901 -0.5191
  100MPD2     N 1564   4.097   1.279   0.621  0.4297  0.3605 -0.0606
  100MPD2    H5 1565   4.023   1.259   0.689  0.9770 -1.6023 -0.0393
  100MPD2    N1 1566   4.289   1.580   0.950 -0.6053 -0.2380 -0.2268
  100MPD2    H7 1567   4.211   1.540   1.001 -0.1855  0.2919  0.8331
  101TMC2    C1 1568   4.142   2.982  12.718 -0.3526  0.1021 -0.1182
  101TMC2    C2 1569   4.050   3.086  12.711  0.3556 -0.6435 -0.0623
  101TMC2    C3 1570   4.103   3.195  12.635 -0.5465 -0.2646  0.2291
  101TMC2    C4 1571   4.261   2.980  12.642  0.2689  0.2539  0.1978
  101TMC2    C5 1572   4.297   3.081  12.558 -0.0643 -0.7338 -0.2071
  101TMC2    C6 1573   4.224   3.196  12.563 -0.0168  0.0920  0.7136
  101TMC2     C 1574   4.106   2.872  12.809 -0.8762 -0.3725 -0.4783
  101TMC2     O 1575   3.998   2.872  12.862  0.1546 -0.0019  0.6172
  101TMC2     H 1576   3.956   3.081  12.765  0.2546 -0.8682 -0.2599
  101TMC2    H1 1577   4.321   2.891  12.634 -0.0015  0.1118 -0.2426
  101TMC2    H2 1578   4.262   3.292  12.529  0.6376 -0.0987  0.8959
  101TMC2    C7 1579   4.439   3.097  12.563  0.3508 -0.0088 -0.2291
  101TMC2    C8 1580   4.023   3.314  12.626 -0.6318  0.3577  0.0799
  101TMC2    O1 1581   4.506   3.043  12.479 -0.0946  0.7506  0.3382
  101TMC2    O2 1582   4.053   3.399  12.545 -0.0220  0.1449 -0.0039
  101TMC2    O5 1583   3.960   3.335  12.743 -0.1266  0.1019  0.6669
  101TMC2    H5 1584   3.969   3.255  12.799  2.3984 -0.2462 -0.2163
  102MPD2     C 1585   4.307   2.586  12.901  0.2085  0.9527 -0.2045
  102MPD2    C1 1586   4.204   2.676  12.917 -0.9157  0.2271 -0.4014
  102MPD2    C2 1587   4.111   2.657  13.020  0.2273 -0.0244  0.4709
  102MPD2    C3 1588   4.113   2.538  13.100  0.2897 -0.6128  0.0087
  102MPD2    C4 1589   4.211   2.449  13.068 -0.3887 -0.4965  0.2828
  102MPD2    C5 1590   4.304   2.469  12.974 -0.1002 -0.3880 -0.3724
  102MPD2     H 1591   4.036   2.734  13.033  0.1435  0.7392 -4.5036
  102MPD2    H1 1592   4.211   2.348  13.108  3.9651 -1.2605 -1.6425
  102MPD2    H2 1593   4.386   2.592  12.827 -0.2862  1.6215 -0.6780
  102MPD2    H3 1594   4.382   2.394  12.971 -0.6129 -1.0204  1.9527
  102MPD2     N 1595   4.012   2.521  13.201 -0.2163 -0.1815  0.4849
  102MPD2    H5 1596   3.935   2.583  13.219 -0.2580 -0.8126  2.4331
  102MPD2    N1 1597   4.206   2.785  12.826  0.0322 -0.1322 -0.1579
  102MPD2    H7 1598   4.281   2.781  12.758  0.6653  0.2570  0.5260
  103TMC2    C1 1599   2.943   3.008  13.049  0.2981  0.2512 -0.0091
  103TMC2    C2 1600   2.996   3.130  13.067  0.6063 -0.0274  0.0023
  103TMC2    C3 1601   2.979   3.196  13.190 -0.1945 -0.5904 -0.1982
  103TMC2    C4 1602   2.878   2.945  13.151 -0.2194  0.6996 -0.0166
  103TMC2    C5 1603   2.852   3.012  13.265 -0.1558 -0.0830 -0.5480
  103TMC2    C6 1604   2.918   3.128  13.289  0.3164 -0.4759 -0.8236
  103TMC2     C 1605   2.917   2.955  12.914  0.2214  0.1420  0.3326
  103TMC2     O 1606   2.850   2.856  12.896 -0.3473  0.1464  0.0358
  103TMC2     H 1607   3.050   3.190  12.994  1.2748 -1.3529 -0.5863
  103TMC2    H1 1608   2.858   2.840  13.129 -3.2839  1.3089 -0.0080
  103TMC2    H2 1609   2.916   3.166  13.391  3.7112  0.0700 -0.9565
  103TMC2    C7 1610   2.832   2.939  13.384 -1.1632  0.3291 -0.4941
  103TMC2    C8 1611   3.038   3.327  13.203 -0.4735 -0.1084 -0.3046
  103TMC2    O1 1612   2.716   2.913  13.420 -0.1511 -0.8725 -0.0641
  103TMC2    O2 1613   3.150   3.333  13.159 -0.4791 -0.1326  0.0106
  103TMC2    O5 1614   2.993   3.382  13.319  0.1705  0.0505  0.7974
  103TMC2    H5 1615   2.897   3.367  13.335 -0.3620  1.3737 -1.1447
  104MPD2     C 1616   3.077   3.050  12.600  0.7295  0.5346 -0.6754
  104MPD2    C1 1617   2.981   2.996  12.680 -0.5622 -0.1988 -0.5129
  104MPD2    C2 1618   2.864   2.944  12.623 -0.1842 -0.0770 -0.3819
  104MPD2    C3 1619   2.847   2.961  12.487  0.3920 -0.5743  0.4689
  104MPD2    C4 1620   2.946   3.017  12.407 -0.0204  0.3506  0.1668
  104MPD2    C5 1621   3.067   3.054  12.466  0.8778  0.4577  0.6287
  104MPD2     H 1622   2.787   2.901  12.685  1.1331 -0.6752  0.8550
  104MPD2    H1 1623   2.946   3.018  12.299 -2.5012 -0.2715  0.1524
  104MPD2    H2 1624   3.167   3.097  12.639  1.4437 -2.2725  0.9814
  104MPD2    H3 1625   3.140   3.113  12.412  1.4040  0.7585  1.6763
  104MPD2     N 1626   2.723   2.925  12.431  0.0172 -0.1457 -0.1439
  104MPD2    H5 1627   2.658   2.868  12.484  1.6280 -0.8354  1.0707
  104MPD2    N1 1628   2.995   3.009  12.819  0.8667  0.4599 -0.4306
  104MPD2    H7 1629   3.066   3.072  12.855  1.3950 -0.3610 -0.0265
  105TMC2    C1 1630   3.458   1.974   0.411 -0.5682 -0.1990  0.0863
  105TMC2    C2 1631   3.349   2.053   0.427  0.4659 -0.0412  0.7782
  105TMC2    C3 1632   3.355   2.156   0.517 -0.3739 -0.6008  0.0384
  105TMC2    C4 1633   3.569   1.992   0.485  0.1493  0.2198  0.8976
  105TMC2    C5 1634   3.576   2.098   0.573 -0.3005  0.2312  0.6777
  105TMC2    C6 1635   3.469   2.183   0.588 -0.1822  0.3273  1.3744
  105TMC2     C 1636   3.444   1.854   0.326  0.6087  0.4039 -0.6573
  105TMC2     O 1637   3.337   1.840   0.265  0.4054  0.3692 -0.5030
  105TMC2     H 1638   3.262   2.050   0.362  0.8693  0.4966  0.2072
  105TMC2    H1 1639   3.653   1.925   0.473 -1.0624 -1.0850 -0.3131
  105TMC2    H2 1640   3.470   2.264   0.660  0.6446  1.4541  0.1136
  105TMC2    C7 1641   3.707   2.123   0.634 -0.4045 -0.5078 -0.3517
  105TMC2    C8 1642   3.237   2.239   0.530 -0.1024  0.4689 -0.0018
  105TMC2    O1 1643   3.807   2.070   0.581  0.8963 -0.5438  0.5801
  105TMC2    O2 1644   3.138   2.187   0.490 -0.2321  0.1985 -0.3556
  105TMC2    O5 1645   3.270   2.369   0.536  0.0045 -0.1850  1.0854
  105TMC2    H5 1646   3.366   2.384   0.545 -0.5052  1.1158  4.1137
  106MPD2     C 1647   3.620   1.549  17.700  0.4080 -0.2058  0.1621
  106MPD2    C1 1648   3.724   1.603   0.018 -0.0937  0.2872  0.3829
  106MPD2    C2 1649   3.707   1.672   0.142  0.4290  0.3087  0.1021
  106MPD2    C3 1650   3.576   1.694   0.194 -0.0166 -0.4425 -0.1493
  106MPD2    C4 1651   3.476   1.632   0.125 -0.1421 -0.3282  1.1849
  106MPD2    C5 1652   3.501   1.557   0.015 -0.1596  0.1529 -0.2009
  106MPD2     H 1653   3.796   1.718   0.181  0.1412  1.1919 -0.2819
  106MPD2    H1 1654   3.369   1.630   0.143 -0.0905 -1.9633  1.2900
  106MPD2    H2 1655   3.637   1.475  17.623  0.6809 -2.0623  1.9917
  106MPD2    H3 1656   3.420   1.495  17.730  1.2358  0.5684 -3.8916
  106MPD2     N 1657   3.560   1.790   0.298 -0.7075 -0.7499 -1.5698
  106MPD2    H5 1658   3.648   1.832   0.326 -0.7834 -2.2899  1.0062
  106MPD2    N1 1659   3.862   1.598  17.723  0.0808 -0.2670 -0.1323
  106MPD2    H7 1660   3.931   1.640   0.031  1.6696  1.0483 -2.8323
  107TMC2    C1 1661   4.681   1.664  11.674  0.3114 -0.5400 -1.0967
  107TMC2    C2 1662   0.021   1.755  11.613 -0.7841 -0.3788  0.6671
  107TMC2    C3 1663   0.133   1.711  11.549 -0.5179 -0.0331  0.5630
  107TMC2    C4 1664   4.703   1.529  11.666  0.2010 -0.0715 -1.3221
  107TMC2    C5 1665   0.067   1.489  11.584  0.7448  0.0794 -0.5523
  107TMC2    C6 1666   0.155   1.578  11.525 -0.2466 -0.3173  0.4706
  107TMC2     C 1667   4.597   1.714  11.783  0.5209  0.4688  0.2932
  107TMC2     O 1668   4.544   1.635  11.857  0.3710 -0.9342 -0.5123
  107TMC2     H 1669   0.019   1.862  11.632 -0.6113 -0.2753  0.1045
  107TMC2    H1 1670   4.627   1.462  11.704  0.1622  1.4155  1.2098
  107TMC2    H2 1671   0.243   1.538  11.476 -0.4198  0.1178 -0.2061
  107TMC2    C7 1672   0.074   1.341  11.548  0.3495 -0.6078  0.1259
  107TMC2    C8 1673   0.185   1.808  11.451 -0.1793  0.1695  0.0439
  107TMC2    O1 1674   4.715   1.272  11.578 -0.2325 -0.0453  0.1315
  107TMC2    O2 1675   0.262   1.900  11.486 -0.0231 -0.0242  0.2771
  107TMC2    O5 1676   0.186   1.752  11.329 -0.0020 -0.2527  0.4583
  107TMC2    H5 1677   0.113   1.690  11.307 -2.7917  3.7019 -1.3904
  108MPD2     C 1678   4.413   2.025  11.756  0.5990  0.5995  0.2618
  108MPD2    C1 1679   4.463   1.916  11.827  0.1259 -0.1262  0.0997
  108MPD2    C2 1680   4.401   1.869  11.939 -0.3231 -0.1301  0.1994
  108MPD2    C3 1681   4.286   1.930  11.990  0.3575  1.6951  0.2241
  108MPD2    C4 1682   4.236   2.037  11.922  0.0470  0.0869  0.0842
  108MPD2    C5 1683   4.302   2.077  11.802 -0.3923 -0.0784 -0.5556
  108MPD2     H 1684   4.455   1.795  11.998 -0.7843 -1.9720 -1.6856
  108MPD2    H1 1685   4.150   2.090  11.963 -0.2141  0.3773 -0.8402
  108MPD2    H2 1686   4.455   2.066  11.665 -0.8554 -0.4080 -0.8688
  108MPD2    H3 1687   4.258   2.166  11.757 -1.5564 -0.2943  0.1526
  108MPD2     N 1688   4.214   1.891  12.105  0.4597 -0.0441 -0.3026
  108MPD2    H5 1689   4.128   1.944  12.105  1.3196  1.3772 -0.9122
  108MPD2    N1 1690   4.574   1.849  11.764 -0.3131  0.1894  0.2750
  108MPD2    H7 1691   4.614   1.903  11.688 -0.4603  0.7764  0.6101
  109TMC2    C1 1692   4.550   3.227   0.376  0.5473  0.9250 -0.3667
  109TMC2    C2 1693   4.522   3.144   0.274 -0.4940  0.1804 -0.5703
  109TMC2    C3 1694   4.625   3.067   0.228  0.4787  0.0675  0.0519
  109TMC2    C4 1695   4.677   3.239   0.423 -0.2540 -0.0760  0.1315
  109TMC2    C5 1696   0.039   3.174   0.357  0.2298 -0.3191  0.5817
  109TMC2    C6 1697   0.015   3.076   0.270 -0.4317 -0.6796  0.4731
  109TMC2     C 1698   4.443   3.306   0.429  0.4614 -0.7751 -0.1285
  109TMC2     O 1699   4.336   3.312   0.376  0.0095 -0.5550  0.2939
  109TMC2     H 1700   4.416   3.126   0.264 -0.5357 -0.5412  1.1414
  109TMC2    H1 1701   4.697   3.314   0.499 -0.0891  0.1017 -0.0894
  109TMC2    H2 1702   0.089   3.029   0.206 -0.3662  1.8212 -1.3052
  109TMC2    C7 1703   0.172   3.195   0.405 -0.2028 -0.3641 -0.7353
  109TMC2    C8 1704   4.602   2.944   0.148 -0.1094  0.1536  0.7761
  109TMC2    O1 1705   0.182   3.272   0.506 -0.2762 -0.0442  0.8495
  109TMC2    O2 1706   4.689   2.858   0.121  0.0947  0.0167  0.1631
  109TMC2    O5 1707   4.488   2.960   0.080 -0.0101  0.4634 -0.5976
  109TMC2    H5 1708   4.432   3.037   0.100 -0.8397 -0.2597 -0.1348
  110MPD2     C 1709   4.240   3.634   0.777  0.0884  0.4052  0.1028
  110MPD2    C1 1710   4.367   3.592   0.820  0.2774  0.3934  0.1734
  110MPD2    C2 1711   4.447   3.519   0.739 -0.1823  0.3788 -0.5644
  110MPD2    C3 1712   4.391   3.462   0.619  0.0544  0.2280 -0.3257
  110MPD2    C4 1713   4.261   3.497   0.575 -0.4112 -0.1316  0.1805
  110MPD2    C5 1714   4.190   3.586   0.661 -0.3315 -0.1671  0.9074
  110MPD2     H 1715   4.538   3.465   0.763 -1.1551 -0.6694  0.7970
  110MPD2    H1 1716   4.202   3.470   0.488 -1.9649  2.0603  0.5659
  110MPD2    H2 1717   4.176   3.680   0.852  2.6299  0.3393  2.3163
  110MPD2    H3 1718   4.088   3.614   0.638  0.1793 -0.0161 -1.1675
  110MPD2     N 1719   4.478   3.381   0.539 -0.7805 -0.1820 -0.1842
  110MPD2    H5 1720   4.575   3.374   0.569 -0.7397 -1.1692 -0.5579
  110MPD2    N1 1721   4.394   3.629   0.956  0.0838 -0.5973 -0.8496
  110MPD2    H7 1722   4.325   3.674   1.014 -0.3079  1.7284 -3.0958
  111TMC2    C1 1723   4.622   3.267  11.641  0.2417  0.3352 -0.2525
  111TMC2    C2 1724   4.527   3.174  11.673  0.0920 -0.2950  0.4293
  111TMC2    C3 1725   4.575   3.050  11.698 -0.0365  0.2828  0.0136
  111TMC2    C4 1726   0.015   3.236  11.620  0.5692  0.0608 -0.0398
  111TMC2    C5 1727   0.055   3.109  11.658  0.0316 -0.6037  0.4574
  111TMC2    C6 1728   4.705   3.014  11.693  0.4166 -0.2525  0.2573
  111TMC2     C 1729   4.580   3.417  11.637 -0.4994 -0.9457 -0.7302
  111TMC2     O 1730   4.650   3.497  11.575  0.2649  0.1190  0.1916
  111TMC2     H 1731   4.423   3.203  11.671  0.0502 -0.5635 -0.9629
  111TMC2    H1 1732   0.080   3.319  11.594 -2.4961  2.6976  0.5795
  111TMC2    H2 1733   4.735   2.911  11.708  0.2492 -0.0685  1.9588
  111TMC2    C7 1734   0.173   3.100  11.753 -0.6166  0.2860  0.1103
  111TMC2    C8 1735   4.480   2.949  11.726  0.6247  0.1492 -0.0317
  111TMC2    O1 1736   0.157   3.026  11.852 -0.0812 -0.1558 -0.0225
  111TMC2    O2 1737   4.517   2.834  11.731  0.0058 -0.3023  0.0295
  111TMC2    O5 1738   4.385   3.003  11.806 -0.0657 -0.5599  0.1485
  111TMC2    H5 1739   4.405   3.099  11.814 -0.2767 -0.6159  1.3948
  112MPD2     C 1740   4.219   3.771  11.670 -0.2710 -0.1191 -0.0603
  112MPD2    C1 1741   4.310   3.749  11.573  0.1049  0.4329 -0.3051
  112MPD2    C2 1742   4.400   3.639  11.585 -0.0362 -0.5374 -1.1020
  112MPD2    C3 1743   4.385   3.550  11.690 -0.6321  0.4462 -0.1035
  112MPD2    C4 1744   4.285   3.571  11.784  0.2354  0.2173 -0.5596
  112MPD2    C5 1745   4.206   3.686  11.779  0.5421 -0.0100  0.0815
  112MPD2     H 1746   4.459   3.625  11.495  1.2596  3.7065 -0.8818
  112MPD2    H1 1747   4.270   3.498  11.862  1.8438  0.5557  0.0757
  112MPD2    H2 1748   4.156   3.859  11.670  0.3920  0.3508 -1.8839
  112MPD2    H3 1749   4.136   3.724  11.853 -0.7140 -0.6121 -0.8037
  112MPD2     N 1750   4.464   3.439  11.707 -0.1396 -0.1566 -0.6314
  112MPD2    H5 1751   4.436   3.374  11.780 -0.0254  1.9710  1.3158
  112MPD2    N1 1752   4.319   3.828  11.458 -0.0305 -0.2603  0.2227
  112MPD2    H7 1753   4.392   3.799  11.393  0.1190  0.1806  0.1980
  113TMC2    C1 1754   2.979   1.861   0.665  0.6861  0.5490 -1.3290
  113TMC2    C2 1755   2.889   1.966   0.680  0.3198 -0.6530  0.5730
  113TMC2    C3 1756   2.779   1.967   0.596  0.4274 -0.7110  0.1637
  113TMC2    C4 1757   2.952   1.756   0.574 -0.2240  0.7671 -0.2673
  113TMC2    C5 1758   2.846   1.773   0.490  0.9264  0.4160 -0.1680
  113TMC2    C6 1759   2.759   1.878   0.499  0.5907 -0.3200 -0.1046
  113TMC2     C 1760   3.117   1.886   0.725  0.3214 -1.0631  0.4381
  113TMC2     O 1761   3.119   1.974   0.810 -0.6906 -0.1512 -0.1259
  113TMC2     H 1762   2.902   2.044   0.754 -0.0592 -0.9901  0.9955
  113TMC2    H1 1763   3.023   1.675   0.564 -0.4981  0.8974 -3.2674
  113TMC2    H2 1764   2.669   1.872   0.439 -0.2285 -1.6889  1.2557
  113TMC2    C7 1765   2.815   1.661   0.401 -0.0522 -0.1052 -0.3139
  113TMC2    C8 1766   2.681   2.072   0.612 -0.1472  0.4157 -0.4651
  113TMC2    O1 1767   2.740   1.684   0.313 -0.3689 -0.0438 -0.2163
  113TMC2    O2 1768   2.671   2.122   0.723  0.5635  0.0750 -0.1731
  113TMC2    O5 1769   2.610   2.110   0.507  0.0876  0.2488 -0.4023
  113TMC2    H5 1770   2.638   2.064   0.425 -1.9287  0.7550 -1.3744
  114MPD2     C 1771   3.598   1.791   0.800 -0.0615 -0.3152 -0.0207
  114MPD2    C1 1772   3.511   1.858   0.876  0.9879 -0.0118 -0.0759
  114MPD2    C2 1773   3.381   1.855   0.837  0.0159 -0.2570 -0.3449
  114MPD2    C3 1774   3.345   1.784   0.719 -0.5597 -0.3474  0.1592
  114MPD2    C4 1775   3.441   1.714   0.647  0.6989  0.1228  0.3814
  114MPD2    C5 1776   3.570   1.723   0.688 -0.9649 -0.3091  0.7330
  114MPD2     H 1777   3.314   1.918   0.893 -1.5163 -1.4866 -0.7887
  114MPD2    H1 1778   3.421   1.670   0.551  1.3499 -0.9352  0.7287
  114MPD2    H2 1779   3.699   1.770   0.831 -0.1681 -1.4273 -0.3884
  114MPD2    H3 1780   3.649   1.672   0.636 -0.6311  1.4998 -0.5432
  114MPD2     N 1781   3.215   1.803   0.669 -0.0964  0.8071 -0.0466
  114MPD2    H5 1782   3.191   1.752   0.584  1.5202  0.0433 -0.0495
  114MPD2    N1 1783   3.539   1.921   0.993 -0.4628 -0.3547  0.1010
  114MPD2    H7 1784   3.460   1.954   1.047 -1.1330  1.2621 -1.8699
  115TMC2    C1 1785   3.972   3.917  17.691  0.0894 -0.2095 -0.5014
  115TMC2    C2 1786   4.097   3.903  17.735 -0.2346  0.2608  0.4689
  115TMC2    C3 1787   4.181   4.013  17.746  0.7046 -0.1921  0.4936
  115TMC2    C4 1788   3.936   4.043  17.646  0.5705  0.4276 -0.0956
  115TMC2    C5 1789   4.016   4.153  17.654  0.7397 -0.4570 -0.2964
  115TMC2    C6 1790   4.139   4.140  17.715  0.1011  0.1993 -1.4441
  115TMC2     C 1791   3.882   3.805  17.688  0.4962 -0.2336  0.2618
  115TMC2     O 1792   3.783   3.806  17.617  0.6771 -0.2061 -0.6088
  115TMC2     H 1793   4.136   3.806   0.011 -1.8963 -0.6959 -0.4789
  115TMC2    H1 1794   3.839   4.056  17.600  0.6075 -0.7405 -0.5063
  115TMC2    H2 1795   4.206   4.222  17.737 -0.8132 -0.0791  2.3504
  115TMC2    C7 1796   3.960   4.289  17.635  0.2657  0.4589 -0.0602
  115TMC2    C8 1797   4.275   4.016   0.102 -0.1807  0.6166 -0.2301
  115TMC2    O1 1798   3.841   4.294  17.648  0.3962  0.0448  0.3238
  115TMC2    O2 1799   4.356   3.928   0.113 -0.1033  0.1328  0.2937
  115TMC2    O5 1800   4.196   4.064   0.202 -0.1701 -0.4924 -0.7326
  115TMC2    H5 1801   4.136   4.140   0.186  1.3299  0.5528 -1.4103
  116MPD2     C 1802   3.804   3.290   0.003  0.3951 -0.1679 -0.2208
  116MPD2    C1 1803   3.762   3.379  17.654  0.0693 -0.5321  0.2790
  116MPD2    C2 1804   3.788   3.511  17.660  0.4302  0.2825 -0.0062
  116MPD2    C3 1805   3.873   3.565   0.010 -0.1592 -0.3017  0.1216
  116MPD2    C4 1806   3.912   3.478   0.108 -0.2424  0.0947 -0.0755
  116MPD2    C5 1807   3.875   3.345   0.106  0.5901  0.3470  0.2616
  116MPD2     H 1808   3.757   3.577  17.580  1.1300 -0.6674 -1.0590
  116MPD2    H1 1809   3.985   3.513   0.180 -1.6984 -0.6231  1.7615
  116MPD2    H2 1810   3.783   3.184   0.014  0.2239  0.0122  1.2592
  116MPD2    H3 1811   3.913   3.286   0.188  0.7098 -0.9039 -0.6888
  116MPD2     N 1812   3.923   3.698   0.013 -0.3700  0.0856  0.2251
  116MPD2    H5 1813   3.988   3.720   0.089  1.4052  1.5309 -1.7122
  116MPD2    N1 1814   3.699   3.332  17.538  0.2499  0.4907 -0.0261
  116MPD2    H7 1815   3.674   3.397  17.465 -0.3659 -0.1397 -0.3761
  117TMC2    C1 1816   2.361   0.374  13.858 -0.9917  0.3571 -0.0523
  117TMC2    C2 1817   2.450   0.392  13.756  0.3217  0.2514  0.6243
  117TMC2    C3 1818   2.442   0.508  13.689  0.8373  0.1041 -0.3536
  117TMC2    C4 1819   2.258   0.464  13.872 -0.4399  0.5403  0.3432
  117TMC2    C5 1820   2.252   0.580  13.799 -0.3622 -0.2685  0.1668
  117TMC2    C6 1821   2.350   0.604  13.711  0.1854 -0.2923 -0.0882
  117TMC2     C 1822   2.345   0.249  13.922  0.4643  0.1731  0.3246
  117TMC2     O 1823   2.394   0.151  13.870 -0.4546 -0.1616  0.6175
  117TMC2     H 1824   2.539   0.332  13.739 -0.0850  0.2114 -1.3433
  117TMC2    H1 1825   2.185   0.444  13.949 -0.7225  0.5834  0.0868
  117TMC2    H2 1826   2.357   0.695  13.653  0.5693  1.7841  3.2538
  117TMC2    C7 1827   2.192   0.694  13.858  0.2528  0.1398 -0.4721
  117TMC2    C8 1828   2.545   0.533  13.590 -0.6183  0.1857  0.2490
  117TMC2    O1 1829   2.228   0.796  13.804  0.0588  0.3620  0.8817
  117TMC2    O2 1830   2.661   0.489  13.597  0.4542 -0.5984  0.0495
  117TMC2    O5 1831   2.472   0.559  13.480 -0.0263  0.2930  0.8866
  117TMC2    H5 1832   2.380   0.587  13.498 -0.4449 -1.7698  1.9206
  118MPD2     C 1833   1.884   0.731  14.047  0.2758 -0.1066  0.4805
  118MPD2    C1 1834   2.011   0.761  13.999  0.4118 -0.7462  0.2238
  118MPD2    C2 1835   2.059   0.888  14.018 -0.2210  0.1325  0.5094
  118MPD2    C3 1836   1.979   0.986  14.076 -0.4178  0.8171 -0.0564
  118MPD2    C4 1837   1.854   0.957  14.119  0.4366 -0.2052  0.0960
  118MPD2    C5 1838   1.805   0.835  14.093  0.5168  0.0965  0.7019
  118MPD2     H 1839   2.154   0.913  13.972  0.9832 -1.4922  2.0861
  118MPD2    H1 1840   1.778   1.033  14.135  0.1867 -0.5468  0.5256
  118MPD2    H2 1841   1.832   0.636  14.041  0.9133 -0.4992  1.1367
  118MPD2    H3 1842   1.705   0.804  14.123  1.5329 -2.2920  1.6697
  118MPD2     N 1843   2.022   1.117  14.110  0.1153  0.1934 -0.1455
  118MPD2    H5 1844   1.954   1.182  14.149  0.1585 -0.0268  0.2956
  118MPD2    N1 1845   2.090   0.666  13.941  0.4691  0.1967 -0.1841
  118MPD2    H7 1846   2.053   0.572  13.941  2.4082 -0.5631 -2.7503
  119TMC2    C1 1847   0.107   1.234  13.461 -0.0331 -0.3332 -0.2583
  119TMC2    C2 1848   0.131   1.235  13.331  0.0115 -0.4713 -0.2281
  119TMC2    C3 1849   0.030   1.269  13.242  0.0231 -0.4664 -0.3134
  119TMC2    C4 1850   4.722   1.265  13.516  0.1401 -0.5041 -0.1666
  119TMC2    C5 1851   4.619   1.281  13.428 -0.4856  0.4468 -0.1083
  119TMC2    C6 1852   4.644   1.292  13.290 -0.3474  0.2881 -0.2628
  119TMC2     C 1853   0.221   1.244  13.547 -0.3751  0.2061  0.1997
  119TMC2     O 1854   0.312   1.165  13.527  0.1703  0.0290 -0.0117
  119TMC2     H 1855   0.235   1.226  13.301  0.3239 -1.4898  1.1348
  119TMC2    H1 1856   4.709   1.278  13.622 -1.3921 -0.5381 -0.3601
  119TMC2    H2 1857   4.565   1.299  13.216  0.4380 -1.1521 -1.2399
  119TMC2    C7 1858   4.495   1.318  13.485 -0.0557 -0.2158  0.1018
  119TMC2    C8 1859   0.069   1.299  13.109 -0.6111 -0.2827 -0.0060
  119TMC2    O1 1860   4.427   1.386  13.411  0.0171  0.1229 -0.0218
  119TMC2    O2 1861   0.165   1.243  13.064 -0.2024  0.2592 -0.1430
  119TMC2    O5 1862   0.017   1.424  13.080  0.2779  0.2061 -0.5177
  119TMC2    H5 1863   4.706   1.470  13.150  0.4256  2.4328 -1.8555
  120MPD2     C 1864   0.504   1.525  13.877 -0.2966  0.2561  0.4414
  120MPD2    C1 1865   0.413   1.610  13.817  0.3787 -0.1275 -0.1584
  120MPD2    C2 1866   0.316   1.553  13.731 -0.4233  0.2935 -0.4883
  120MPD2    C3 1867   0.328   1.426  13.692  0.5749  0.1073  1.3305
  120MPD2    C4 1868   0.427   1.343  13.739  0.1049  0.4245  0.0689
  120MPD2    C5 1869   0.507   1.394  13.838 -0.4535 -0.6222  0.3087
  120MPD2     H 1870   0.235   1.611  13.689 -0.0616 -1.1129 -3.1543
  120MPD2    H1 1871   0.424   1.236  13.718  1.8093  0.1198  1.4167
  120MPD2    H2 1872   0.568   1.566  13.954  1.2531 -1.7684  0.2265
  120MPD2    H3 1873   0.592   1.342  13.882  0.0805 -1.0636 -1.2310
  120MPD2     N 1874   0.227   1.372  13.613 -0.2210  0.5318  0.0970
  120MPD2    H5 1875   0.153   1.439  13.593 -1.1955 -0.1468  1.4284
  120MPD2    N1 1876   0.404   1.742  13.880  0.4360 -0.7793  0.7712
  120MPD2    H7 1877   0.470   1.771  13.952  1.3083 -0.1955 -0.2570
  121TMC2    C1 1878   1.884   3.500  14.432  0.4762  0.0692 -0.5183
  121TMC2    C2 1879   1.855   3.367  14.411  0.4353  0.6439 -0.8317
  121TMC2    C3 1880   1.724   3.327  14.416  0.7203  0.1657  0.1261
  121TMC2    C4 1881   1.780   3.591  14.438 -0.7899  0.8917  0.0524
  121TMC2    C5 1882   1.651   3.543  14.436 -1.0129 -0.7575  0.5524
  121TMC2    C6 1883   1.621   3.414  14.416  0.0525  0.7483  0.4793
  121TMC2     C 1884   2.005   3.558  14.381  0.6696  0.1249 -0.1881
  121TMC2     O 1885   2.090   3.597  14.464  0.7350 -0.3261  0.0626
  121TMC2     H 1886   1.931   3.294  14.385  2.8832  1.6409  3.3293
  121TMC2    H1 1887   1.792   3.699  14.444  0.6814  0.7578 -0.3960
  121TMC2    H2 1888   1.521   3.376  14.432 -0.7485  2.7574  0.1865
  121TMC2    C7 1889   1.565   3.643  14.372 -0.3508 -0.1562  0.2037
  121TMC2    C8 1890   1.696   3.185  14.419  0.0809 -0.0912 -0.4810
  121TMC2    O1 1891   1.620   3.750  14.344 -0.4955  0.1424 -0.1687
  121TMC2    O2 1892   1.780   3.100  14.445 -0.5436  0.5341 -0.1921
  121TMC2    O5 1893   1.589   3.162  14.333 -0.1967  0.0147 -0.0017
  121TMC2    H5 1894   1.520   3.226  14.307  0.1306  0.1938 -0.4382
  122MPD2     C 1895   2.205   3.689  14.210 -0.4800  0.4405 -0.3960
  122MPD2    C1 1896   2.096   3.626  14.160 -0.3495 -0.2605 -0.3195
  122MPD2    C2 1897   2.066   3.639  14.027  0.2009 -1.1034 -0.0326
  122MPD2    C3 1898   2.154   3.721  13.945 -0.2488 -0.3730 -0.0100
  122MPD2    C4 1899   2.270   3.775  14.000  0.7781 -0.0486  0.3724
  122MPD2    C5 1900   2.293   3.760  14.132  0.5577 -0.4283  0.4460
  122MPD2     H 1901   1.982   3.590  13.981  0.4361 -1.4641 -0.0732
  122MPD2    H1 1902   2.334   3.836  13.938 -0.1806  1.0031  0.4222
  122MPD2    H2 1903   2.231   3.697  14.315 -1.3486  1.3776 -0.2491
  122MPD2    H3 1904   2.380   3.805  14.178  0.3968  0.8308 -0.4660
  122MPD2     N 1905   2.135   3.744  13.809 -0.2254 -0.0850  0.3499
  122MPD2    H5 1906   2.190   3.822  13.773  0.6836 -1.0006 -0.2507
  122MPD2    N1 1907   1.997   3.571  14.247 -0.0614  0.0233  0.0221
  122MPD2    H7 1908   1.907   3.551  14.203 -0.4851 -0.9950  1.3523
  123TMC2    C1 1909   0.758   2.585  10.098  0.4840  0.3734  0.3658
  123TMC2    C2 1910   0.884   2.645  10.084  0.2409 -0.0259  0.6734
  123TMC2    C3 1911   0.963   2.599   9.993  0.6580  0.1444  0.3357
  123TMC2    C4 1912   0.722   2.473  10.033 -0.7854  0.5316  0.1398
  123TMC2    C5 1913   0.812   2.420   9.944 -0.2683  0.3723  0.0545
  123TMC2    C6 1914   0.931   2.483   9.924  0.6485 -0.3240 -0.9115
  123TMC2     C 1915   0.672   2.642  10.205 -0.1955  0.4567  0.2583
  123TMC2     O 1916   0.702   2.755  10.244 -0.2631  0.0972 -0.1012
  123TMC2     H 1917   0.903   2.733  10.145 -2.2208  3.3033 -3.2890
  123TMC2    H1 1918   0.624   2.428  10.044 -0.2262 -0.2399  1.9949
  123TMC2    H2 1919   1.006   2.448   9.854  0.5209  0.5649 -1.4946
  123TMC2    C7 1920   0.769   2.297   9.877 -0.5118 -0.0219 -0.7305
  123TMC2    C8 1921   1.103   2.625  10.011  0.3294 -0.0659 -0.3063
  123TMC2    O1 1922   0.680   2.225   9.919  0.2687  0.8191 -0.1930
  123TMC2    O2 1923   1.192   2.594   9.932  0.8542 -0.0900  0.9747
  123TMC2    O5 1924   1.117   2.629  10.147  0.6046 -0.1508 -0.4241
  123TMC2    H5 1925   1.037   2.605  10.198 -0.1369  1.5995 -0.7270
  124MPD2     C 1926   0.286   2.653  10.546  0.4104 -0.2532 -0.0233
  124MPD2    C1 1927   0.296   2.527  10.495  0.0567 -0.5949 -0.0166
  124MPD2    C2 1928   0.389   2.493  10.403  0.1798  0.1947 -0.6280
  124MPD2    C3 1929   0.476   2.591  10.354 -0.2865 -0.1860 -0.1475
  124MPD2    C4 1930   0.458   2.725  10.392  0.1553 -0.0150 -0.0469
  124MPD2    C5 1931   0.366   2.752  10.497  0.3040  0.3304 -0.1438
  124MPD2     H 1932   0.409   2.389  10.379  0.6734 -0.4882  2.6622
  124MPD2    H1 1933   0.515   2.810  10.356  2.3029 -1.6757 -0.5506
  124MPD2    H2 1934   0.218   2.681  10.627  1.7999 -0.6624  1.2897
  124MPD2    H3 1935   0.370   2.852  10.537  0.4812  0.3012 -0.0889
  124MPD2     N 1936   0.573   2.560  10.255  0.7737  0.3223 -0.0389
  124MPD2    H5 1937   0.569   2.467  10.214  1.0455 -0.3748  1.5158
  124MPD2    N1 1938   0.217   2.428  10.567  0.3676  0.7555 -0.6625
  124MPD2    H7 1939   0.158   2.470  10.639  1.0259 -0.4754  0.6085
  125TMC2    C1 1940   2.006   3.520   8.777 -0.1238  0.2307  0.0308
  125TMC2    C2 1941   2.093   3.582   8.689  0.5246 -0.0746 -0.0141
  125TMC2    C3 1942   2.226   3.536   8.688  0.3678 -0.0793 -0.2018
  125TMC2    C4 1943   2.053   3.427   8.867  0.4194 -0.2796 -0.3885
  125TMC2    C5 1944   2.181   3.391   8.859  0.7387  0.2972  0.4496
  125TMC2    C6 1945   2.266   3.432   8.763  0.4557  0.4460 -0.2158
  125TMC2     C 1946   1.877   3.585   8.811 -0.4120 -0.3390  1.0838
  125TMC2     O 1947   1.844   3.577   8.931  0.7512 -0.0145 -0.1827
  125TMC2     H 1948   2.069   3.666   8.624  1.1703  1.5213  1.7970
  125TMC2    H1 1949   1.970   3.387   8.925 -0.5019 -0.1715 -1.6336
  125TMC2    H2 1950   2.363   3.384   8.758 -0.3359 -0.9491 -1.9716
  125TMC2    C7 1951   2.225   3.289   8.951  0.2688  0.1890  0.6737
  125TMC2    C8 1952   2.316   3.605   8.601 -0.0300  0.5093  0.1664
  125TMC2    O1 1953   2.144   3.210   8.999  1.3769  0.0186  0.3733
  125TMC2    O2 1954   2.277   3.659   8.497 -0.3149 -0.3482 -0.5966
  125TMC2    O5 1955   2.413   3.646   8.688  0.5023  0.0074 -0.1855
  125TMC2    H5 1956   2.408   3.608   8.778 -2.1135  1.4282  0.2470
  126MPD1     C 1957   1.495   3.911   8.734 -0.7954 -0.3214  0.2351
  126MPD1    C1 1958   1.563   3.892   8.615  0.3395 -0.7419  0.5042
  126MPD1    C2 1959   1.669   3.807   8.609  0.3380 -0.7063 -0.1269
  126MPD1    C3 1960   1.717   3.756   8.727 -0.9660 -0.3550 -0.4000
  126MPD1    C4 1961   1.651   3.776   8.846  0.0237  0.0172 -0.2388
  126MPD1    C5 1962   1.534   3.847   8.843  0.1831 -0.7598 -0.1006
  126MPD1     H 1963   1.708   3.775   8.513 -1.5272 -1.1381 -0.7450
  126MPD1    H1 1964   1.674   3.721   8.937 -1.9565 -2.2809 -1.1211
  126MPD1    H2 1965   1.407   3.974   8.743  0.4186  1.4981 -0.7757
  126MPD1    H3 1966   1.479   3.855   8.937  0.9974 -0.2075  0.3282
  126MPD1     N 1967   1.825   3.666   8.713  0.3473  0.7237 -0.0523
  126MPD1    H5 1968   1.875   3.649   8.626  0.6630  0.4212  0.1905
  126MPD1    N1 1969   1.498   3.925   8.498 -0.1652 -0.1368 -0.8358
  126MPD1    H6 1970   1.569   3.932   8.424  0.9331  0.1733  0.2382
  126MPD1    H7 1971   1.451   4.015   8.502 -0.3869 -0.2482 -0.9797
  127TMC2    C1 1972   1.862   2.382   9.980 -0.0800  0.2682  0.5906
  127TMC2    C2 1973   1.840   2.350  10.113  0.0045  0.1864  0.0599
  127TMC2    C3 1974   1.713   2.302  10.139 -1.1061  0.2278 -0.9892
  127TMC2    C4 1975   1.782   2.334   9.879 -0.2056 -0.0904 -0.3752
  127TMC2    C5 1976   1.668   2.262   9.915  0.1335 -0.0014  0.2968
  127TMC2    C6 1977   1.623   2.256  10.046 -0.8666  0.0045 -0.5299
  127TMC2     C 1978   1.990   2.438   9.944 -0.6965  0.3603 -0.1220
  127TMC2     O 1979   2.083   2.419  10.020 -0.3834 -0.1583  0.6015
  127TMC2     H 1980   1.906   2.372  10.196  1.0629 -1.7465 -0.2707
  127TMC2    H1 1981   1.807   2.339   9.774 -1.5917 -0.2186 -0.7036
  127TMC2    H2 1982   1.534   2.210  10.086 -0.7489  1.0399  0.9357
  127TMC2    C7 1983   1.619   2.168   9.815  0.2036  0.3305 -0.1709
  127TMC2    C8 1984   1.689   2.243  10.266 -0.2129  0.3457 -0.1836
  127TMC2    O1 1985   1.656   2.208   9.706 -0.0576 -0.0590 -0.0238
  127TMC2    O2 1986   1.628   2.136  10.285 -0.7125  0.5901 -0.9845
  127TMC2    O5 1987   1.730   2.324  10.366 -0.0617  0.4130  0.2311
  127TMC2    H5 1988   1.777   2.404  10.335 -2.1299  1.1978 -0.9059
  128MPD2     C 1989   2.097   2.607   9.637  1.0019 -0.0183 -1.0091
  128MPD2    C1 1990   2.108   2.558   9.765  0.0064 -0.0075  0.3667
  128MPD2    C2 1991   2.212   2.604   9.841 -0.7382 -0.0653 -0.5593
  128MPD2    C3 1992   2.311   2.688   9.799  0.3570  0.4935  0.4001
  128MPD2    C4 1993   2.310   2.735   9.669  0.6876 -0.4607  0.4360
  128MPD2    C5 1994   2.198   2.698   9.591  0.7006 -0.2025  0.6568
  128MPD2     H 1995   2.223   2.570   9.944  0.5515  0.2142 -0.6059
  128MPD2    H1 1996   2.384   2.800   9.623  0.5365 -0.5395  0.0840
  128MPD2    H2 1997   2.014   2.578   9.573  2.0691 -0.5183 -2.1505
  128MPD2    H3 1998   2.193   2.731   9.488 -1.9854 -1.8675  0.2714
  128MPD2     N 1999   2.418   2.715   9.887 -0.9559 -0.8090  0.7244
  128MPD2    H5 2000   2.413   2.664   9.974 -1.4449 -1.3644  0.3762
  128MPD2    N1 2001   1.994   2.488   9.817 -0.2231 -0.4942 -0.5321
  128MPD2    H7 2002   1.913   2.480   9.757  1.3344 -0.7276 -2.5946
  129TMC2    C1 2003   0.601   3.951   1.767 -0.4626  0.2629  0.3893
  129TMC2    C2 2004   0.526   3.968   1.880  0.8009  0.2449  0.0713
  129TMC2    C3 2005   0.497   3.861   1.962  0.0855 -0.1281 -0.4300
  129TMC2    C4 2006   0.661   3.832   1.746 -0.2752  0.7063 -0.4154
  129TMC2    C5 2007   0.615   3.721   1.822  0.1517  0.1632 -0.3357
  129TMC2    C6 2008   0.524   3.728   1.927  0.3496 -0.3971  0.3507
  129TMC2     C 2009   0.569   4.037   1.656 -0.2924 -0.0233 -0.3399
  129TMC2     O 2010   0.629   4.010   1.552 -0.4893  0.4533  0.0595
  129TMC2     H 2011   0.466   4.057   1.895  0.3833 -0.0030 -0.0886
  129TMC2    H1 2012   0.692   3.807   1.645 -0.2996  1.3184 -0.5746
  129TMC2    H2 2013   0.490   3.649   1.993 -1.7426 -0.1293 -0.4156
  129TMC2    C7 2014   0.633   3.588   1.759 -0.3825 -0.4602 -0.2753
  129TMC2    C8 2015   0.384   3.875   2.051 -0.2635  0.1359 -0.0273
  129TMC2    O1 2016   0.530   3.514   1.753  0.3762  0.8394  0.0934
  129TMC2    O2 2017   0.302   3.788   2.074  0.1344 -0.1800  0.5684
  129TMC2    O5 2018   0.419   3.974   2.133  0.0693 -0.2821 -0.4497
  129TMC2    H5 2019   0.492   4.034   2.107 -1.2874  1.7786  0.5639
  130MPD2     C 2020   0.309   4.292   1.628  0.2557 -0.4894 -0.2782
  130MPD2    C1 2021   0.408   4.213   1.584  1.1717 -0.3816  0.2963
  130MPD2    C2 2022   0.457   4.243   1.459 -0.6718  0.0074 -0.1358
  130MPD2    C3 2023   0.401   4.337   1.375  0.0347 -1.3261 -0.2151
  130MPD2    C4 2024   0.296   4.411   1.424 -0.8558  0.4972  0.2145
  130MPD2    C5 2025   0.243   4.379   1.547 -0.0771  0.3372  0.8453
  130MPD2     H 2026   0.543   4.188   1.424 -0.2159 -0.8513  2.3269
  130MPD2    H1 2027   0.248   4.490   1.368 -0.5656 -0.7991 -1.8510
  130MPD2    H2 2028   0.275   4.266   1.727  1.8796  3.1113  1.2133
  130MPD2    H3 2029   0.162   4.437   1.588 -1.5443 -1.5545  0.6225
  130MPD2     N 2030   0.451   4.355   1.241 -0.0717 -0.6507 -0.5026
  130MPD2    H5 2031   0.528   4.291   1.223  1.3395  0.7313  0.6842
  130MPD2    N1 2032   0.472   4.126   1.676  0.6021  0.4267  0.2955
  130MPD2    H7 2033   0.421   4.133   1.763  0.0890 -1.3786  0.1376
  131TMC2    C1 2034   4.529   1.543  10.008 -0.1661  0.1737  0.2633
  131TMC2    C2 2035   4.471   1.419  10.036 -0.1041  0.3258 -0.0058
  131TMC2    C3 2036   4.505   1.317   9.952  0.4312 -0.8524 -0.4417
  131TMC2    C4 2037   4.625   1.556   9.915 -0.4456 -0.7148 -0.4482
  131TMC2    C5 2038   4.659   1.447   9.837  0.6598 -0.1089 -0.3622
  131TMC2    C6 2039   4.596   1.329   9.848 -0.0879 -0.0624  0.0756
  131TMC2     C 2040   4.541   1.636  10.119  0.3360 -0.7003  0.0481
  131TMC2     O 2041   4.621   1.727  10.109  0.2107  0.6264  0.2150
  131TMC2     H 2042   4.378   1.417  10.092 -0.4350 -2.5763 -0.6410
  131TMC2    H1 2043   4.691   1.641   9.915 -0.3649 -0.7699  0.5486
  131TMC2    H2 2044   4.601   1.245   9.780 -0.6528 -2.1836  2.6482
  131TMC2    C7 2045   0.000   1.462   9.716 -0.2263 -0.1941  0.0454
  131TMC2    C8 2046   4.421   1.198   9.950  0.1347 -0.0430 -0.1392
  131TMC2    O1 2047   0.021   1.355   9.657 -0.1160  0.3819 -0.2385
  131TMC2    O2 2048   4.421   1.119   9.853  0.1753 -0.4358  0.1089
  131TMC2    O5 2049   4.418   1.165  10.080 -0.0487  0.4901 -0.2180
  131TMC2    H5 2050   4.432   1.239  10.144  0.2979 -1.0553  1.5060
  132MPD2     C 2051   4.381   1.605  10.446 -0.1467  0.0278 -0.0586
  132MPD2    C1 2052   4.473   1.652  10.355  0.3552 -0.6157 -0.2243
  132MPD2    C2 2053   4.552   1.753  10.388 -0.4498 -0.8849 -0.3204
  132MPD2    C3 2054   4.568   1.782  10.526  0.0493 -0.5817  0.0087
  132MPD2    C4 2055   4.479   1.731  10.618  0.2542  0.2572  0.3386
  132MPD2    C5 2056   4.376   1.655  10.574 -0.4168  0.1290  0.0587
  132MPD2     H 2057   4.631   1.795  10.327 -0.3835 -1.5717 -0.7095
  132MPD2    H1 2058   4.468   1.783  10.712  3.1965 -1.5198  1.6640
  132MPD2    H2 2059   4.308   1.530  10.420 -0.0189 -0.0251 -0.2577
  132MPD2    H3 2060   4.290   1.634  10.637  0.3588 -0.5047  0.8950
  132MPD2     N 2061   4.670   1.873  10.563  0.2736  0.1138  0.5466
  132MPD2    H5 2062   4.719   1.922  10.489  1.7721 -0.6360  1.0252
  132MPD2    N1 2063   4.469   1.596  10.227 -1.1589 -0.1767 -0.1081
  132MPD2    H7 2064   4.403   1.521  10.212  1.9826 -2.4664 -2.4079
  133TMC2    C1 2065   2.932   2.580   9.483  0.0686 -0.3335  0.1747
  133TMC2    C2 2066   2.954   2.655   9.374 -0.1522  0.6643  0.5158
  133TMC2    C3 2067   2.899   2.607   9.255 -0.2223  0.1453 -0.1364
  133TMC2    C4 2068   2.873   2.453   9.489 -0.4763 -0.3340  0.5564
  133TMC2    C5 2069   2.818   2.408   9.372  0.4888 -0.6777 -0.2160
  133TMC2    C6 2070   2.829   2.485   9.254  0.1284 -0.5158  0.3776
  133TMC2     C 2071   3.005   2.633   9.596  0.7439  0.2581  0.2329
  133TMC2     O 2072   3.098   2.706   9.574  0.2754 -0.0672 -0.0109
  133TMC2     H 2073   3.019   2.742   9.376  1.4693 -0.5811  1.5932
  133TMC2    H1 2074   2.871   2.401   9.584  0.1582 -0.9678  0.2274
  133TMC2    H2 2075   2.787   2.446   9.162  0.0667 -0.1460  0.2522
  133TMC2    C7 2076   2.736   2.292   9.358 -0.8496  0.0160  0.1292
  133TMC2    C8 2077   2.886   2.698   9.146 -0.2579 -0.9311  0.8481
  133TMC2    O1 2078   2.656   2.296   9.265  0.6494  0.0995 -0.6946
  133TMC2    O2 2079   2.902   2.820   9.150 -0.4130  0.6195 -0.1000
  133TMC2    O5 2080   2.931   2.623   9.034  0.5448  0.0861 -0.1371
  133TMC2    H5 2081   2.943   2.526   9.044  3.0225  0.4458  0.4090
  134MPD2     C 2082   2.934   2.568   9.946  0.2298 -0.3809 -0.0105
  134MPD2    C1 2083   3.015   2.602   9.838 -0.1834 -0.1207 -0.0948
  134MPD2    C2 2084   3.124   2.684   9.859  0.4563  0.3692  0.7635
  134MPD2    C3 2085   3.165   2.726   9.981 -1.3643  0.0921 -0.1836
  134MPD2    C4 2086   3.092   2.679  10.088  0.4318  0.5927  0.5721
  134MPD2    C5 2087   2.974   2.607  10.074 -0.3358  0.4306  0.6172
  134MPD2     H 2088   3.172   2.732   9.775 -3.5736  2.2676 -0.4261
  134MPD2    H1 2089   3.130   2.705  10.186 -0.3741 -1.0638  1.3246
  134MPD2    H2 2090   2.842   2.511   9.935 -0.8971  1.4256  0.0354
  134MPD2    H3 2091   2.914   2.581  10.160  1.9882 -1.3074  1.7049
  134MPD2     N 2092   3.263   2.818  10.011  0.3534 -0.9293 -0.7124
  134MPD2    H5 2093   3.266   2.856  10.105  1.6770  1.4518 -1.7336
  134MPD2    N1 2094   2.965   2.574   9.711 -0.1890 -0.5137 -0.2417
  134MPD2    H7 2095   2.880   2.520   9.715  0.0738 -0.7199  2.9277
  135TMC2    C1 2096   1.174   4.066   9.896 -0.4063  0.1333 -0.2924
  135TMC2    C2 2097   1.308   4.100   9.898  0.0986  0.0519 -0.4759
  135TMC2    C3 2098   1.366   4.101  10.024 -0.2220  0.7290 -0.1597
  135TMC2    C4 2099   1.105   4.033  10.015  0.1633 -0.7814  0.4790
  135TMC2    C5 2100   1.173   4.036  10.138  0.2850 -0.3892  0.6085
  135TMC2    C6 2101   1.300   4.084  10.144 -0.0391 -0.8650 -0.0903
  135TMC2     C 2102   1.089   4.098   9.777 -0.0766 -0.5607 -0.1120
  135TMC2     O 2103   0.970   4.109   9.790  0.3181 -0.3511  0.2073
  135TMC2     H 2104   1.363   4.123   9.808 -1.1565  3.3501 -0.3904
  135TMC2    H1 2105   0.998   4.018  10.007  0.0875  0.2430 -0.5385
  135TMC2    H2 2106   1.357   4.056  10.232 -0.3667  0.1958  0.4455
  135TMC2    C7 2107   1.118   3.965  10.247  0.0512 -0.6576  0.3173
  135TMC2    C8 2108   1.506   4.112  10.022 -0.5995 -0.5071 -0.5339
  135TMC2    O1 2109   1.106   4.024  10.353 -0.4886  0.0193  0.4208
  135TMC2    O2 2110   1.577   4.060   9.940  0.2519 -0.0272  0.2785
  135TMC2    O5 2111   1.543   4.206  10.114  0.3037  0.3825  0.0255
  135TMC2    H5 2112   1.467   4.249  10.160  0.5587 -1.5052  2.2095
  136MPD2     C 2113   1.003   4.232   9.517 -0.2371 -0.4324 -0.8586
  136MPD2    C1 2114   1.126   4.189   9.540  0.0475  0.4524 -0.0565
  136MPD2    C2 2115   1.220   4.214   9.444 -0.7216 -0.5679 -0.3447
  136MPD2    C3 2116   1.187   4.275   9.320 -0.2628 -0.1269  0.2555
  136MPD2    C4 2117   1.052   4.309   9.307  0.4651  0.3187 -1.1007
  136MPD2    C5 2118   0.962   4.292   9.401 -0.0758  0.4695 -1.0222
  136MPD2     H 2119   1.321   4.180   9.462 -1.1779 -2.0058 -0.5514
  136MPD2    H1 2120   1.005   4.331   9.212  3.3108 -3.2708 -3.3340
  136MPD2    H2 2121   0.920   4.226   9.586  2.1621 -1.3195  1.9259
  136MPD2    H3 2122   0.857   4.319   9.391  0.1288  1.7502  0.2733
  136MPD2     N 2123   1.270   4.300   9.210 -0.0188  0.1587  0.1544
  136MPD2    H5 2124   1.229   4.344   9.128  0.2154  1.1664  0.5845
  136MPD2    N1 2125   1.169   4.114   9.663 -0.2471 -0.5508 -0.7209
  136MPD2    H7 2126   1.269   4.097   9.665  0.1056  1.3761 -2.6194
  137TMC2    C1 2127   1.245   2.342   8.736 -0.1764  0.6414  0.1350
  137TMC2    C2 2128   1.325   2.279   8.642 -0.0693  0.1316 -0.4283
  137TMC2    C3 2129   1.254   2.200   8.552  0.2261 -0.0189  0.4863
  137TMC2    C4 2130   1.105   2.339   8.742 -0.2190 -0.0908 -0.1597
  137TMC2    C5 2131   1.045   2.254   8.659 -0.4315  0.1553 -0.1394
  137TMC2    C6 2132   1.119   2.193   8.565 -0.5053 -0.0360 -0.4354
  137TMC2     C 2133   1.313   2.415   8.836 -0.3862 -0.3614  0.0151
  137TMC2     O 2134   1.253   2.502   8.898 -0.0645 -0.1788  0.4359
  137TMC2     H 2135   1.433   2.282   8.642 -0.0641  0.1590  0.9115
  137TMC2    H1 2136   1.052   2.408   8.807  1.4966  0.9029  0.1894
  137TMC2    H2 2137   1.064   2.133   8.494 -0.1234  1.3125 -1.8712
  137TMC2    C7 2138   0.903   2.263   8.657  0.1844  0.0244  0.0466
  137TMC2    C8 2139   1.299   2.139   8.431  0.0531 -0.5103 -0.0018
  137TMC2    O1 2140   0.841   2.250   8.552 -0.3720  0.1573 -0.4675
  137TMC2    O2 2141   1.223   2.111   8.336  0.1200 -0.1652  0.2702
  137TMC2    O5 2142   1.429   2.141   8.432 -0.4407 -0.1109 -0.3693
  137TMC2    H5 2143   1.463   2.121   8.522  0.1372  1.2665 -0.2954
  138MPD2     C 2144   1.650   2.367   8.960  0.3322 -0.0755  0.0230
  138MPD2    C1 2145   1.520   2.413   8.966  0.4842  0.4280 -0.2833
  138MPD2    C2 2146   1.491   2.508   9.065  0.7904  0.6766  0.1249
  138MPD2    C3 2147   1.593   2.560   9.142  0.4252 -0.0690  0.1736
  138MPD2    C4 2148   1.716   2.502   9.136 -0.0863  0.9688 -0.5430
  138MPD2    C5 2149   1.734   2.405   9.046 -0.0165  0.3466 -0.8582
  138MPD2     H 2150   1.396   2.559   9.080  0.6985  1.1577 -2.0359
  138MPD2    H1 2151   1.806   2.523   9.192  1.0680 -1.4814 -1.4584
  138MPD2    H2 2152   1.681   2.290   8.890  2.1732  0.5335  0.1700
  138MPD2    H3 2153   1.836   2.370   9.032 -1.0424 -2.9163 -0.1970
  138MPD2     N 2154   1.559   2.657   9.238  0.8262  0.2224  0.2468
  138MPD2    H5 2155   1.468   2.694   9.214  0.2183 -1.4316  0.0186
  138MPD2    N1 2156   1.436   2.369   8.863  0.2920 -0.0037  0.0299
  138MPD2    H7 2157   1.466   2.303   8.792  0.9833 -1.7596  1.9909
  139TMC2    C1 2158   1.972   1.582  13.708  0.2467 -0.0281  0.4353
  139TMC2    C2 2159   2.060   1.586  13.607 -0.7508 -0.2543 -0.1043
  139TMC2    C3 2160   2.065   1.697  13.524  0.7271  0.3846 -0.4228
  139TMC2    C4 2161   1.894   1.692  13.734  0.0418  0.0454 -0.1579
  139TMC2    C5 2162   1.906   1.803  13.653  0.3800  0.1215  0.5622
  139TMC2    C6 2163   1.990   1.805  13.548 -0.0330  0.3478  0.3805
  139TMC2     C 2164   1.941   1.455  13.770  0.3462  0.0831  0.5167
  139TMC2     O 2165   2.030   1.371  13.778 -0.0299  0.0585 -0.6570
  139TMC2     H 2166   2.133   1.508  13.591  1.0470  0.8138  2.9836
  139TMC2    H1 2167   1.817   1.693  13.811  0.5504  1.2174  0.3459
  139TMC2    H2 2168   1.997   1.898  13.493  1.2965  0.6676  1.1034
  139TMC2    C7 2169   1.826   1.928  13.677 -0.4003 -0.7018 -0.0521
  139TMC2    C8 2170   2.165   1.691  13.418  0.0565  0.1008  0.0630
  139TMC2    O1 2171   1.811   2.009  13.589 -0.4551  0.0034  0.1403
  139TMC2    O2 2172   2.167   1.592  13.342  0.4580 -0.2714 -0.4973
  139TMC2    O5 2173   2.274   1.746  13.481 -0.8983  0.4807  0.0395
  139TMC2    H5 2174   2.263   1.810  13.554  0.0481  1.2426 -0.4950
  140MPD2     C 2175   1.605   1.313  13.848  0.2148  0.0793 -0.4666
  140MPD2    C1 2176   1.741   1.315  13.829  1.0535  0.2018  0.0052
  140MPD2    C2 2177   1.806   1.196  13.812 -0.0855  0.1593 -0.7535
  140MPD2    C3 2178   1.740   1.077  13.803  0.0335 -0.8819 -0.6084
  140MPD2    C4 2179   1.601   1.078  13.837 -0.1286 -0.2585  0.3040
  140MPD2    C5 2180   1.540   1.197  13.868  0.9611 -0.0036 -0.0968
  140MPD2     H 2181   1.913   1.201  13.801  0.1085 -0.2041  0.9144
  140MPD2    H1 2182   1.541   0.988  13.846 -2.1670  1.1243  0.5819
  140MPD2    H2 2183   1.543   1.399  13.866  0.2273  0.0484 -0.2760
  140MPD2    H3 2184   1.434   1.203  13.891  0.9315 -2.6395  0.4115
  140MPD2     N 2185   1.813   0.964  13.761 -0.0378 -0.5069  0.4420
  140MPD2    H5 2186   1.914   0.968  13.758 -0.1642  0.7237 -1.9705
  140MPD2    N1 2187   1.809   1.440  13.810  0.7981  0.6451 -0.7909
  140MPD2    H7 2188   1.747   1.520  13.817  0.5819  0.2870  1.2223
  141TMC2    C1 2189   1.954   2.849  14.960 -0.4220  0.0142 -0.6758
  141TMC2    C2 2190   1.837   2.913  14.927 -0.3608 -0.4283 -0.5284
  141TMC2    C3 2191   1.770   2.990  15.014 -0.2741  0.4016  0.0307
  141TMC2    C4 2192   2.004   2.857  15.088 -0.7435 -0.1660  0.5485
  141TMC2    C5 2193   1.939   2.941  15.178  0.5671  0.1585  0.0361
  141TMC2    C6 2194   1.820   3.010  15.140  0.1938 -0.0402  0.7180
  141TMC2     C 2195   2.042   2.800  14.855  0.4409 -0.7852  0.1866
  141TMC2     O 2196   2.016   2.847  14.743  0.4033  0.4103  0.0295
  141TMC2     H 2197   1.799   2.900  14.826  1.0489 -0.6311 -1.0449
  141TMC2    H1 2198   2.089   2.796  15.116 -1.3357 -0.5869  1.4271
  141TMC2    H2 2199   1.776   3.087  15.202  2.6803  1.0705  1.1012
  141TMC2    C7 2200   2.023   3.016  15.268 -0.9752 -0.2910 -0.6412
  141TMC2    C8 2201   1.691   3.096  14.957 -0.2665  0.3041  0.4203
  141TMC2    O1 2202   1.965   3.112  15.315  0.5972 -0.0827  0.0914
  141TMC2    O2 2203   1.702   3.140  14.843 -0.1706  0.1458  0.6534
  141TMC2    O5 2204   1.577   3.104  15.029 -0.8798  0.0022 -0.1777
  141TMC2    H5 2205   1.588   3.048  15.109 -0.5251 -2.8641 -2.2322
  142TMC2    C1 2206   0.396   1.504   9.792  0.4665  0.5668  0.2189
  142TMC2    C2 2207   0.396   1.433   9.673 -0.1434 -0.2836  0.3020
  142TMC2    C3 2208   0.493   1.474   9.585 -0.6059 -0.0762 -0.1656
  142TMC2    C4 2209   0.474   1.622   9.812 -0.1177 -0.0448  0.2776
  142TMC2    C5 2210   0.548   1.674   9.708  0.6691 -0.2065 -0.5769
  142TMC2    C6 2211   0.554   1.600   9.587 -0.1595 -0.8850  0.5703
  142TMC2     C 2212   0.306   1.454   9.896  0.6091  0.5113 -0.5785
  142TMC2     O 2213   0.286   1.333   9.894 -0.0296 -0.4418  0.0577
  142TMC2     H 2214   0.343   1.340   9.661  0.5270 -0.4031 -1.6705
  142TMC2    H1 2215   0.480   1.659   9.914  1.7498  0.0943  0.1238
  142TMC2    H2 2216   0.593   1.640   9.494  0.1513  3.1006  2.4025
  142TMC2    C7 2217   0.615   1.801   9.726  0.6379 -0.4242  0.4474
  142TMC2    C8 2218   0.505   1.410   9.460  0.3921  0.7746  0.9360
  142TMC2    O1 2219   0.616   1.852   9.838 -0.3312 -0.1993  0.2525
  142TMC2    O2 2220   0.537   1.470   9.359 -0.3655  0.1994  0.3030
  142TMC2    O5 2221   0.457   1.289   9.471  0.1190  0.3299 -0.0649
  142TMC2    H5 2222   0.466   1.255   9.562  0.2898  0.6512  0.0375
  143MPD2     C 2223   0.070   1.514  10.341 -0.0299 -0.6872  0.2220
  143MPD2    C1 2224   0.073   1.403  10.262  0.6233  0.3278  0.3425
  143MPD2    C2 2225   0.155   1.409  10.145 -0.7431 -0.5052  0.0320
  143MPD2    C3 2226   0.215   1.524  10.110 -0.1329  0.2044 -0.2371
  143MPD2    C4 2227   0.203   1.636  10.189  0.1719 -0.1053 -0.1289
  143MPD2    C5 2228   0.137   1.628  10.308 -0.0047  0.2657  0.9981
  143MPD2     H 2229   0.174   1.321  10.085  1.4282 -0.2730  0.3923
  143MPD2    H1 2230   0.253   1.725  10.152 -1.6550  1.1429  0.4321
  143MPD2    H2 2231   0.004   1.523  10.428  1.2729  2.5055  0.9011
  143MPD2    H3 2232   0.115   1.715  10.369  0.5306  0.9884  0.1658
  143MPD2     N 2233   0.279   1.551   9.986 -0.1903 -0.1220 -0.3430
  143MPD2    H5 2234   0.299   1.649   9.966 -0.9890  0.2021  0.3933
  143MPD2    N1 2235   0.000   1.287  10.309 -0.0807 -0.1994  0.5048
  143MPD2    H7 2236   4.688   1.280  10.396 -0.6697  0.3896  0.2064
  144TMC2    C1 2237   3.234   0.474   0.270 -0.6589  0.8684  0.0237
  144TMC2    C2 2238   3.292   0.350   0.268  0.3890  0.2616 -0.3231
  144TMC2    C3 2239   3.426   0.344   0.235 -0.0109 -0.1805 -0.3298
  144TMC2    C4 2240   3.314   0.590   0.258  0.4222 -0.3959  0.4248
  144TMC2    C5 2241   3.448   0.580   0.237 -0.2533 -0.2761  0.9564
  144TMC2    C6 2242   3.504   0.453   0.217 -0.2921  1.3917  0.9245
  144TMC2     C 2243   3.087   0.487   0.256 -0.0240 -0.7380  0.0768
  144TMC2     O 2244   3.020   0.395   0.308 -0.3366  0.2294  0.5453
  144TMC2     H 2245   3.230   0.262   0.279  1.3186 -0.1033  1.8195
  144TMC2    H1 2246   3.261   0.684   0.251  1.1851  0.0329  0.4622
  144TMC2    H2 2247   3.608   0.444   0.190  0.2246 -0.7310  3.7131
  144TMC2    C7 2248   3.538   0.699   0.222  0.4161  0.5526 -0.0195
  144TMC2    C8 2249   3.483   0.215   0.240  0.1005 -0.5277 -0.2985
  144TMC2    O1 2250   3.643   0.685   0.160 -0.0254 -0.5779  0.1021
  144TMC2    O2 2251   3.437   0.125   0.311  0.0137  0.5758  0.1330
  144TMC2    O5 2252   3.585   0.201   0.143  0.0426 -0.0536  0.6856
  144TMC2    H5 2253   3.594   0.285   0.095  1.1297 -0.6116 -0.0729
  145MPD2     C 2254   2.678   0.705   0.032  0.3165 -0.3781 -0.1137
  145MPD2    C1 2255   2.679   0.588   0.106  0.0905 -0.4446 -0.0048
  145MPD2    C2 2256   2.807   0.543   0.147 -0.2391 -0.5540 -0.8959
  145MPD2    C3 2257   2.923   0.613   0.119 -0.1108  0.0960  0.3287
  145MPD2    C4 2258   2.911   0.727   0.043 -0.2916 -0.2851 -0.2628
  145MPD2    C5 2259   2.791   0.779   0.002  0.4666 -0.4235 -0.8475
  145MPD2     H 2260   2.814   0.452   0.205 -0.7667 -0.6859 -1.0383
  145MPD2    H1 2261   2.993   0.791   0.012 -2.4630  2.5060 -0.2053
  145MPD2    H2 2262   2.589   0.730  17.730 -0.5779 -1.5801  0.7774
  145MPD2    H3 2263   2.792   0.870  17.695 -1.6736  0.4508  0.4579
  145MPD2     N 2264   3.056   0.574   0.162  0.1173 -0.2661 -0.1766
  145MPD2    H5 2265   3.135   0.625   0.124  0.2193  0.6769  1.3327
  145MPD2    N1 2266   2.563   0.509   0.125 -0.2474 -0.3164 -0.4075
  145MPD2    H7 2267   2.581   0.419   0.169  0.5452  0.6489  1.2096
  146TMC2    C1 2268   0.244   3.462  11.989  0.3436 -0.3370  0.0500
  146TMC2    C2 2269   0.252   3.509  11.863  0.2530 -0.1126 -0.9169
  146TMC2    C3 2270   0.372   3.554  11.816  0.2797  0.0440  0.2603
  146TMC2    C4 2271   0.350   3.453  12.075  0.4848  0.2836 -0.0667
  146TMC2    C5 2272   0.469   3.503  12.023  0.1401  0.0782  0.5911
  146TMC2    C6 2273   0.486   3.544  11.890  0.3597 -0.3308 -0.4458
  146TMC2     C 2274   0.117   3.400  12.030 -0.3415 -0.0991  0.4887
  146TMC2     O 2275   0.035   3.380  11.944  0.0013 -0.6132 -0.1906
  146TMC2     H 2276   0.163   3.519  11.802  1.4896 -0.6598 -2.8039
  146TMC2    H1 2277   0.333   3.399  12.168  1.5216  0.0470 -0.0138
  146TMC2    H2 2278   0.586   3.551  11.848  0.4583  1.4552  0.1080
  146TMC2    C7 2279   0.592   3.483  12.097  0.1510 -0.6445 -0.3947
  146TMC2    C8 2280   0.355   3.630  11.692  0.0669  0.7642 -0.2209
  146TMC2    O1 2281   0.697   3.495  12.044 -0.4057 -0.3252  0.5916
  146TMC2    O2 2282   0.261   3.617  11.615  0.0141 -0.2245  0.1318
  146TMC2    O5 2283   0.474   3.689  11.659 -0.2348 -0.4378 -0.6322
  146TMC2    H5 2284   0.528   3.700  11.740 -0.0011  1.7218 -1.0798
  147MPD2     C 2285   0.786   3.276  12.526 -0.3651  0.6155  0.6772
  147MPD2    C1 2286   0.674   3.348  12.560 -0.3773  0.3764  0.5922
  147MPD2    C2 2287   0.609   3.421  12.463 -0.3582 -0.2570 -0.0685
  147MPD2    C3 2288   0.647   3.420  12.331  0.1144 -0.6881 -0.4680
  147MPD2    C4 2289   0.770   3.364  12.302  0.1824 -0.1755  0.1449
  147MPD2    C5 2290   0.838   3.297  12.401 -0.1628  0.2665 -1.1621
  147MPD2     H 2291   0.521   3.480  12.488 -1.0568 -1.2252 -0.2546
  147MPD2    H1 2292   0.817   3.348  12.206  1.5105 -0.6243  0.8755
  147MPD2    H2 2293   0.844   3.225  12.602  2.0934 -0.1943 -1.7066
  147MPD2    H3 2294   0.921   3.230  12.384 -0.3007 -0.2117  0.0269
  147MPD2     N 2295   0.562   3.471  12.231 -0.3362 -0.3068 -0.3194
  147MPD2    H5 2296   0.472   3.514  12.253 -0.0416 -0.3344  0.8994
  147MPD2    N1 2297   0.644   3.355  12.698 -0.2543 -0.2244  0.7857
  147MPD2    H7 2298   0.707   3.301  12.754 -1.7279 -1.8494  0.8788
  148TMC2    C1 2299   4.546   2.825  10.618 -0.7878 -0.1311  0.0777
  148TMC2    C2 2300   4.635   2.889  10.535  0.4526 -0.5830 -0.0215
  148TMC2    C3 2301   4.713   2.825  10.445 -0.3604 -1.2136 -0.0183
  148TMC2    C4 2302   4.551   2.687  10.624  0.0824  0.1433  0.5306
  148TMC2    C5 2303   4.643   2.619  10.546  0.0478  0.6265 -0.4816
  148TMC2    C6 2304   4.724   2.685  10.449  0.0600 -0.0171  0.4600
  148TMC2     C 2305   4.418   2.894  10.631  0.1321  0.5757  0.2260
  148TMC2     O 2306   4.421   3.016  10.642  0.3031 -0.0135  0.2958
  148TMC2     H 2307   4.633   2.996  10.522  0.0661 -0.9009 -2.5394
  148TMC2    H1 2308   4.488   2.641  10.699  3.1739 -1.4222  2.1467
  148TMC2    H2 2309   0.047   2.630  10.379  1.6194  0.8647  1.1649
  148TMC2    C7 2310   4.616   2.477  10.529 -0.4030  0.3639  0.3739
  148TMC2    C8 2311   0.083   2.893  10.387 -0.6954  0.4765  0.1136
  148TMC2    O1 2312   4.643   2.418  10.425  0.1810 -0.1031  0.4554
  148TMC2    O2 2313   0.136   2.992  10.426  0.2686 -0.7705 -1.0620
  148TMC2    O5 2314   0.058   2.872  10.255  0.1231  0.7034 -0.1464
  148TMC2    H5 2315   4.734   2.796  10.251 -1.0746  1.8057 -2.3403
  149MPD2     C 2316   4.135   2.980  10.576  0.0774  0.3450  0.1605
  149MPD2    C1 2317   4.176   2.853  10.573 -0.5281 -0.2933 -0.8349
  149MPD2    C2 2318   4.097   2.747  10.534  0.9386  0.2216  1.3532
  149MPD2    C3 2319   3.961   2.772  10.508  0.0518  0.1358 -0.2940
  149MPD2    C4 2320   3.919   2.902  10.501  0.1080 -0.2661  0.0983
  149MPD2    C5 2321   4.009   3.005  10.523  0.0943 -0.2256 -1.2480
  149MPD2     H 2322   4.127   2.644  10.543  0.5764  0.0392  0.5010
  149MPD2    H1 2323   3.817   2.925  10.474  0.7943  0.8618 -1.5033
  149MPD2    H2 2324   4.193   3.069  10.595  0.1193  0.0727  1.2842
  149MPD2    H3 2325   3.976   3.109  10.530 -0.2557 -0.4302  0.1832
  149MPD2     N 2326   3.866   2.670  10.490  0.0181 -0.3223 -0.1207
  149MPD2    H5 2327   3.772   2.701  10.467  1.3132  2.1826 -2.0457
  149MPD2    N1 2328   4.306   2.814  10.607 -0.7501 -0.4374  0.0691
  149MPD2    H7 2329   4.324   2.716  10.585 -0.9843  0.1198 -2.5905
  150TMC2    C1 2330   1.734   1.924  12.437  0.0169  0.2568 -0.1216
  150TMC2    C2 2331   1.723   2.051  12.388 -0.5637 -0.0462 -0.1407
  150TMC2    C3 2332   1.842   2.121  12.379 -0.0902  0.1752 -0.0983
  150TMC2    C4 2333   1.847   1.878  12.494 -0.0157  0.5082  0.7038
  150TMC2    C5 2334   1.962   1.956  12.495  0.5504 -0.4062 -0.0148
  150TMC2    C6 2335   1.959   2.073  12.422  0.2456 -0.0777  0.6137
  150TMC2     C 2336   1.615   1.848  12.484 -0.1854 -0.5874 -0.3211
  150TMC2     O 2337   1.628   1.779  12.584  0.3120 -0.5785 -0.1179
  150TMC2     H 2338   1.627   2.088  12.355 -0.2874  0.5642 -0.2551
  150TMC2    H1 2339   1.849   1.781  12.543  0.5871  0.8343  1.3348
  150TMC2    H2 2340   2.054   2.126  12.415  0.4252 -0.3762  0.8116
  150TMC2    C7 2341   2.072   1.943  12.593 -0.2488  0.0104 -0.3799
  150TMC2    C8 2342   1.856   2.231  12.283 -0.2990  0.2455  0.0865
  150TMC2    O1 2343   2.166   2.021  12.586 -0.0472 -0.1396 -0.7739
  150TMC2    O2 2344   1.961   2.296  12.271 -0.1288  0.2850  0.4229
  150TMC2    O5 2345   1.780   2.200  12.176  0.1238  0.1515 -0.8960
  150TMC2    H5 2346   1.703   2.142  12.196  0.3865  1.1434  3.0335
  151MPD2     C 2347   1.129   1.703  12.435  0.2694 -0.0607 -0.9679
  151MPD2    C1 2348   1.164   1.789  12.330  0.7677  0.0942 -0.1469
  151MPD2    C2 2349   1.287   1.853  12.336 -0.1425 -0.0518 -0.5606
  151MPD2    C3 2350   1.377   1.815  12.424  0.6889  0.0581 -0.1554
  151MPD2    C4 2351   1.353   1.713  12.525 -0.5497 -0.0616  0.2170
  151MPD2    C5 2352   1.223   1.666  12.527 -0.0288  0.0180  0.4610
  151MPD2     H 2353   1.320   1.916  12.254 -1.8091  0.4034 -0.8986
  151MPD2    H1 2354   1.428   1.671  12.592  0.5771  1.5016 -0.0609
  151MPD2    H2 2355   1.027   1.668  12.448  1.1852 -1.7057  1.8346
  151MPD2    H3 2356   1.198   1.594  12.604 -0.8554 -1.0394 -0.7890
  151MPD2     N 2357   1.508   1.868  12.402 -1.0809  0.1577  0.0144
  151MPD2    H5 2358   1.519   1.943  12.334  2.7969  0.0704  0.5463
  151MPD2    N1 2359   1.068   1.818  12.229 -0.3290  0.5329 -0.4316
  151MPD2    H7 2360   0.984   1.762  12.244 -0.8372  1.1598 -0.8962
  152TMC2    C1 2361   1.576   1.776  12.953 -0.5539  0.4468  0.5744
  152TMC2    C2 2362   1.650   1.742  13.059  0.6422  0.4965  0.0780
  152TMC2    C3 2363   1.769   1.805  13.076 -0.4996 -0.6201 -0.2631
  152TMC2    C4 2364   1.612   1.868  12.861  0.2949 -0.8911  0.2320
  152TMC2    C5 2365   1.727   1.940  12.885 -0.4536  0.0169 -0.6692
  152TMC2    C6 2366   1.812   1.915  12.999 -0.4569 -0.3583  0.0494
  152TMC2     C 2367   1.446   1.715  12.919 -0.3145  0.8512 -0.1554
  152TMC2     O 2368   1.370   1.784  12.850 -0.7783 -0.5241  0.3836
  152TMC2     H 2369   1.624   1.665  13.131 -2.2112  0.4860 -0.9940
  152TMC2    H1 2370   1.555   1.880  12.769  1.9691  1.6911 -0.4444
  152TMC2    H2 2371   1.919   1.938  12.999 -0.4845 -0.1361 -3.4209
  152TMC2    C7 2372   1.753   2.056  12.797 -1.0486  0.5514  0.7786
  152TMC2    C8 2373   1.835   1.776  13.201  0.4905 -0.3057 -0.2447
  152TMC2    O1 2374   1.677   2.070  12.700 -0.1157  0.1207 -0.4929
  152TMC2    O2 2375   1.824   1.668  13.255  0.8422 -0.3192 -0.5238
  152TMC2    O5 2376   1.914   1.876  13.239 -0.1971 -0.1088 -0.4800
  152TMC2    H5 2377   1.885   1.956  13.189 -1.4332 -1.0026 -1.1986
  153MPD2     C 2378   1.343   1.364  12.957 -0.5073  0.5700  0.2161
  153MPD2    C1 2379   1.330   1.496  12.934 -0.7054  0.0451 -0.4486
  153MPD2    C2 2380   1.207   1.545  12.898 -0.1228 -0.1575 -0.2602
  153MPD2    C3 2381   1.099   1.457  12.881  0.0969 -0.1527  0.9322
  153MPD2    C4 2382   1.123   1.321  12.904  0.5619 -0.3010 -0.2890
  153MPD2    C5 2383   1.243   1.279  12.948 -0.8508  0.0628 -0.1631
  153MPD2     H 2384   1.182   1.650  12.902  2.5034  0.5302 -1.5371
  153MPD2    H1 2385   1.041   1.250  12.893 -1.1302  1.3669  1.4422
  153MPD2    H2 2386   1.441   1.329  12.986 -0.5681  0.0019 -0.2476
  153MPD2    H3 2387   1.259   1.174  12.971  2.8434  0.5639 -0.5419
  153MPD2     N 2388   0.969   1.508  12.861  0.5419 -0.0568  0.0455
  153MPD2    H5 2389   0.954   1.606  12.837  1.8304  1.0488  3.8020
  153MPD2    N1 2390   1.439   1.582  12.958 -0.0826 -0.2551 -0.2399
  153MPD2    H7 2391   1.529   1.542  12.985  0.9854  1.9814 -0.5631
  154TMC2    C1 2392   3.374   2.157   0.063 -0.4879  0.3976  0.3268
  154TMC2    C2 2393   3.508   2.153   0.083  0.0276 -0.4860  0.0838
  154TMC2    C3 2394   3.574   2.048   0.026 -0.1696  0.1592 -0.1954
  154TMC2    C4 2395   3.312   2.068  17.732 -0.4254 -0.0743  0.2605
  154TMC2    C5 2396   3.380   1.966  17.672 -0.8384  0.1003  0.6420
  154TMC2    C6 2397   3.516   1.947  17.701 -0.8655  0.3633 -0.0063
  154TMC2     C 2398   3.304   2.280   0.117 -0.2332 -0.7061  0.0342
  154TMC2     O 2399   3.370   2.366   0.163 -0.1279  0.0414 -0.1158
  154TMC2     H 2400   3.547   2.205   0.170  0.3610  1.8301 -1.4408
  154TMC2    H1 2401   3.215   2.096  17.694 -1.2758 -1.7050  1.2245
  154TMC2    H2 2402   3.562   1.856  17.666  1.3514  0.5767  2.4158
  154TMC2    C7 2403   3.291   1.860  17.609 -0.1897 -0.1419 -0.3781
  154TMC2    C8 2404   3.704   2.025   0.092 -0.1811 -0.3352 -0.2033
  154TMC2    O1 2405   3.170   1.868  17.629  0.0595 -0.4474 -0.5985
  154TMC2    O2 2406   3.735   2.064   0.201  0.0245  0.4021 -0.2317
  154TMC2    O5 2407   3.786   1.953   0.007  0.4690 -0.4396 -0.5258
  154TMC2    H5 2408   3.755   1.966  17.667 -0.3118 -0.2825 -0.2427
  155MPD2     C 2409   2.941   2.351   0.114  0.2508 -0.6031  0.3972
  155MPD2    C1 2410   3.069   2.350   0.164 -0.1597 -0.9707 -0.8031
  155MPD2    C2 2411   3.101   2.440   0.260  0.0753 -0.4544  0.3741
  155MPD2    C3 2412   3.008   2.538   0.307  0.1122  0.0306  0.5363
  155MPD2    C4 2413   2.890   2.548   0.245 -0.4797 -0.4556  0.8227
  155MPD2    C5 2414   2.851   2.446   0.153 -0.1301 -0.7593  0.0755
  155MPD2     H 2415   3.196   2.432   0.312 -0.7121  4.5752  2.5944
  155MPD2    H1 2416   2.812   2.617   0.275 -0.3208  1.0470 -2.1518
  155MPD2    H2 2417   2.903   2.276   0.046 -0.2917  0.3954 -0.3977
  155MPD2    H3 2418   2.749   2.441   0.116 -0.5182 -1.0385  1.1850
  155MPD2     N 2419   3.053   2.619   0.415 -0.2397 -0.5049  0.0536
  155MPD2    H5 2420   3.145   2.599   0.453 -0.1514 -2.8822 -1.3827
  155MPD2    N1 2421   3.165   2.266   0.104  0.2015 -0.2561 -0.0897
  155MPD2    H7 2422   3.129   2.189   0.050 -1.1904  0.2662  0.0799
  156TMC2    C1 2423   1.980   4.208  12.246  0.4198  0.0381 -0.1372
  156TMC2    C2 2424   2.091   4.147  12.198  0.4610 -1.5073 -0.1276
  156TMC2    C3 2425   2.108   4.140  12.063  0.2616  0.4539 -0.3951
  156TMC2    C4 2426   1.880   4.252  12.164 -0.3733  0.2252  0.1712
  156TMC2    C5 2427   1.898   4.235  12.029  0.0487 -0.1587  0.0399
  156TMC2    C6 2428   2.016   4.178  11.980  0.7817 -0.3720  0.0105
  156TMC2     C 2429   1.962   4.228  12.386 -0.1365  1.1187  0.6951
  156TMC2     O 2430   1.884   4.317  12.420  0.1823 -0.0516 -0.3545
  156TMC2     H 2431   2.166   4.114  12.269 -0.2169 -2.6910  0.0515
  156TMC2    H1 2432   1.792   4.304  12.200 -1.7125 -1.0007 -1.3167
  156TMC2    H2 2433   2.027   4.162  11.873  2.0524  0.1535  0.0650
  156TMC2    C7 2434   1.802   4.278  11.939 -0.1606 -0.5713  0.1254
  156TMC2    C8 2435   2.180   4.025  12.021 -0.3577 -0.7168  0.2053
  156TMC2    O1 2436   1.748   4.383  11.973 -0.3303 -0.5697  0.5717
  156TMC2    O2 2437   2.229   3.950  12.103  0.6972 -0.4482  0.2757
  156TMC2    O5 2438   2.238   4.054  11.903  0.4491 -0.6978 -0.1846
  156TMC2    H5 2439   2.208   4.136  11.857 -1.9637 -3.2743 -3.1441
  157MPD2     C 2440   1.950   3.968  12.652  0.3836 -0.3492 -1.3093
  157MPD2    C1 2441   1.963   4.098  12.600 -0.0886  0.0438  0.3146
  157MPD2    C2 2442   1.945   4.205  12.687  0.0489  0.3831  0.6649
  157MPD2    C3 2443   1.897   4.189  12.821  0.4826  1.1770  0.4779
  157MPD2    C4 2444   1.892   4.062  12.871  0.0176  0.7912  0.7651
  157MPD2    C5 2445   1.918   3.955  12.790 -0.0812  0.2231  0.0284
  157MPD2     H 2446   1.960   4.307  12.655  2.5287  0.4666  2.1049
  157MPD2    H1 2447   1.867   4.042  12.975 -0.0326 -0.0450  0.5919
  157MPD2    H2 2448   1.970   3.882  12.590  1.7270 -1.4989  0.7034
  157MPD2    H3 2449   1.907   3.855  12.831  0.1341 -0.5752 -1.8463
  157MPD2     N 2450   1.858   4.302  12.895  0.1863 -0.4301  0.1321
  157MPD2    H5 2451   1.869   4.386  12.839 -4.2849 -1.8468 -2.8321
  157MPD2    N1 2452   1.998   4.120  12.464 -0.1355 -0.6186  0.1654
  157MPD2    H7 2453   2.044   4.041  12.420  1.0168 -0.1777  0.5935
  158TMC2    C1 2454   2.312   2.909  13.668  0.5068 -0.5020 -0.3442
  158TMC2    C2 2455   2.416   2.991  13.623  0.2571  0.0912 -0.3048
  158TMC2    C3 2456   2.388   3.068  13.516  0.1866  0.4872 -0.1375
  158TMC2    C4 2457   2.185   2.919  13.629 -0.4405  0.6560  0.0044
  158TMC2    C5 2458   2.165   2.992  13.516 -0.9033 -0.3216  0.1690
  158TMC2    C6 2459   2.268   3.063  13.450  0.5157 -0.4046  0.0803
  158TMC2     C 2460   2.357   2.798  13.759  0.2102  0.2811  0.3694
  158TMC2     O 2461   2.470   2.807  13.802  0.1542 -0.2445 -0.0361
  158TMC2     H 2462   2.517   2.971  13.656  0.1489  1.1538  0.6484
  158TMC2    H1 2463   2.105   2.865  13.680 -1.0569 -0.7246 -2.4079
  158TMC2    H2 2464   2.251   3.138  13.374 -2.2556 -0.2408  0.8529
  158TMC2    C7 2465   2.031   3.009  13.453  0.8884 -0.0537  0.0228
  158TMC2    C8 2466   2.489   3.152  13.465 -0.1100  0.0468  0.4817
  158TMC2    O1 2467   2.026   3.094  13.363 -0.5620  0.4701  0.0260
  158TMC2    O2 2468   2.489   3.191  13.350  0.3981  0.0391  0.2437
  158TMC2    O5 2469   2.572   3.208  13.559 -0.2300 -0.2392  0.8395
  158TMC2    H5 2470   2.560   3.179  13.651  0.3224  0.1291  1.0296
  159MPD2     C 2471   2.246   2.452  14.113  0.2052  0.1248  0.0114
  159MPD2    C1 2472   2.129   2.481  14.041 -0.4326 -0.3204 -0.1787
  159MPD2    C2 2473   2.141   2.576  13.947 -0.4656 -0.2536  0.8083
  159MPD2    C3 2474   2.262   2.619  13.899  0.2327  0.2646  0.2390
  159MPD2    C4 2475   2.378   2.574  13.952 -0.2150  0.3421 -0.8568
  159MPD2    C5 2476   2.370   2.496  14.067  0.3387  0.1219  0.0124
  159MPD2     H 2477   2.059   2.626  13.897 -1.1094 -0.2953  1.8213
  159MPD2    H1 2478   2.475   2.609  13.918 -1.1641  3.0210 -0.7688
  159MPD2    H2 2479   2.247   2.394  14.205  1.4149  2.4035  1.4463
  159MPD2    H3 2480   2.457   2.475  14.129  0.0869  2.0602  1.0141
  159MPD2     N 2481   2.254   2.726  13.812  0.3304  0.3997  0.1831
  159MPD2    H5 2482   2.162   2.762  13.791  0.6622  1.5637  0.6889
  159MPD2    N1 2483   2.008   2.438  14.099  0.8016 -0.3756 -0.2654
  159MPD2    H7 2484   2.016   2.378  14.180  0.5202 -2.1325 -1.5305
  160TMC2    C1 2485   1.937   0.557   0.652  0.0743 -0.1238  0.3438
  160TMC2    C2 2486   1.926   0.419   0.626  0.4672 -0.1594 -0.4675
  160TMC2    C3 2487   2.017   0.365   0.542  0.4704  0.5043  0.1558
  160TMC2    C4 2488   2.045   0.625   0.605 -0.1050 -0.0146  0.2217
  160TMC2    C5 2489   2.136   0.558   0.529  0.4793  0.3968  0.0881
  160TMC2    C6 2490   2.119   0.429   0.483 -0.0871 -0.5799  0.3228
  160TMC2     C 2491   1.841   0.633   0.736 -0.3620 -0.1214 -0.4517
  160TMC2     O 2492   1.787   0.568   0.826  0.0615 -0.0839 -0.4445
  160TMC2     H 2493   1.847   0.369   0.680  0.9309 -0.6655 -0.2530
  160TMC2    H1 2494   2.063   0.722   0.650 -0.3906  0.3276 -0.3944
  160TMC2    H2 2495   2.187   0.375   0.417  0.3201  0.5369 -0.1645
  160TMC2    C7 2496   2.257   0.623   0.489  0.1906  0.1190  0.2239
  160TMC2    C8 2497   1.979   0.243   0.471 -0.3519  0.3166 -0.3699
  160TMC2    O1 2498   2.354   0.563   0.454 -0.0566  0.4260 -0.1104
  160TMC2    O2 2499   2.015   0.236   0.358  0.0485  0.4737 -0.0395
  160TMC2    O5 2500   1.853   0.217   0.512  0.1094 -0.4455  0.3253
  160TMC2    H5 2501   1.867   0.206   0.609  0.6257  2.3875  0.5691
  161MPD2     C 2502   1.658   0.829   0.856 -0.4455  0.3529 -0.7629
  161MPD2    C1 2503   1.713   0.846   0.731  0.5537  0.1215 -0.1409
  161MPD2    C2 2504   1.679   0.965   0.658  0.3199  0.7490 -0.1447
  161MPD2    C3 2505   1.590   1.054   0.712 -0.0806 -0.1815 -0.2322
  161MPD2    C4 2506   1.539   1.034   0.835  0.7087 -0.3608  0.3209
  161MPD2    C5 2507   1.574   0.923   0.906 -0.2815  0.0377 -0.0287
  161MPD2     H 2508   1.721   0.978   0.559  0.7275  1.2751  0.0947
  161MPD2    H1 2509   1.480   1.108   0.887 -0.6216 -1.9978  1.1514
  161MPD2    H2 2510   1.689   0.747   0.920 -0.2391  1.4111  0.5062
  161MPD2    H3 2511   1.542   0.917   1.009 -0.4441  0.6724 -0.0405
  161MPD2     N 2512   1.545   1.173   0.650  0.2262  0.7224  0.0306
  161MPD2    H5 2513   1.495   1.240   0.708 -0.5662 -0.0107  0.2038
  161MPD2    N1 2514   1.809   0.755   0.679 -1.0304  0.5366 -0.3718
  161MPD2    H7 2515   1.855   0.780   0.592  1.4448  1.7289  1.2936
  162TMC2    C1 2516   4.278   3.193   0.867 -0.2112 -0.1181  0.2406
  162TMC2    C2 2517   4.152   3.250   0.862 -1.0729 -0.0889 -0.2801
  162TMC2    C3 2518   4.115   3.335   0.961  0.1825 -0.9033 -0.4037
  162TMC2    C4 2519   4.357   3.201   0.979  0.2045 -0.1921 -0.1739
  162TMC2    C5 2520   4.309   3.278   1.083 -0.2578  0.0296  0.3009
  162TMC2    C6 2521   4.192   3.350   1.077  0.5033 -0.0308 -0.2237
  162TMC2     C 2522   4.332   3.119   0.751 -0.0444 -0.1808  0.4861
  162TMC2     O 2523   4.251   3.100   0.657  0.0368 -0.0667  0.1047
  162TMC2     H 2524   4.084   3.225   0.782  0.5503 -1.5282 -1.2155
  162TMC2    H1 2525   4.440   3.131   0.988  0.8486  0.3544 -1.9141
  162TMC2    H2 2526   4.169   3.409   1.165 -0.2063 -0.6327 -0.0025
  162TMC2    C7 2527   4.390   3.304   1.205 -0.3380  0.4518 -0.1207
  162TMC2    C8 2528   4.003   3.421   0.937  0.1620 -0.1047 -0.5060
  162TMC2    O1 2529   4.344   3.360   1.305 -0.4223 -0.2507  0.3638
  162TMC2    O2 2530   3.943   3.434   0.827 -0.1481  0.1989  0.4021
  162TMC2    O5 2531   3.963   3.476   1.053 -0.2493 -0.0525  0.0085
  162TMC2    H5 2532   4.007   3.436   1.131  0.9992 -1.1438 -1.2538
  163MPD2     C 2533   4.663   2.818   0.511  0.1529 -0.5631  0.7451
  163MPD2    C1 2534   4.528   2.834   0.489  0.0534  0.6826 -0.4288
  163MPD2    C2 2535   4.462   2.930   0.564  0.3045 -0.5220  0.7529
  163MPD2    C3 2536   4.529   3.006   0.660  0.0379  0.0343  0.0108
  163MPD2    C4 2537   4.668   3.013   0.662 -0.2039  0.4217 -0.5784
  163MPD2    C5 2538   4.729   2.914   0.590  0.1099 -0.2898  0.5735
  163MPD2     H 2539   4.354   2.941   0.558  0.4188 -0.1325 -0.7110
  163MPD2    H1 2540   4.717   3.077   0.734  0.6048  0.4176 -1.1254
  163MPD2    H2 2541   4.725   2.751   0.453 -0.8672 -0.1820 -0.7919
  163MPD2    H3 2542   0.096   2.913   0.613  0.0929 -0.3006  0.6509
  163MPD2     N 2543   4.470   3.095   0.754 -0.3142 -0.3045 -0.3293
  163MPD2    H5 2544   4.533   3.142   0.818  0.8299 -0.4196 -1.3618
  163MPD2    N1 2545   4.461   2.750   0.402 -0.4314  0.8508  0.4042
  163MPD2    H7 2546   4.508   2.668   0.363  0.4941  1.4204  0.3214
  164TMC2    C1 2547   0.587   2.317  11.065  0.3274 -0.4644 -0.4549
  164TMC2    C2 2548   0.706   2.365  11.098  0.4646  1.1595  0.5507
  164TMC2    C3 2549   0.728   2.492  11.078 -0.4826  0.3618  0.1629
  164TMC2    C4 2550   0.484   2.399  11.021 -0.4891  0.3871 -0.1144
  164TMC2    C5 2551   0.508   2.532  11.016 -0.6482 -0.1264 -0.3517
  164TMC2    C6 2552   0.632   2.580  11.046 -0.2294  0.5907  0.1863
  164TMC2     C 2553   0.555   2.183  11.111 -0.4148  0.1498 -0.7166
  164TMC2     O 2554   0.612   2.140  11.206 -0.2354 -0.1783  0.0002
  164TMC2     H 2555   0.776   2.294  11.140 -1.5936 -0.1160  1.8571
  164TMC2    H1 2556   0.386   2.361  10.993 -0.7027  0.5599  0.3962
  164TMC2    H2 2557   0.659   2.685  11.059 -2.2854  1.5616 -3.2546
  164TMC2    C7 2558   0.391   2.620  10.989  0.3909  0.2824  0.2009
  164TMC2    C8 2559   0.863   2.546  11.081  0.7010  0.3354  0.0108
  164TMC2    O1 2560   0.283   2.560  10.989  0.1769  0.3981 -0.5310
  164TMC2    O2 2561   0.885   2.664  11.109  0.1936 -0.2356  0.1207
  164TMC2    O5 2562   0.929   2.461  10.995  0.3777  0.3850 -0.7640
  164TMC2    H5 2563   0.869   2.386  10.977  1.1877 -0.7901  1.4620
  165TMC2    C1 2564   2.133   4.518   0.596  1.1294  0.2088 -0.2277
  165TMC2    C2 2565   2.226   4.417   0.584 -0.1893 -0.6925  0.2779
  165TMC2    C3 2566   2.357   4.452   0.590  0.8487  0.0314  0.2190
  165TMC2    C4 2567   2.166   4.644   0.623 -0.2667  0.3815 -0.2898
  165TMC2    C5 2568   2.294   4.674   0.649  0.1726 -0.6446  0.1136
  165TMC2    C6 2569   2.389   4.578   0.640  0.1462 -0.3684 -0.1652
  165TMC2     C 2570   1.994   4.493   0.609  0.0626 -0.4929  0.0542
  165TMC2     O 2571   1.934   4.597   0.629 -0.0129 -0.0192 -0.0158
  165TMC2     H 2572   2.202   4.317   0.550 -0.6052 -0.0572 -1.3131
  165TMC2    H1 2573   2.104   4.726   0.589  0.1599 -0.0055 -1.9959
  165TMC2    H2 2574   2.488   4.611   0.669  0.1834 -1.2207  0.6919
  165TMC2    C7 2575   2.329   0.073   0.689 -0.2343 -0.2125 -0.2298
  165TMC2    C8 2576   2.450   4.340   0.615  0.0068  0.7474  0.2134
  165TMC2    O1 2577   2.449   0.105   0.689 -0.0685  0.2871 -0.6412
  165TMC2    O2 2578   2.409   4.226   0.653 -0.4962  0.1256  0.5815
  165TMC2    O5 2579   2.571   4.393   0.632 -0.3996  0.1748  0.3161
  165TMC2    H5 2580   2.571   4.481   0.588  1.2488 -0.4634 -0.9350
  166MPD2     C 2581   1.559   4.266   0.560  0.4253 -0.1769 -0.6265
  166MPD2    C1 2582   1.602   4.383   0.508 -0.3431  0.2355 -0.1863
  166MPD2    C2 2583   1.737   4.414   0.521 -0.3763  0.0050 -0.1297
  166MPD2    C3 2584   1.819   4.330   0.594  0.0775 -0.0744 -0.0403
  166MPD2    C4 2585   1.776   4.207   0.633  0.3516 -0.2351 -0.3353
  166MPD2    C5 2586   1.643   4.170   0.618 -0.3681 -0.6357 -0.5037
  166MPD2     H 2587   1.780   4.502   0.475  0.5834  0.1049  0.9604
  166MPD2    H1 2588   1.837   4.145   0.698  0.9565 -0.3904 -1.0410
  166MPD2    H2 2589   1.452   4.247   0.556  0.2460  0.3006  2.0221
  166MPD2    H3 2590   1.615   4.073   0.659  2.1939 -0.2352  2.1929
  166MPD2     N 2591   1.956   4.360   0.613  0.1447  0.0465 -0.0355
  166MPD2    H5 2592   2.019   4.283   0.632 -0.4091 -0.6767 -1.1231
  166MPD2    N1 2593   1.510   4.457   0.435  0.0912 -0.3250  0.2771
  166MPD2    H7 2594   1.416   4.424   0.455 -0.0897  0.1152  0.1555
  167TMC2    C1 2595   3.758   2.727  12.666 -0.0289  0.9610 -0.3286
  167TMC2    C2 2596   3.626   2.738  12.699 -0.4310 -0.0485 -0.1197
  167TMC2    C3 2597   3.575   2.638  12.781  0.2505 -0.3773  0.3141
  167TMC2    C4 2598   3.838   2.623  12.708 -0.1763 -0.0845  0.3463
  167TMC2    C5 2599   3.783   2.526  12.781  0.1476  0.0303  0.0952
  167TMC2    C6 2600   3.657   2.529  12.824 -0.0771 -0.1246 -0.4066
  167TMC2     C 2601   3.821   2.831  12.592 -0.0911  0.1256 -0.2777
  167TMC2     O 2602   3.766   2.941  12.589 -0.7528 -0.3498  0.4705
  167TMC2     H 2603   3.561   2.812  12.654 -0.8067 -0.7792 -0.7805
  167TMC2    H1 2604   3.946   2.631  12.705 -0.2877  0.3896 -1.9231
  167TMC2    H2 2605   3.624   2.471  12.910 -2.2466 -1.5109 -2.1903
  167TMC2    C7 2606   3.866   2.411  12.827 -0.2798  0.8674 -0.3125
  167TMC2    C8 2607   3.428   2.636  12.788  0.8858  0.0449  0.2888
  167TMC2    O1 2608   3.816   2.328  12.898  0.1287  0.1098  0.1697
  167TMC2    O2 2609   3.349   2.670  12.699  0.0195  0.1028  0.0847
  167TMC2    O5 2610   3.395   2.600  12.910  0.2916  0.4506  0.3092
  167TMC2    H5 2611   3.472   2.631  12.962  1.3791  1.1509 -1.6890
  168MPD2     C 2612   3.956   3.007  12.382  0.1187  0.8215 -0.2569
  168MPD2    C1 2613   3.990   2.875  12.409 -0.5781  0.1555 -0.3364
  168MPD2    C2 2614   4.104   2.834  12.350 -0.7639 -0.0220  0.2701
  168MPD2    C3 2615   4.175   2.901  12.256  0.1249 -0.5405  0.7902
  168MPD2    C4 2616   4.148   3.034  12.237  0.1767  0.1637 -0.1192
  168MPD2    C5 2617   4.034   3.082  12.304  0.2043 -0.0179  0.4260
  168MPD2     H 2618   4.138   2.734  12.376  0.2209  0.2873  0.1359
  168MPD2    H1 2619   4.203   3.096  12.167  1.8064 -0.1714  0.8751
  168MPD2    H2 2620   3.866   3.054  12.421 -0.3965  0.9505 -1.5992
  168MPD2    H3 2621   4.009   3.185  12.284  1.7836 -0.1233 -2.0765
  168MPD2     N 2622   4.289   2.851  12.190  0.8001 -0.4412  0.1510
  168MPD2    H5 2623   4.319   2.892  12.102  0.0260  2.2956  1.1926
  168MPD2    N1 2624   3.921   2.792  12.505 -0.5977 -0.9124  0.1400
  168MPD2    H7 2625   3.954   2.700  12.530  2.1350 -0.0155 -0.1423
  169MPD1     C 2626   2.478   2.733   8.870 -0.0637 -0.2521 -0.2433
  169MPD1    C1 2627   2.380   2.641   8.890  0.3858 -0.1124  0.3248
  169MPD1    C2 2628   2.369   2.588   9.016 -0.3377  0.3676  0.4938
  169MPD1    C3 2629   2.465   2.607   9.113  0.1736 -0.3687  1.0589
  169MPD1    C4 2630   2.556   2.706   9.099 -0.6363 -0.8457  0.7869
  169MPD1    C5 2631   2.561   2.764   8.971  0.3373 -0.4000  0.5392
  169MPD1     H 2632   2.291   2.515   9.035  0.6898 -0.2738  2.2185
  169MPD1    H1 2633   2.626   2.743   9.173 -0.7567  0.8714  0.0463
  169MPD1    H2 2634   2.492   2.776   8.771 -2.1725  0.4056 -0.2580
  169MPD1    H3 2635   2.634   2.843   8.959  0.1145 -0.4144 -0.9424
  169MPD1     N 2636   2.434   2.543   9.235 -0.0291  0.1292  0.2163
  169MPD1    H5 2637   2.353   2.481   9.224  0.8994 -0.5280 -2.7673
  169MPD1    N1 2638   2.302   2.599   8.779  0.4238 -0.5064 -0.1425
  169MPD1    H6 2639   2.212   2.566   8.814  0.6605  0.2793  1.1990
  169MPD1    H7 2640   2.278   2.674   8.715  0.2733 -1.2454 -0.9533
  170MPD1     C 2641   4.403   4.493  13.284 -0.2952  0.1427 -0.5000
  170MPD1    C1 2642   4.445   4.623  13.271 -0.0604 -0.6704 -0.3086
  170MPD1    C2 2643   4.529   4.683  13.365  0.9050  0.5303  0.1014
  170MPD1    C3 2644   4.580   4.610  13.471  0.4348  0.4051 -0.4901
  170MPD1    C4 2645   4.549   4.477  13.481 -0.1497 -0.3863  0.2048
  170MPD1    C5 2646   4.460   4.422  13.389  0.0963 -0.0216 -0.6191
  170MPD1     H 2647   4.567   0.044  13.347  0.6095  0.4036 -1.2985
  170MPD1    H1 2648   4.575   4.410  13.561 -0.4530 -1.1911 -0.3688
  170MPD1    H2 2649   4.328   4.445  13.223  0.1515 -0.9470 -0.1955
  170MPD1    H3 2650   4.422   4.320  13.393  1.6338 -0.5200  1.2722
  170MPD1     N 2651   4.673   4.678  13.557  0.5358  0.3019 -0.3065
  170MPD1    H5 2652   4.691   0.037  13.535  0.6770  0.3917  0.2195
  170MPD1    N1 2653   4.418   4.682  13.144 -0.2038  0.4622 -0.1275
  170MPD1    H6 2654   4.416   0.045  13.137 -0.4912  0.3461 -1.7291
  170MPD1    H7 2655   4.340   4.656  13.084  0.5521 -0.2248 -0.8158
  171MPD1     C 2656   3.244   1.239  15.524 -0.2205  0.5285 -0.9861
  171MPD1    C1 2657   3.291   1.262  15.654  0.6832 -0.4072  0.5906
  171MPD1    C2 2658   3.373   1.167  15.710 -0.2612 -0.0148  0.2402
  171MPD1    C3 2659   3.413   1.057  15.635  0.1250 -0.8904  0.4114
  171MPD1    C4 2660   3.358   1.035  15.507  0.0235  0.2560 -0.0436
  171MPD1    C5 2661   3.268   1.121  15.456 -0.5592 -0.3279  0.1877
  171MPD1     H 2662   3.427   1.184  15.802  0.4310  1.7291 -0.4963
  171MPD1    H1 2663   3.392   0.948  15.450 -0.9391  0.5499 -1.0672
  171MPD1    H2 2664   3.180   1.310  15.472 -0.7834  1.1375  0.5171
  171MPD1    H3 2665   3.220   1.095  15.362 -0.4942 -1.2930  0.4277
  171MPD1     N 2666   3.510   0.965  15.677  0.1238  0.3952  0.6124
  171MPD1    H5 2667   3.533   0.894  15.608  0.0373 -0.6395  1.6561
  171MPD1    N1 2668   3.274   1.387  15.716 -0.0980 -0.7628 -0.4439
  171MPD1    H6 2669   3.270   1.383  15.818  2.7504  0.0937 -0.2761
  171MPD1    H7 2670   3.195   1.447  15.693  0.4530  0.3536  0.5825
  172MPD1     C 2671   2.187   4.393  17.548 -0.5577 -0.0037 -0.3542
  172MPD1    C1 2672   2.199   4.503  17.628 -0.0842 -0.2682  0.5198
  172MPD1    C2 2673   2.328   4.558  17.649  0.4695 -0.4344  0.7975
  172MPD1    C3 2674   2.436   4.494  17.594  0.2690  0.2531  0.1152
  172MPD1    C4 2675   2.426   4.382  17.513  0.2002 -0.1837  0.0028
  172MPD1    C5 2676   2.301   4.345  17.484  0.6370  0.1253  0.1516
  172MPD1     H 2677   2.334   4.649  17.708 -0.1095 -0.2061  0.5055
  172MPD1    H1 2678   2.511   4.335  17.464 -0.9410 -0.1239 -2.0165
  172MPD1    H2 2679   2.091   4.360  17.510 -0.3700 -1.7380  0.6975
  172MPD1    H3 2680   2.286   4.268  17.409 -0.1479  0.1726  0.2603
  172MPD1     N 2681   2.574   4.535  17.622 -1.2735 -0.4171  0.0498
  172MPD1    H5 2682   2.640   4.482  17.566 -1.0744 -0.0349 -0.0708
  172MPD1    N1 2683   2.084   4.574  17.670  0.1992  0.2646  0.2643
  172MPD1    H6 2684   2.092   4.623   0.006  0.4065 -0.2033  0.5025
  172MPD1    H7 2685   1.996   4.523  17.671 -0.2606  1.0667  0.7187
  173MPD1     C 2686   3.794   0.390  14.067 -0.5456  0.6267  0.2019
  173MPD1    C1 2687   3.923   0.343  14.097 -0.1915 -0.1885 -0.3555
  173MPD1    C2 2688   3.932   0.226  14.173  0.9167 -0.4761  0.2215
  173MPD1    C3 2689   3.815   0.152  14.198 -0.3804  0.0643  0.0281
  173MPD1    C4 2690   3.693   0.194  14.159  0.7157  1.0340  0.4014
  173MPD1    C5 2691   3.680   0.307  14.088  0.1381  0.3377  0.4138
  173MPD1     H 2692   4.029   0.191  14.205  0.8539  0.8199  1.8438
  173MPD1    H1 2693   3.603   0.140  14.185  0.2672  1.3074 -0.5901
  173MPD1    H2 2694   3.780   0.490  14.028 -0.3452 -0.4564 -2.6323
  173MPD1    H3 2695   3.581   0.341  14.060  0.2114  0.3248  0.1388
  173MPD1     N 2696   3.839   0.026  14.263  0.4333 -0.5466  0.0827
  173MPD1    H5 2697   3.938   0.001  14.265  1.0123  1.7047 -0.4043
  173MPD1    N1 2698   4.024   0.435  14.075  0.3634 -0.1018 -0.2854
  173MPD1    H6 2699   4.114   0.394  14.050 -0.3956 -0.9165 -1.6840
  173MPD1    H7 2700   3.997   0.491  13.994  0.7918  1.5783  0.7352
  174MPD1     C 2701   4.542   4.160  14.585 -0.4414  0.3203  0.8494
  174MPD1    C1 2702   4.516   4.296  14.590  0.0555 -0.1645  0.2927
  174MPD1    C2 2703   4.388   4.336  14.581  1.1741  0.3525  0.5293
  174MPD1    C3 2704   4.287   4.255  14.536  0.4565  0.4797  0.7473
  174MPD1    C4 2705   4.309   4.122  14.529 -0.1367 -0.3276 -0.1160
  174MPD1    C5 2706   4.436   4.079  14.553 -0.3400 -0.0329  0.4337
  174MPD1     H 2707   4.366   4.442  14.585  0.6008  0.2282  0.6371
  174MPD1    H1 2708   4.230   4.049  14.512 -0.0983 -0.6326  1.0038
  174MPD1    H2 2709   4.639   4.125  14.615 -0.5699 -0.9042 -0.1954
  174MPD1    H3 2710   4.454   3.972  14.543 -0.4861 -0.0331  0.1751
  174MPD1     N 2711   4.158   4.294  14.498 -0.4795 -0.2563  0.6665
  174MPD1    H5 2712   4.090   4.226  14.467 -0.6671 -0.4410  1.4766
  174MPD1    N1 2713   4.616   4.383  14.634  0.5026 -0.4444  0.0179
  174MPD1    H6 2714   4.704   4.350  14.594 -1.1360 -3.4926 -1.0629
  174MPD1    H7 2715   4.601   4.482  14.616 -0.9547 -0.5754  0.4836
  175MPD1     C 2716   3.176   0.860  15.109  0.0736 -0.4329  0.4215
  175MPD1    C1 2717   3.072   0.949  15.094  0.6238 -0.0941  0.2066
  175MPD1    C2 2718   2.996   0.986  15.203 -0.3759 -0.0438 -0.6095
  175MPD1    C3 2719   3.013   0.914  15.324 -0.7143 -0.2740 -0.1946
  175MPD1    C4 2720   3.100   0.809  15.324  0.0251  0.6629  0.5888
  175MPD1    C5 2721   3.185   0.787  15.220  0.1493 -0.4039  0.4476
  175MPD1     H 2722   2.920   1.063  15.198 -1.5491 -1.2377 -1.1716
  175MPD1    H1 2723   3.115   0.751  15.414 -0.3800 -2.2340 -1.1898
  175MPD1    H2 2724   3.249   0.835  15.033  0.6222  1.6295  0.2632
  175MPD1    H3 2725   3.269   0.721  15.239  1.4985  1.3792  0.6427
  175MPD1     N 2726   2.945   0.946  15.444  0.1910  0.3262  0.3905
  175MPD1    H5 2727   2.947   0.880  15.520 -0.9671  0.1448  0.2664
  175MPD1    N1 2728   3.065   1.038  14.983 -0.1610  0.1040  0.1311
  175MPD1    H6 2729   3.064   0.982  14.897  1.1468  0.1108  0.1074
  175MPD1    H7 2730   2.981   1.095  14.984  1.1924  2.0516  0.9318
  176MPD1     C 2731   0.011   2.487  17.087 -0.0029  0.0992  0.4935
  176MPD1    C1 2732   4.700   2.472  17.222 -0.0497  0.3506 -0.0430
  176MPD1    C2 2733   4.661   2.587  17.285 -0.3000 -0.1135  0.8055
  176MPD1    C3 2734   4.642   2.705  17.215  0.4527  0.4375  0.2286
  176MPD1    C4 2735   4.683   2.718  17.084  0.6515 -0.6717  0.0695
  176MPD1    C5 2736   0.001   2.606  17.025 -0.1003 -0.0480 -0.0632
  176MPD1     H 2737   4.629   2.574  17.387 -1.8583  0.8153  0.4246
  176MPD1    H1 2738   4.662   2.807  17.026 -0.5482 -0.6017  0.6095
  176MPD1    H2 2739   0.063   2.404  17.041  0.2037  0.5279 -0.0467
  176MPD1    H3 2740   0.031   2.618  16.921  2.1948 -1.5281  0.4182
  176MPD1     N 2741   4.589   2.815  17.288  0.3801 -0.1748 -0.4226
  176MPD1    H5 2742   4.560   2.793  17.383  0.3211 -0.1185 -0.4278
  176MPD1    N1 2743   4.723   2.352  17.298 -0.0088  0.8842  0.2427
  176MPD1    H6 2744   4.655   2.355  17.374 -0.6562  2.2175 -0.3940
  176MPD1    H7 2745   4.695   2.274  17.240  0.6533  1.1055 -0.3625
  177MPD1     C 2746   2.517   2.515  10.702  0.2442 -0.7362  0.6417
  177MPD1    C1 2747   2.481   2.453  10.588  0.2459 -0.6123  0.3756
  177MPD1    C2 2748   2.496   2.524  10.469  0.0052  0.3075 -0.1936
  177MPD1    C3 2749   2.558   2.645  10.468  0.5692 -0.1246  0.5516
  177MPD1    C4 2750   2.580   2.706  10.584 -0.3736  0.2946  0.2712
  177MPD1    C5 2751   2.562   2.640  10.707 -0.4102  1.2956  0.7278
  177MPD1     H 2752   2.481   2.465  10.379 -2.4176  1.9545 -0.8793
  177MPD1    H1 2753   2.613   2.809  10.589  0.7507 -0.0865  0.7229
  177MPD1    H2 2754   2.494   2.473  10.800  2.4083 -0.2983  1.3594
  177MPD1    H3 2755   2.570   2.683  10.806 -0.4285 -2.2036  2.2799
  177MPD1     N 2756   2.579   2.715  10.345  0.0068 -0.1274  0.2216
  177MPD1    H5 2757   2.541   2.669  10.263  0.1278  0.0093  0.0872
  177MPD1    N1 2758   2.460   2.315  10.586  0.5041 -0.3085  0.4123
  177MPD1    H6 2759   2.445   2.280  10.680 -1.6408 -1.4338 -0.3402
  177MPD1    H7 2760   2.389   2.279  10.521  2.5364  0.6000 -2.3186
  178MPD1     C 2761   4.677   3.810   0.025  0.1807 -0.3552  0.1964
  178MPD1    C1 2762   4.605   3.733  17.689 -1.0287  0.5292 -0.1135
  178MPD1    C2 2763   4.678   3.652  17.602  0.0423 -0.0309 -0.2450
  178MPD1    C3 2764   0.077   3.635  17.617 -0.3426  1.0912 -0.2720
  178MPD1    C4 2765   0.142   3.712  17.709 -0.7715 -0.6029  0.3492
  178MPD1    C5 2766   0.074   3.801   0.034 -0.6211 -0.2794 -0.1666
  178MPD1     H 2767   4.621   3.581  17.543  1.4456 -0.6119 -0.9229
  178MPD1    H1 2768   0.251   3.713  17.709 -0.7643 -1.2347  1.1374
  178MPD1    H2 2769   4.631   3.887   0.086 -0.3595 -0.5671  0.0601
  178MPD1    H3 2770   0.123   3.871   0.101  1.9297 -0.2282 -2.1140
  178MPD1     N 2771   0.159   3.550  17.536  0.1325  0.8018 -0.4814
  178MPD1    H5 2772   0.260   3.553  17.551 -0.5678 -1.0073  4.5213
  178MPD1    N1 2773   4.465   3.758  17.666  0.0688  0.4878  0.4767
  178MPD1    H6 2774   4.437   3.810  17.749 -0.8152  0.6967  0.0539
  178MPD1    H7 2775   4.415   3.672  17.643  0.1824 -0.4682  3.8222
  179MPD1     C 2776   0.011   2.181  15.240  0.0249 -0.3660  0.1464
  179MPD1    C1 2777   0.053   2.178  15.370 -0.5143 -0.3798 -0.0897
  179MPD1    C2 2778   0.013   2.066  15.447  0.4757  0.0910 -0.2502
  179MPD1    C3 2779   4.662   1.975  15.400  0.7292  0.1433  0.2082
  179MPD1    C4 2780   4.605   1.995  15.277 -0.3380  0.3603 -0.0964
  179MPD1    C5 2781   4.663   2.089  15.191 -0.3354  0.3884 -0.1113
  179MPD1     H 2782   0.056   2.059  15.547  0.9782 -2.4308 -0.6560
  179MPD1    H1 2783   4.535   1.920  15.241  2.0356 -1.4600 -0.9274
  179MPD1    H2 2784   0.041   2.269  15.184  1.2014 -0.9571 -0.1335
  179MPD1    H3 2785   4.634   2.103  15.088  2.6137 -0.7993 -1.1062
  179MPD1     N 2786   4.620   1.862  15.475  0.6874 -0.3801  0.0471
  179MPD1    H5 2787   4.550   1.803  15.432  2.3106 -0.2509 -2.8098
  179MPD1    N1 2788   0.151   2.268  15.416 -0.6416  0.8064  0.6597
  179MPD1    H6 2789   0.158   2.289  15.515 -0.4245  0.9980  0.6021
  179MPD1    H7 2790   0.160   2.354  15.362 -0.2869 -0.1663 -0.8593
  180MPD1     C 2791   3.587   3.678  14.453 -0.0757  0.1207  0.1026
  180MPD1    C1 2792   3.642   3.556  14.485 -0.2575  0.1656 -0.6574
  180MPD1    C2 2793   3.722   3.499  14.393 -0.4353  0.8051 -0.1832
  180MPD1    C3 2794   3.745   3.545  14.270 -0.2169  0.2926 -0.9141
  180MPD1    C4 2795   3.687   3.665  14.233  0.1907  0.3309  0.2450
  180MPD1    C5 2796   3.613   3.730  14.326 -1.0278 -0.1932 -0.2442
  180MPD1     H 2797   3.764   3.400  14.413 -1.5382  0.5882  1.0409
  180MPD1    H1 2798   3.702   3.701  14.132  0.8997 -0.7673 -0.0497
  180MPD1    H2 2799   3.539   3.731  14.535  1.0510  0.1782  0.7341
  180MPD1    H3 2800   3.581   3.829  14.292  1.8661  0.7586 -0.1526
  180MPD1     N 2801   3.820   3.465  14.185 -0.5042  0.4031 -0.1447
  180MPD1    H5 2802   3.851   3.375  14.221 -2.5005  0.0459  0.6929
  180MPD1    N1 2803   3.657   3.521  14.623 -0.0348  0.3096  0.5383
  180MPD1    H6 2804   3.569   3.519  14.674 -0.6672 -0.7429 -0.6097
  180MPD1    H7 2805   3.696   3.428  14.621 -0.9373 -0.0602 -0.1069
  181MPD1     C 2806   1.245   0.444  10.700  0.1628  0.7845  0.4584
  181MPD1    C1 2807   1.322   0.552  10.743  0.8965 -0.0865 -0.4344
  181MPD1    C2 2808   1.406   0.615  10.649  0.2316  0.1038  0.0511
  181MPD1    C3 2809   1.394   0.578  10.514  0.3789  0.6021 -0.5787
  181MPD1    C4 2810   1.317   0.472  10.482  0.0470  0.4248  0.0559
  181MPD1    C5 2811   1.246   0.401  10.570  0.0920  0.3209  0.0693
  181MPD1     H 2812   1.463   0.705  10.671  0.7548 -0.2004 -0.0611
  181MPD1    H1 2813   1.315   0.453  10.375 -0.1262  1.7826 -0.1925
  181MPD1    H2 2814   1.182   0.384  10.764  0.5047  0.6606  0.6809
  181MPD1    H3 2815   1.176   0.326  10.536  0.3684 -0.3307  0.9350
  181MPD1     N 2816   1.460   0.646  10.404  0.6360  0.4644  0.3113
  181MPD1    H5 2817   1.434   0.623  10.309  0.2963  0.2304  0.4578
  181MPD1    N1 2818   1.308   0.595  10.873  0.4315  0.5891  0.2095
  181MPD1    H6 2819   1.225   0.560  10.920  1.0483 -1.6781 -0.4216
  181MPD1    H7 2820   1.326   0.696  10.872 -2.0480  1.0174  0.4102
  182MPD1     C 2821   2.112   3.801   0.411 -0.2706  0.6619 -0.1322
  182MPD1    C1 2822   2.222   3.720   0.390 -0.4501 -0.2447 -0.7221
  182MPD1    C2 2823   2.342   3.785   0.355 -0.1213 -0.1409  0.3130
  182MPD1    C3 2824   2.357   3.919   0.374 -0.1431 -0.3412  0.2280
  182MPD1    C4 2825   2.249   3.997   0.407  0.3547  0.4592  0.1671
  182MPD1    C5 2826   2.126   3.933   0.424  0.0759  0.3702  0.3407
  182MPD1     H 2827   2.428   3.733   0.314  0.3273  0.5734  0.3481
  182MPD1    H1 2828   2.250   4.104   0.420 -0.7977  0.6337 -1.1752
  182MPD1    H2 2829   2.014   3.754   0.414  0.4165 -0.9244 -2.6698
  182MPD1    H3 2830   2.037   3.991   0.449 -0.9661 -1.8964  1.8405
  182MPD1     N 2831   2.472   4.000   0.344  0.4599 -0.0070 -0.3220
  182MPD1    H5 2832   2.451   4.099   0.335  1.9891  0.3389 -0.0283
  182MPD1    N1 2833   2.208   3.580   0.362  0.1366  0.1252  0.3175
  182MPD1    H6 2834   2.140   3.536   0.424  0.2817  0.2746  0.5849
  182MPD1    H7 2835   2.292   3.523   0.361 -0.8226 -1.2897  0.0740
  183MPD1     C 2836   2.878   4.154   9.096  0.3183  1.1835  0.1068
  183MPD1    C1 2837   2.926   4.230   9.196 -0.3196 -0.1014 -0.4955
  183MPD1    C2 2838   2.848   4.318   9.264  0.6651 -0.3558 -0.2470
  183MPD1    C3 2839   2.714   4.331   9.232  0.3478  0.6524 -0.0176
  183MPD1    C4 2840   2.661   4.250   9.132  0.1801 -0.4241  0.1995
  183MPD1    C5 2841   2.745   4.167   9.067 -0.6978 -0.0167 -0.7811
  183MPD1     H 2842   2.893   4.378   9.343  0.7469  0.0044 -0.5668
  183MPD1    H1 2843   2.554   4.253   9.112  0.0363  0.0570  1.0260
  183MPD1    H2 2844   2.943   4.091   9.037  0.0847  0.3509  0.7330
  183MPD1    H3 2845   2.707   4.112   8.982  0.1235 -1.0587 -0.4852
  183MPD1     N 2846   2.643   4.423   9.312 -1.1311 -0.0514 -0.4810
  183MPD1    H5 2847   2.696   4.468   9.385 -0.5058  0.5606 -1.3222
  183MPD1    N1 2848   3.064   4.230   9.215 -0.2565 -0.1240  0.1805
  183MPD1    H6 2849   3.099   4.272   9.302  0.7597  0.8768 -0.7145
  183MPD1    H7 2850   3.122   4.150   9.192  1.1997  0.6308  1.2195
  184MPD1     C 2851   1.647   2.609  10.199 -0.0981  0.1944  0.0287
  184MPD1    C1 2852   1.770   2.644  10.247  0.8757 -0.9784  0.2556
  184MPD1    C2 2853   1.849   2.723  10.168  0.4880  0.0592  0.2862
  184MPD1    C3 2854   1.806   2.765  10.043 -0.3623  0.0251  0.6794
  184MPD1    C4 2855   1.676   2.744  10.008  0.3392  0.1275  0.1304
  184MPD1    C5 2856   1.592   2.661  10.083 -0.6809  0.5787  0.5261
  184MPD1     H 2857   1.946   2.751  10.206 -0.0360  0.2850  1.4573
  184MPD1    H1 2858   1.641   2.780   9.912 -1.4934 -1.2597  0.2989
  184MPD1    H2 2859   1.582   2.549  10.261 -1.7833  2.3527  0.3307
  184MPD1    H3 2860   1.492   2.629  10.057  0.0352 -1.0858 -0.1948
  184MPD1     N 2861   1.893   2.839   9.957  1.1507  0.2951 -0.4347
  184MPD1    H5 2862   1.847   2.873   9.874 -0.9089  0.7537  0.8962
  184MPD1    N1 2863   1.818   2.592  10.370 -0.2134  0.1837  0.3988
  184MPD1    H6 2864   1.901   2.638  10.407  0.9776 -0.4704 -1.5013
  184MPD1    H7 2865   1.745   2.595  10.441  1.1319 -1.3010  1.8456
  185MPD1     C 2866   1.754   3.216   9.101  0.4270 -0.3095 -0.1783
  185MPD1    C1 2867   1.751   3.085   9.143 -1.1322 -0.6437 -0.0522
  185MPD1    C2 2868   1.836   3.055   9.247  0.4389  0.3391  0.8390
  185MPD1    C3 2869   1.912   3.150   9.317  0.0161 -0.1855 -0.7779
  185MPD1    C4 2870   1.914   3.283   9.269 -0.1505 -0.0826 -0.1565
  185MPD1    C5 2871   1.828   3.313   9.168  0.2850 -0.2978 -0.0553
  185MPD1     H 2872   1.831   2.950   9.275 -0.8350  0.0533 -0.5148
  185MPD1    H1 2873   1.976   3.361   9.312 -0.3047 -0.8744  1.4920
  185MPD1    H2 2874   1.703   3.249   9.011 -0.1770 -2.2637 -0.5517
  185MPD1    H3 2875   1.826   3.414   9.128 -2.9190  1.3980  4.3124
  185MPD1     N 2876   1.983   3.134   9.446 -0.4096 -0.2754 -0.5854
  185MPD1    H5 2877   2.023   3.218   9.487  0.4716 -0.1522 -1.6753
  185MPD1    N1 2878   1.687   2.991   9.060 -0.3969  0.5727 -0.0010
  185MPD1    H6 2879   1.662   2.911   9.117  0.9148  0.4322  0.3775
  185MPD1    H7 2880   1.617   3.036   9.001 -0.6400  2.1140  1.4645
  186MPD1     C 2881   0.721   1.773  15.663  0.4427  0.1211 -0.0604
  186MPD1    C1 2882   0.635   1.716  15.746 -0.8097 -0.4380 -0.1643
  186MPD1    C2 2883   0.571   1.782  15.846 -0.1203 -0.6130  0.0803
  186MPD1    C3 2884   0.606   1.916  15.864  0.9239  0.6981  0.6078
  186MPD1    C4 2885   0.686   1.980  15.778  0.4911 -0.0621 -0.3288
  186MPD1    C5 2886   0.749   1.906  15.682 -0.7459 -0.2810 -0.3385
  186MPD1     H 2887   0.486   1.740  15.899 -1.1735  3.0970  1.3056
  186MPD1    H1 2888   0.724   2.081  15.783  0.9609 -0.1587 -1.9822
  186MPD1    H2 2889   0.766   1.720  15.580  1.5157 -1.9158  1.8286
  186MPD1    H3 2890   0.823   1.968  15.634  1.3893 -2.1422  0.5711
  186MPD1     N 2891   0.550   2.007  15.953  0.5969  0.5497  1.1417
  186MPD1    H5 2892   0.570   2.106  15.948  0.4814  0.4335 -1.3110
  186MPD1    N1 2893   0.606   1.580  15.733 -0.3408 -0.1084 -0.0235
  186MPD1    H6 2894   0.610   1.548  15.636  0.2651  2.2491 -0.7759
  186MPD1    H7 2895   0.514   1.554  15.768 -0.2482  0.2532  0.4789
  187MPD1     C 2896   0.429   3.886  17.430  0.3310  0.0224  0.5307
  187MPD1    C1 2897   0.331   3.924  17.521  0.1509 -0.1577  0.0218
  187MPD1    C2 2898   0.209   3.979  17.477  0.1335  0.1296  0.7984
  187MPD1    C3 2899   0.187   3.978  17.337 -0.5066 -0.3178 -0.4904
  187MPD1    C4 2900   0.280   3.934  17.250 -0.3681 -0.3559 -0.1863
  187MPD1    C5 2901   0.404   3.879  17.289  0.1501  0.2662 -0.5337
  187MPD1     H 2902   0.137   4.030  17.539  0.5811  1.4012  0.2733
  187MPD1    H1 2903   0.267   3.942  17.142 -3.0504 -2.2861  0.0144
  187MPD1    H2 2904   0.530   3.854  17.453  0.5407  0.7158  0.5731
  187MPD1    H3 2905   0.476   3.844  17.215  3.2420  0.3634  2.4571
  187MPD1     N 2906   0.077   4.047  17.275  0.3368  0.4857  0.4348
  187MPD1    H5 2907   0.095   4.065  17.177  1.0905 -2.6884 -0.0111
  187MPD1    N1 2908   0.365   3.943  17.660  0.0875  0.3002  0.2736
  187MPD1    H6 2909   0.285   3.955  17.722 -0.1771 -0.4664  0.0797
  187MPD1    H7 2910   0.439   3.879  17.686 -0.0568  0.7789  1.8306
  188MPD1     C 2911   4.452   4.588  10.703  0.9952 -0.3441  0.8208
  188MPD1    C1 2912   4.490   4.486  10.793 -0.7204 -0.0292  0.1244
  188MPD1    C2 2913   4.484   4.353  10.745  0.4513 -0.4580 -0.3135
  188MPD1    C3 2914   4.464   4.328  10.609  0.2883 -0.3910  0.8057
  188MPD1    C4 2915   4.465   4.431  10.519  0.1334 -0.4716  0.6876
  188MPD1    C5 2916   4.440   4.559  10.565  0.3571 -0.0318 -0.1251
  188MPD1     H 2917   4.496   4.268  10.811 -0.6555 -1.9732 -2.0652
  188MPD1    H1 2918   4.442   4.421  10.413  0.0342 -1.4235  0.7968
  188MPD1    H2 2919   4.455   4.690  10.740  0.2157 -0.0551  0.0794
  188MPD1    H3 2920   4.402   4.627  10.490  1.1384 -1.3637 -1.7211
  188MPD1     N 2921   4.465   4.198  10.549 -0.5009  0.3561 -0.0649
  188MPD1    H5 2922   4.436   4.190  10.452 -0.2747 -0.9914 -0.0220
  188MPD1    N1 2923   4.519   4.508  10.932 -0.0177  0.2070  0.3422
  188MPD1    H6 2924   4.564   4.422  10.963  0.3517 -0.4236 -1.9125
  188MPD1    H7 2925   4.573   4.592  10.950 -0.1651 -0.0348  1.8687
  189MPD1     C 2926   1.641   0.238  17.216  0.6383 -0.4516  0.1253
  189MPD1    C1 2927   1.520   0.170  17.231  0.3561 -0.3058 -0.5679
  189MPD1    C2 2928   1.423   0.236  17.308 -0.7946 -0.3437 -0.5398
  189MPD1    C3 2929   1.449   0.345  17.390  0.2916  0.8461  0.1131
  189MPD1    C4 2930   1.575   0.401  17.381  0.5485 -0.1058  0.0723
  189MPD1    C5 2931   1.666   0.353  17.288 -0.3824 -0.0291  0.0301
  189MPD1     H 2932   1.321   0.200  17.300 -1.5129  0.9658  2.4731
  189MPD1    H1 2933   1.601   0.483  17.447 -0.4598  0.6078 -0.4228
  189MPD1    H2 2934   1.709   0.213  17.135  0.9715  0.1071  0.2273
  189MPD1    H3 2935   1.759   0.404  17.264 -0.8247 -0.4195 -2.5791
  189MPD1     N 2936   1.353   0.392  17.474 -0.5073  0.2300 -0.4257
  189MPD1    H5 2937   1.271   0.333  17.485  0.6221 -0.8895  2.1696
  189MPD1    N1 2938   1.482   0.058  17.156  0.0349 -0.0611  0.0932
  189MPD1    H6 2939   1.404   0.000  17.189  0.5944 -1.1523 -0.5014
  189MPD1    H7 2940   1.565   0.000  17.143 -0.3494 -0.9418  1.4922
  190MPD1     C 2941   4.146   2.779  16.016  0.7953 -0.1244 -0.4653
  190MPD1    C1 2942   4.148   2.913  16.039  0.1874 -0.2759 -0.7919
  190MPD1    C2 2943   4.257   2.989  15.995  0.2907 -0.7155 -0.3293
  190MPD1    C3 2944   4.371   2.923  15.940  0.2130 -0.5459 -0.3787
  190MPD1    C4 2945   4.358   2.790  15.915 -0.4601  0.9269 -0.1987
  190MPD1    C5 2946   4.252   2.720  15.956  0.5010 -0.3163  0.0942
  190MPD1     H 2947   4.260   3.096  16.005  2.2446 -0.8574  0.5170
  190MPD1    H1 2948   4.428   2.726  15.863  0.5553  1.6743  0.2537
  190MPD1    H2 2949   4.061   2.716  16.038  0.8704  0.1514  0.6238
  190MPD1    H3 2950   4.253   2.613  15.938  0.1074  0.2021 -3.0409
  190MPD1     N 2951   4.469   3.009  15.896  0.1155  0.0693 -1.1682
  190MPD1    H5 2952   4.463   3.107  15.924 -1.8519 -0.4319  0.0859
  190MPD1    N1 2953   4.033   2.975  16.083 -0.4330 -0.0864 -0.0970
  190MPD1    H6 2954   3.986   2.907  16.143  0.1529 -0.1203  0.3259
  190MPD1    H7 2955   4.067   3.052  16.141  1.1106 -0.4156 -0.5694
  191MPD1     C 2956   4.298   4.239  12.938  0.0882  0.1954  0.2705
  191MPD1    C1 2957   4.161   4.229  12.930 -0.7255 -0.5078 -0.3972
  191MPD1    C2 2958   4.094   4.348  12.901 -1.0203  0.1325 -0.9692
  191MPD1    C3 2959   4.154   4.469  12.882  0.3190  0.2602  0.0711
  191MPD1    C4 2960   4.296   4.472  12.878  0.2051 -0.5013  0.0604
  191MPD1    C5 2961   4.358   4.359  12.913 -0.4368 -0.0845  0.4631
  191MPD1     H 2962   3.986   4.359  12.899 -1.1517 -0.5544  2.0122
  191MPD1    H1 2963   4.354   4.563  12.874  1.9226 -1.5644  0.7715
  191MPD1    H2 2964   4.365   4.160  12.970  0.3855  0.5110  0.4225
  191MPD1    H3 2965   4.467   4.363  12.914 -0.3706 -1.8538 -0.5235
  191MPD1     N 2966   4.075   4.583  12.855 -0.4665 -0.1453 -0.5110
  191MPD1    H5 2967   3.975   4.571  12.867 -0.5125  1.4969  0.7012
  191MPD1    N1 2968   4.093   4.128  12.996 -0.1162  0.2246 -0.9433
  191MPD1    H6 2969   4.144   4.040  12.985 -1.8254 -1.3441  3.4909
  191MPD1    H7 2970   3.992   4.121  12.980 -0.1466 -1.0227 -0.2466
  192MPD1     C 2971   3.234   4.551  12.942  0.2305  0.3178  0.0079
  192MPD1    C1 2972   3.244   4.664  12.864 -0.5842  0.1990  0.3405
  192MPD1    C2 2973   3.367   4.731  12.845 -0.8992  0.0524  0.3839
  192MPD1    C3 2974   3.485   4.667  12.872  0.2377  0.3275  0.1002
  192MPD1    C4 2975   3.476   4.542  12.926 -0.5689 -0.4796  0.4541
  192MPD1    C5 2976   3.353   4.490  12.969 -0.2998 -0.8837 -0.5675
  192MPD1     H 2977   3.370   0.090  12.797 -1.8248 -0.0782  0.0729
  192MPD1    H1 2978   3.563   4.480  12.945  0.7686  1.4408  0.5802
  192MPD1    H2 2979   3.139   4.501  12.959 -0.2541  1.4765  0.7655
  192MPD1    H3 2980   3.344   4.390  13.011  0.3287 -0.9220 -0.5193
  192MPD1     N 2981   3.618   4.728  12.843 -0.5264  0.0624 -0.4008
  192MPD1    H5 2982   3.699   4.674  12.872  0.5558  1.7112 -0.4140
  192MPD1    N1 2983   3.122   4.734  12.834  0.2063 -0.2059 -0.2002
  192MPD1    H6 2984   3.131   0.041  12.744  1.2412 -1.4972 -0.7569
  192MPD1    H7 2985   3.038   4.676  12.833  0.9759 -1.3279  0.5501
  193MPD1     C 2986   3.562   0.686  16.199  0.2889  0.0841  0.3956
  193MPD1    C1 2987   3.612   0.573  16.251  0.5061 -0.1608  0.9813
  193MPD1    C2 2988   3.727   0.582  16.322  0.0191  0.5860  0.3262
  193MPD1    C3 2989   3.773   0.708  16.368 -0.0220 -0.1941  0.1947
  193MPD1    C4 2990   3.706   0.823  16.327  0.3622 -0.1723  0.4101
  193MPD1    C5 2991   3.605   0.809  16.234 -0.2019  0.2790  0.0355
  193MPD1     H 2992   3.780   0.490  16.343 -0.4817 -0.2819 -2.2711
  193MPD1    H1 2993   3.736   0.921  16.363 -0.3775  0.1036  0.2647
  193MPD1    H2 2994   3.492   0.680  16.116 -0.7436  1.8412  1.1278
  193MPD1    H3 2995   3.566   0.897  16.184  1.6859  1.6857  1.0144
  193MPD1     N 2996   3.876   0.730  16.454  0.0231  0.1442  0.2830
  193MPD1    H5 2997   3.891   0.825  16.486  1.4438 -0.4568  1.3929
  193MPD1    N1 2998   3.571   0.446  16.201  0.0905  0.3026  0.0720
  193MPD1    H6 2999   3.470   0.446  16.183  0.2731  2.4953 -0.9189
  193MPD1    H7 3000   3.593   0.365  16.259  0.3937  0.0492 -0.4054
  194MPD1     C 3001   1.230   2.920  16.650 -0.0014  0.1739 -0.1142
  194MPD1    C1 3002   1.313   2.940  16.763 -0.3324  0.0032  0.4025
  194MPD1    C2 3003   1.375   2.828  16.817  0.4422  0.7643  0.0688
  194MPD1    C3 3004   1.353   2.700  16.760  0.0663  1.1106 -0.2581
  194MPD1    C4 3005   1.265   2.693  16.645 -0.1454 -0.1585 -0.4675
  194MPD1    C5 3006   1.195   2.800  16.596  0.2607  0.0683  0.1727
  194MPD1     H 3007   1.446   2.841  16.897  0.6292  2.0421 -0.3186
  194MPD1    H1 3008   1.247   2.603  16.587  1.9345 -0.9501  0.0807
  194MPD1    H2 3009   1.193   3.012  16.606  0.2735  0.5755  0.4923
  194MPD1    H3 3010   1.128   2.788  16.511 -0.6171 -0.4735  0.9465
  194MPD1     N 3011   1.434   2.581  16.791  0.1416  0.5201 -0.1477
  194MPD1    H5 3012   1.420   2.499  16.732  0.5711 -0.2656  0.8497
  194MPD1    N1 3013   1.316   3.071  16.826  0.0266 -0.1837  0.4708
  194MPD1    H6 3014   1.402   3.093  16.877  1.3769 -0.7436 -1.5442
  194MPD1    H7 3015   1.294   3.146  16.761 -1.3089 -0.4688  0.5993
  195MPD1     C 3016   4.558   3.996   1.220 -0.1243 -0.5588  0.1916
  195MPD1    C1 3017   4.427   4.000   1.186  0.0436 -0.0983  0.5450
  195MPD1    C2 3018   4.389   3.987   1.052 -0.5128  0.5328 -0.1048
  195MPD1    C3 3019   4.485   3.985   0.953  0.3955 -0.5536 -0.7810
  195MPD1    C4 3020   4.620   3.983   0.987 -0.5215  0.0633 -0.0837
  195MPD1    C5 3021   4.651   3.992   1.118 -0.2362  0.0093 -0.7355
  195MPD1     H 3022   4.285   3.974   1.024 -1.5482  3.5971  2.3785
  195MPD1    H1 3023   4.698   3.984   0.912 -0.9132  0.5667 -0.4897
  195MPD1    H2 3024   4.604   4.008   1.318  0.5182  1.4070 -0.3509
  195MPD1    H3 3025   0.018   3.994   1.140 -0.4911 -0.0690  0.4866
  195MPD1     N 3026   4.459   3.967   0.814 -0.8965  0.2752  0.3394
  195MPD1    H5 3027   4.541   3.939   0.761 -2.4071  0.7054 -2.1757
  195MPD1    N1 3028   4.330   4.000   1.287  0.5497  0.0192  0.1206
  195MPD1    H6 3029   4.360   4.018   1.382  1.5721 -0.5536 -0.0900
  195MPD1    H7 3030   4.243   4.047   1.262  0.5824 -0.7687 -1.5186
  196MPD1     C 3031   3.263   2.888   0.315 -0.3560 -0.1903  0.1134
  196MPD1    C1 3032   3.355   2.919   0.415 -0.6099 -0.0338  0.0819
  196MPD1    C2 3033   3.334   3.038   0.482  0.1148 -0.1643 -0.4538
  196MPD1    C3 3034   3.244   3.137   0.437 -0.1602  0.0944  0.1762
  196MPD1    C4 3035   3.172   3.108   0.326  0.2243  0.0330  1.0839
  196MPD1    C5 3036   3.185   2.984   0.258 -0.3999  0.0679 -0.3891
  196MPD1     H 3037   3.395   3.057   0.570  1.0724  2.1839 -1.6211
  196MPD1    H1 3038   3.102   3.178   0.281  1.5864  0.5242 -0.2769
  196MPD1    H2 3039   3.264   2.789   0.270  0.1598  0.1226 -0.5685
  196MPD1    H3 3040   3.118   2.969   0.174 -1.9745 -0.6595  1.0044
  196MPD1     N 3041   3.218   3.256   0.504 -0.2370 -0.3160  0.3480
  196MPD1    H5 3042   3.128   3.301   0.494  0.4503  1.1953  0.9486
  196MPD1    N1 3043   3.451   2.822   0.460 -0.1216 -0.2928  0.0916
  196MPD1    H6 3044   3.541   2.860   0.488  0.5601 -1.9243  0.0714
  196MPD1    H7 3045   3.459   2.746   0.393  0.4268 -1.3800  1.3955
  197MPD1     C 3046   2.064   1.782  17.215 -0.3758  0.2891 -0.3460
  197MPD1    C1 3047   2.098   1.899  17.161  0.3445 -0.0961 -0.6985
  197MPD1    C2 3048   2.226   1.909  17.111 -0.2325  0.1148  0.2362
  197MPD1    C3 3049   2.325   1.814  17.148 -0.3254 -0.1731  0.4140
  197MPD1    C4 3050   2.293   1.704  17.227 -0.3244 -0.5160  0.9130
  197MPD1    C5 3051   2.157   1.690  17.244  0.5328  0.2429  0.2146
  197MPD1     H 3052   2.260   1.989  17.046  0.6752 -1.1899 -0.8954
  197MPD1    H1 3053   2.366   1.630  17.256 -0.0041 -0.4635  0.2391
  197MPD1    H2 3054   1.961   1.775  17.247 -0.0768 -0.0805  0.5184
  197MPD1    H3 3055   2.120   1.604  17.298 -1.8580 -0.1097 -1.9560
  197MPD1     N 3056   2.458   1.811  17.096  0.2953 -0.1118  0.9150
  197MPD1    H5 3057   2.522   1.738  17.124  2.7486  1.5162 -0.5053
  197MPD1    N1 3058   1.999   1.994  17.110 -0.0069  0.4012  0.3706
  197MPD1    H6 3059   2.044   2.086  17.113 -1.5211  1.1508 -0.0093
  197MPD1    H7 3060   1.911   1.995  17.161  0.9131 -0.9910  1.9863
  198MPD1     C 3061   3.876   4.457  15.331 -0.6630 -0.3425  0.0854
  198MPD1    C1 3062   3.962   4.506  15.429 -0.2396 -0.0569 -0.1375
  198MPD1    C2 3063   4.073   4.434  15.467  0.9005 -0.2161  0.3181
  198MPD1    C3 3064   4.116   4.325  15.393  0.3913  0.2479 -0.5003
  198MPD1    C4 3065   4.044   4.286  15.286 -0.0071 -0.0295  0.0359
  198MPD1    C5 3066   3.920   4.349  15.257 -0.4800  0.0182  0.4830
  198MPD1     H 3067   4.132   4.461  15.555  1.9151 -0.6895 -0.2184
  198MPD1    H1 3068   4.067   4.195  15.232 -0.2238 -0.0952  0.0544
  198MPD1    H2 3069   3.781   4.498  15.298 -1.3386 -0.8946  1.2977
  198MPD1    H3 3070   3.860   4.295  15.184  0.5853  1.1191 -1.2359
  198MPD1     N 3071   4.236   4.261  15.425  0.3330  0.4139  0.3765
  198MPD1    H5 3072   4.296   4.298  15.498  0.4388 -1.7338  1.3772
  198MPD1    N1 3073   3.909   4.605  15.511 -0.5777  0.1032  0.0388
  198MPD1    H6 3074   3.859   4.677  15.458 -0.7128 -1.2213 -1.6410
  198MPD1    H7 3075   3.987   4.652  15.556 -0.3738  0.3171 -0.5388
  199MPD1     C 3076   1.513   1.797  10.928  0.4519  0.3165  0.7865
  199MPD1    C1 3077   1.643   1.830  10.897 -0.1101 -0.1011  0.4840
  199MPD1    C2 3078   1.683   1.828  10.773 -0.2276  0.3435  0.0796
  199MPD1    C3 3079   1.597   1.777  10.675 -0.6727  0.9325 -0.5117
  199MPD1    C4 3080   1.466   1.743  10.705  0.4650 -0.7238  0.0106
  199MPD1    C5 3081   1.429   1.745  10.831 -0.1432 -0.2115 -0.3354
  199MPD1     H 3082   1.784   1.860  10.750  0.5802 -2.6121 -0.5716
  199MPD1    H1 3083   1.405   1.701  10.627 -0.4055 -0.6049  0.6244
  199MPD1    H2 3084   1.479   1.809  11.030  0.4729 -0.2506  0.8632
  199MPD1    H3 3085   1.322   1.729  10.840 -0.5844  2.7633 -0.4120
  199MPD1     N 3086   1.644   1.761  10.537  0.0088 -0.1024 -0.1613
  199MPD1    H5 3087   1.588   1.707  10.472 -1.4791  0.0149  1.0319
  199MPD1    N1 3088   1.714   1.893  11.001  0.1101  0.0271  0.3989
  199MPD1    H6 3089   1.812   1.868  10.990 -0.2791 -0.2897 -2.2741
  199MPD1    H7 3090   1.676   1.863  11.090  0.9461  0.0561  0.7679
  200MPD1     C 3091   0.696   0.836  14.998  0.0467 -0.5750 -0.3874
  200MPD1    C1 3092   0.707   0.733  14.903 -0.5174  0.3401 -0.2358
  200MPD1    C2 3093   0.835   0.710  14.866 -0.1785 -0.7047 -0.0695
  200MPD1    C3 3094   0.942   0.790  14.907  0.1026 -0.2511 -0.7123
  200MPD1    C4 3095   0.930   0.879  15.007 -0.9932  0.4116 -0.1684
  200MPD1    C5 3096   0.805   0.899  15.056  0.6142  0.4710 -0.2948
  200MPD1     H 3097   0.848   0.642  14.782 -3.6812 -1.7269  0.2034
  200MPD1    H1 3098   1.018   0.927  15.048  1.1097 -2.5370 -1.3211
  200MPD1    H2 3099   0.600   0.870  15.036  0.5919 -0.5798  0.9911
  200MPD1    H3 3100   0.786   0.983  15.122  3.7565  0.6384  0.3865
  200MPD1     N 3101   1.060   0.774  14.834 -0.3123 -0.0596  0.0055
  200MPD1    H5 3102   1.063   0.706  14.759  1.7612 -0.3470  0.3427
  200MPD1    N1 3103   0.594   0.678  14.846 -0.1202 -0.5088 -0.3871
  200MPD1    H6 3104   0.621   0.581  14.830 -1.4344 -1.2008  1.7100
  200MPD1    H7 3105   0.578   0.707  14.750  1.9208  0.9367 -0.2774
  201MPD1     C 3106   2.581   0.178  13.420  0.8425  0.0335 -0.3430
  201MPD1    C1 3107   2.632   0.152  13.295 -0.6134  0.2924 -0.0227
  201MPD1    C2 3108   2.736   0.059  13.288 -0.0599 -0.2055 -0.2354
  201MPD1    C3 3109   2.802   0.007  13.397  0.0210 -0.1973  0.3161
  201MPD1    C4 3110   2.753   0.044  13.523 -0.3794  0.0420  1.0527
  201MPD1    C5 3111   2.639   0.126  13.528 -0.9345  0.6835 -0.0948
  201MPD1     H 3112   2.769   0.042  13.186  0.0810 -2.8402  0.2423
  201MPD1    H1 3113   2.800   0.006  13.613  0.3299  0.0122  0.6705
  201MPD1    H2 3114   2.508   0.256  13.435 -1.7042 -2.1826 -1.2940
  201MPD1    H3 3115   2.585   0.141  13.621  0.8309 -0.0597  1.0491
  201MPD1     N 3116   2.907   4.649  13.383 -0.0992 -0.0739 -0.0481
  201MPD1    H5 3117   2.926   4.628  13.285 -0.0345  2.5790 -0.5817
  201MPD1    N1 3118   2.564   0.202  13.188 -0.2603 -0.1617  0.0061
  201MPD1    H6 3119   2.514   0.288  13.210  0.2863  0.2066 -0.2039
  201MPD1    H7 3120   2.613   0.207  13.099  0.0788 -1.6116  0.1157
  202MPD1     C 3121   3.941   4.479   9.374  0.0538  0.0566  0.6230
  202MPD1    C1 3122   3.800   4.470   9.365 -1.1911 -0.4283 -0.1804
  202MPD1    C2 3123   3.731   4.512   9.472 -0.1513  0.3823  1.0732
  202MPD1    C3 3124   3.789   4.575   9.584  0.6386 -0.1722 -0.0344
  202MPD1    C4 3125   3.925   4.595   9.574  0.0187 -0.3676  0.4427
  202MPD1    C5 3126   4.004   4.539   9.478  0.4549  0.4213  0.1961
  202MPD1     H 3127   3.625   4.487   9.482 -0.0169 -0.5741  0.1223
  202MPD1    H1 3128   3.987   4.641   9.651  1.0400 -0.1130 -0.5370
  202MPD1    H2 3129   4.007   4.423   9.308  1.1478 -0.1853  1.9261
  202MPD1    H3 3130   4.112   4.535   9.489  0.5839  0.9248 -0.7901
  202MPD1     N 3131   3.720   4.614   9.704 -0.2960  0.9008 -0.2754
  202MPD1    H5 3132   3.781   4.638   9.781 -0.1095  1.7362 -0.6868
  202MPD1    N1 3133   3.749   4.371   9.276 -0.1620 -0.2748  0.0929
  202MPD1    H6 3134   3.652   4.391   9.253  0.7929  3.0226 -1.0096
  202MPD1    H7 3135   3.812   4.378   9.196 -2.2224 -0.1128 -1.5312
  203MPD1     C 3136   1.619   0.414  12.481  0.0099 -0.0358 -0.6207
  203MPD1    C1 3137   1.654   0.315  12.387 -0.1614 -0.3875 -0.1581
  203MPD1    C2 3138   1.747   0.223  12.424 -0.1682 -0.2276  0.2274
  203MPD1    C3 3139   1.796   0.206  12.550  0.1795  0.7776 -0.2464
  203MPD1    C4 3140   1.739   0.290  12.644 -0.0172 -0.5199 -0.2296
  203MPD1    C5 3141   1.654   0.392  12.611  0.3793 -0.6568  0.7304
  203MPD1     H 3142   1.790   0.162  12.345 -1.5883 -0.9913  0.0374
  203MPD1    H1 3143   1.776   0.286  12.746 -0.3995  0.0118 -0.0710
  203MPD1    H2 3144   1.553   0.498  12.462 -2.2396 -1.1407  2.1659
  203MPD1    H3 3145   1.617   0.454  12.692  0.1615 -0.0615  0.1808
  203MPD1     N 3146   1.890   0.109  12.578 -0.6571  0.0054  0.4248
  203MPD1    H5 3147   1.926   0.059  12.497  1.3702  3.2277 -0.6877
  203MPD1    N1 3148   1.626   0.339  12.246  0.4537 -0.5305 -0.1526
  203MPD1    H6 3149   1.632   0.260  12.182  1.3896 -0.6426  0.0672
  203MPD1    H7 3150   1.548   0.399  12.222  0.6943  0.2759  1.0766
  204MPD1     C 3151   1.095   1.759  16.824 -0.4828  0.0896 -0.4637
  204MPD1    C1 3152   1.128   1.689  16.710 -0.0627 -0.1092 -0.3390
  204MPD1    C2 3153   1.239   1.599  16.711 -0.2166 -0.2135 -0.2189
  204MPD1    C3 3154   1.310   1.573  16.830  0.8959 -0.3350  0.8235
  204MPD1    C4 3155   1.279   1.651  16.939  0.1355  0.2916 -0.0456
  204MPD1    C5 3156   1.178   1.742  16.932 -0.7211  0.2888  0.0567
  204MPD1     H 3157   1.262   1.550  16.617  0.5906  1.7010 -1.0190
  204MPD1    H1 3158   1.340   1.644  17.028  0.5443  0.9837 -0.2728
  204MPD1    H2 3159   1.023   1.839  16.835  0.2819  0.6855  0.1429
  204MPD1    H3 3160   1.152   1.793  17.024 -0.2570  0.2523  0.2082
  204MPD1     N 3161   1.422   1.489  16.820  0.3130  0.4906 -0.5645
  204MPD1    H5 3162   1.458   1.464  16.728  3.7670  1.8629  0.3979
  204MPD1    N1 3163   1.063   1.719  16.590 -0.8070 -0.1315 -0.2538
  204MPD1    H6 3164   0.979   1.772  16.608  0.3288  1.3265  0.7410
  204MPD1    H7 3165   1.033   1.637  16.538  0.8966 -0.8151 -0.1846
  205MPD1     C 3166   0.889   0.603  16.614 -0.1364  0.7262  0.2612
  205MPD1    C1 3167   0.992   0.540  16.543 -0.1175 -0.3390 -0.7292
  205MPD1    C2 3168   1.093   0.477  16.609 -0.3188  0.5520 -0.2765
  205MPD1    C3 3169   1.097   0.469  16.747 -0.0929 -0.3049 -0.7261
  205MPD1    C4 3170   0.995   0.532  16.820  0.4420  0.2377  1.3834
  205MPD1    C5 3171   0.890   0.590  16.753 -0.2174  0.0816 -1.1070
  205MPD1     H 3172   1.175   0.444  16.546 -1.0614 -1.7484 -0.0404
  205MPD1    H1 3173   0.995   0.534  16.928  0.8776 -0.4933  1.3986
  205MPD1    H2 3174   0.807   0.654  16.564 -0.8148  0.0343  0.6535
  205MPD1    H3 3175   0.806   0.638  16.800  0.3507  0.6615 -0.6783
  205MPD1     N 3176   1.215   0.436  16.822  0.6474 -0.4335 -0.3165
  205MPD1    H5 3177   1.230   0.472  16.916  1.1633 -2.1882  0.2825
  205MPD1    N1 3178   0.988   0.538  16.406 -0.0641 -0.5980 -0.2209
  205MPD1    H6 3179   1.081   0.554  16.366 -0.4519 -0.9750 -1.2666
  205MPD1    H7 3180   0.930   0.610  16.365 -0.8898 -1.6608 -0.9071
  206MPD1     C 3181   2.011   3.041  17.038 -1.1190 -0.1115 -0.0175
  206MPD1    C1 3182   2.055   2.957  16.941 -0.0027  0.4715  0.0322
  206MPD1    C2 3183   1.973   2.940  16.832 -0.6772  0.1246 -0.6136
  206MPD1    C3 3184   1.865   3.020  16.815 -0.4338 -0.4691  0.3740
  206MPD1    C4 3185   1.834   3.120  16.901  0.3656  0.3559  0.3763
  206MPD1    C5 3186   1.902   3.122  17.024 -0.4248  0.1168  0.4992
  206MPD1     H 3187   1.999   2.866  16.758  0.3371 -0.2424  0.1111
  206MPD1    H1 3188   1.750   3.187  16.885  0.3938  0.7450  1.8445
  206MPD1    H2 3189   2.060   3.052  17.134 -2.3750 -2.4970  0.9079
  206MPD1    H3 3190   1.872   3.195  17.098  3.8721  2.2658  0.1540
  206MPD1     N 3191   1.779   2.998  16.705 -0.8299 -0.3436  0.3096
  206MPD1    H5 3192   1.702   3.063  16.699 -0.4187  0.0816 -0.3045
  206MPD1    N1 3193   2.158   2.860  16.966 -0.4342 -0.0221 -0.2392
  206MPD1    H6 3194   2.236   2.895  17.022 -0.5980  0.6554 -0.4321
  206MPD1    H7 3195   2.190   2.812  16.882 -2.6338 -0.5271 -0.7737
  207MPD1     C 3196   4.033   0.697   9.970 -0.8524 -0.0427 -0.5725
  207MPD1    C1 3197   4.067   0.642  10.088  0.2879 -0.1533  1.1225
  207MPD1    C2 3198   4.176   0.696  10.155  0.1241  0.4758  0.1360
  207MPD1    C3 3199   4.244   0.807  10.103 -0.9098  0.2549  0.5460
  207MPD1    C4 3200   4.206   0.857   9.977 -0.1287  0.3919  0.0461
  207MPD1    C5 3201   4.096   0.805   9.916 -0.3554  0.0609 -0.4075
  207MPD1     H 3202   4.190   0.649  10.251 -1.9888 -0.0129  0.1981
  207MPD1    H1 3203   4.256   0.935   9.921  0.2091  1.6592  2.1206
  207MPD1    H2 3204   3.955   0.654   9.908  0.4363 -2.0793 -0.7776
  207MPD1    H3 3205   4.066   0.832   9.815 -3.1557 -0.4126  0.2899
  207MPD1     N 3206   4.350   0.874  10.178  0.1010  0.1393  0.3293
  207MPD1    H5 3207   4.400   0.950  10.133  2.0677 -2.0873 -1.2827
  207MPD1    N1 3208   4.004   0.536  10.153 -0.0080  0.3483  0.0745
  207MPD1    H6 3209   3.920   0.511  10.100 -0.2982  0.7087  0.3597
  207MPD1    H7 3210   4.068   0.458  10.160  0.3695  0.4867 -1.9051
  208MPD1     C 3211   2.517   0.358  16.636  0.0416  0.4505 -0.4571
  208MPD1    C1 3212   2.422   0.287  16.578 -0.4320 -1.4344  0.1480
  208MPD1    C2 3213   2.390   0.162  16.632  0.0178 -0.0255 -1.1929
  208MPD1    C3 3214   2.482   0.096  16.715 -0.1403  0.5056  0.0381
  208MPD1    C4 3215   2.595   0.162  16.756 -0.8775 -0.0913  0.4792
  208MPD1    C5 3216   2.599   0.295  16.727 -0.0980  0.2097 -0.3300
  208MPD1     H 3217   2.301   0.109  16.600 -0.5802  0.6950 -0.7185
  208MPD1    H1 3218   2.659   0.124  16.835  0.9166 -0.0125 -0.9233
  208MPD1    H2 3219   2.519   0.465  16.622 -2.8610  0.6707  0.7544
  208MPD1    H3 3220   2.678   0.357  16.767 -0.7349 -0.2644  1.6602
  208MPD1     N 3221   2.445   4.706  16.761  0.2834 -0.3405 -0.4989
  208MPD1    H5 3222   2.352   4.681  16.731  0.1578  0.0174 -0.4090
  208MPD1    N1 3223   2.325   0.358  16.512  0.2712 -0.1561  0.1310
  208MPD1    H6 3224   2.355   0.437  16.454  0.1865  2.5935  3.8219
  208MPD1    H7 3225   2.285   0.298  16.441 -1.1298  1.2675 -0.2689
  209MPD1     C 3226   0.100   4.570  10.868 -0.2250  0.1622 -0.6559
  209MPD1    C1 3227   0.037   4.675  10.803  0.2502 -0.4430 -0.3459
  209MPD1    C2 3228   0.015   0.055  10.866  0.6844 -0.3603 -0.0493
  209MPD1    C3 3229   0.041   0.064  11.000  0.2075 -0.3203 -0.5042
  209MPD1    C4 3230   0.096   4.697  11.074  0.2104 -0.8654 -0.2602
  209MPD1    C5 3231   0.124   4.579  11.004  0.3164 -0.1677 -0.4890
  209MPD1     H 3232   4.715   0.143  10.815  2.8142  0.1153 -0.8303
  209MPD1    H1 3233   0.126   4.702  11.178 -1.4885  1.8748  0.1027
  209MPD1    H2 3234   0.139   4.481  10.821 -0.4602 -0.1912 -0.1831
  209MPD1    H3 3235   0.174   4.497  11.054  0.7688  0.0279 -0.6156
  209MPD1     N 3236   0.027   0.188  11.062  0.5498 -0.8768 -0.3912
  209MPD1    H5 3237   0.005   0.265  11.000  0.7263 -0.7701 -0.3232
  209MPD1    N1 3238   0.031   4.666  10.664 -0.2793 -0.2914  0.0165
  209MPD1    H6 3239   4.712   4.735  10.616 -0.7503 -1.0697 -0.5482
  209MPD1    H7 3240   0.005   4.570  10.641  1.1731 -1.1936  2.1248
  210MPD1     C 3241   4.588   0.920  11.882  0.0992 -0.4784 -0.0118
  210MPD1    C1 3242   4.588   0.789  11.899 -0.4207 -0.5464  0.3475
  210MPD1    C2 3243   4.594   0.705  11.789 -0.2968  0.5418  0.6409
  210MPD1    C3 3244   4.607   0.756  11.658  1.3360 -0.5082 -0.2116
  210MPD1    C4 3245   4.583   0.892  11.644 -0.2164 -1.3651 -0.6860
  210MPD1    C5 3246   4.581   0.974  11.753  0.4605 -0.2720  0.3739
  210MPD1     H 3247   4.613   0.598  11.790  0.4469  0.6823  1.0204
  210MPD1    H1 3248   4.554   0.934  11.548 -0.1315  1.1159  0.3605
  210MPD1    H2 3249   4.605   0.990  11.963  1.8685  0.3893 -1.1254
  210MPD1    H3 3250   4.572   1.081  11.734 -2.3204 -0.9399 -1.9963
  210MPD1     N 3251   4.644   0.686  11.547  0.2562  0.0026 -0.0608
  210MPD1    H5 3252   4.648   0.736  11.459 -0.4604 -0.3382 -0.2803
  210MPD1    N1 3253   4.611   0.741  12.027  0.1720 -0.3892 -0.2516
  210MPD1    H6 3254   4.550   0.659  12.022  0.5585 -0.5594 -2.2205
  210MPD1    H7 3255   4.586   0.814  12.093 -0.5138 -0.6693 -0.1963
  211MPD1     C 3256   1.174   4.212  15.459  0.3914  0.1106 -0.2982
  211MPD1    C1 3257   1.064   4.272  15.501  0.1390 -0.1857  0.2251
  211MPD1    C2 3258   1.094   4.395  15.561 -0.0697 -0.3802 -0.4047
  211MPD1    C3 3259   1.218   4.433  15.609 -0.3934  0.5462  0.1201
  211MPD1    C4 3260   1.319   4.342  15.602  0.8688  0.0909  0.1624
  211MPD1    C5 3261   1.300   4.239  15.514  0.4812  0.0223  0.1101
  211MPD1     H 3262   1.014   4.463  15.589 -0.0101 -0.3869 -0.2202
  211MPD1    H1 3263   1.423   4.358  15.630  1.0080  0.9780 -0.8740
  211MPD1    H2 3264   1.172   4.128  15.390  1.9294 -2.4775  2.8339
  211MPD1    H3 3265   1.385   4.179  15.486  0.6366  0.0601  0.5062
  211MPD1     N 3266   1.231   4.553  15.679  0.5313 -0.1800  0.6306
  211MPD1    H5 3267   1.155   4.620  15.679  0.7290  0.0389  0.7587
  211MPD1    N1 3268   0.935   4.242  15.455 -0.3261 -0.2857  0.2229
  211MPD1    H6 3269   0.920   4.142  15.439  0.7583 -0.9389  3.1844
  211MPD1    H7 3270   0.860   4.290  15.505 -0.1141  0.4087 -0.1269
  212MPD1     C 3271   1.138   3.179  16.232 -0.7108  0.1064  0.2986
  212MPD1    C1 3272   1.068   3.224  16.346  0.0488  0.6505  0.0774
  212MPD1    C2 3273   0.995   3.126  16.417 -0.4102 -0.5797 -0.3136
  212MPD1    C3 3274   0.971   2.999  16.362 -0.5592 -0.0994  0.9318
  212MPD1    C4 3275   1.032   2.964  16.244  0.0006 -0.4775  0.1760
  212MPD1    C5 3276   1.114   3.054  16.185  0.5912 -0.7820 -0.0140
  212MPD1     H 3277   0.954   3.163  16.510  0.4887 -1.5679  0.4618
  212MPD1    H1 3278   1.011   2.870  16.193  0.4860 -0.4726 -0.0350
  212MPD1    H2 3279   1.213   3.233  16.175  2.2680 -2.8441  1.3591
  212MPD1    H3 3280   1.156   3.019  16.092 -1.3934 -1.2113 -0.7493
  212MPD1     N 3281   0.880   2.903  16.421 -0.4101 -0.4564  0.2425
  212MPD1    H5 3282   0.882   2.811  16.379 -1.0954  0.1324 -1.0700
  212MPD1    N1 3283   1.110   3.346  16.404 -0.8875 -0.4354 -0.2048
  212MPD1    H6 3284   1.052   3.380  16.481 -0.3542  0.1384 -0.0593
  212MPD1    H7 3285   1.142   3.416  16.337  0.1681 -1.1716 -0.4684
  213MPD1     C 3286   0.566   4.061  15.450  0.7118  0.2531  0.4458
  213MPD1    C1 3287   0.477   3.970  15.512 -0.5389  0.2501  0.4234
  213MPD1    C2 3288   0.383   3.918  15.431 -0.7837 -0.2332  0.1112
  213MPD1    C3 3289   0.346   3.976  15.309 -0.7636  0.0770 -0.2772
  213MPD1    C4 3290   0.412   4.092  15.267  0.0522  0.6403 -0.4346
  213MPD1    C5 3291   0.521   4.134  15.341 -0.3873 -0.3147 -0.0137
  213MPD1     H 3292   0.318   3.839  15.466 -2.6888  1.1737 -0.2122
  213MPD1    H1 3293   0.384   4.145  15.176  1.2712  1.2292 -0.4598
  213MPD1    H2 3294   0.664   4.081  15.492  0.7647 -0.5583  0.7067
  213MPD1    H3 3295   0.589   4.205  15.294 -1.9714  1.4156  0.3217
  213MPD1     N 3296   0.251   3.905  15.229 -0.3984 -0.1045  0.2363
  213MPD1    H5 3297   0.213   3.824  15.277  0.9839 -0.1548  1.2328
  213MPD1    N1 3298   0.523   3.887  15.617  0.4849  0.9107 -0.1208
  213MPD1    H6 3299   0.580   3.943  15.680  2.0367 -0.9562  0.1440
  213MPD1    H7 3300   0.438   3.853  15.662  0.9067  0.4890  0.3689
  214MPD1     C 3301   4.240   3.330  15.450  0.0373  0.3246 -0.0425
  214MPD1    C1 3302   4.380   3.313  15.438  0.4169  0.3110  0.3563
  214MPD1    C2 3303   4.449   3.407  15.364 -0.8551 -0.9764  0.2312
  214MPD1    C3 3304   4.387   3.501  15.284 -0.2759  0.3806  0.3525
  214MPD1    C4 3305   4.248   3.490  15.270 -0.4906  0.3663 -0.1377
  214MPD1    C5 3306   4.176   3.412  15.358 -0.5026 -0.4936 -0.2870
  214MPD1     H 3307   4.555   3.394  15.350 -0.4666 -0.1522  2.4766
  214MPD1    H1 3308   4.198   3.557  15.201 -0.5466 -2.0754 -2.4488
  214MPD1    H2 3309   4.170   3.265  15.501  1.3941  0.0618  1.4806
  214MPD1    H3 3310   4.068   3.425  15.359 -0.5884 -1.0873 -1.4161
  214MPD1     N 3311   4.454   3.595  15.202 -0.2340 -0.0073 -0.2570
  214MPD1    H5 3312   4.397   3.638  15.130 -1.4554 -1.3314 -0.0928
  214MPD1    N1 3313   4.438   3.210  15.514  0.2457 -0.0852  0.0769
  214MPD1    H6 3314   4.523   3.172  15.473 -1.0815 -1.3682 -1.5150
  214MPD1    H7 3315   4.375   3.137  15.548  1.0865 -1.4836 -1.3841
  215MPD1     C 3316   0.119   0.342  10.467 -0.6659  0.1737  0.8769
  215MPD1    C1 3317   0.021   0.431  10.430  0.2437  0.5252  0.5441
  215MPD1    C2 3318   4.675   0.483  10.525 -0.1525  0.1160 -0.2570
  215MPD1    C3 3319   4.701   0.465  10.657 -0.3564  0.3265 -0.3925
  215MPD1    C4 3320   0.075   0.388  10.697 -0.3761 -1.0272 -0.2190
  215MPD1    C5 3321   0.145   0.318  10.602  0.0669 -0.7704 -0.2796
  215MPD1     H 3322   4.581   0.527  10.495 -0.0259  1.1037  0.7676
  215MPD1    H1 3323   0.108   0.372  10.799 -1.1322  0.6649  0.2965
  215MPD1    H2 3324   0.186   0.290  10.399  1.0335 -0.3677  3.0065
  215MPD1    H3 3325   0.217   0.241  10.625  1.3094  0.7551  0.9491
  215MPD1     N 3326   4.605   0.519  10.748  0.0627  0.6840 -0.7702
  215MPD1    H5 3327   4.534   0.579  10.709 -1.2337 -0.0014  0.5334
  215MPD1    N1 3328   0.001   0.445  10.293 -0.2440 -0.3111  0.1088
  215MPD1    H6 3329   0.080   0.432  10.229 -0.3832  0.6329 -0.2548
  215MPD1    H7 3330   4.699   0.538  10.281  2.6492  1.0202  0.6098
  216MPD1     C 3331   0.560   2.842  17.432  0.0614 -0.3525  0.1309
  216MPD1    C1 3332   0.525   2.818  17.565 -0.5393 -0.0724 -0.9021
  216MPD1    C2 3333   0.535   2.687  17.609  0.1586 -0.2044 -0.6204
  216MPD1    C3 3334   0.565   2.584  17.526  0.6547  0.3704  0.1596
  216MPD1    C4 3335   0.593   2.607  17.397 -0.6129 -0.2785  0.1195
  216MPD1    C5 3336   0.602   2.738  17.356 -0.3660 -0.0074 -0.0616
  216MPD1     H 3337   0.508   2.671  17.713  0.7244  1.6170 -0.1841
  216MPD1    H1 3338   0.611   2.525  17.329  0.2082 -0.6048  0.7230
  216MPD1    H2 3339   0.540   2.937  17.383 -0.8224 -0.3218  0.5538
  216MPD1    H3 3340   0.644   2.757  17.258  1.7841 -0.6994  0.7257
  216MPD1     N 3341   0.566   2.455  17.574  1.0425 -0.3776 -0.6683
  216MPD1    H5 3342   0.558   2.447  17.675 -2.8606 -1.6371 -1.0555
  216MPD1    N1 3343   0.493   2.920  17.657 -0.5487 -0.1733  0.0114
  216MPD1    H6 3344   0.420   2.883  17.717 -0.4864  1.3640  1.0267
  216MPD1    H7 3345   0.465   3.011  17.620  1.9688  0.1236 -1.2031
  217MPD1     C 3346   0.880   4.381   8.492  0.0542  0.5959  0.5959
  217MPD1    C1 3347   0.994   4.343   8.428 -0.3856  0.0201  0.5484
  217MPD1    C2 3348   1.108   4.316   8.504 -0.2250  0.6510 -0.5239
  217MPD1    C3 3349   1.117   4.353   8.636  0.5004  0.1777  0.5710
  217MPD1    C4 3350   1.000   4.405   8.693  0.3659  0.1954  0.2295
  217MPD1    C5 3351   0.887   4.414   8.624  0.1817 -0.2197  0.2756
  217MPD1     H 3352   1.172   4.240   8.463  0.4020  0.7443  0.2737
  217MPD1    H1 3353   0.996   4.441   8.795  2.1533  2.0679 -0.3543
  217MPD1    H2 3354   0.786   4.396   8.438 -0.4549 -0.1642  1.2744
  217MPD1    H3 3355   0.793   4.443   8.669  0.3890 -1.0290  1.2215
  217MPD1     N 3356   1.224   4.332   8.726  0.3099  0.0266  0.5016
  217MPD1    H5 3357   1.209   4.360   8.823 -2.2795 -1.5068  0.5172
  217MPD1    N1 3358   0.984   4.295   8.297 -0.4531  0.0699 -0.2588
  217MPD1    H6 3359   0.916   4.335   8.233  1.5892  2.0219 -1.2002
  217MPD1    H7 3360   1.071   4.284   8.247 -0.2220 -0.2228  0.2065
  218MPD1     C 3361   2.981   0.221  12.519  0.7218  0.2219 -0.3034
  218MPD1    C1 3362   3.081   0.283  12.586 -0.1376 -0.3582  0.4477
  218MPD1    C2 3363   3.208   0.218  12.572 -1.1445  0.3158 -0.3928
  218MPD1    C3 3364   3.215   0.087  12.523 -0.2670 -1.0997  0.0049
  218MPD1    C4 3365   3.107   0.022  12.471  0.1690  0.0798  0.4175
  218MPD1    C5 3366   2.991   0.096  12.472  0.5771  0.0923 -1.1192
  218MPD1     H 3367   3.299   0.265  12.607 -1.1985 -0.2350  0.4881
  218MPD1    H1 3368   3.116   4.662  12.427 -2.2804 -0.6737  1.6163
  218MPD1    H2 3369   2.888   0.276  12.529 -0.2844 -1.4556 -0.2462
  218MPD1    H3 3370   2.910   0.047  12.418  0.4711  0.2228 -1.0791
  218MPD1     N 3371   3.345   0.023  12.532  0.3335  0.1383 -0.3735
  218MPD1    H5 3372   3.428   0.080  12.529  0.5529 -0.1158  1.0265
  218MPD1    N1 3373   3.070   0.420  12.626 -0.3563 -0.0373 -0.0469
  218MPD1    H6 3374   2.976   0.454  12.646 -1.1195 -1.4955 -1.1468
  218MPD1    H7 3375   3.122   0.431  12.713  0.8135 -0.1916 -0.7260
  219MPD1     C 3376   4.109   0.377  12.374  0.6086  0.4336  0.1865
  219MPD1    C1 3377   4.148   0.267  12.441  0.2171  1.0037  0.2661
  219MPD1    C2 3378   4.055   0.166  12.449  0.0017 -0.0860 -0.1079
  219MPD1    C3 3379   3.919   0.188  12.413  0.0044  0.1492  0.3627
  219MPD1    C4 3380   3.882   0.307  12.351 -0.5216 -0.5438 -0.9766
  219MPD1    C5 3381   3.981   0.394  12.324  0.3986  0.2877  0.4830
  219MPD1     H 3382   4.086   0.068  12.483  1.7728 -0.2897 -2.2660
  219MPD1    H1 3383   3.778   0.331  12.331 -0.2000 -0.0171 -1.9660
  219MPD1    H2 3384   4.175   0.460  12.349  1.0351  0.0845  0.1523
  219MPD1    H3 3385   3.952   0.486  12.275  0.2221 -0.4593 -0.8246
  219MPD1     N 3386   3.818   0.096  12.439 -0.2186  1.1059 -0.6897
  219MPD1    H5 3387   3.721   0.126  12.432 -0.7996 -0.6782  0.0020
  219MPD1    N1 3388   4.277   0.237  12.471 -0.5319 -0.3518 -0.5777
  219MPD1    H6 3389   4.294   0.160  12.536 -2.3426 -1.7940 -1.8247
  219MPD1    H7 3390   4.332   0.316  12.504  0.5362 -1.9291  1.3992
  220MPD1     C 3391   3.555   1.223   9.431 -0.2527  0.4706 -0.0242
  220MPD1    C1 3392   3.476   1.115   9.477  0.4034  0.8059  0.2486
  220MPD1    C2 3393   3.527   1.061   9.598 -0.4508 -0.5665 -0.1002
  220MPD1    C3 3394   3.643   1.108   9.668  0.0442  0.4306  0.2381
  220MPD1    C4 3395   3.707   1.217   9.611 -0.6045  0.8148 -0.7571
  220MPD1    C5 3396   3.658   1.273   9.500 -0.5648  0.1345  0.0599
  220MPD1     H 3397   3.482   0.973   9.641 -1.5286 -0.0232 -0.1214
  220MPD1    H1 3398   3.793   1.263   9.658 -0.3578  0.8192 -1.2215
  220MPD1    H2 3399   3.529   1.268   9.335 -0.0545  0.4313 -0.0953
  220MPD1    H3 3400   3.703   1.364   9.460  0.7790 -0.7264 -0.4059
  220MPD1     N 3401   3.691   1.044   9.785  0.6341 -0.0729 -0.0627
  220MPD1    H5 3402   3.629   0.970   9.814 -1.8001  0.9724 -2.5977
  220MPD1    N1 3403   3.374   1.059   9.393 -0.1482  0.3256 -0.2370
  220MPD1    H6 3404   3.338   1.134   9.334  0.1802  0.8191  0.1790
  220MPD1    H7 3405   3.296   1.014   9.441  0.5267 -0.2572  0.3224
  221MPD1     C 3406   2.384   3.155  16.205 -0.0155  0.2132 -0.7922
  221MPD1    C1 3407   2.274   3.138  16.130 -0.4617 -0.4059 -0.4837
  221MPD1    C2 3408   2.227   3.243  16.058 -0.5348  0.5378  0.6286
  221MPD1    C3 3409   2.279   3.375  16.076 -0.5650 -0.1145  0.4461
  221MPD1    C4 3410   2.397   3.388  16.135 -0.3005  0.5270  0.2279
  221MPD1    C5 3411   2.443   3.281  16.206  0.0700 -0.1668  0.2130
  221MPD1     H 3412   2.139   3.226  15.997 -0.8385 -0.1712  1.2609
  221MPD1    H1 3413   2.449   3.481  16.156  2.5928 -1.0376  0.1131
  221MPD1    H2 3414   2.433   3.074  16.257  0.1802  0.0009 -1.3001
  221MPD1    H3 3415   2.533   3.290  16.264 -1.3714  0.4199  2.3574
  221MPD1     N 3416   2.228   3.492  16.025  0.6231  0.1840  0.0887
  221MPD1    H5 3417   2.274   3.576  16.060 -0.2865  0.6896  0.0599
  221MPD1    N1 3418   2.231   3.007  16.104 -0.4336  0.3065 -0.6992
  221MPD1    H6 3419   2.260   2.934  16.169 -1.4535 -0.5800 -1.2274
  221MPD1    H7 3420   2.132   3.003  16.081 -1.1058  2.9619  1.6858
  222MPD1     C 3421   1.153   3.383  16.805  0.3832  0.2461 -0.2930
  222MPD1    C1 3422   1.026   3.363  16.838 -0.2636 -0.0561  0.5610
  222MPD1    C2 3423   0.996   3.330  16.972 -0.2001 -0.7842  0.2414
  222MPD1    C3 3424   1.099   3.327  17.068 -0.1087 -0.1306 -0.1479
  222MPD1    C4 3425   1.229   3.358  17.025 -0.3731 -0.4374  0.0498
  222MPD1    C5 3426   1.255   3.386  16.897 -0.7633 -0.1500  0.6087
  222MPD1     H 3427   0.901   3.288  17.005 -0.3827 -0.4053  0.1912
  222MPD1    H1 3428   1.312   3.348  17.094 -0.3299  0.5215  0.1271
  222MPD1    H2 3429   1.181   3.410  16.704  1.7933  1.3586  0.3869
  222MPD1    H3 3430   1.359   3.402  16.874 -0.5710 -0.1109  1.4895
  222MPD1     N 3431   1.089   3.303  17.209 -0.7627  0.1688 -0.6196
  222MPD1    H5 3432   1.170   3.318  17.267  0.6260 -3.4011 -1.6402
  222MPD1    N1 3433   0.938   3.356  16.733  0.0417 -0.0908 -0.4781
  222MPD1    H6 3434   0.840   3.357  16.761 -0.2505  0.0820 -1.4907
  222MPD1    H7 3435   0.947   3.433  16.667 -1.6859 -0.4620 -1.1585
  223MPD1     C 3436   0.513   3.541   0.263  0.2306 -0.1090 -0.2765
  223MPD1    C1 3437   0.644   3.584   0.263 -0.4050  0.2614  0.4812
  223MPD1    C2 3438   0.743   3.522   0.185  0.0630  0.4443  0.0345
  223MPD1    C3 3439   0.711   3.407   0.117 -0.3088  0.1298 -0.3184
  223MPD1    C4 3440   0.582   3.364   0.121 -0.0663 -0.2191  0.3390
  223MPD1    C5 3441   0.489   3.424   0.195  0.2241 -0.2044  0.3175
  223MPD1     H 3442   0.841   3.567   0.179  0.7840 -0.8348  2.2332
  223MPD1    H1 3443   0.550   3.268   0.082  2.3697 -1.9532  2.6281
  223MPD1    H2 3444   0.429   3.575   0.323  0.8413  1.8205 -0.5171
  223MPD1    H3 3445   0.391   3.378   0.200  1.6816 -3.4484 -0.7419
  223MPD1     N 3446   0.808   3.346   0.040  0.1485 -0.2065 -0.4853
  223MPD1    H5 3447   0.901   3.374   0.070  0.3717  1.5199 -2.8155
  223MPD1    N1 3448   0.663   3.711   0.313 -0.7042 -0.5173 -0.2070
  223MPD1    H6 3449   0.601   3.719   0.393 -0.0116  1.1326  0.1624
  223MPD1    H7 3450   0.762   3.718   0.337 -0.7556 -1.1385  0.2047
  224MPD1     C 3451   1.363   4.638   8.873  0.6202  0.1339  0.1907
  224MPD1    C1 3452   1.324   4.722   8.970  0.3742 -0.0364 -0.8418
  224MPD1    C2 3453   1.397   4.727   9.083 -0.5996 -0.1849 -0.4001
  224MPD1    C3 3454   1.511   4.650   9.103 -0.6993  1.0160  0.0052
  224MPD1    C4 3455   1.558   4.575   8.999 -0.5935  1.0072 -0.1317
  224MPD1    C5 3456   1.480   4.570   8.885 -0.3704 -0.4610 -0.1853
  224MPD1     H 3457   1.366   0.058   9.160 -1.4412  0.7493 -1.5869
  224MPD1    H1 3458   1.657   4.533   9.014 -1.2173  0.0007  1.1379
  224MPD1    H2 3459   1.300   4.643   8.784 -0.1521 -0.1640  0.7142
  224MPD1    H3 3460   1.516   4.519   8.797  0.2904 -1.6820  0.7868
  224MPD1     N 3461   1.586   4.650   9.217 -0.3147 -0.1772 -0.7007
  224MPD1    H5 3462   1.672   4.596   9.218  0.5388  1.1971  0.1281
  224MPD1    N1 3463   1.206   0.056   8.953  0.0962  0.1889 -0.2647
  224MPD1    H6 3464   1.184   0.121   9.028 -1.0046 -0.6869  0.1830
  224MPD1    H7 3465   1.195   0.102   8.863  1.8235  0.0722 -0.5443
  225MPD1     C 3466   3.894   1.222  12.484 -0.0286 -0.2934  0.1200
  225MPD1    C1 3467   3.831   1.110  12.450 -0.1492 -0.0208  0.2975
  225MPD1    C2 3468   3.699   1.094  12.476 -0.3344 -0.2511 -0.7015
  225MPD1    C3 3469   3.628   1.174  12.562 -0.4902  0.1600 -0.3292
  225MPD1    C4 3470   3.692   1.285  12.613  0.5071  0.4764 -0.1115
  225MPD1    C5 3471   3.821   1.306  12.574  0.4274 -0.0808  0.4680
  225MPD1     H 3472   3.653   1.003  12.439 -0.0199 -0.2278 -1.1472
  225MPD1    H1 3473   3.641   1.352  12.682 -0.8122 -0.4177 -0.2275
  225MPD1    H2 3474   3.995   1.256  12.464 -0.1141 -0.3587 -0.4078
  225MPD1    H3 3475   3.869   1.392  12.618  0.7635 -0.3644  0.6553
  225MPD1     N 3476   3.490   1.155  12.592 -1.0277 -0.2815 -0.3372
  225MPD1    H5 3477   3.449   1.223  12.656 -0.6202  0.2955 -0.6864
  225MPD1    N1 3478   3.893   1.027  12.351 -0.0006  0.0723  0.8745
  225MPD1    H6 3479   3.866   0.929  12.343  1.3013  0.0176 -2.7811
  225MPD1    H7 3480   3.993   1.033  12.366  0.4803 -1.4825 -1.7842
  226MPD1     C 3481   2.322   1.119   9.886  0.9679 -0.2548  0.1002
  226MPD1    C1 3482   2.215   1.193   9.853  0.4394  0.3820 -0.9651
  226MPD1    C2 3483   2.099   1.135   9.799 -0.0021 -0.1301  0.3794
  226MPD1    C3 3484   2.098   0.998   9.780  0.5020  0.5532  0.2791
  226MPD1    C4 3485   2.203   0.920   9.825  0.2698  0.1659 -0.3727
  226MPD1    C5 3486   2.317   0.980   9.869  0.6905 -0.1780  1.2639
  226MPD1     H 3487   2.024   1.198   9.753 -0.8587 -1.5273 -0.1428
  226MPD1    H1 3488   2.199   0.811   9.823 -1.8988  0.2407 -0.3849
  226MPD1    H2 3489   2.418   1.153   9.921  1.0672  0.3987 -0.8003
  226MPD1    H3 3490   2.388   0.919   9.923  2.6006 -0.6289 -1.7447
  226MPD1     N 3491   1.988   0.932   9.719 -0.6353  0.3209 -0.1637
  226MPD1    H5 3492   1.903   0.987   9.731 -0.8592  0.4774 -2.4496
  226MPD1    N1 3493   2.231   1.330   9.847  0.6896 -0.2897 -0.5197
  226MPD1    H6 3494   2.146   1.382   9.871  0.5873 -0.2732 -0.9183
  226MPD1    H7 3495   2.310   1.367   9.899  0.9572 -3.2920  1.1465
  227MPD1     C 3496   1.045   0.755   9.884  0.1058 -0.6501  0.0547
  227MPD1    C1 3497   1.082   0.631   9.847 -0.2962 -0.1138  0.4044
  227MPD1    C2 3498   1.215   0.614   9.816 -0.9487 -0.3378 -0.1820
  227MPD1    C3 3499   1.310   0.717   9.808 -0.0593 -0.2083 -1.2181
  227MPD1    C4 3500   1.265   0.838   9.838  0.0619 -0.4963  0.0792
  227MPD1    C5 3501   1.136   0.855   9.892  0.5401  0.0616 -0.0891
  227MPD1     H 3502   1.249   0.513   9.795  0.1752  0.2723 -1.2819
  227MPD1    H1 3503   1.333   0.922   9.844 -0.9968  0.3931 -0.2523
  227MPD1    H2 3504   0.943   0.780   9.913 -0.2047 -2.8268  0.8628
  227MPD1    H3 3505   1.103   0.954   9.923 -2.5784 -0.5879 -1.3277
  227MPD1     N 3506   1.439   0.691   9.759 -0.5806 -0.3700  0.0216
  227MPD1    H5 3507   1.456   0.592   9.745 -0.3743 -0.2539 -0.5186
  227MPD1    N1 3508   1.003   0.521   9.878 -0.0500  0.3446 -0.6252
  227MPD1    H6 3509   1.014   0.447   9.810 -0.3795 -1.4611  1.2844
  227MPD1    H7 3510   0.906   0.551   9.871 -1.1320 -2.4866  2.1181
  228MPD1     C 3511   1.355   3.312  13.070 -0.1741 -0.2014  0.0545
  228MPD1    C1 3512   1.304   3.377  12.956 -0.1289 -0.6067  0.0532
  228MPD1    C2 3513   1.174   3.412  12.960 -0.2985  0.0711 -0.2750
  228MPD1    C3 3514   1.083   3.366  13.059  0.7279  0.7935  0.0286
  228MPD1    C4 3515   1.133   3.287  13.160 -0.0244  0.1147  0.8887
  228MPD1    C5 3516   1.269   3.268  13.168 -0.6465  0.1292  0.7290
  228MPD1     H 3517   1.139   3.472  12.878  0.7303  0.0930 -0.6966
  228MPD1    H1 3518   1.075   3.254  13.245 -1.7608 -0.2414 -0.4496
  228MPD1    H2 3519   1.461   3.289  13.068 -0.0301  0.3362  1.2041
  228MPD1    H3 3520   1.307   3.209  13.251  0.0429  0.6962  0.8092
  228MPD1     N 3521   0.945   3.402  13.049 -0.2028 -0.3820  0.5528
  228MPD1    H5 3522   0.919   3.455  12.966  0.0866  0.8486  1.2537
  228MPD1    N1 3523   1.383   3.422  12.852 -0.2933 -0.4621 -0.0443
  228MPD1    H6 3524   1.464   3.364  12.833 -1.1336 -1.5317 -0.3325
  228MPD1    H7 3525   1.332   3.439  12.766 -0.1930  2.0051  0.3676
  229MPD1     C 3526   4.549   1.491  13.868  0.3918 -0.0444  0.9845
  229MPD1    C1 3527   4.492   1.492  13.995  0.4876  0.0506  0.5297
  229MPD1    C2 3528   4.568   1.484  14.113 -0.3219 -0.4764 -0.1142
  229MPD1    C3 3529   4.703   1.462  14.107 -0.1243  0.4231 -0.3269
  229MPD1    C4 3530   0.008   1.439  13.982 -0.1351 -0.2433  0.0026
  229MPD1    C5 3531   4.678   1.445  13.871  0.0080  0.0617 -0.0904
  229MPD1     H 3532   4.522   1.513  14.207  0.3660 -1.6991  0.5876
  229MPD1    H1 3533   0.112   1.410  13.974 -0.0103  0.1989  0.0001
  229MPD1    H2 3534   4.502   1.526  13.777  1.5282 -0.2061  0.3340
  229MPD1    H3 3535   4.730   1.420  13.780  0.7613  2.7756 -0.4139
  229MPD1     N 3536   0.050   1.466  14.222 -0.7348  0.1594 -0.2345
  229MPD1    H5 3537   0.148   1.447  14.207 -0.8372 -0.1013 -0.5481
  229MPD1    N1 3538   4.363   1.546  14.001  0.0957 -0.2949  0.0233
  229MPD1    H6 3539   4.306   1.508  13.926  1.2193 -0.5836 -0.6787
  229MPD1    H7 3540   4.316   1.523  14.089 -1.8754 -0.4928 -1.0829
  230MPD1     C 3541   0.188   1.753  15.276  0.1572 -0.6325 -0.0831
  230MPD1    C1 3542   0.242   1.628  15.269 -0.0119 -0.0596 -1.0786
  230MPD1    C2 3543   0.259   1.576  15.144 -0.1484 -0.1994 -0.1168
  230MPD1    C3 3544   0.207   1.631  15.028 -0.9013  0.0953  0.1888
  230MPD1    C4 3545   0.139   1.748  15.047 -0.6403 -0.0280 -0.1417
  230MPD1    C5 3546   0.136   1.814  15.172 -0.4526  0.3636 -0.3373
  230MPD1     H 3547   0.323   1.489  15.130 -0.5077 -0.5541  0.4487
  230MPD1    H1 3548   0.081   1.800  14.971  0.3877  1.1785 -0.1030
  230MPD1    H2 3549   0.203   1.810  15.367 -3.3600 -1.5189  1.0212
  230MPD1    H3 3550   0.095   1.915  15.171  1.8049  1.2581 -2.0094
  230MPD1     N 3551   0.221   1.569  14.898 -0.4444 -0.6193 -0.1015
  230MPD1    H5 3552   0.258   1.475  14.890  1.9061  0.2417  0.4572
  230MPD1    N1 3553   0.319   1.576  15.372  0.0875  0.2558 -0.1881
  230MPD1    H6 3554   0.296   1.615  15.463  0.8450  1.7810 -0.6438
  230MPD1    H7 3555   0.316   1.474  15.371  2.0499  0.2104 -1.7394
  231MPD1     C 3556   2.805   3.201  15.482  0.0266  0.0457 -0.1048
  231MPD1    C1 3557   2.763   3.220  15.351  0.2039 -1.0142 -0.0160
  231MPD1    C2 3558   2.854   3.279  15.267 -0.2199 -0.3176 -0.2231
  231MPD1    C3 3559   2.964   3.349  15.316 -0.5440  0.2189 -0.3628
  231MPD1    C4 3560   3.007   3.317  15.443  0.4161 -0.4717  0.0451
  231MPD1    C5 3561   2.930   3.245  15.525 -0.0134  0.4108 -0.5212
  231MPD1     H 3562   2.844   3.293  15.160 -1.4857  0.0862 -0.0443
  231MPD1    H1 3563   3.093   3.364  15.489  0.0815 -1.4507  1.6764
  231MPD1    H2 3564   2.746   3.134  15.544 -0.7320 -1.6593 -2.6687
  231MPD1    H3 3565   2.952   3.235  15.631 -1.2089  0.6030 -0.2525
  231MPD1     N 3566   3.037   3.430  15.231 -0.1047 -0.4176 -0.0255
  231MPD1    H5 3567   2.999   3.440  15.137  0.1957  0.3445 -0.0629
  231MPD1    N1 3568   2.658   3.141  15.304 -0.1892 -0.8741  0.0898
  231MPD1    H6 3569   2.578   3.117  15.362 -0.0079 -1.3265  0.1538
  231MPD1    H7 3570   2.616   3.179  15.219  0.2306 -1.5259 -0.4068
  232MPD1     C 3571   0.588   1.446  17.509  0.0422 -0.3526 -0.9657
  232MPD1    C1 3572   0.540   1.446  17.638  0.5866  0.2559  0.0452
  232MPD1    C2 3573   0.440   1.347  17.667 -0.0095  0.3734  0.2753
  232MPD1    C3 3574   0.389   1.255  17.578  0.8778  0.1427 -0.5201
  232MPD1    C4 3575   0.449   1.260  17.455 -0.5701 -0.1745  0.3168
  232MPD1    C5 3576   0.552   1.351  17.421  0.1902 -0.2309  0.0758
  232MPD1     H 3577   0.391   1.345   0.011 -1.7119 -0.1560 -0.6062
  232MPD1    H1 3578   0.425   1.194  17.372 -4.1081 -0.0343  1.2319
  232MPD1    H2 3579   0.663   1.518  17.479  1.0137 -0.1189  2.0226
  232MPD1    H3 3580   0.598   1.344  17.323  1.1837 -0.8553  0.5814
  232MPD1     N 3581   0.285   1.164  17.602 -0.6461  0.0265  0.2297
  232MPD1    H5 3582   0.250   1.175  17.696 -2.6424  0.3475 -0.5596
  232MPD1    N1 3583   0.552   1.558  17.725  0.1961 -0.1011 -0.1116
  232MPD1    H6 3584   0.641   1.606  17.724  0.8314 -1.1918  2.0741
  232MPD1    H7 3585   0.531   1.543   0.071 -1.3161  0.5830 -0.3258
  233MPD1     C 3586   1.543   4.446  17.165 -0.5765 -0.1715 -0.4144
  233MPD1    C1 3587   1.643   4.517  17.216 -0.6253 -0.3618  0.4239
  233MPD1    C2 3588   1.678   4.507  17.348  0.4361 -0.0286  0.2590
  233MPD1    C3 3589   1.602   4.430  17.427 -0.9470 -0.3875  0.2343
  233MPD1    C4 3590   1.497   4.367  17.381 -0.1432 -0.5682  0.3013
  233MPD1    C5 3591   1.473   4.368  17.250 -0.1267 -0.5651  0.2031
  233MPD1     H 3592   1.762   4.562  17.389  2.1546 -1.0071 -1.9310
  233MPD1    H1 3593   1.433   4.303  17.441  1.0565 -0.3059  1.8453
  233MPD1    H2 3594   1.507   4.454  17.063  0.8494 -2.5747 -1.1048
  233MPD1    H3 3595   1.387   4.318  17.207 -0.9352 -0.6767  1.9606
  233MPD1     N 3596   1.631   4.412  17.563 -0.1116  0.2714  0.3144
  233MPD1    H5 3597   1.563   4.354  17.612 -0.8099 -1.0246 -2.1639
  233MPD1    N1 3598   1.716   4.606  17.131 -0.7507 -0.1072 -0.8122
  233MPD1    H6 3599   1.812   4.609  17.165 -1.5031 -1.0447  1.4637
  233MPD1    H7 3600   1.723   4.585  17.032  0.1308  1.2311 -1.0239
  234MPD1     C 3601   2.838   3.349   9.499  0.3459 -0.0241 -0.4539
  234MPD1    C1 3602   2.893   3.472   9.523  0.4960  0.3227  0.7786
  234MPD1    C2 3603   2.841   3.587   9.457 -0.2645 -0.2564 -0.1742
  234MPD1    C3 3604   2.730   3.576   9.377  1.0541  0.0477 -0.6984
  234MPD1    C4 3605   2.667   3.452   9.368 -0.3081 -0.2095 -0.2634
  234MPD1    C5 3606   2.729   3.341   9.425  0.8165 -0.3160 -0.2249
  234MPD1     H 3607   2.893   3.682   9.461 -0.6921 -0.0414  0.2211
  234MPD1    H1 3608   2.579   3.441   9.307 -0.9221  3.8957 -0.1234
  234MPD1    H2 3609   2.868   3.251   9.533 -2.4817 -1.1917 -1.2773
  234MPD1    H3 3610   2.686   3.242   9.420  0.8124 -0.2556 -1.3946
  234MPD1     N 3611   2.675   3.689   9.321 -0.1768 -0.4021 -0.3320
  234MPD1    H5 3612   2.722   3.779   9.324  1.9820 -1.4515 -2.7502
  234MPD1    N1 3613   3.005   3.486   9.601 -0.3804 -0.4198  0.0466
  234MPD1    H6 3614   3.005   3.578   9.644  0.2692 -0.3710 -0.0605
  234MPD1    H7 3615   3.012   3.416   9.674  0.8436 -1.9845 -1.5503
  235MPD1     C 3616   0.194   2.365  11.477  0.3534  0.4453  0.3778
  235MPD1    C1 3617   0.213   2.230  11.467  0.6274 -0.0962 -0.4307
  235MPD1    C2 3618   0.183   2.169  11.340 -0.1554  0.1686  0.6368
  235MPD1    C3 3619   0.144   2.246  11.234  0.5942 -0.3677  0.0086
  235MPD1    C4 3620   0.146   2.381  11.239 -0.1101 -0.3293  0.2955
  235MPD1    C5 3621   0.162   2.433  11.368 -0.1734 -0.0095 -0.0313
  235MPD1     H 3622   0.179   2.062  11.321 -1.0618  0.1767  0.7891
  235MPD1    H1 3623   0.129   2.455  11.162 -0.9958 -1.5951 -0.7274
  235MPD1    H2 3624   0.222   2.411  11.571 -0.5919  0.2080  0.7731
  235MPD1    H3 3625   0.170   2.541  11.374 -0.0096  0.0205 -0.7647
  235MPD1     N 3626   0.128   2.184  11.104 -0.6270  0.1128 -0.4497
  235MPD1    H5 3627   0.135   2.083  11.098  1.4401  0.1789  0.7408
  235MPD1    N1 3628   0.250   2.154  11.578  0.1678 -0.0892 -0.7377
  235MPD1    H6 3629   0.266   2.057  11.551 -1.3680 -0.1599 -1.3852
  235MPD1    H7 3630   0.336   2.194  11.617 -0.7927  2.6289 -1.4381
  236MPD1     C 3631   2.897   2.521  10.459  0.3227  0.0094  0.8655
  236MPD1    C1 3632   2.980   2.634  10.485 -0.4929  0.6897 -0.1120
  236MPD1    C2 3633   3.114   2.603  10.513  0.3477 -0.0775  0.4375
  236MPD1    C3 3634   3.161   2.470  10.492 -0.1103  0.3712  0.1503
  236MPD1    C4 3635   3.076   2.371  10.452 -0.0476 -0.5331  0.6980
  236MPD1    C5 3636   2.945   2.402  10.433 -0.7455 -0.2913  0.2910
  236MPD1     H 3637   3.181   2.679  10.552  0.6912 -0.2944  0.2680
  236MPD1    H1 3638   3.101   2.267  10.433  0.1344  0.3406 -3.8087
  236MPD1    H2 3639   2.788   2.522  10.457  0.3407 -2.1135 -1.0461
  236MPD1    H3 3640   2.866   2.329  10.418 -1.0595 -0.1829  1.3638
  236MPD1     N 3641   3.298   2.437  10.511  0.0409 -0.3631  0.2740
  236MPD1    H5 3642   3.317   2.338  10.497 -0.2815 -0.4456  0.4210
  236MPD1    N1 3643   2.920   2.753  10.527  0.2484  1.2852 -0.4224
  236MPD1    H6 3644   2.828   2.775  10.489  0.6623  2.4200 -0.7572
  236MPD1    H7 3645   2.978   2.836  10.512  1.9504  0.0710 -0.5306
  237MPD1     C 3646   4.064   0.212  14.589 -0.2355  0.1338  0.5653
  237MPD1    C1 3647   4.030   0.295  14.693 -0.3200  0.4686 -0.1455
  237MPD1    C2 3648   3.919   0.264  14.776  0.0582 -0.6381 -0.7855
  237MPD1    C3 3649   3.836   0.159  14.735 -0.1627  0.2442 -0.3736
  237MPD1    C4 3650   3.862   0.083  14.627 -0.1065 -0.5662 -0.6833
  237MPD1    C5 3651   3.984   0.105  14.558  0.1384  0.3461  0.5857
  237MPD1     H 3652   3.913   0.338  14.855 -1.1327 -0.1286 -1.3698
  237MPD1    H1 3653   3.806   4.732  14.604 -0.0401 -0.8138  0.1259
  237MPD1    H2 3654   4.150   0.226  14.523  0.2140  1.0961  1.3589
  237MPD1    H3 3655   4.021   0.040  14.480 -1.7916 -0.8756  0.6919
  237MPD1     N 3656   3.708   0.140  14.793  0.4558  0.3109  0.1886
  237MPD1    H5 3657   3.645   0.070  14.755 -0.6908  3.2121 -3.2750
  237MPD1    N1 3658   4.119   0.397  14.733  0.0238  0.1089 -0.2599
  237MPD1    H6 3659   4.087   0.458  14.808  0.0751 -0.7429  0.4551
  237MPD1    H7 3660   4.162   0.449  14.656  0.6784  0.2991  0.2431
  238MPD1     C 3661   0.758   4.134  15.072  0.2611 -1.0084 -0.4806
  238MPD1    C1 3662   0.674   4.219  15.015 -0.2008  0.6289 -0.1740
  238MPD1    C2 3663   0.590   4.167  14.917 -0.1296  0.7444  0.3418
  238MPD1    C3 3664   0.565   4.034  14.907 -0.2592 -0.1082  0.1423
  238MPD1    C4 3665   0.640   3.947  14.985 -0.0322 -0.4490  1.0392
  238MPD1    C5 3666   0.741   4.002  15.064 -0.3280  0.0844 -0.0345
  238MPD1     H 3667   0.526   4.229  14.856 -2.3356 -2.7470 -0.8955
  238MPD1    H1 3668   0.635   3.838  14.980 -1.0277 -0.3413 -0.4604
  238MPD1    H2 3669   0.828   4.174  15.145  0.6807 -0.5070 -1.1614
  238MPD1    H3 3670   0.805   3.940  15.126 -1.5026 -1.7122 -0.6073
  238MPD1     N 3671   0.476   3.971  14.817 -0.3463  1.1328 -0.3700
  238MPD1    H5 3672   0.485   3.870  14.811 -1.4054  0.9260  1.4057
  238MPD1    N1 3673   0.708   4.351  15.018 -0.7062 -0.1386  0.1769
  238MPD1    H6 3674   0.738   4.384  15.110  1.8821 -1.2020 -0.2952
  238MPD1    H7 3675   0.630   4.412  14.993  0.8946  0.9736 -2.0841
  239MPD1     C 3676   0.420   4.449  15.123  0.2196  0.2558  0.6195
  239MPD1    C1 3677   0.498   4.562  15.120 -0.1021  0.0851  0.5652
  239MPD1    C2 3678   0.470   4.648  15.010  0.4863  0.2835  0.2011
  239MPD1    C3 3679   0.408   4.612  14.893  0.3412  0.2968 -0.1191
  239MPD1    C4 3680   0.355   4.485  14.897  0.3157  0.0181 -0.4502
  239MPD1    C5 3681   0.351   4.410  15.009 -0.2631  0.1111 -0.1059
  239MPD1     H 3682   0.506   0.011  15.022  0.6387 -0.1012  3.0099
  239MPD1    H1 3683   0.300   4.451  14.810 -3.7191  3.7024  0.6697
  239MPD1    H2 3684   0.408   4.384  15.208 -0.0483  0.9298  1.0948
  239MPD1    H3 3685   0.306   4.311  15.011 -2.9128  1.3075 -0.8380
  239MPD1     N 3686   0.394   4.693  14.773  0.2781  0.5796  0.1350
  239MPD1    H5 3687   0.322   4.668  14.707  1.9368  1.7512 -2.1475
  239MPD1    N1 3688   0.558   4.608  15.235 -0.3315  0.2681  0.1472
  239MPD1    H6 3689   0.600   4.701  15.224  0.7578 -0.0514  1.5735
  239MPD1    H7 3690   0.592   4.542  15.304  0.6498 -0.7441 -1.3049
  240MPD1     C 3691   3.657   0.031  13.165  0.9555 -0.7954  0.1724
  240MPD1    C1 3692   3.633   4.647  13.231 -0.5605  0.3068  0.2949
  240MPD1    C2 3693   3.739   4.609  13.311  0.2039 -0.1836  0.2597
  240MPD1    C3 3694   3.859   4.679  13.316  0.0071  0.3841 -0.3271
  240MPD1    C4 3695   3.874   0.051  13.241  0.2035  0.1423  0.3246
  240MPD1    C5 3696   3.777   0.094  13.165 -0.1810  1.1555 -0.2585
  240MPD1     H 3697   3.728   4.528  13.382  0.5229 -1.4611 -1.1428
  240MPD1    H1 3698   3.969   0.104  13.232 -0.7286  1.7236 -0.1030
  240MPD1    H2 3699   3.580   0.088  13.115  1.1551  0.4658  1.3063
  240MPD1    H3 3700   3.792   0.192  13.120  0.0795  1.2644  0.0723
  240MPD1     N 3701   3.971   4.630  13.384  1.1180 -0.0715 -0.4071
  240MPD1    H5 3702   3.955   4.539  13.426 -3.1040  0.5792 -0.6995
  240MPD1    N1 3703   3.506   4.589  13.236  0.7061 -0.4030 -0.4983
  240MPD1    H6 3704   3.518   4.488  13.244  1.7157 -0.2879 -0.5699
  240MPD1    H7 3705   3.465   4.606  13.144  0.2615  0.1273 -0.1976
  241MPD1     C 3706   4.664   4.733  14.225  0.4757  0.0923 -0.1491
  241MPD1    C1 3707   4.624   0.088  14.139 -0.0491  0.3401  0.2702
  241MPD1    C2 3708   4.547   0.052  14.033  0.6714 -1.0774  0.2126
  241MPD1    C3 3709   4.525   4.662  13.997 -1.1062 -0.2574 -0.4276
  241MPD1    C4 3710   4.582   4.563  14.078  0.4154 -0.7809 -0.4959
  241MPD1    C5 3711   4.649   4.602  14.191 -0.0484 -0.4207 -0.3395
  241MPD1     H 3712   4.502   0.128  13.970  0.5068 -1.7000 -0.4251
  241MPD1    H1 3713   4.576   4.457  14.056 -4.5122 -0.3776 -1.1020
  241MPD1    H2 3714   4.703   0.018  14.324 -3.5259 -0.0617  1.4415
  241MPD1    H3 3715   4.686   4.523  14.257  1.4070  0.1670 -0.4549
  241MPD1     N 3716   4.437   4.628  13.884 -0.0177  0.1082 -0.2339
  241MPD1    H5 3717   4.422   4.529  13.866  1.5540  0.3970 -3.0214
  241MPD1    N1 3718   4.633   0.219  14.179  0.6383 -0.0327  0.1917
  241MPD1    H6 3719   4.640   0.278  14.096 -2.3967 -1.1371 -0.8623
  241MPD1    H7 3720   4.720   0.232  14.229 -0.0646 -0.7573  1.5861
  242MPD1     C 3721   4.241   1.930  15.675 -0.2878  0.0204  0.3351
  242MPD1    C1 3722   4.301   2.037  15.722  0.5987  0.8737  0.1592
  242MPD1    C2 3723   4.356   2.124  15.635 -1.1315 -0.1052 -0.4428
  242MPD1    C3 3724   4.340   2.116  15.496  0.1382  0.0764  0.4491
  242MPD1    C4 3725   4.272   2.005  15.441  0.7020 -0.0143 -0.8409
  242MPD1    C5 3726   4.216   1.920  15.533 -0.1653 -0.0225 -0.3660
  242MPD1     H 3727   4.396   2.218  15.670 -0.3236 -0.5150 -0.2644
  242MPD1    H1 3728   4.260   1.990  15.334 -3.0834 -0.4066 -0.3650
  242MPD1    H2 3729   4.194   1.865  15.748 -0.3777 -0.6150 -0.2888
  242MPD1    H3 3730   4.161   1.834  15.495  0.6974 -0.7706  0.0989
  242MPD1     N 3731   4.388   2.208  15.406 -0.4841  0.1016 -0.6516
  242MPD1    H5 3732   4.368   2.203  15.307  1.3174 -1.1452 -0.9465
  242MPD1    N1 3733   4.319   2.052  15.858  0.4036  0.0831  0.5756
  242MPD1    H6 3734   4.336   1.972  15.918  1.7477 -0.6280 -0.7617
  242MPD1    H7 3735   4.392   2.120  15.878  0.3814 -0.3941  2.2600
  243MPD1     C 3736   0.427   0.974  16.995 -0.1284 -0.3894  0.0212
  243MPD1    C1 3737   0.495   0.991  16.879  0.0931 -0.6517 -0.9153
  243MPD1    C2 3738   0.620   1.041  16.893 -0.7818 -0.1668  0.4705
  243MPD1    C3 3739   0.667   1.088  17.018  0.1732  0.2380  0.1844
  243MPD1    C4 3740   0.587   1.080  17.131 -0.4681  0.4787  0.0104
  243MPD1    C5 3741   0.470   1.020  17.117  0.4414 -0.1634 -0.0218
  243MPD1     H 3742   0.677   1.059  16.803 -1.5717  3.7138  0.7660
  243MPD1    H1 3743   0.612   1.126  17.226 -1.1556 -2.2317  1.5183
  243MPD1    H2 3744   0.325   0.936  16.995  0.0021 -0.7115  1.4857
  243MPD1    H3 3745   0.403   1.023  17.202  1.0943  2.3902  0.4208
  243MPD1     N 3746   0.797   1.145  17.018 -0.4291  0.0297  0.2314
  243MPD1    H5 3747   0.838   1.131  16.926 -2.0419 -1.8367 -0.2256
  243MPD1    N1 3748   0.442   0.950  16.753 -0.4758  0.6190  0.4730
  243MPD1    H6 3749   0.341   0.952  16.769 -0.6946 -1.3914 -0.6657
  243MPD1    H7 3750   0.467   1.013  16.677 -1.2584 -2.3855 -2.2560
  244MPD1     C 3751   1.755   1.343  17.529 -0.1044  0.0255 -1.2506
  244MPD1    C1 3752   1.756   1.401  17.406  0.5107  0.4978  0.5077
  244MPD1    C2 3753   1.642   1.396  17.328 -0.1012  0.3464 -0.1950
  244MPD1    C3 3754   1.531   1.330  17.371 -0.5556 -0.8582 -0.8108
  244MPD1    C4 3755   1.532   1.286  17.502 -0.4783  0.2833 -0.3192
  244MPD1    C5 3756   1.642   1.284  17.572 -0.4024  0.3311 -0.0638
  244MPD1     H 3757   1.647   1.439  17.228  1.7943  2.0774  0.6563
  244MPD1    H1 3758   1.455   1.225  17.547 -1.0337  1.0435 -0.2486
  244MPD1    H2 3759   1.838   1.337  17.599 -1.1008 -0.6976 -0.1190
  244MPD1    H3 3760   1.626   1.239  17.669  3.8201  0.5522  0.7228
  244MPD1     N 3761   1.419   1.313  17.290  0.4940  0.4044 -0.2747
  244MPD1    H5 3762   1.427   1.358  17.199  1.7001 -0.1217 -0.4356
  244MPD1    N1 3763   1.860   1.487  17.371 -0.3375  0.1088 -0.2761
  244MPD1    H6 3764   1.877   1.497  17.271  1.8178 -1.3209 -0.0560
  244MPD1    H7 3765   1.950   1.457  17.409  0.1354 -0.1434 -1.5898
  245MPD1     C 3766   2.635   2.239  12.674  0.2493  0.3310  0.2632
  245MPD1    C1 3767   2.596   2.237  12.809  0.3044  0.1172  0.6483
  245MPD1    C2 3768   2.682   2.275  12.912  0.1558  0.5001  0.4975
  245MPD1    C3 3769   2.809   2.318  12.880  0.0080 -0.9662  0.4744
  245MPD1    C4 3770   2.849   2.300  12.750 -0.6891  0.6523 -0.3506
  245MPD1    C5 3771   2.764   2.268  12.649  0.6918 -0.1257  0.3606
  245MPD1     H 3772   2.657   2.281  13.017 -0.2252  2.9873  0.2701
  245MPD1    H1 3773   2.952   2.318  12.723 -0.4458  0.0360  0.1700
  245MPD1    H2 3774   2.570   2.202  12.595 -0.2213  0.2666  0.6766
  245MPD1    H3 3775   2.803   2.245  12.551 -2.7517  2.6718 -1.6326
  245MPD1     N 3776   2.890   2.377  12.980  0.1231  0.4163  0.5697
  245MPD1    H5 3777   2.856   2.392  13.074  2.8863  1.7276  1.3518
  245MPD1    N1 3778   2.468   2.183  12.842 -0.2325  0.0096 -0.6011
  245MPD1    H6 3779   2.435   2.194  12.938 -1.4272  2.1279 -1.2399
  245MPD1    H7 3780   2.397   2.207  12.774  0.3467 -1.2960 -1.6564
  246MPD1     C 3781   2.442   1.938   9.575 -0.6882  0.3067  0.0421
  246MPD1    C1 3782   2.566   1.931   9.638  0.1289  0.2311 -0.3926
  246MPD1    C2 3783   2.668   2.017   9.597  0.4558 -0.0659 -0.3411
  246MPD1    C3 3784   2.647   2.101   9.489 -0.3652 -0.3278 -0.2492
  246MPD1    C4 3785   2.532   2.083   9.414  1.3503 -0.9355 -0.3619
  246MPD1    C5 3786   2.433   2.002   9.456  0.6985 -0.6231 -0.1835
  246MPD1     H 3787   2.758   2.010   9.656  1.2037 -0.1454 -1.4915
  246MPD1    H1 3788   2.504   2.149   9.332  0.3678  1.0435  1.5581
  246MPD1    H2 3789   2.351   1.893   9.613  0.2919 -0.8154  1.0450
  246MPD1    H3 3790   2.335   1.995   9.409  0.3755 -0.1905  0.4361
  246MPD1     N 3791   2.740   2.201   9.460  0.4213  0.2225 -0.2401
  246MPD1    H5 3792   2.824   2.205   9.517  0.4170 -0.2410 -0.2025
  246MPD1    N1 3793   2.570   1.869   9.770 -0.0207 -0.3437 -0.6049
  246MPD1    H6 3794   2.667   1.860   9.802 -0.7166 -2.5578  0.8083
  246MPD1    H7 3795   2.527   1.779   9.789 -1.9128  0.9154  0.9857
  247MPD1     C 3796   2.785   2.358  16.616  1.0899 -0.3204 -0.6118
  247MPD1    C1 3797   2.699   2.259  16.661 -1.2439 -0.8798  0.0827
  247MPD1    C2 3798   2.672   2.151  16.578 -0.3461  0.3620 -0.8932
  247MPD1    C3 3799   2.718   2.160  16.444  0.1982  0.0774 -0.3244
  247MPD1    C4 3800   2.774   2.277  16.400  0.1495 -0.3252  0.4270
  247MPD1    C5 3801   2.812   2.376  16.484 -0.0371 -0.1779 -0.6778
  247MPD1     H 3802   2.613   2.070  16.618 -2.5593  2.0191 -0.8398
  247MPD1    H1 3803   2.807   2.291  16.298 -0.8029  0.9212  0.2869
  247MPD1    H2 3804   2.824   2.429  16.689  1.5641 -1.8152  0.6039
  247MPD1    H3 3805   2.862   2.466  16.449  0.2631 -0.2994 -0.5608
  247MPD1     N 3806   2.688   2.052  16.354 -0.3006 -0.0500  0.0959
  247MPD1    H5 3807   2.717   2.075  16.259  0.2740 -2.2146 -0.2378
  247MPD1    N1 3808   2.662   2.262  16.802  0.6042  0.5481  0.7094
  247MPD1    H6 3809   2.653   2.359  16.834 -0.7078  1.0804 -1.3040
  247MPD1    H7 3810   2.574   2.215  16.819  0.7072  0.1337  0.1038
  248MPD1     C 3811   3.251   1.400  17.411  0.3184 -0.4148  0.4328
  248MPD1    C1 3812   3.374   1.443  17.380 -0.0883  0.2132 -0.7707
  248MPD1    C2 3813   3.409   1.573  17.412  0.2654  0.0006 -0.0301
  248MPD1    C3 3814   3.320   1.655  17.472  0.1291  0.5872 -0.0047
  248MPD1    C4 3815   3.186   1.614  17.484  0.5768  0.1939 -0.2329
  248MPD1    C5 3816   3.157   1.482  17.450  0.5008  0.1702 -0.1990
  248MPD1     H 3817   3.507   1.617  17.400 -0.3937  1.3032 -0.6146
  248MPD1    H1 3818   3.104   1.674  17.523 -0.2601 -0.2232 -1.3846
  248MPD1    H2 3819   3.220   1.298  17.392 -2.6531  1.0077 -2.4117
  248MPD1    H3 3820   3.056   1.445  17.460  0.2609  0.7159 -0.6456
  248MPD1     N 3821   3.367   1.779  17.530 -0.4914  0.6230  0.2458
  248MPD1    H5 3822   3.457   1.814  17.500 -0.1901 -1.5135 -1.3501
  248MPD1    N1 3823   3.481   1.345  17.361  0.0608 -0.2309 -0.5160
  248MPD1    H6 3824   3.550   1.378  17.295  0.9569  0.9406  1.0093
  248MPD1    H7 3825   3.454   1.260  17.313  1.4161  0.3817 -2.3580
  249MPD1     C 3826   0.920   1.404   9.472 -0.5104  0.3065  1.1477
  249MPD1    C1 3827   1.010   1.510   9.458 -1.0024 -0.8870  0.5185
  249MPD1    C2 3828   1.012   1.604   9.561 -0.1992 -0.4270  0.7641
  249MPD1    C3 3829   0.936   1.585   9.680 -0.3471 -0.2541  0.1244
  249MPD1    C4 3830   0.860   1.467   9.693  0.1059  0.3800 -0.3937
  249MPD1    C5 3831   0.852   1.382   9.588 -0.4893 -0.0728  0.1572
  249MPD1     H 3832   1.083   1.685   9.547  0.4058 -1.3807 -1.6793
  249MPD1    H1 3833   0.781   1.463   9.766  0.9964  0.3175  0.5730
  249MPD1    H2 3834   0.917   1.324   9.399  0.7848  1.3836 -0.0970
  249MPD1    H3 3835   0.772   1.310   9.598 -0.7883  0.1945 -0.3072
  249MPD1     N 3836   0.960   1.686   9.777 -1.0540  0.4472  0.6719
  249MPD1    H5 3837   1.006   1.771   9.746 -0.0684  0.1977  1.4867
  249MPD1    N1 3838   1.075   1.538   9.333  0.2267  1.0675 -0.3625
  249MPD1    H6 3839   1.098   1.451   9.285 -1.1114 -0.2274  1.3015
  249MPD1    H7 3840   1.160   1.593   9.332  0.3899  0.7897 -1.2360
  250MPD2     C 3841   0.930   1.065  13.130  1.0384  0.0149  0.7007
  250MPD2    C1 3842   1.041   0.982  13.152  0.0522 -0.4409 -0.9259
  250MPD2    C2 3843   1.051   0.870  13.076  0.0999  0.6070 -0.0463
  250MPD2    C3 3844   0.946   0.822  12.998  0.1492 -0.4272 -0.8381
  250MPD2    C4 3845   0.841   0.904  12.977  0.0972  0.1681 -0.0599
  250MPD2    C5 3846   0.829   1.025  13.045 -0.0268  0.1794 -0.2701
  250MPD2     H 3847   1.144   0.815  13.081  1.0754  2.1592 -1.0301
  250MPD2    H1 3848   0.759   0.873  12.913 -0.4216 -1.5938  1.4576
  250MPD2    H2 3849   0.916   1.155  13.188 -1.9288 -0.1437  0.2097
  250MPD2    H3 3850   0.741   1.087  13.031  0.4235  0.1177 -3.3119
  250MPD2     N 3851   0.943   0.704  12.920  0.3718 -0.1193  0.2076
  250MPD2    H5 3852   0.857   0.692  12.867  1.4286 -3.8137 -0.6667
  250MPD2    N1 3853   1.146   1.037  13.227 -0.0874  0.1425 -0.0547
  250MPD2    H7 3854   1.127   1.132  13.257 -0.5651 -0.1249  0.4955
  251TMC3    C1 3855   1.351   1.045  13.348 -1.3863 -0.0742 -0.2075
  251TMC3    C2 3856   1.311   1.142  13.440 -0.1856  0.1044  0.4361
  251TMC3    C3 3857   1.410   1.228  13.486 -0.3040  0.7629  0.9226
  251TMC3    C4 3858   1.485   1.023  13.320 -0.0906  0.3298  0.1939
  251TMC3    C5 3859   1.573   1.108  13.385  0.2340 -0.1622 -0.2213
  251TMC3    C6 3860   1.545   1.204  13.477  0.3928 -0.3519 -0.4961
  251TMC3     C 3861   1.259   0.969  13.263 -0.0851 -0.1624 -0.6896
  251TMC3     O 3862   1.307   0.861  13.225 -0.0157 -0.3023 -0.0001
  251TMC3     H 3863   1.207   1.171  13.444  0.2664  1.7316  0.7764
  251TMC3    H1 3864   1.519   0.949  13.248 -1.0282 -0.8538  0.9693
  251TMC3    H2 3865   1.616   1.242  13.550 -0.7178  1.6659 -0.4910
  251TMC3    C7 3866   1.702   1.050  13.406 -0.2178 -0.0146  0.0150
  251TMC3    C8 3867   1.371   1.343  13.566 -0.6045 -0.6948  0.4181
  251TMC3    O1 3868   1.715   0.929  13.425  0.0273 -0.0817 -0.1213
  251TMC3    O2 3869   1.269   1.349  13.634  0.0202  0.2478 -0.2909
  252TMC3    C1 3870   2.460   2.482   9.460  0.1147 -0.3219 -0.4602
  252TMC3    C2 3871   2.530   2.489   9.572  0.3400  0.5398  0.1089
  252TMC3    C3 3872   2.500   2.410   9.680 -0.5790  0.1263  0.7453
  252TMC3    C4 3873   2.349   2.398   9.451 -0.3838 -0.4174 -0.3466
  252TMC3    C5 3874   2.323   2.317   9.562 -0.5388 -0.5812 -0.3368
  252TMC3    C6 3875   2.393   2.316   9.677 -0.1948 -0.1197  0.3266
  252TMC3     C 3876   2.504   2.566   9.352  0.0247 -0.0523  0.8409
  252TMC3     O 3877   2.580   2.661   9.373 -0.2289  0.1721  0.2063
  252TMC3     H 3878   2.608   2.563   9.583  0.2771  0.5847  0.2514
  252TMC3    H1 3879   2.308   2.371   9.354 -2.4349  1.6424 -0.0541
  252TMC3    H2 3880   2.368   2.255   9.762  2.6898 -0.2257  1.1217
  252TMC3    C7 3881   2.197   2.251   9.548  0.2602  0.0049 -0.4219
  252TMC3    C8 3882   2.605   2.374   9.768  0.1598  0.2834  0.7910
  252TMC3    O1 3883   2.150   2.248   9.436  0.0040 -0.3563  0.3109
  252TMC3    O2 3884   2.701   2.451   9.763 -0.4623  0.2951  0.0956
  253MPD2     C 3885   2.649   0.073  14.729 -0.7103  0.0692  0.8986
  253MPD2    C1 3886   2.531   0.127  14.767 -0.1986 -0.5840 -0.3018
  253MPD2    C2 3887   2.535   0.192  14.895 -0.3688  0.1496  0.1002
  253MPD2    C3 3888   2.651   0.198  14.973 -0.7700  0.8826  0.5253
  253MPD2    C4 3889   2.764   0.122  14.940 -0.7132 -0.0480 -0.2134
  253MPD2    C5 3890   2.753   0.059  14.819  0.1893 -0.1872  0.4361
  253MPD2     H 3891   2.447   0.245  14.929 -0.9733  0.2990 -1.6760
  253MPD2    H1 3892   2.853   0.125  15.002 -1.5262  1.2054  0.8998
  253MPD2    H2 3893   2.659   0.020  14.635  2.0668 -1.2190  1.9295
  253MPD2    H3 3894   2.842   0.002  14.792  1.7066  3.0337 -1.2918
  253MPD2     N 3895   2.663   0.288  15.082 -0.4680  0.0511 -0.1560
  253MPD2    H5 3896   2.756   0.297  15.122 -0.5578 -1.7820  0.4677
  253MPD2    N1 3897   2.421   0.149  14.678  0.2464 -0.1757  0.5233
  253MPD2    H7 3898   2.339   0.198  14.712  1.0331  1.6177 -0.1504
  254TMC3    C1 3899   2.647   0.461  15.226 -0.2983 -0.6213 -0.8419
  254TMC3    C2 3900   2.661   0.596  15.213  0.2469 -0.3611  0.7657
  254TMC3    C3 3901   2.744   0.658  15.305  0.5788 -0.2721  0.7222
  254TMC3    C4 3902   2.709   0.383  15.322 -0.8814 -0.1697  0.5489
  254TMC3    C5 3903   2.781   0.450  15.418 -0.3948  0.2538 -0.3999
  254TMC3    C6 3904   2.806   0.587  15.403  0.2727  0.2855  0.0467
  254TMC3     C 3905   2.581   0.389  15.114 -0.2813 -0.0899  0.6217
  254TMC3     O 3906   2.476   0.433  15.063  0.0798 -0.7805  0.1099
  254TMC3     H 3907   2.605   0.656  15.142 -1.0463 -1.5724  0.7703
  254TMC3    H1 3908   2.697   0.275  15.325  3.0020 -0.6505 -0.7174
  254TMC3    H2 3909   2.873   0.640  15.469 -0.4646  1.7852 -0.4143
  254TMC3    C7 3910   2.765   0.425  15.560 -0.2854 -0.4594  0.0214
  254TMC3    C8 3911   2.682   0.780  15.358 -0.5613  0.0788  0.4071
  254TMC3    O1 3912   2.766   0.309  15.597  0.0017  0.0177  0.7515
  254TMC3    O2 3913   2.677   0.774  15.480  0.0340  0.2667  0.0188
  255MPD2     C 3914   1.343   3.105  10.142 -0.2684  0.2076  0.4888
  255MPD2    C1 3915   1.251   3.044  10.053 -0.5926  0.4073  0.2880
  255MPD2    C2 3916   1.296   3.002   9.932  0.1883 -0.5250 -0.0789
  255MPD2    C3 3917   1.436   3.005   9.905  0.2405 -0.0598 -0.2433
  255MPD2    C4 3918   1.521   3.055  10.004 -1.0471 -0.0621 -0.7239
  255MPD2    C5 3919   1.480   3.108  10.122  0.3843  0.3677  0.1774
  255MPD2     H 3920   1.229   2.975   9.851  0.2293  1.6032 -0.8108
  255MPD2    H1 3921   1.624   3.069   9.975  0.2594 -3.0377  2.4912
  255MPD2    H2 3922   1.314   3.147  10.238 -0.2352 -0.2382  0.6991
  255MPD2    H3 3923   1.538   3.146  10.206  0.4348 -1.6951  1.0640
  255MPD2     N 3924   1.481   2.983   9.772  0.6232 -0.0700 -0.5020
  255MPD2    H5 3925   1.414   2.965   9.698 -0.8279  0.0163  0.7803
  255MPD2    N1 3926   1.116   3.055  10.084 -0.1014  0.3525  0.0581
  255MPD2    H7 3927   1.087   3.082  10.178 -0.5308  0.7801 -0.2001
  256TMC3    C1 3928   0.884   3.045  10.059  0.3419  0.1912  1.3747
  256TMC3    C2 3929   0.876   3.160  10.135  0.3472 -0.3818 -0.4792
  256TMC3    C3 3930   0.758   3.207  10.168 -0.7388 -0.5081  0.4347
  256TMC3    C4 3931   0.772   2.983  10.015 -0.2987  0.4565 -0.1004
  256TMC3    C5 3932   0.647   3.034  10.061 -0.1846  0.0985  1.1023
  256TMC3    C6 3933   0.637   3.147  10.137  0.1440  0.4436 -0.3788
  256TMC3     C 3934   1.012   3.000  10.011  0.5509 -0.3658  0.4497
  256TMC3     O 3935   1.010   2.940   9.903  0.1875  0.2621 -0.3128
  256TMC3     H 3936   0.962   3.219  10.162  0.9389 -0.6015 -1.8424
  256TMC3    H1 3937   0.771   2.886   9.966 -2.8508  1.2118 -1.5554
  256TMC3    H2 3938   0.546   3.205  10.146 -0.9931 -1.2561 -0.8465
  256TMC3    C7 3939   0.523   2.956  10.074 -0.3625 -0.1366 -0.4860
  256TMC3    C8 3940   0.754   3.337  10.237 -0.3585 -0.3141 -0.0590
  256TMC3    O1 3941   0.438   2.987  10.154  0.0446  0.5708 -0.5404
  256TMC3    O2 3942   0.654   3.345  10.304 -0.1556  0.0485 -0.6747
  257MPD2     C 3943   0.461   0.592  13.361  0.5715  0.0044 -0.5243
  257MPD2    C1 3944   0.351   0.532  13.307  0.3171 -0.4004 -0.1050
  257MPD2    C2 3945   0.288   0.423  13.372 -0.3435  0.5027 -0.1840
  257MPD2    C3 3946   0.340   0.381  13.493  0.4933 -0.9588 -0.5690
  257MPD2    C4 3947   0.458   0.438  13.536 -0.1634  0.6050  0.0289
  257MPD2    C5 3948   0.525   0.535  13.467 -0.1549 -0.0957  0.0724
  257MPD2     H 3949   0.201   0.375  13.328  0.0221 -0.4706  0.1586
  257MPD2    H1 3950   0.499   0.405  13.630  0.7532  2.6353  0.3271
  257MPD2    H2 3951   0.520   0.662  13.303  0.6327  1.6917  1.5871
  257MPD2    H3 3952   0.625   0.572  13.489 -0.5751  1.1749 -0.2006
  257MPD2     N 3953   0.262   0.290  13.563  0.4716 -0.0580  0.4761
  257MPD2    H5 3954   0.173   0.272  13.517 -0.6771  0.5717  2.4315
  257MPD2    N1 3955   0.294   0.592  13.190 -0.7203  0.0898 -0.1089
  257MPD2    H7 3956   0.331   0.681  13.160 -2.1999  0.9169  0.5018
  258TMC3    C1 3957   0.197   0.165  13.765 -0.8844  0.3395 -0.2024
  258TMC3    C2 3958   0.124   0.079  13.686  0.4492 -0.8339 -0.0065
  258TMC3    C3 3959   0.080   4.701  13.739  0.7107 -0.1714 -0.1465
  258TMC3    C4 3960   0.228   0.128  13.892 -0.0699 -0.2162 -0.2770
  258TMC3    C5 3961   0.178   0.013  13.938  0.2005 -0.1453  0.2713
  258TMC3    C6 3962   0.101   4.662  13.868  0.6743  0.2296 -0.5044
  258TMC3     C 3963   0.297   0.233  13.689  0.1427 -0.3307  0.5672
  258TMC3     O 3964   0.407   0.235  13.740 -0.4039 -0.7186  0.7230
  258TMC3     H 3965   0.120   0.084  13.578 -0.3929 -0.3831  0.0396
  258TMC3    H1 3966   0.292   0.189  13.955 -0.9039 -0.9952  1.3213
  258TMC3    H2 3967   0.058   4.578  13.921 -0.2778  0.1101 -1.4568
  258TMC3    C7 3968   0.271   4.696  14.036  0.1804 -0.3013  0.2518
  258TMC3    C8 3969   4.727   4.621  13.665  0.2313  0.5652 -0.0131
  258TMC3    O1 3970   0.305   0.018  14.137 -0.5047 -0.2501  0.2760
  258TMC3    O2 3971   4.708   4.510  13.709  0.2987 -0.0027  0.8796
  259MPD2     C 3972   4.314   2.005   0.490  0.5535 -0.1346  0.0330
  259MPD2    C1 3973   4.431   1.945   0.517 -1.1000  0.0037 -0.3756
  259MPD2    C2 3974   4.473   1.834   0.442 -0.3840 -0.2124  0.0160
  259MPD2    C3 3975   4.388   1.795   0.338 -1.0893  0.5714 -0.4111
  259MPD2    C4 3976   4.280   1.871   0.304  0.1142 -0.5652  0.5945
  259MPD2    C5 3977   4.236   1.975   0.381  0.6905 -0.4339  0.1828
  259MPD2     H 3978   4.566   1.780   0.461 -0.1168  0.2615  0.0620
  259MPD2    H1 3979   4.206   1.839   0.231  0.2459  2.9005 -1.0315
  259MPD2    H2 3980   4.280   2.085   0.556 -1.3226  0.3241 -1.5015
  259MPD2    H3 3981   4.149   2.033   0.355  0.6440 -0.0203  1.2559
  259MPD2     N 3982   4.422   1.687   0.261 -0.2235  0.1304 -0.4224
  259MPD2    H5 3983   4.509   1.643   0.291  0.1477  1.9420  1.1427
  259MPD2    N1 3984   4.505   2.000   0.631 -0.3550  0.4353 -0.1081
  259MPD2    H7 3985   4.465   2.069   0.694  1.7560  3.0267 -1.6383
  260TMC3    C1 3986   4.454   1.563   0.067  0.0537 -0.2165 -0.2461
  260TMC3    C2 3987   4.470   1.573  17.682  0.1583 -0.0056  0.1892
  260TMC3    C3 3988   4.563   1.484  17.636 -0.6218 -0.4236  0.2589
  260TMC3    C4 3989   4.497   1.463   0.149  0.2038  0.0030 -0.1566
  260TMC3    C5 3990   4.585   1.376   0.089  0.8963 -0.2114 -0.0907
  260TMC3    C6 3991   4.632   1.397  17.716  0.2556  0.7108 -0.4429
  260TMC3     C 3992   4.390   1.673   0.129  0.3538  0.5583  0.7505
  260TMC3     O 3993   4.302   1.731   0.065 -0.0711 -0.5927 -0.4125
  260TMC3     H 3994   4.416   1.636  17.614 -2.3138 -0.3609  1.8126
  260TMC3    H1 3995   4.448   1.429   0.239  1.2819  1.8325  1.1072
  260TMC3    H2 3996   4.698   1.325  17.668  1.5321  0.2836  1.9500
  260TMC3    C7 3997   4.574   1.239   0.133 -0.0490 -0.2277  0.6176
  260TMC3    C8 3998   4.505   1.427  17.514  0.3293  0.2979 -0.0337
  260TMC3    O1 3999   4.579   1.150   0.046 -0.1632  0.1791  0.2673
  260TMC3    O2 4000   4.463   1.509  17.429  0.0725 -0.8890  0.1955
  261MPD2     C 4001   0.745   0.374  12.301  0.4738  0.1768  0.4462
  261MPD2    C1 4002   0.843   0.442  12.370 -1.3451  0.2609  0.2811
  261MPD2    C2 4003   0.926   0.528  12.303 -0.7084  0.2285 -0.2637
  261MPD2    C3 4004   0.922   0.524  12.162  0.6123 -0.4088 -0.2735
  261MPD2    C4 4005   0.841   0.434  12.101 -0.6032 -0.0920 -0.8263
  261MPD2    C5 4006   0.740   0.372  12.167 -0.6780 -0.3447  0.4076
  261MPD2     H 4007   1.006   0.585  12.349 -0.3952  0.2839 -0.8798
  261MPD2    H1 4008   0.844   0.420  11.993 -1.5614  0.6936 -0.9603
  261MPD2    H2 4009   0.672   0.312  12.351  0.3959  0.5398  0.7811
  261MPD2    H3 4010   0.672   0.299  12.124 -1.0631  0.6963 -0.7230
  261MPD2     N 4011   0.999   0.624  12.092 -0.4433  0.5774 -0.2656
  261MPD2    H5 4012   1.039   0.690  12.157 -0.3351  1.4616 -1.2397
  261MPD2    N1 4013   0.863   0.432  12.504  0.8477  0.1839 -0.4420
  261MPD2    H7 4014   0.936   0.491  12.542 -1.4056  2.7476 -0.0684
  262TMC3    C1 4015   1.107   0.751  11.936 -0.1141  0.1904  0.1771
  262TMC3    C2 4016   1.045   0.869  11.938 -0.6433  0.2869 -0.6719
  262TMC3    C3 4017   1.082   0.970  11.847  0.1850 -1.1509 -0.9200
  262TMC3    C4 4018   1.207   0.726  11.852  0.0311  0.4014  0.5147
  262TMC3    C5 4019   1.242   0.819  11.756  0.1983  0.2671  0.2731
  262TMC3    C6 4020   1.180   0.943  11.747 -0.0291 -0.0563 -0.0759
  262TMC3     C 4021   1.014   0.638  11.956 -0.0351  0.4075  0.5698
  262TMC3     O 4022   0.992   0.562  11.860  0.1097  0.3241 -0.4066
  262TMC3     H 4023   0.964   0.890  12.006 -0.5989 -1.0135 -0.2155
  262TMC3    H1 4024   1.260   0.632  11.856 -1.6690 -0.5865 -0.0049
  262TMC3    H2 4025   1.197   1.014  11.667  0.2830 -0.3569 -0.2818
  262TMC3    C7 4026   1.385   0.828  11.727 -0.2002  0.3068 -0.1597
  262TMC3    C8 4027   1.011   1.093  11.843 -0.7279 -0.0088  0.2931
  262TMC3    O1 4028   1.437   0.725  11.703  0.1552 -0.7292 -0.3331
  262TMC3    O2 4029   1.053   1.170  11.755  0.3101 -0.2562  0.3696
  263MPD2     C 4030   1.987   4.534  11.411  0.2640 -0.0326 -0.1435
  263MPD2    C1 4031   2.092   4.628  11.417  0.7467 -0.1953  0.1188
  263MPD2    C2 4032   2.108   4.713  11.306 -0.2479 -0.4593 -1.1145
  263MPD2    C3 4033   2.035   4.689  11.189 -0.6657  0.4549  0.7958
  263MPD2    C4 4034   1.940   4.588  11.188 -0.2687  0.5962 -0.4348
  263MPD2    C5 4035   1.912   4.520  11.302  0.9206  0.0507  0.2694
  263MPD2     H 4036   2.172   0.060  11.320 -0.7188 -0.6104  1.9302
  263MPD2    H1 4037   1.869   4.565  11.109 -0.1869 -1.5762  0.1188
  263MPD2    H2 4038   1.961   4.473  11.496 -2.3083  0.3494 -0.6423
  263MPD2    H3 4039   1.834   4.445  11.301  0.0435  0.9475  0.4826
  263MPD2     N 4040   2.055   0.034  11.082  0.2710 -0.4891  0.2246
  263MPD2    H5 4041   2.109   0.117  11.105 -0.0108 -0.7239  1.7556
  263MPD2    N1 4042   2.169   4.628  11.531  0.0297  0.0018 -0.1585
  263MPD2    H7 4043   2.128   4.579  11.611 -0.3416  0.8317  0.1618
  264TMC3    C1 4044   2.051   0.134  10.874  0.8537  0.1778 -0.6582
  264TMC3    C2 4045   2.005   0.258  10.916  0.4228  0.7839 -0.1866
  264TMC3    C3 4046   2.013   0.365  10.835 -0.7339 -0.6027 -0.1418
  264TMC3    C4 4047   2.100   0.119  10.749 -0.2279 -0.6104 -0.0290
  264TMC3    C5 4048   2.101   0.231  10.670  0.0329  0.1872 -1.0343
  264TMC3    C6 4049   2.049   0.348  10.710 -0.3578 -0.4156  0.0644
  264TMC3     C 4050   2.029   0.016  10.954  0.4244  0.3092  0.2157
  264TMC3     O 4051   1.986   4.650  10.905  0.1092 -0.4498  0.4231
  264TMC3     H 4052   1.927   0.263  10.991 -0.1460  0.1682 -0.7367
  264TMC3    H1 4053   2.134   0.022  10.717  1.1364 -0.8052  1.9982
  264TMC3    H2 4054   2.043   0.435  10.645  0.7393 -0.1526  0.3250
  264TMC3    C7 4055   2.224   0.244  10.595 -0.3399 -0.4280 -0.1782
  264TMC3    C8 4056   1.985   0.497  10.886  0.2321 -0.0380  0.3429
  264TMC3    O1 4057   2.330   0.187  10.625 -0.0868 -0.8492  0.2019
  264TMC3    O2 4058   1.978   0.595  10.810  0.2671 -0.2223  0.2344
  265MPD2     C 4059   3.621   0.236  15.544  0.6172 -0.1520  0.1835
  265MPD2    C1 4060   3.730   0.315  15.521 -0.2678 -0.8856  0.6304
  265MPD2    C2 4061   3.830   0.274  15.431  0.4087 -0.5063 -0.1913
  265MPD2    C3 4062   3.819   0.164  15.346  0.5135  0.1297 -0.0749
  265MPD2    C4 4063   3.708   0.086  15.368 -0.5235 -0.1715  0.3250
  265MPD2    C5 4064   3.621   0.119  15.467  0.4042 -0.3796 -0.0335
  265MPD2     H 4065   3.918   0.336  15.436  2.7354 -3.9992  2.1912
  265MPD2    H1 4066   3.690   0.002  15.302 -0.3583  0.0146  0.0382
  265MPD2    H2 4067   3.539   0.262  15.609  0.9492 -1.6831  1.2058
  265MPD2    H3 4068   3.539   0.053  15.495  0.3746 -0.4889 -0.3909
  265MPD2     N 4069   3.914   0.120  15.250 -0.4176  0.3506 -0.3926
  265MPD2    H5 4070   3.870   0.049  15.192  0.9267 -1.2883  0.5982
  265MPD2    N1 4071   3.747   0.433  15.600  0.0847  0.3497  0.5134
  265MPD2    H7 4072   3.840   0.472  15.611  0.4106 -0.5394  0.9637
  266TMC3    C1 4073   3.684   0.620  15.740  0.7954 -0.7493 -0.3135
  266TMC3    C2 4074   3.781   0.608  15.835 -0.1383  1.1265 -0.2888
  266TMC3    C3 4075   3.805   0.711  15.923 -0.2806 -0.9298 -0.7531
  266TMC3    C4 4076   3.598   0.723  15.741  0.7117  0.2011  0.9203
  266TMC3    C5 4077   3.624   0.829  15.826  1.4501 -0.7959 -0.2042
  266TMC3    C6 4078   3.723   0.824  15.919  0.9026  0.3002  0.2487
  266TMC3     C 4079   3.641   0.507  15.661  0.0087 -0.3257 -0.4250
  266TMC3     O 4080   3.518   0.490  15.656 -0.4748  0.1843  0.3198
  266TMC3     H 4081   3.848   0.523  15.840 -2.7136 -0.7171  1.9978
  266TMC3    H1 4082   3.515   0.723  15.671  0.6294 -0.8949  1.0115
  266TMC3    H2 4083   3.715   0.882  16.010  1.5511 -0.6131  0.8752
  266TMC3    C7 4084   3.569   0.954  15.801 -0.0394 -0.5908  0.3925
  266TMC3    C8 4085   3.920   0.707  16.013  0.2474  0.5341 -0.4603
  266TMC3    O1 4086   3.575   1.037  15.889  0.3300 -0.3174  0.2158
  266TMC3    O2 4087   3.991   0.609  16.018 -0.1649  0.1434 -0.0160
  267MPD2     C 4088   1.237   2.693   0.139  0.3997 -0.9973  0.0194
  267MPD2    C1 4089   1.244   2.557   0.171  0.0906  0.2777 -0.0444
  267MPD2    C2 4090   1.141   2.466   0.158 -0.0968  0.6645  0.1345
  267MPD2    C3 4091   1.033   2.505   0.087 -0.1302 -0.0901 -0.2040
  267MPD2    C4 4092   1.019   2.640   0.048 -0.2233 -0.2355 -0.5203
  267MPD2    C5 4093   1.123   2.727   0.074  0.0548 -1.1695  0.2127
  267MPD2     H 4094   1.144   2.360   0.182 -0.8116  0.9700  1.5774
  267MPD2    H1 4095   0.923   2.676   0.010 -0.5132 -2.4717 -1.9358
  267MPD2    H2 4096   1.323   2.758   0.147  1.7063 -2.7973  0.8128
  267MPD2    H3 4097   1.111   2.821   0.022  1.1854 -0.4082  1.3278
  267MPD2     N 4098   0.935   2.414   0.042 -0.0566  0.6084  0.3901
  267MPD2    H5 4099   0.870   2.444  17.722  1.3556  0.4184 -0.9266
  267MPD2    N1 4100   1.378   2.514   0.208  0.3886 -0.4643  0.0966
  267MPD2    H7 4101   1.440   2.593   0.218 -0.0847 -0.0317 -0.3935
  268TMC3    C1 4102   1.557   2.382   0.276 -0.3365 -1.1035 -0.0849
  268TMC3    C2 4103   1.650   2.456   0.204  0.4778  0.2016  0.2271
  268TMC3    C3 4104   1.776   2.429   0.231  0.2964  0.4946 -0.3886
  268TMC3    C4 4105   1.589   2.279   0.358  0.2489  0.1865  0.2687
  268TMC3    C5 4106   1.725   2.255   0.375  0.5692 -0.3212 -0.4165
  268TMC3    C6 4107   1.820   2.337   0.318 -0.1446 -0.4708  0.1000
  268TMC3     C 4108   1.414   2.394   0.256  0.0169 -0.2886  0.1305
  268TMC3     O 4109   1.338   2.300   0.287  0.2910  0.1426  0.6352
  268TMC3     H 4110   1.616   2.535   0.138 -1.2084 -0.8053 -0.0903
  268TMC3    H1 4111   1.511   2.224   0.408  1.7453  0.0508  2.4367
  268TMC3    H2 4112   1.924   2.309   0.310 -0.3857 -2.1876  2.6614
  268TMC3    C7 4113   1.782   2.124   0.416 -1.0303 -0.1715  0.0989
  268TMC3    C8 4114   1.871   2.446   0.123  0.0487 -0.3207  0.2188
  268TMC3    O1 4115   1.899   2.111   0.455 -0.7681  0.0845  0.4000
  268TMC3    O2 4116   1.986   2.470   0.156 -1.0002  0.1413 -0.7016
  269MPD2     C 4117   2.048   0.752  15.508  0.0826  0.0231  0.2448
  269MPD2    C1 4118   1.948   0.795  15.591 -0.2544  0.4135  0.3392
  269MPD2    C2 4119   1.870   0.906  15.551 -0.0270 -0.2995 -0.3180
  269MPD2    C3 4120   1.877   0.951  15.423  0.0711  0.4987  0.2901
  269MPD2    C4 4121   1.971   0.896  15.338  0.0331  0.3562  0.2257
  269MPD2    C5 4122   2.065   0.805  15.383 -0.3497 -0.4713  0.5516
  269MPD2     H 4123   1.797   0.960  15.610 -0.3507 -0.6130 -0.4304
  269MPD2    H1 4124   1.981   0.939  15.239  0.9027  1.6827  0.9006
  269MPD2    H2 4125   2.101   0.661  15.537 -1.0827 -0.1226  1.8715
  269MPD2    H3 4126   2.145   0.773  15.317 -0.0845  0.9433  0.1661
  269MPD2     N 4127   1.805   1.064  15.390  0.0291  0.0204  0.2026
  269MPD2    H5 4128   1.742   1.084  15.467  0.1710 -0.0651  0.3409
  269MPD2    N1 4129   1.941   0.733  15.718 -0.0381 -0.3600 -0.3321
  269MPD2    H7 4130   2.008   0.659  15.736 -2.4828 -2.2525  0.9640
  270TMC3    C1 4131   1.839   0.659  15.922  0.3730 -0.5862  0.1668
  270TMC3    C2 4132   1.716   0.639  15.976  0.5616  0.1545  0.8328
  270TMC3    C3 4133   1.697   0.528  16.056 -0.1780  0.6193  1.0878
  270TMC3    C4 4134   1.943   0.568  15.946 -0.4651  0.5863  0.5313
  270TMC3    C5 4135   1.914   0.462  16.015 -1.2415 -0.0852  0.4802
  270TMC3    C6 4136   1.796   0.440  16.074 -0.2882 -0.3269 -0.5339
  270TMC3     C 4137   1.835   0.744  15.808 -0.6429 -0.5202 -0.4861
  270TMC3     O 4138   1.744   0.826  15.798  0.8679  0.4792 -0.2344
  270TMC3     H 4139   1.635   0.707  15.955  0.0844 -1.3244 -2.0927
  270TMC3    H1 4140   2.036   0.573  15.890 -1.0887 -1.7376 -0.7435
  270TMC3    H2 4141   1.784   0.353  16.138 -1.4918  0.0212 -0.2830
  270TMC3    C7 4142   1.987   0.345  15.982 -0.1968  0.0019  0.1772
  270TMC3    C8 4143   1.594   0.443  16.004 -0.0429 -0.0098 -0.0179
  270TMC3    O1 4144   2.103   0.353  15.953 -0.0150  0.1985 -0.3746
  270TMC3    O2 4145   1.635   0.329  15.987 -0.1665  0.2193 -0.2799
  271MPD2     C 4146   1.007   0.435  14.045 -0.5152 -0.2212 -0.3738
  271MPD2    C1 4147   0.907   0.392  14.133 -0.2097 -0.3528  0.6564
  271MPD2    C2 4148   0.779   0.415  14.104  0.2642  0.2601  0.1694
  271MPD2    C3 4149   0.739   0.487  13.991  0.1958 -0.0269  0.3569
  271MPD2    C4 4150   0.836   0.530  13.904 -0.0166 -0.4501  0.7871
  271MPD2    C5 4151   0.969   0.504  13.934 -0.4913  0.1232 -0.2079
  271MPD2     H 4152   0.708   0.389  14.182 -0.5461  0.5169 -0.4850
  271MPD2    H1 4153   0.815   0.605  13.828 -0.5360  0.2975  1.6667
  271MPD2    H2 4154   1.113   0.412  14.043 -0.7997 -1.5959  0.9567
  271MPD2    H3 4155   1.044   0.545  13.868  0.2567 -0.3830  0.3187
  271MPD2     N 4156   0.599   0.512  13.963 -0.3020 -0.6123 -0.2010
  271MPD2    H5 4157   0.579   0.578  13.889  1.2849 -1.5712 -1.5046
  271MPD2    N1 4158   0.938   0.317  14.252 -0.7022 -0.1230  0.1140
  271MPD2    H7 4159   0.863   0.276  14.307 -0.9078  0.3106  0.1518
  272TMC3    C1 4160   1.072   0.166  14.388  0.2555  0.0877  0.8285
  272TMC3    C2 4161   1.203   0.121  14.407  0.3542  0.3769 -0.4224
  272TMC3    C3 4162   1.257   0.104  14.529  0.3785 -0.0070 -0.4458
  272TMC3    C4 4163   0.998   0.196  14.503  0.8178  0.5421  0.4744
  272TMC3    C5 4164   1.063   0.183  14.623  0.2339  0.2229 -0.1668
  272TMC3    C6 4165   1.194   0.131  14.645  0.3000 -0.7038 -1.0170
  272TMC3     C 4166   1.061   0.272  14.286  0.3240  0.0946  0.2693
  272TMC3     O 4167   1.171   0.323  14.253 -0.3310 -0.6239  0.2102
  272TMC3     H 4168   1.258   0.092  14.318  0.5517 -0.6007  0.0271
  272TMC3    H1 4169   0.902   0.245  14.495 -0.1496 -1.7019 -1.9017
  272TMC3    H2 4170   1.237   0.111  14.742 -2.1659 -1.4840 -0.0787
  272TMC3    C7 4171   0.991   0.233  14.738 -0.0551  0.0513  0.2737
  272TMC3    C8 4172   1.402   0.071  14.523 -0.5857 -0.3038 -0.1523
  272TMC3    O1 4173   0.869   0.224  14.733 -0.3245  0.3091 -0.4016
  272TMC3    O2 4174   1.451   0.099  14.414  0.9295 -0.4689  0.1612
  273MPD2     C 4175   2.875   3.429  11.768  0.2107  0.8465  0.4027
  273MPD2    C1 4176   2.964   3.530  11.769  0.5450  0.7185  0.2387
  273MPD2    C2 4177   2.980   3.614  11.665 -0.8554  0.3446 -0.1119
  273MPD2    C3 4178   2.900   3.608  11.557  0.2136 -0.0319  0.6143
  273MPD2    C4 4179   2.797   3.520  11.556 -0.2175  0.0056 -0.0877
  273MPD2    C5 4180   2.781   3.431  11.660  0.7578  0.0315 -0.2265
  273MPD2     H 4181   3.061   3.686  11.674 -0.4190 -0.1111 -0.3865
  273MPD2    H1 4182   2.723   3.526  11.477 -0.5468 -2.4269  0.0381
  273MPD2    H2 4183   2.868   3.353  11.844 -1.5501  1.7861  1.1916
  273MPD2    H3 4184   2.703   3.356  11.655  1.6804 -0.7453 -2.8444
  273MPD2     N 4185   2.921   3.681  11.435 -0.0364  0.3279 -0.1695
  273MPD2    H5 4186   2.837   3.693  11.380  0.0949  1.6705 -0.0757
  273MPD2    N1 4187   3.044   3.551  11.882 -0.1895 -0.2430 -0.6588
  273MPD2    H7 4188   3.106   3.629  11.865  1.1531 -1.2503 -0.3933
  274TMC3    C1 4189   3.020   3.830  11.290  0.1100  1.1884  1.0455
  274TMC3    C2 4190   2.974   3.775  11.173  0.5554 -0.0741 -0.5049
  274TMC3    C3 4191   3.007   3.842  11.060 -0.3132  0.0626 -0.2802
  274TMC3    C4 4192   3.073   3.949  11.307  0.6794  0.0698  0.4963
  274TMC3    C5 4193   3.083   4.021  11.189  0.2777  0.7180  0.6728
  274TMC3    C6 4194   3.062   3.963  11.057  0.1400  0.0183  0.7838
  274TMC3     C 4195   3.028   3.762  11.414 -0.1124 -0.1527  0.0946
  274TMC3     O 4196   3.124   3.778  11.486  0.1411 -0.0317  0.1479
  274TMC3     H 4197   2.925   3.679  11.186  0.5115  0.0357  0.1741
  274TMC3    H1 4198   3.103   3.991  11.402 -0.9069 -1.7378  1.7825
  274TMC3    H2 4199   3.077   4.016  10.964 -2.5156  0.8037  0.8133
  274TMC3    C7 4200   3.091   4.161  11.197  0.5723 -0.1782  0.6098
  274TMC3    C8 4201   2.923   3.803  10.945 -0.5332 -0.4065  0.3442
  274TMC3    O1 4202   3.133   4.214  11.098  0.1008  0.4525  0.2696
  274TMC3    O2 4203   2.844   3.716  10.968  0.4111 -0.0188 -0.3847
  275MPD2     C 4204   2.392   1.434  14.476  0.1656 -0.7767 -0.6345
  275MPD2    C1 4205   2.430   1.305  14.487  0.3447  0.3473  0.2738
  275MPD2    C2 4206   2.335   1.199  14.492  0.0289 -0.0771 -0.9226
  275MPD2    C3 4207   2.201   1.234  14.492 -0.8850 -0.7526 -1.0120
  275MPD2    C4 4208   2.166   1.368  14.492  0.5741  0.3100  0.2953
  275MPD2    C5 4209   2.261   1.468  14.487 -0.6404 -0.1548  0.8519
  275MPD2     H 4210   2.360   1.094  14.496 -0.7084 -0.2887 -1.9718
  275MPD2    H1 4211   2.064   1.405  14.494  0.4545 -0.0053  0.0708
  275MPD2    H2 4212   2.457   1.520  14.467 -0.6518 -0.0097  0.7240
  275MPD2    H3 4213   2.228   1.570  14.469 -0.0861 -0.3140 -1.1349
  275MPD2     N 4214   2.096   1.139  14.497  0.3055 -0.2364 -0.0033
  275MPD2    H5 4215   2.001   1.171  14.512 -1.0692 -4.2218 -0.2708
  275MPD2    N1 4216   2.573   1.267  14.496 -0.0599 -0.4098  0.2189
  275MPD2    H7 4217   2.603   1.172  14.475 -0.9966 -0.9242  1.2263
  276TMC3    C1 4218   2.789   1.262  14.579 -0.5766 -0.2611  0.0746
  276TMC3    C2 4219   2.784   1.125  14.598 -0.1383 -0.8514 -0.0266
  276TMC3    C3 4220   2.901   1.058  14.635  0.6245 -0.2691 -0.2565
  276TMC3    C4 4221   2.901   1.335  14.621  0.3226  0.5227 -0.1395
  276TMC3    C5 4222   3.014   1.265  14.657 -0.1577  1.0093  0.2359
  276TMC3    C6 4223   3.013   1.127  14.660 -0.4301  0.0156 -0.7522
  276TMC3     C 4224   2.676   1.343  14.542  0.0579  0.4802  0.4314
  276TMC3     O 4225   2.676   1.462  14.573  0.0315 -0.2386 -0.0894
  276TMC3     H 4226   2.689   1.074  14.584 -0.1821 -0.5460 -0.8608
  276TMC3    H1 4227   2.898   1.443  14.609 -2.3736  0.5279  0.6706
  276TMC3    H2 4228   3.101   1.070  14.687 -0.2159  0.0504 -1.3553
  276TMC3    C7 4229   3.145   1.339  14.681 -0.9250  0.4859 -0.2106
  276TMC3    C8 4230   2.895   0.918  14.666 -0.2454 -0.7754 -0.4028
  276TMC3    O1 4231   3.237   1.291  14.619  0.2476  0.1643 -0.6048
  276TMC3    O2 4232   2.993   0.882  14.727  0.2336  0.2018  0.4970
  277MPD2     C 4233   4.322   0.716  13.182  0.1435  0.0693  0.3449
  277MPD2    C1 4234   4.190   0.706  13.159  0.4272  0.4350  0.6366
  277MPD2    C2 4235   4.123   0.625  13.252  0.3068 -0.4925  0.3392
  277MPD2    C3 4236   4.191   0.557  13.354 -0.1920  0.1967 -0.9979
  277MPD2    C4 4237   4.324   0.562  13.356 -0.1438  0.0004 -0.7893
  277MPD2    C5 4238   4.391   0.644  13.275 -0.0637 -0.1458  0.1442
  277MPD2     H 4239   4.016   0.606  13.248  0.7302 -2.4900 -1.3821
  277MPD2    H1 4240   4.377   0.497  13.425 -1.2088  0.2142  0.2094
  277MPD2    H2 4241   4.379   0.793  13.130  0.3404 -2.1600 -2.7144
  277MPD2    H3 4242   4.498   0.661  13.272  0.1679 -1.9239 -1.7444
  277MPD2     N 4243   4.121   0.485  13.454 -0.2997 -0.4672 -0.6130
  277MPD2    H5 4244   4.020   0.489  13.446  0.0002 -0.2057 -4.3258
  277MPD2    N1 4245   4.133   0.786  13.061 -0.4263 -0.4790 -0.2850
  277MPD2    H7 4246   4.190   0.831  12.990 -1.6338  0.6707 -0.5271
  278TMC3    C1 4247   4.048   0.371  13.636 -0.3128 -0.3144 -0.3719
  278TMC3    C2 4248   4.050   0.247  13.692 -0.2400 -0.3797  0.0364
  278TMC3    C3 4249   3.936   0.207  13.756  0.3155  0.0111 -0.4264
  278TMC3    C4 4250   3.932   0.445  13.630  0.7121 -0.5742 -0.3149
  278TMC3    C5 4251   3.823   0.403  13.696  1.0370  0.2723  0.0514
  278TMC3    C6 4252   3.823   0.284  13.766  1.0198  0.0847  0.5262
  278TMC3     C 4253   4.164   0.422  13.564  0.6843 -0.9111 -0.2846
  278TMC3     O 4254   4.275   0.386  13.595  0.2605 -0.2116  0.2242
  278TMC3     H 4255   4.131   0.175  13.689  1.2333  1.3086 -1.1517
  278TMC3    H1 4256   3.928   0.550  13.601 -0.7114 -0.1511  1.3940
  278TMC3    H2 4257   3.731   0.244  13.807  1.6492 -2.3835 -0.4708
  278TMC3    C7 4258   3.696   0.480  13.672  0.1626  0.3509 -0.7127
  278TMC3    C8 4259   3.923   0.062  13.780  0.1118 -0.3484 -0.1032
  278TMC3    O1 4260   3.696   0.567  13.582  0.4025  0.0616  0.4514
  278TMC3    O2 4261   4.019   0.012  13.839  0.2289 -0.0871 -0.1427
  279MPD2     C 4262   3.254   4.434  17.375 -0.2010  0.4598 -0.2956
  279MPD2    C1 4263   3.244   4.566  17.414 -0.2599 -0.7540  0.3022
  279MPD2    C2 4264   3.313   4.668  17.357  0.3178 -0.3881  0.2444
  279MPD2    C3 4265   3.391   4.646  17.244  0.2579 -0.6116 -0.3909
  279MPD2    C4 4266   3.395   4.513  17.197  0.3193  0.4176  0.8699
  279MPD2    C5 4267   3.333   4.409  17.259 -0.3873 -0.2333  0.4441
  279MPD2     H 4268   3.298   0.029  17.397 -1.1841 -0.6524  0.3155
  279MPD2    H1 4269   3.449   4.481  17.109 -0.2875 -2.2450  1.4779
  279MPD2    H2 4270   3.193   4.350  17.407  1.9852 -0.8542  0.4282
  279MPD2    H3 4271   3.337   4.310  17.215 -0.8647 -0.2649  0.4686
  279MPD2     N 4272   3.462   0.008  17.167 -0.7652  0.0808  0.0814
  279MPD2    H5 4273   3.509   4.725  17.080  1.1611  2.1828  0.5798
  279MPD2    N1 4274   3.145   4.602  17.513  0.5391 -0.1372  0.4071
  279MPD2    H7 4275   3.152   4.696  17.551 -0.7294 -0.7294  2.1169
  280TMC3    C1 4276   2.978   4.612  17.667 -0.0314  0.5719 -0.0834
  280TMC3    C2 4277   2.845   4.582  17.645  0.0927  0.0220 -0.3290
  280TMC3    C3 4278   2.758   4.686  17.677  0.5262  0.2853 -0.7714
  280TMC3    C4 4279   3.020   4.737  17.688 -0.3026 -0.4643  0.1385
  280TMC3    C5 4280   2.933   0.103  17.702 -0.2349  0.3342  0.0909
  280TMC3    C6 4281   2.795   0.078  17.705 -0.1996 -0.7247  0.1278
  280TMC3     C 4282   3.062   4.524  17.586  0.1086 -0.5019  0.2534
  280TMC3     O 4283   3.042   4.409  17.562 -0.2720 -0.4452  0.5751
  280TMC3     H 4284   2.810   4.480  17.645 -0.4150  0.1923  0.0824
  280TMC3    H1 4285   3.125   0.020  17.684 -0.0400 -1.4716  1.3389
  280TMC3    H2 4286   2.723   0.159  17.708 -0.9745 -1.4618  1.2474
  280TMC3    C7 4287   2.988   0.234  17.677 -0.3768  0.8523  0.2326
  280TMC3    C8 4288   2.612   4.663  17.673  0.3812 -0.4218 -0.1640
  280TMC3    O1 4289   3.110   0.256  17.687 -0.1509  0.0772 -0.5616
  280TMC3    O2 4290   2.539   0.019  17.701  0.0684  0.2039  0.0112
  281TMC3    C1 4291   1.857   0.744  13.690 -0.2360 -0.1967  0.9335
  281TMC3    C2 4292   1.968   0.794  13.628 -0.1993  1.0998  0.1319
  281TMC3    C3 4293   2.030   0.718  13.531  0.0326 -1.5103 -0.2242
  281TMC3    C4 4294   1.813   0.617  13.666 -0.1516 -0.4388 -0.1173
  281TMC3    C5 4295   1.879   0.546  13.571  0.1834 -0.6368  0.0025
  281TMC3    C6 4296   1.980   0.597  13.498 -0.5346  0.3513  0.5811
  281TMC3     C 4297   1.761   0.840  13.736 -0.3393  0.6012  0.2045
  281TMC3     O 4298   1.646   0.797  13.739  0.0663  0.5683 -0.2764
  281TMC3     H 4299   2.022   0.872  13.680  1.1687 -0.2564  0.7705
  281TMC3    H1 4300   1.731   0.577  13.723 -0.3148 -0.4670 -0.3730
  281TMC3    H2 4301   2.024   0.537  13.419  1.2859  0.4162  1.5320
  281TMC3    C7 4302   1.810   0.427  13.525 -0.2876 -0.0839 -0.5232
  281TMC3    C8 4303   2.154   0.751  13.467  0.0276  0.2779 -0.4378
  281TMC3    O1 4304   1.875   0.345  13.458 -0.5685 -0.4641 -0.0350
  281TMC3    O2 4305   2.227   0.658  13.438 -0.1786 -0.1011  0.2583
  282MPD2     C 4306   3.955   1.905  14.764  1.0351  0.5111 -0.2635
  282MPD2    C1 4307   3.853   1.955  14.839  0.2838  0.2778  0.5073
  282MPD2    C2 4308   3.728   1.958  14.778 -0.4683 -0.4578 -0.2408
  282MPD2    C3 4309   3.709   1.903  14.651  0.0460 -0.0077 -0.1108
  282MPD2    C4 4310   3.815   1.854  14.579 -0.0877 -0.0171  0.2664
  282MPD2    C5 4311   3.937   1.857  14.634  0.3977  0.4507  0.4091
  282MPD2     H 4312   3.639   1.987  14.832  0.0912  1.4145 -0.3424
  282MPD2    H1 4313   3.798   1.812  14.480  1.8183 -1.8269  0.7034
  282MPD2    H2 4314   4.060   1.901  14.791  0.4428  0.6533  2.0182
  282MPD2    H3 4315   4.017   1.802  14.586 -1.4875 -1.0182 -1.0614
  282MPD2     N 4316   3.578   1.914  14.596  0.5120 -0.0250  0.0151
  282MPD2    H5 4317   3.500   1.955  14.646  0.2501 -0.6153  0.0836
  282MPD2    N1 4318   3.865   1.989  14.976  0.2560 -0.6580 -0.4741
  282MPD2    H7 4319   3.781   2.017  15.024  0.9649  0.3963  0.1260
  283TMC3    C1 4320   3.949   2.042  15.185  0.2273  0.2442 -0.2621
  283TMC3    C2 4321   3.997   2.155  15.249  0.3916 -0.1875  0.6066
  283TMC3    C3 4322   3.957   2.168  15.382 -0.3654 -0.3927  0.2765
  283TMC3    C4 4323   3.870   1.946  15.244 -0.3123  0.2652 -0.1933
  283TMC3    C5 4324   3.849   1.962  15.380  0.0632  0.3826 -0.3820
  283TMC3    C6 4325   3.888   2.072  15.451 -0.0151  0.1698 -0.2782
  283TMC3     C 4326   3.977   2.015  15.048 -0.7298  0.2245  0.1537
  283TMC3     O 4327   4.091   2.043  15.010 -0.5215  0.0311 -0.3501
  283TMC3     H 4328   4.049   2.233  15.194  2.6483 -2.2575 -0.2201
  283TMC3    H1 4329   3.834   1.859  15.190 -1.7868 -0.5159  2.0728
  283TMC3    H2 4330   3.855   2.101  15.551 -0.5271 -0.6985 -0.1955
  283TMC3    C7 4331   3.732   1.889  15.434 -0.0687  0.2725 -0.3981
  283TMC3    C8 4332   4.007   2.279  15.463  0.0848 -0.4536 -0.2472
  283TMC3    O1 4333   3.710   1.919  15.552 -0.6406 -0.0865 -0.5805
  283TMC3    O2 4334   4.050   2.248  15.574  0.6606  0.5087 -0.6893
  284MPD2     C 4335   1.689   1.603  12.188  0.2818  0.3958  0.3785
  284MPD2    C1 4336   1.827   1.628  12.198 -0.1446  0.2326 -0.1070
  284MPD2    C2 4337   1.897   1.576  12.306 -0.2469  0.4424  0.3719
  284MPD2    C3 4338   1.832   1.511  12.408 -0.1017  0.1562 -0.0938
  284MPD2    C4 4339   1.694   1.489  12.406 -0.8129 -0.5832  0.2131
  284MPD2    C5 4340   1.626   1.532  12.294  0.4104  0.4669  0.0840
  284MPD2     H 4341   2.003   1.594  12.314 -0.3973  1.7316 -0.5791
  284MPD2    H1 4342   1.645   1.430  12.483  0.3681 -2.0596 -0.1864
  284MPD2    H2 4343   1.633   1.631  12.100 -0.7291  0.2034  0.9588
  284MPD2    H3 4344   1.521   1.504  12.298  0.9484 -1.5654  0.1060
  284MPD2     N 4345   1.895   1.460  12.521  0.1121 -0.4184  0.1625
  284MPD2    H5 4346   1.835   1.400  12.577  0.7174  1.4354  2.8092
  284MPD2    N1 4347   1.892   1.707  12.100 -0.3751  0.9874 -0.1735
  284MPD2    H7 4348   1.993   1.717  12.101 -0.3431  0.7708 -0.7898
  285TMC3    C1 4349   1.902   1.835  11.899 -0.7307 -0.0511  0.4067
  285TMC3    C2 4350   2.002   1.758  11.840 -0.0247  0.4125 -0.6403
  285TMC3    C3 4351   2.075   1.810  11.738 -0.1915  0.4352 -0.0062
  285TMC3    C4 4352   1.871   1.958  11.854  0.1735  0.9142 -0.3476
  285TMC3    C5 4353   1.935   2.000  11.741 -0.2146  0.1189  0.5185
  285TMC3    C6 4354   2.043   1.932  11.690  0.6515 -0.6305 -0.0517
  285TMC3     C 4355   1.820   1.784  12.007 -0.0903  0.1653 -0.0895
  285TMC3     O 4356   1.706   1.832  12.005 -0.1787 -0.1183 -0.4780
  285TMC3     H 4357   2.029   1.659  11.876  2.4526  1.0710 -0.7199
  285TMC3    H1 4358   1.800   2.024  11.902  0.4300  1.0580 -0.1669
  285TMC3    H2 4359   2.107   1.986  11.622  0.9671  0.7490  1.3514
  285TMC3    C7 4360   1.922   2.142  11.706  0.4014  0.4580  0.4622
  285TMC3    C8 4361   2.136   1.720  11.642 -0.3091  0.2435  0.7285
  285TMC3    O1 4362   2.026   2.207  11.682  0.2112 -0.3140  0.2117
  285TMC3    O2 4363   2.062   1.631  11.605  0.5119  0.2896  0.3041
  286MPD2     C 4364   3.176   0.368   0.683  0.0471 -0.2914 -0.3520
  286MPD2    C1 4365   3.038   0.344   0.659 -0.3432  0.0015 -0.4966
  286MPD2    C2 4366   3.000   0.211   0.659 -0.0066  0.0311  0.2985
  286MPD2    C3 4367   3.087   0.103   0.686 -0.0132  0.1866 -0.0470
  286MPD2    C4 4368   3.220   0.131   0.706  0.9277 -0.0015 -0.4479
  286MPD2    C5 4369   3.265   0.260   0.694  0.4674 -0.0304  0.4280
  286MPD2     H 4370   2.900   0.186   0.625 -0.0371  0.4927  0.0489
  286MPD2    H1 4371   3.297   0.057   0.722 -0.1184 -1.0692 -0.3531
  286MPD2    H2 4372   3.223   0.465   0.673 -2.2211  0.7177 -1.3259
  286MPD2    H3 4373   3.370   0.284   0.709  1.0184 -1.5829 -0.9086
  286MPD2     N 4374   3.056   4.708   0.711  0.0102 -0.8172  0.1158
  286MPD2    H5 4375   3.126   4.639   0.738 -0.2170 -0.6486  1.1457
  286MPD2    N1 4376   2.943   0.444   0.628 -0.4962  0.1059  0.1230
  286MPD2    H7 4377   2.853   0.399   0.615 -0.7520  0.8933 -0.8163
  287TMC3    C1 4378   2.927   4.519   0.754  0.3063 -0.3982 -0.6843
  287TMC3    C2 4379   2.901   4.404   0.681 -0.4413 -0.4719 -0.0603
  287TMC3    C3 4380   2.962   4.286   0.732 -0.0961 -0.6249  0.4807
  287TMC3    C4 4381   3.008   4.499   0.865 -0.6151 -0.3975 -0.1476
  287TMC3    C5 4382   3.060   4.383   0.913  1.1212 -0.6958 -0.7792
  287TMC3    C6 4383   3.043   4.269   0.842  0.6002  0.3421  0.5274
  287TMC3     C 4384   2.933   4.651   0.698  0.2873 -0.6779  0.0341
  287TMC3     O 4385   2.832   4.705   0.650  0.3579  0.1160  0.1098
  287TMC3     H 4386   2.830   4.407   0.599 -0.9182  3.1008  0.4361
  287TMC3    H1 4387   3.039   4.589   0.917 -2.5495  0.5193 -0.6167
  287TMC3    H2 4388   3.070   4.173   0.885 -0.4122 -0.7891 -1.3256
  287TMC3    C7 4389   3.140   4.391   1.028  0.2442 -0.0036  0.3406
  287TMC3    C8 4390   2.955   4.181   0.637  0.1380 -0.0526 -0.0631
  287TMC3    O1 4391   3.097   4.472   1.108 -0.2090  0.7287  0.4954
  287TMC3    O2 4392   2.876   4.190   0.542  0.3192  0.5945 -0.6403
  288TMC3    C1 4393   3.982   4.434  14.444  0.6837 -0.2981 -0.6073
  288TMC3    C2 4394   3.897   4.356  14.522  0.0633 -0.6423 -0.2728
  288TMC3    C3 4395   3.764   4.384  14.525 -0.2595 -0.2098 -0.1665
  288TMC3    C4 4396   3.935   4.534  14.363  0.3182 -0.3614 -0.2854
  288TMC3    C5 4397   3.795   4.553  14.359  0.8267 -0.3207  0.3176
  288TMC3    C6 4398   3.717   4.482  14.446 -0.0838 -0.1906 -0.3572
  288TMC3     C 4399   4.128   4.423  14.469  0.5278 -0.8139  0.2129
  288TMC3     O 4400   4.204   4.524  14.459 -0.1219  0.1024  0.4253
  288TMC3     H 4401   3.934   4.289  14.599 -0.3933 -1.2287 -0.5622
  288TMC3    H1 4402   4.006   4.599  14.314  2.1723 -2.2418 -0.0654
  288TMC3    H2 4403   3.613   4.506  14.467 -0.0691 -1.1060  0.7478
  288TMC3    C7 4404   3.745   4.681  14.311 -0.3587 -0.3080  0.2973
  288TMC3    C8 4405   3.704   4.377  14.653 -0.7723  0.3359 -0.7618
  288TMC3    O1 4406   3.624   4.686  14.318 -0.4680 -0.1879  0.0142
  288TMC3    O2 4407   3.653   4.477  14.703 -0.7669 -0.4711  0.2831
  289MPD2     C 4408   4.250   4.032  13.887  0.1392 -0.3176 -0.0144
  289MPD2    C1 4409   4.157   4.107  13.815 -0.2558 -0.0503 -0.3208
  289MPD2    C2 4410   4.032   4.063  13.797  0.2069 -0.0536  0.1276
  289MPD2    C3 4411   3.993   3.948  13.859 -0.3817  0.2869 -0.1064
  289MPD2    C4 4412   4.079   3.877  13.931 -0.5326  0.4114  0.0634
  289MPD2    C5 4413   4.214   3.909  13.936 -0.6273 -0.0087  0.9043
  289MPD2     H 4414   3.962   4.124  13.741 -0.7670  1.6201  3.1757
  289MPD2    H1 4415   4.045   3.797  13.995  2.0382  0.0031  0.8973
  289MPD2    H2 4416   4.354   4.061  13.900  0.3599 -1.0307 -0.1542
  289MPD2    H3 4417   4.287   3.858  13.998  1.1582 -1.1070 -2.1127
  289MPD2     N 4418   3.857   3.903  13.853 -0.4838  0.7963  0.3061
  289MPD2    H5 4419   3.836   3.820  13.908 -0.9026 -0.3185 -1.5112
  289MPD2    N1 4420   4.199   4.225  13.753  0.6456  0.5218  0.6643
  289MPD2    H7 4421   4.296   4.245  13.777  0.3639  1.0824  1.3231
  290TMC3    C1 4422   3.623   3.905  13.791  0.1449  0.3492  0.8131
  290TMC3    C2 4423   3.520   3.972  13.736  0.5172  0.1726  0.0941
  290TMC3    C3 4424   3.397   3.916  13.734  0.4963 -0.1691  1.1982
  290TMC3    C4 4425   3.597   3.781  13.841 -0.0710  0.3651 -0.7978
  290TMC3    C5 4426   3.463   3.743  13.858  0.0963 -0.0888  0.3212
  290TMC3    C6 4427   3.359   3.809  13.801  0.1001  0.2877  0.1996
  290TMC3     C 4428   3.756   3.960  13.778 -0.4503  0.1272  0.6448
  290TMC3     O 4429   3.767   4.047  13.693 -0.1958  0.2623  0.1571
  290TMC3     H 4430   3.544   4.064  13.683 -1.4539  1.5130  1.5268
  290TMC3    H1 4431   3.685   3.729  13.876 -1.3587  1.0603  3.4670
  290TMC3    H2 4432   3.256   3.781  13.814  0.4336 -0.5793  0.9917
  290TMC3    C7 4433   3.429   3.640  13.940  0.2588  0.6531  0.5699
  290TMC3    C8 4434   3.296   4.018  13.734  0.0405  0.7420  0.7713
  290TMC3    O1 4435   3.325   3.645  14.002 -0.0989 -0.3681 -0.4136
  290TMC3    O2 4436   3.197   3.994  13.663  0.2980 -0.0506 -0.2885
  291MPD2     C 4437   3.576   3.754   0.332 -0.3621  0.7878  0.2978
  291MPD2    C1 4438   3.677   3.652   0.333  0.2591 -0.2122  0.2431
  291MPD2    C2 4439   3.806   3.701   0.353 -0.3038 -0.7984 -0.5278
  291MPD2    C3 4440   3.838   3.832   0.379  0.2873  0.5234  0.0657
  291MPD2    C4 4441   3.738   3.923   0.369  0.0409  0.3249 -0.6613
  291MPD2    C5 4442   3.613   3.889   0.346  0.2909  0.0959  1.0657
  291MPD2     H 4443   3.892   3.635   0.363  0.5258  0.4019  0.2955
  291MPD2    H1 4444   3.759   4.029   0.379  1.6952  0.1803 -2.3262
  291MPD2    H2 4445   3.468   3.746   0.335 -0.4061  0.3021 -2.3547
  291MPD2    H3 4446   3.540   3.964   0.375 -0.0992  0.4512 -0.8131
  291MPD2     N 4447   3.974   3.869   0.409  0.3365 -0.1637  0.7231
  291MPD2    H5 4448   3.994   3.968   0.421 -0.8889  0.0092  1.3836
  291MPD2    N1 4449   3.647   3.516   0.329 -0.6414  0.0499  0.4217
  291MPD2    H7 4450   3.723   3.449   0.327 -0.0010  0.7505  1.6644
  292TMC3    C1 4451   3.531   3.325   0.304 -0.8967 -0.0445 -0.2581
  292TMC3    C2 4452   3.612   3.275   0.401  0.2979  0.5673 -0.1505
  292TMC3    C3 4453   3.655   3.142   0.394  0.2375  0.5707 -0.7246
  292TMC3    C4 4454   3.498   3.251   0.195  0.6674 -0.0855  0.5345
  292TMC3    C5 4455   3.549   3.122   0.191  0.1980 -0.0214 -0.2654
  292TMC3    C6 4456   3.630   3.065   0.282 -0.2027 -0.3935 -0.0415
  292TMC3     C 4457   3.524   3.465   0.299 -0.5127 -0.7469 -0.0085
  292TMC3     O 4458   3.420   3.519   0.256  0.8728  0.3763  0.2915
  292TMC3     H 4459   3.637   3.339   0.486 -1.3670 -1.4072  1.8176
  292TMC3    H1 4460   3.460   3.304   0.109 -0.7789  0.1653  1.3253
  292TMC3    H2 4461   3.665   2.963   0.277 -0.1862 -0.3662 -0.4568
  292TMC3    C7 4462   3.496   3.033   0.087  0.0517  0.5218 -0.2336
  292TMC3    C8 4463   3.692   3.075   0.511  0.3243  0.6345  0.2523
  292TMC3    O1 4464   3.539   2.919   0.086  0.4890  0.1397  0.1981
  292TMC3    O2 4465   3.716   2.957   0.496  0.1778 -0.0129 -0.3300
  293MPD2     C 4466   0.411   0.396  12.841 -0.1952  0.0410 -0.1733
  293MPD2    C1 4467   0.355   0.308  12.932 -1.1277  0.0939  0.3936
  293MPD2    C2 4468   0.422   0.274  13.051  0.7908  0.1701 -0.1519
  293MPD2    C3 4469   0.551   0.325  13.081 -0.5729 -0.3713 -0.4171
  293MPD2    C4 4470   0.603   0.418  12.994 -0.0472  0.0855  0.8935
  293MPD2    C5 4471   0.526   0.456  12.884  0.5722  0.4963 -0.0506
  293MPD2     H 4472   0.366   0.212  13.121 -1.1831  2.0891 -0.0236
  293MPD2    H1 4473   0.697   0.469  13.009  0.0845  0.1427 -0.1524
  293MPD2    H2 4474   0.364   0.418  12.746 -1.0470 -1.1660 -0.0393
  293MPD2    H3 4475   0.574   0.531  12.823  0.2876  1.1414  0.5190
  293MPD2     N 4476   0.607   0.274  13.202  0.2231 -0.0434 -0.1056
  293MPD2    H5 4477   0.560   0.204  13.258 -0.0217  2.0216  2.2986
  293MPD2    N1 4478   0.229   0.261  12.893 -0.5543  0.0710 -0.4347
  293MPD2    H7 4479   0.196   0.296  12.804 -2.6215 -3.6734 -1.1419
  294TMC3    C1 4480   0.028   0.163  12.881  0.0160  0.7752 -0.7489
  294TMC3    C2 4481   4.718   0.048  12.841  0.0326  0.5524 -0.7813
  294TMC3    C3 4482   4.595   0.046  12.777 -0.4581  0.3489  0.6299
  294TMC3    C4 4483   4.694   0.278  12.865  0.1797  0.0936 -0.1099
  294TMC3    C5 4484   4.568   0.274  12.805  0.0442  0.1877 -0.9001
  294TMC3    C6 4485   4.520   0.157  12.765 -0.5461 -0.0096  0.1539
  294TMC3     C 4486   0.156   0.160  12.948  0.5497  0.3023  0.9153
  294TMC3     O 4487   0.180   0.080  13.035 -0.5945 -0.0284 -0.4963
  294TMC3     H 4488   0.037   4.695  12.835 -1.4244 -0.4449  0.6655
  294TMC3    H1 4489   4.715   0.366  12.924  2.5734 -1.7564  1.8257
  294TMC3    H2 4490   4.423   0.157  12.716 -0.1849 -1.0087 -0.5490
  294TMC3    C7 4491   4.546   0.369  12.703 -0.0223  0.3264 -0.4137
  294TMC3    C8 4492   4.588   4.701  12.661 -0.4593  0.6795  0.4775
  294TMC3    O1 4493   4.434   0.384  12.658 -0.2017 -0.8581 -0.5872
  294TMC3    O2 4494   4.690   4.645  12.625  0.5786 -0.6408  0.1178
  295MPD2     C 4495   1.115   3.889   0.943 -0.5971 -0.6205  0.3818
  295MPD2    C1 4496   1.092   3.970   0.834  0.2923 -0.2406  0.6796
  295MPD2    C2 4497   0.995   4.066   0.839  0.0872 -0.1212  0.2185
  295MPD2    C3 4498   0.911   4.081   0.951 -0.4674 -0.0465 -0.2671
  295MPD2    C4 4499   0.927   3.996   1.050 -0.0332 -0.2248 -0.1660
  295MPD2    C5 4500   1.021   3.897   1.039 -0.3293 -0.6387  0.5299
  295MPD2     H 4501   0.984   4.130   0.753  1.2875 -0.8361 -0.4651
  295MPD2    H1 4502   0.873   4.004   1.144  0.4492  0.6943  0.0393
  295MPD2    H2 4503   1.194   3.815   0.937  0.5855  0.6484  0.4621
  295MPD2    H3 4504   1.019   3.828   1.122  1.3068  0.0260  1.1270
  295MPD2     N 4505   0.805   4.176   0.958  0.1840  0.1240 -0.4791
  295MPD2    H5 4506   0.758   4.175   1.048 -0.0550 -1.4291 -0.6362
  295MPD2    N1 4507   1.178   3.975   0.718  0.0587  0.4214  0.1659
  295MPD2    H7 4508   1.142   4.031   0.641 -0.0231  0.4997  0.2609
  296TMC3    C1 4509   0.670   4.368   0.900  0.0528  0.5959  0.6609
  296TMC3    C2 4510   0.675   4.488   0.835 -0.3334  0.2012  0.0734
  296TMC3    C3 4511   0.579   4.582   0.869 -0.0406  0.6408 -0.0269
  296TMC3    C4 4512   0.595   4.354   1.011 -0.0698 -0.3595  0.1141
  296TMC3    C5 4513   0.504   4.456   1.039 -0.4959  0.2251 -0.1889
  296TMC3    C6 4514   0.494   4.571   0.970  0.0201 -0.1835  0.2144
  296TMC3     C 4515   0.758   4.260   0.854  0.3532 -0.4094 -0.4428
  296TMC3     O 4516   0.800   4.276   0.740  0.0029 -0.1144  0.0408
  296TMC3     H 4517   0.731   4.486   0.742 -1.8144  1.6486 -0.8608
  296TMC3    H1 4518   0.580   4.255   1.051 -0.5436 -0.3061  0.0616
  296TMC3    H2 4519   0.404   4.631   0.977  1.6207  1.9460  2.5832
  296TMC3    C7 4520   0.412   4.457   1.155 -0.0575  0.2709  0.1485
  296TMC3    C8 4521   0.573   4.706   0.784  0.9039 -0.3792 -0.3944
  296TMC3    O1 4522   0.312   4.532   1.152 -0.4076  0.4406  0.1435
  296TMC3    O2 4523   0.475   0.042   0.789 -0.4755 -0.0506 -0.0920
  297MPD2     C 4524   3.097   0.905  16.146 -0.9888 -0.0457 -0.1226
  297MPD2    C1 4525   3.109   0.997  16.043 -0.5809  0.7336 -0.1118
  297MPD2    C2 4526   3.207   1.094  16.053  0.2183 -0.7128 -0.3055
  297MPD2    C3 4527   3.289   1.098  16.164  0.4709  0.8829 -0.7563
  297MPD2    C4 4528   3.273   1.002  16.269 -0.2335  0.1474 -0.2674
  297MPD2    C5 4529   3.178   0.907  16.257 -0.2100 -0.7190  0.2748
  297MPD2     H 4530   3.211   1.166  15.973  2.2844 -0.1600  0.2957
  297MPD2    H1 4531   3.340   1.000  16.354  0.0081 -3.4679 -0.5554
  297MPD2    H2 4532   3.021   0.828  16.137 -0.7927  0.1701 -3.9701
  297MPD2    H3 4533   3.166   0.827  16.329  0.6517 -0.6945  0.4505
  297MPD2     N 4534   3.392   1.189  16.161 -0.0060 -0.0973 -0.0203
  297MPD2    H5 4535   3.379   1.258  16.088 -2.3243  0.8510  1.2883
  297MPD2    N1 4536   3.028   0.996  15.932 -0.2380 -0.4480 -0.5085
  297MPD2    H7 4537   3.043   1.076  15.872 -1.4351 -1.1626 -1.7523
  298TMC3    C1 4538   2.829   0.972  15.814  0.2674  0.3051  0.2747
  298TMC3    C2 4539   2.891   1.013  15.700  0.2766 -0.1285  0.5618
  298TMC3    C3 4540   2.816   1.068  15.606 -0.3709  0.5644  0.0252
  298TMC3    C4 4541   2.697   1.007  15.842 -0.1462 -0.2687 -0.5511
  298TMC3    C5 4542   2.623   1.068  15.742  0.2253  0.7529 -0.1098
  298TMC3    C6 4543   2.682   1.097  15.621  0.1400  0.1571 -0.3816
  298TMC3     C 4544   2.908   0.925  15.923 -0.4845  0.1246 -0.4267
  298TMC3     O 4545   2.863   0.847  16.001  0.1400  0.3769 -0.2600
  298TMC3     H 4546   2.994   0.993  15.676 -0.1816  0.3813 -1.8086
  298TMC3    H1 4547   2.655   0.971  15.935 -0.6290 -0.5253 -0.8701
  298TMC3    H2 4548   2.636   1.157  15.543  0.0408  1.3822  0.6149
  298TMC3    C7 4549   2.506   1.139  15.792  0.1904  0.3118  0.0453
  298TMC3    C8 4550   2.868   1.059  15.467  0.6745 -0.6476 -0.5685
  298TMC3    O1 4551   2.471   1.112  15.908 -0.0286 -0.2756 -0.6503
  298TMC3    O2 4552   2.840   1.142  15.381 -0.0008  0.5500 -0.3740
  299MPD2     C 4553   3.078   0.931  10.056 -0.2623 -0.7688  0.4233
  299MPD2    C1 4554   3.137   1.045  10.120 -0.3872  0.0582  0.1566
  299MPD2    C2 4555   3.077   1.172  10.111  0.4584 -0.5208  0.1849
  299MPD2    C3 4556   2.950   1.188  10.043  0.7328  0.1206 -0.0979
  299MPD2    C4 4557   2.898   1.076   9.984 -1.0801 -0.0724  0.2449
  299MPD2    C5 4558   2.957   0.948   9.984 -0.3449 -0.0102  0.6252
  299MPD2     H 4559   3.117   1.260  10.160  1.9822 -0.9213 -0.3410
  299MPD2    H1 4560   2.806   1.083   9.926  0.1780  0.4156 -1.6859
  299MPD2    H2 4561   3.131   0.836  10.056 -2.1315 -1.7924 -2.3710
  299MPD2    H3 4562   2.917   0.864   9.929 -0.9097  1.3347 -1.0361
  299MPD2     N 4563   2.881   1.311  10.045  0.1071 -0.1789  0.3178
  299MPD2    H5 4564   2.782   1.309  10.023  0.1068 -2.5911  0.5491
  299MPD2    N1 4565   3.253   1.017  10.198 -0.4371  0.1496  0.2055
  299MPD2    H7 4566   3.278   0.921  10.218  1.5297  0.5124 -0.5779
  300TMC3    C1 4567   2.823   1.524  10.108 -0.1486 -0.2824  0.1145
  300TMC3    C2 4568   2.847   1.590  10.225 -0.0689  0.4904  0.6041
  300TMC3    C3 4569   2.744   1.653  10.288  0.1554  0.1283  0.6265
  300TMC3    C4 4570   2.702   1.526  10.052  0.2924 -0.2706  0.0350
  300TMC3    C5 4571   2.604   1.592  10.117  0.4961  0.5069  0.4171
  300TMC3    C6 4572   2.625   1.667  10.228  0.1627 -0.4919  0.1971
  300TMC3     C 4573   2.929   1.432  10.078  0.4193 -0.6704 -0.3151
  300TMC3     O 4574   3.044   1.469  10.098  0.2268  0.1441 -0.1909
  300TMC3     H 4575   2.949   1.580  10.261 -0.1122 -1.2679  0.2740
  300TMC3    H1 4576   2.677   1.457   9.973 -0.4899 -0.0750  0.1050
  300TMC3    H2 4577   2.538   1.705  10.279 -1.4249 -2.1944 -1.2419
  300TMC3    C7 4578   2.488   1.510  10.125  0.1681 -0.0285  0.0187
  300TMC3    C8 4579   2.733   1.615  10.427  0.6647  0.4297 -1.1661
  300TMC3    O1 4580   2.445   1.451  10.028 -0.3855 -0.1593  0.2708
  300TMC3    O2 4581   2.615   1.609  10.463  0.2048 -0.1946  0.2125
  301MPD2     C 4582   1.634   2.062   0.821  0.2365 -0.6506  0.3592
  301MPD2    C1 4583   1.522   2.042   0.746 -0.8697 -0.1836 -0.6153
  301MPD2    C2 4584   1.489   1.914   0.709  0.5986 -0.6251 -0.0550
  301MPD2    C3 4585   1.556   1.803   0.762  0.3156 -0.1462  0.6863
  301MPD2    C4 4586   1.665   1.828   0.850  0.3503  0.1259 -0.2878
  301MPD2    C5 4587   1.698   1.961   0.880 -0.1905 -0.2779 -0.3829
  301MPD2     H 4588   1.413   1.904   0.632  1.0035  0.8155 -0.6429
  301MPD2    H1 4589   1.720   1.748   0.899 -0.1472  1.6862  2.7972
  301MPD2    H2 4590   1.675   2.158   0.850  2.5691 -1.7550  0.8031
  301MPD2    H3 4591   1.782   1.985   0.945  0.3494  0.3557 -1.2955
  301MPD2     N 4592   1.520   1.668   0.731 -0.0397  0.2871  0.0051
  301MPD2    H5 4593   1.587   1.593   0.746 -0.8995 -0.2651  1.0972
  301MPD2    N1 4594   1.438   2.145   0.702 -0.5174 -0.0998  0.1379
  301MPD2    H7 4595   1.350   2.126   0.655 -0.3454  1.6609 -0.8889
  302TMC3    C1 4596   1.385   1.523   0.577  0.0598  0.1148 -0.6361
  302TMC3    C2 4597   1.483   1.431   0.583  0.1079  1.2296  0.6588
  302TMC3    C3 4598   1.495   1.342   0.486 -0.0542  0.3175 -0.0731
  302TMC3    C4 4599   1.298   1.525   0.468 -0.9050  0.1769 -0.0148
  302TMC3    C5 4600   1.322   1.447   0.355 -0.3896 -0.8723  0.3456
  302TMC3    C6 4601   1.421   1.349   0.369  0.8168 -0.8111 -0.2381
  302TMC3     C 4602   1.396   1.642   0.662 -0.0703 -0.4128  0.3816
  302TMC3     O 4603   1.299   1.714   0.677  0.1786  0.2074  0.1965
  302TMC3     H 4604   1.557   1.429   0.663  0.5354 -2.4284  0.2006
  302TMC3    H1 4605   1.226   1.606   0.468  1.1857  2.0416 -0.6760
  302TMC3    H2 4606   1.424   1.274   0.290  0.2091  0.8537 -1.8596
  302TMC3    C7 4607   1.208   1.403   0.283  0.9413 -0.4802 -0.0173
  302TMC3    C8 4608   1.561   1.208   0.515  0.0501  0.4211  0.3998
  302TMC3    O1 4609   1.215   1.292   0.237  0.2381 -0.0518 -0.4829
  302TMC3    O2 4610   1.598   1.144   0.416 -0.3442  0.2327 -0.6303
  303MPD2     C 4611   1.521   0.932  11.145  0.7494  0.5035  0.0840
  303MPD2    C1 4612   1.394   0.880  11.152 -0.0257 -0.2767 -0.2775
  303MPD2    C2 4613   1.319   0.895  11.031  0.2188 -0.2982  0.3686
  303MPD2    C3 4614   1.371   0.957  10.915 -0.0226  0.3998  0.2189
  303MPD2    C4 4615   1.492   1.019  10.921  0.6426  0.1825 -0.4355
  303MPD2    C5 4616   1.559   1.008  11.035 -0.1354 -0.0987 -0.4006
  303MPD2     H 4617   1.218   0.858  11.045  0.6482 -0.7812  2.3131
  303MPD2    H1 4618   1.521   1.092  10.846  0.6099 -0.4436 -1.0636
  303MPD2    H2 4619   1.589   0.928  11.229  0.2699  2.0270  0.5551
  303MPD2    H3 4620   1.650   1.067  11.046  0.3351 -0.5719 -1.8063
  303MPD2     N 4621   1.291   0.963  10.799 -0.1386 -0.8208  0.1474
  303MPD2    H5 4622   1.334   1.011  10.720  0.0978 -2.4261 -0.7148
  303MPD2    N1 4623   1.355   0.819  11.272 -0.0982  0.4759  0.2765
  303MPD2    H7 4624   1.435   0.796  11.330  1.5813  0.3100 -2.1315
  304TMC3    C1 4625   1.215   0.700  11.424  0.4943 -0.0719 -0.0206
  304TMC3    C2 4626   1.087   0.689  11.469  0.0730 -0.0306 -0.1497
  304TMC3    C3 4627   1.044   0.589  11.553 -0.2673 -0.0135 -0.6510
  304TMC3    C4 4628   1.296   0.595  11.446 -0.0756  0.1904 -1.0026
  304TMC3    C5 4629   1.251   0.486  11.514 -0.0571 -0.1204  0.7166
  304TMC3    C6 4630   1.127   0.486  11.583  0.0783 -0.5239 -0.8712
  304TMC3     C 4631   1.222   0.772  11.297  0.8045 -0.0040 -0.7225
  304TMC3     O 4632   1.122   0.775  11.225 -0.7281 -0.7340 -0.2496
  304TMC3     H 4633   1.015   0.753  11.418  0.8886  0.5970 -0.5029
  304TMC3    H1 4634   1.393   0.592  11.398  0.4636  1.5453  0.0102
  304TMC3    H2 4635   1.098   0.404  11.648  1.0050 -0.2226 -0.0773
  304TMC3    C7 4636   1.248   0.364  11.438 -0.0822  1.0647 -0.4649
  304TMC3    C8 4637   0.921   0.520  11.521  0.1198  0.3425  0.0119
  304TMC3    O1 4638   1.208   0.258  11.483  0.0750 -0.1891  0.0249
  304TMC3    O2 4639   0.897   0.517  11.403  0.7459 -0.1939  0.0543
  305MPD2     C 4640   3.577   1.904  13.959  0.3227 -1.1865 -0.3200
  305MPD2    C1 4641   3.608   2.031  13.991  0.5916  0.0992 -0.5305
  305MPD2    C2 4642   3.638   2.122  13.892 -0.6694  0.4406 -0.2710
  305MPD2    C3 4643   3.636   2.082  13.756  0.4546  0.2278  0.0891
  305MPD2    C4 4644   3.596   1.961  13.724 -0.4777  0.0235  0.4901
  305MPD2    C5 4645   3.568   1.875  13.826  0.6018  0.2450 -0.3931
  305MPD2     H 4646   3.668   2.224  13.911 -0.5893  0.2457  0.6479
  305MPD2    H1 4647   3.595   1.929  13.620 -1.7013 -1.7061  1.0393
  305MPD2    H2 4648   3.549   1.832  14.035  0.2610  0.4340  1.1671
  305MPD2    H3 4649   3.529   1.776  13.807  0.9407 -0.1150  0.7779
  305MPD2     N 4650   3.674   2.172  13.658  0.6982 -0.3193 -0.2626
  305MPD2    H5 4651   3.656   2.139  13.564 -0.1405  2.0080 -0.9246
  305MPD2    N1 4652   3.627   2.061  14.128  0.3571 -0.1126  0.7942
  305MPD2    H7 4653   3.634   1.982  14.192  0.1998  0.5322  1.6044
  306TMC3    C1 4654   3.733   2.190  14.294 -0.3510  0.3867  0.3625
  306TMC3    C2 4655   3.834   2.100  14.291  0.5044  0.3251 -0.4576
  306TMC3    C3 4656   3.911   2.087  14.397  0.4012  0.1950  0.2615
  306TMC3    C4 4657   3.723   2.286  14.391 -0.1948 -0.0975 -0.0938
  306TMC3    C5 4658   3.802   2.268  14.501  0.2118  0.2206  0.0976
  306TMC3    C6 4659   3.905   2.174  14.504  0.3831  0.1810 -0.1408
  306TMC3     C 4660   3.642   2.188  14.180 -0.0635  0.3084  0.1661
  306TMC3     O 4661   3.600   2.294  14.141  0.0351 -0.1751 -0.2131
  306TMC3     H 4662   3.853   2.046  14.199 -1.1531  0.5068 -0.8954
  306TMC3    H1 4663   3.659   2.371  14.372 -0.8700 -0.4283  0.6787
  306TMC3    H2 4664   3.968   2.155  14.590  0.6934  0.9782 -0.1965
  306TMC3    C7 4665   3.788   2.348  14.619  0.0335  0.0982  0.6120
  306TMC3    C8 4666   4.041   2.037  14.364  0.3794 -1.2102 -0.3236
  306TMC3    O1 4667   3.724   2.450  14.594  0.0672  0.0205 -0.1477
  306TMC3    O2 4668   4.045   1.970  14.261 -0.0604 -0.3099 -0.0381
  307MPD2     C 4669   2.560   1.258  17.220  0.6481  0.1204 -0.5575
  307MPD2    C1 4670   2.420   1.263  17.211 -0.6399 -0.2035 -0.6068
  307MPD2    C2 4671   2.355   1.205  17.314 -0.0110 -0.1066 -0.3223
  307MPD2    C3 4672   2.404   1.132  17.413  0.9453 -0.3609  0.4408
  307MPD2    C4 4673   2.541   1.117  17.413 -0.3108  0.5036 -0.3977
  307MPD2    C5 4674   2.622   1.196  17.322  0.7506 -0.3822  0.0108
  307MPD2     H 4675   2.248   1.196  17.298  0.0318  0.9984 -1.2754
  307MPD2    H1 4676   2.592   1.061  17.490  0.7274  1.2717 -0.5345
  307MPD2    H2 4677   2.621   1.273  17.132  1.0027 -2.6717 -0.7654
  307MPD2    H3 4678   2.731   1.189  17.320  0.8154 -0.0591  2.1635
  307MPD2     N 4679   2.323   1.071  17.505 -0.5412 -0.2058 -0.4352
  307MPD2    H5 4680   2.225   1.096  17.514 -0.3847 -0.2867  1.5755
  307MPD2    N1 4681   2.343   1.320  17.105  0.4920  0.1489  0.2173
  307MPD2    H7 4682   2.242   1.311  17.113  0.6248 -0.3872  1.3314
  308TMC3    C1 4683   2.137   0.944   0.138 -0.8089 -0.6329  0.0569
  308TMC3    C2 4684   2.097   1.077   0.166 -0.0147  0.2160  0.2194
  308TMC3    C3 4685   2.150   1.176   0.089 -0.5310 -0.0361 -0.2215
  308TMC3    C4 4686   2.220   0.913   0.034 -0.5023  0.6089 -0.3284
  308TMC3    C5 4687   2.263   1.018  17.714  0.0123  0.4875  0.3399
  308TMC3    C6 4688   2.227   1.150  17.737 -0.3639 -0.2518  0.3501
  308TMC3     C 4689   2.063   0.833   0.203  0.2211  0.0229  0.8150
  308TMC3     O 4690   2.115   0.723   0.192  0.2650 -0.0918 -0.0525
  308TMC3     H 4691   2.041   1.101   0.256  3.4761  1.6184  2.0005
  308TMC3    H1 4692   2.261   0.814   0.015  0.3712  0.7428  0.8841
  308TMC3    H2 4693   2.263   1.236  17.681  1.2739 -0.0421  1.7139
  308TMC3    C7 4694   2.362   0.995  17.609 -0.0947 -0.4793  0.1106
  308TMC3    C8 4695   2.133   1.315   0.121 -0.5125 -0.1548 -0.0762
  308TMC3    O1 4696   2.446   0.908  17.615  0.1855  0.4199  0.4487
  308TMC3    O2 4697   2.230   1.388   0.103  0.3492  0.4485  0.2283
  309MPD2     C 4698   1.193   0.861  17.129 -0.0218  0.6990  0.0241
  309MPD2    C1 4699   1.088   0.836  17.046  0.2267 -0.7475 -0.2769
  309MPD2    C2 4700   0.949   0.821  17.084  0.1151 -0.2770  0.4775
  309MPD2    C3 4701   0.920   0.842  17.220  0.2998  0.4230  0.0010
  309MPD2    C4 4702   1.022   0.883  17.303  0.5613 -0.3586  0.7242
  309MPD2    C5 4703   1.148   0.897  17.255 -0.0099  0.1121  0.2019
  309MPD2     H 4704   0.874   0.810  17.007  1.3012 -3.3559 -0.2599
  309MPD2    H1 4705   1.004   0.913  17.406 -0.4668 -1.0658  0.7449
  309MPD2    H2 4706   1.297   0.869  17.100  0.1536  0.4138  0.5797
  309MPD2    H3 4707   1.214   0.939  17.331 -0.7521  1.4359  0.1127
  309MPD2     N 4708   0.789   0.820  17.271  0.4007 -0.4061  0.1658
  309MPD2    H5 4709   0.778   0.843  17.369  3.3812  0.0793  0.3885
  309MPD2    N1 4710   1.109   0.838  16.908 -0.7321 -0.0209 -0.0990
  309MPD2    H7 4711   1.028   0.851  16.848 -1.3010  1.5594  1.0052
  310TMC3    C1 4712   1.223   0.836  16.702 -0.1324  0.3382  1.1677
  310TMC3    C2 4713   1.124   0.904  16.638  0.4725  0.1005  0.4208
  310TMC3    C3 4714   1.134   0.891  16.499 -0.0190  1.4310 -0.0995
  310TMC3    C4 4715   1.324   0.757  16.638  0.4979 -0.0383 -0.2705
  310TMC3    C5 4716   1.319   0.743  16.501  0.1125 -0.0993  0.1490
  310TMC3    C6 4717   1.227   0.818  16.428 -0.3095 -1.1516  0.7140
  310TMC3     C 4718   1.230   0.827  16.847 -0.2418  0.3269 -0.0563
  310TMC3     O 4719   1.341   0.796  16.891  0.3258 -0.5922  0.1827
  310TMC3     H 4720   1.049   0.967  16.683  0.6794  1.0691 -0.5951
  310TMC3    H1 4721   1.384   0.688  16.697 -2.5460 -1.1133  1.5228
  310TMC3    H2 4722   1.214   0.809  16.321  0.5626  1.1955  0.4174
  310TMC3    C7 4723   1.359   0.625  16.435 -0.1324  0.5961 -0.4427
  310TMC3    C8 4724   1.054   0.983  16.415  0.0931 -0.2009  0.0185
  310TMC3    O1 4725   1.311   0.610  16.322 -1.0097  0.2773  0.3461
  310TMC3    O2 4726   0.948   1.027  16.451  0.0315  0.0081 -0.1535
  311MPD2     C 4727   3.013   2.480  12.375  0.7315 -0.3696 -0.8226
  311MPD2    C1 4728   3.071   2.555  12.478 -0.1484 -0.5271 -0.2234
  311MPD2    C2 4729   2.989   2.613  12.573 -0.1604  0.5756 -0.1452
  311MPD2    C3 4730   2.853   2.601  12.568 -0.2295  0.3713 -0.0250
  311MPD2    C4 4731   2.800   2.525  12.465 -1.1336 -0.4119  0.7050
  311MPD2    C5 4732   2.880   2.456  12.378  0.7836  0.3255 -0.1184
  311MPD2     H 4733   3.041   2.670  12.649  0.5803  1.0533 -0.9954
  311MPD2    H1 4734   2.693   2.512  12.455 -1.3259  0.5156  1.5786
  311MPD2    H2 4735   3.065   2.443  12.288  1.6313 -0.1245 -0.3888
  311MPD2    H3 4736   2.842   2.403  12.291  1.7224  0.7075 -0.7548
  311MPD2     N 4737   2.774   2.646  12.678  0.1431 -0.2520  0.9408
  311MPD2    H5 4738   2.821   2.683  12.759  3.4238 -1.7041 -0.3161
  311MPD2    N1 4739   3.212   2.577  12.486 -0.3440 -0.3704 -0.4334
  311MPD2    H7 4740   3.249   2.634  12.561 -3.4389  2.9896 -1.4492
  312TMC3    C1 4741   2.568   2.607  12.805  0.1789  0.4155  0.2431
  312TMC3    C2 4742   2.435   2.565  12.808  0.0937  0.1842  0.4545
  312TMC3    C3 4743   2.373   2.536  12.930 -0.0966  0.3041 -0.5659
  312TMC3    C4 4744   2.645   2.605  12.916  0.2025  0.4719 -0.1637
  312TMC3    C5 4745   2.586   2.568  13.040 -0.3700 -0.2841  0.1973
  312TMC3    C6 4746   2.447   2.535  13.042 -0.0846  0.2771  0.3512
  312TMC3     C 4747   2.639   2.627  12.675  0.0462 -0.3181 -0.0473
  312TMC3     O 4748   2.559   2.637  12.580  0.0786  0.0284 -0.0632
  312TMC3     H 4749   2.398   2.550  12.707  1.7790 -1.5389  0.0728
  312TMC3    H1 4750   2.750   2.631  12.915  0.3011  0.1238  2.2564
  312TMC3    H2 4751   2.395   2.502  13.131 -1.8134 -0.5574 -0.9837
  312TMC3    C7 4752   2.666   2.570  13.161 -0.3419 -0.2420  0.1339
  312TMC3    C8 4753   2.240   2.489  12.936  0.1464 -0.6005 -0.1828
  312TMC3    O1 4754   2.778   2.626  13.147 -0.3814 -0.2901 -0.2653
  312TMC3    O2 4755   2.184   2.451  13.037  0.3053  0.0368  0.3882
  313MPD2     C 4756   2.430   1.998  11.427 -0.3974 -0.9221 -0.0689
  313MPD2    C1 4757   2.308   2.050  11.407  0.3331 -0.4706  0.1240
  313MPD2    C2 4758   2.237   1.983  11.311 -0.3265 -0.4223  0.3293
  313MPD2    C3 4759   2.290   1.879  11.234 -0.4459  0.1071  0.1789
  313MPD2    C4 4760   2.422   1.828  11.253  0.4113  0.9328 -0.6344
  313MPD2    C5 4761   2.489   1.901  11.352  0.4565 -0.2204  0.2670
  313MPD2     H 4762   2.132   2.009  11.301  0.3068  2.9053  2.6908
  313MPD2    H1 4763   2.457   1.739  11.203 -2.6093 -1.0143  0.7185
  313MPD2    H2 4764   2.492   2.043  11.504 -0.1907 -0.6518 -0.3923
  313MPD2    H3 4765   2.589   1.865  11.376  1.0419 -0.2022 -2.1195
  313MPD2     N 4766   2.201   1.813  11.139  0.0836  0.1834  0.2358
  313MPD2    H5 4767   2.107   1.852  11.134  0.4765  0.7695 -3.1779
  313MPD2    N1 4768   2.258   2.173  11.474  0.6516 -0.7539  0.2953
  313MPD2    H7 4769   2.160   2.194  11.459  1.4005  2.5424  0.2306
  314TMC3    C1 4770   2.259   2.385  11.565 -0.0351 -0.2066 -0.1294
  314TMC3    C2 4771   2.359   2.477  11.554  0.3461 -0.3995 -0.3148
  314TMC3    C3 4772   2.398   2.526  11.426  0.2689  1.0620 -1.2963
  314TMC3    C4 4773   2.167   2.385  11.461  0.3022 -0.0429 -0.4842
  314TMC3    C5 4774   2.190   2.446  11.339  0.8282  0.1271  0.5196
  314TMC3    C6 4775   2.307   2.511  11.320 -0.1699  0.9548  0.2675
  314TMC3     C 4776   2.330   2.262  11.556  0.0273 -0.3837 -0.1442
  314TMC3     O 4777   2.442   2.259  11.598  1.0109  0.1157  0.0419
  314TMC3     H 4778   2.426   2.493  11.638 -1.0125 -1.3460  0.9484
  314TMC3    H1 4779   2.068   2.341  11.474 -0.3425  1.5844  0.1488
  314TMC3    H2 4780   2.327   2.558  11.224 -1.2104  1.6279  0.3841
  314TMC3    C7 4781   2.137   2.367  11.230 -0.2427 -1.0758 -0.8545
  314TMC3    C8 4782   2.536   2.524  11.392 -0.1573 -0.4761 -0.0500
  314TMC3    O1 4783   2.016   2.348  11.236 -0.7171 -0.1570  0.2678
  314TMC3    O2 4784   2.561   2.573  11.281 -0.0812 -0.4528 -0.3385
  315MPD2     C 4785   1.916   0.590  17.528 -0.3649  0.3859  0.5434
  315MPD2    C1 4786   2.041   0.600  17.589  0.2430  0.0515  0.1328
  315MPD2    C2 4787   2.135   0.668  17.527 -0.0680 -0.1730 -0.1659
  315MPD2    C3 4788   2.130   0.710  17.402 -0.4537  0.9401 -0.2680
  315MPD2    C4 4789   2.008   0.699  17.331  0.2775  0.2348  0.0656
  315MPD2    C5 4790   1.905   0.643  17.392  0.7713 -0.4295 -0.0485
  315MPD2     H 4791   2.233   0.657  17.573 -0.5864 -0.7284  0.7959
  315MPD2    H1 4792   1.985   0.736  17.232  0.2503  1.0507  0.3765
  315MPD2    H2 4793   1.826   0.538  17.561  0.7094 -0.7547  1.6927
  315MPD2    H3 4794   1.811   0.636  17.337 -0.3717  1.1567  1.7091
  315MPD2     N 4795   2.254   0.760  17.353  0.0062 -0.3450  0.2375
  315MPD2    H5 4796   2.341   0.768  17.404  0.5673 -0.5764 -0.6971
  315MPD2    N1 4797   2.084   0.533  17.704 -0.1132  0.3351  0.2697
  315MPD2    H7 4798   2.174   0.559  17.742  0.6242 -1.6230 -0.1500
  316TMC3    C1 4799   2.406   0.835  17.190  0.3164 -0.4164 -0.2451
  316TMC3    C2 4800   2.512   0.803  17.271 -0.0188  0.1564 -0.0350
  316TMC3    C3 4801   2.628   0.863  17.237  0.2901  0.0159 -0.3326
  316TMC3    C4 4802   2.422   0.909  17.072 -0.1302 -1.1751  0.1487
  316TMC3    C5 4803   2.543   0.967  17.038 -0.0572  0.5901  0.3564
  316TMC3    C6 4804   2.653   0.935  17.121 -0.2138 -0.0688 -0.4050
  316TMC3     C 4805   2.271   0.793  17.223  0.2888 -0.8130 -0.2509
  316TMC3     O 4806   2.183   0.828  17.143 -0.1632 -0.8351 -0.0501
  316TMC3     H 4807   2.508   0.737  17.357  0.9912  1.0876  0.7205
  316TMC3    H1 4808   2.332   0.936  17.019  0.9620  0.3786 -0.8794
  316TMC3    H2 4809   2.756   0.946  17.088  0.1706 -1.7405  0.2331
  316TMC3    C7 4810   2.559   1.059  16.930  0.5952 -0.5351 -0.6468
  316TMC3    C8 4811   2.754   0.809  17.292 -0.7892  0.4433  0.6370
  316TMC3    O1 4812   2.668   1.112  16.932 -0.4388  0.1016  0.2034
  316TMC3    O2 4813   2.851   0.879  17.274  0.0338 -0.0016 -0.0884
  317MPD2     C 4814   4.599   3.388  12.186  0.4967 -1.0701 -0.1778
  317MPD2    C1 4815   4.723   3.397  12.242  0.5860  0.0289 -0.9925
  317MPD2    C2 4816   4.737   3.411  12.379  0.6260 -0.3965 -0.7761
  317MPD2    C3 4817   4.623   3.421  12.463  1.0337  0.7266  0.5698
  317MPD2    C4 4818   4.501   3.416  12.398  0.3406  0.0051  0.1311
  317MPD2    C5 4819   4.485   3.389  12.260 -0.5187 -0.1188  0.5401
  317MPD2     H 4820   0.098   3.405  12.422  0.5524 -1.8554 -0.7836
  317MPD2    H1 4821   4.406   3.431  12.450  0.8199  1.0011  0.7266
  317MPD2    H2 4822   4.597   3.388  12.078 -1.1111 -0.5494 -0.1490
  317MPD2    H3 4823   4.385   3.382  12.220 -0.1332  2.0464 -0.7990
  317MPD2     N 4824   4.643   3.461  12.601  0.4019 -0.1742 -0.5134
  317MPD2    H5 4825   4.734   3.466  12.646  0.6961  1.2412 -1.2629
  317MPD2    N1 4826   0.102   3.405  12.165  0.5881  0.5730 -0.2813
  317MPD2    H7 4827   0.179   3.438  12.221 -0.0371  2.1630 -0.3599
  318TMC3    C1 4828   4.570   3.507  12.825 -0.3942  0.0258 -0.7319
  318TMC3    C2 4829   4.465   3.491  12.903 -0.6069  0.2186 -0.0480
  318TMC3    C3 4830   4.476   3.504  13.038 -0.6439 -0.6030 -0.5050
  318TMC3    C4 4831   4.690   3.535  12.870 -0.3209 -1.1036 -0.5064
  318TMC3    C5 4832   4.706   3.521  13.009 -0.5125 -0.5777 -0.7639
  318TMC3    C6 4833   4.595   3.508  13.095 -0.4675 -0.0662 -0.0357
  318TMC3     C 4834   4.539   3.493  12.681  0.3519 -0.9481 -0.2246
  318TMC3     O 4835   4.417   3.498  12.655 -0.4846  0.3448  0.3022
  318TMC3     H 4836   4.370   3.465  12.858  0.1784 -1.8346 -0.4937
  318TMC3    H1 4837   0.034   3.564  12.806 -1.1323  0.2458 -0.9413
  318TMC3    H2 4838   4.610   3.514  13.202 -0.6054 -0.8944  0.0247
  318TMC3    C7 4839   0.097   3.551  13.064  0.5535 -0.1760 -0.9026
  318TMC3    C8 4840   4.359   3.494  13.120  0.3616 -0.2015 -0.2993
  318TMC3    O1 4841   0.165   3.621  12.994 -0.4012 -0.0873 -0.1429
  318TMC3    O2 4842   4.370   3.469  13.237 -0.4985 -0.2285  0.3660
  319MPD2     C 4843   0.300   0.110  16.614  0.1026 -0.3902  0.1783
  319MPD2    C1 4844   0.221   0.005  16.668 -0.1103  0.1874  0.1261
  319MPD2    C2 4845   0.139   4.666  16.589 -0.1514 -0.0075  0.2988
  319MPD2    C3 4846   0.122   4.704  16.459 -0.3955 -0.0654  0.4621
  319MPD2    C4 4847   0.194   0.072  16.402 -0.8805  0.1150 -0.3364
  319MPD2    C5 4848   0.281   0.140  16.480 -0.6220  0.4017  0.0312
  319MPD2     H 4849   0.076   4.595  16.641  1.3679  0.1235  2.3343
  319MPD2    H1 4850   0.182   0.092  16.297 -0.8171  2.3201  0.0912
  319MPD2    H2 4851   0.379   0.164  16.666 -0.6921  0.5373  0.4244
  319MPD2    H3 4852   0.334   0.222  16.434 -0.0972 -0.0279 -0.1251
  319MPD2     N 4853   0.015   4.641  16.379  0.1349  0.3114  1.2152
  319MPD2    H5 4854   0.008   4.671  16.282 -1.5393  0.5143  1.3981
  319MPD2    N1 4855   0.229   4.708  16.804 -0.0886  0.3268 -0.3823
  319MPD2    H7 4856   0.180   4.626  16.839 -0.1434  0.9527  1.0067
  320TMC3    C1 4857   4.554   4.523  16.329  0.2743 -0.2573 -0.4154
  320TMC3    C2 4858   4.511   4.632  16.263  0.2479 -0.0974 -0.2086
  320TMC3    C3 4859   4.434   4.623  16.157 -0.0706 -0.2880 -0.3015
  320TMC3    C4 4860   4.505   4.396  16.300 -0.4962 -0.4178 -0.0362
  320TMC3    C5 4861   4.428   4.389  16.190 -0.2270 -0.2737 -1.1621
  320TMC3    C6 4862   4.396   4.495  16.115  0.4836  0.0193 -0.7066
  320TMC3     C 4863   4.678   4.529  16.410  0.0189  0.0469 -0.1026
  320TMC3     O 4864   4.687   4.444  16.497 -0.3682  0.1661 -0.2002
  320TMC3     H 4865   4.544   4.732  16.292  0.4448  0.2903 -1.8011
  320TMC3    H1 4866   4.546   4.307  16.347 -3.2997 -0.0960  2.9895
  320TMC3    H2 4867   4.340   4.486  16.023  1.3252  0.5272 -1.2724
  320TMC3    C7 4868   4.378   4.262  16.145 -0.2955  0.0794 -0.5510
  320TMC3    C8 4869   4.406   4.735  16.071  0.3747 -0.1536  0.4022
  320TMC3    O1 4870   4.375   4.247  16.024 -1.2206  0.1889 -0.0560
  320TMC3    O2 4871   4.378   0.096  16.138 -0.0029  0.5408  0.1214
  321TMC3    C1 4872   0.293   4.723  17.032 -0.1507 -0.8821 -0.2809
  321TMC3    C2 4873   0.258   4.593  17.036 -0.0003 -0.4959  0.0752
  321TMC3    C3 4874   0.235   4.546  17.167  0.4501  0.6331  0.2332
  321TMC3    C4 4875   0.308   0.071  17.135  1.4055  0.1698  0.0201
  321TMC3    C5 4876   0.282   0.023  17.264  0.8179 -0.1687  0.0980
  321TMC3    C6 4877   0.247   4.624  17.277 -0.2560  0.6945  0.3335
  321TMC3     C 4878   0.301   0.042  16.901  0.3485  0.4893 -0.3619
  321TMC3     O 4879   0.340   0.159  16.890  1.2521  0.0144  0.2603
  321TMC3     H 4880   0.248   4.523  16.954 -0.9213 -0.2380 -0.0350
  321TMC3    H1 4881   0.325   0.177  17.124 -1.2857  0.4606 -1.1149
  321TMC3    H2 4882   0.238   4.586  17.378 -0.9988  2.3246  0.8673
  321TMC3    C7 4883   0.391   0.053  17.357 -0.6854  0.3000 -0.5431
  321TMC3    C8 4884   0.288   4.420  17.199 -0.4304  0.4100 -0.1752
  321TMC3    O1 4885   0.434   4.706  17.432  0.0785 -0.1829  0.0472
  321TMC3    O2 4886   0.224   4.341  17.268 -0.0976 -0.1713  0.1499
  322MPD2     C 4887   4.082   1.815  13.231  0.4595  0.3889 -0.1138
  322MPD2    C1 4888   4.048   1.741  13.345 -0.9809 -0.1101  0.3577
  322MPD2    C2 4889   4.061   1.601  13.344  0.1088 -0.4402  0.3330
  322MPD2    C3 4890   4.105   1.533  13.227 -0.3085 -0.1586  0.0520
  322MPD2    C4 4891   4.136   1.610  13.119 -0.6455 -0.6141 -0.8140
  322MPD2    C5 4892   4.120   1.747  13.116 -0.3704 -0.0855  0.2605
  322MPD2     H 4893   4.053   1.546  13.437 -3.4355 -1.5189 -0.6453
  322MPD2    H1 4894   4.172   1.563  13.028 -1.0325 -1.3319 -0.5978
  322MPD2    H2 4895   4.089   1.923  13.236  4.0591  0.0743  1.5025
  322MPD2    H3 4896   4.154   1.789  13.022 -2.2637  0.1281 -0.3315
  322MPD2     N 4897   4.120   1.396  13.221 -0.0502  0.3324 -0.1984
  322MPD2    H5 4898   4.146   1.367  13.127 -0.3608 -1.6519  0.3437
  322MPD2    N1 4899   4.023   1.805  13.468  0.1842  0.2675  0.3039
  322MPD2    H7 4900   4.039   1.905  13.483  0.4884  0.1959  0.4607
  323TMC3    C1 4901   3.956   1.821  13.690 -0.4115  0.3264  0.4251
  323TMC3    C2 4902   4.054   1.915  13.712 -0.3706  0.0165 -0.3576
  323TMC3    C3 4903   4.065   1.968  13.835  0.1314 -0.5222 -0.1889
  323TMC3    C4 4904   3.882   1.776  13.792 -0.2140 -0.8234 -0.0291
  323TMC3    C5 4905   3.892   1.824  13.913  0.7215  0.3725  0.0596
  323TMC3    C6 4906   3.983   1.928  13.940  0.7531  1.1742 -0.1239
  323TMC3     C 4907   3.957   1.746  13.572 -0.2268 -0.7871 -0.3315
  323TMC3     O 4908   3.879   1.653  13.565 -0.0754 -0.7014  0.0239
  323TMC3     H 4909   4.131   1.933  13.638 -0.2909  0.1298 -0.2488
  323TMC3    H1 4910   3.799   1.709  13.773 -1.2565  0.0040  1.6957
  323TMC3    H2 4911   3.995   1.962  14.042 -0.6643 -2.5190  1.2593
  323TMC3    C7 4912   3.902   1.713  14.010  0.2537  0.7850 -0.1807
  323TMC3    C8 4913   4.190   2.021  13.868  0.0543  0.4081  0.6341
  323TMC3    O1 4914   3.876   1.599  13.965 -0.1190 -0.1458 -0.0288
  323TMC3    O2 4915   4.284   1.953  13.838 -0.1213  0.0419 -0.0978
  324MPD2     C 4916   1.008   2.578  14.376 -0.4409 -0.2045 -0.4779
  324MPD2    C1 4917   0.982   2.682  14.294  0.1677 -0.0097 -0.2680
  324MPD2    C2 4918   0.856   2.726  14.264  0.3100 -0.6960  0.1747
  324MPD2    C3 4919   0.753   2.645  14.309 -0.3989 -0.1187 -0.5530
  324MPD2    C4 4920   0.782   2.534  14.380  0.0548  0.3516 -0.1647
  324MPD2    C5 4921   0.909   2.498  14.410  0.1365 -0.4892  0.5886
  324MPD2     H 4922   0.836   2.803  14.191  0.8923 -0.7235 -0.0169
  324MPD2    H1 4923   0.706   2.468  14.420  1.3623 -0.5465  0.8430
  324MPD2    H2 4924   1.106   2.535  14.393  0.1844  1.0305 -0.9745
  324MPD2    H3 4925   0.924   2.410  14.471 -1.2181 -0.7706  0.5120
  324MPD2     N 4926   0.617   2.674  14.280  0.6869 -1.0582 -0.5565
  324MPD2    H5 4927   0.555   2.594  14.280  1.3451 -1.5687 -0.4051
  324MPD2    N1 4928   1.093   2.736  14.229 -0.3510  0.2437 -0.5861
  324MPD2    H7 4929   1.182   2.700  14.262 -1.4971 -2.9831 -1.0046
  325TMC3    C1 4930   0.423   2.806  14.219 -0.2320  0.1818 -0.4771
  325TMC3    C2 4931   0.363   2.704  14.147 -0.4059  0.6204 -0.7039
  325TMC3    C3 4932   0.244   2.729  14.085  0.9054 -0.3885  0.3344
  325TMC3    C4 4933   0.373   2.937  14.215  0.9920  0.0422 -0.0032
  325TMC3    C5 4934   0.253   2.956  14.156  0.6925  0.4948  0.8603
  325TMC3    C6 4935   0.189   2.856  14.077  0.1498  0.5282 -0.2972
  325TMC3     C 4936   0.570   2.800  14.248  0.4083  0.2146  0.6500
  325TMC3     O 4937   0.627   2.906  14.249  0.2831 -0.7731 -0.3204
  325TMC3     H 4938   0.400   2.602  14.144 -0.7205  0.4504  1.2257
  325TMC3    H1 4939   0.426   3.018  14.262 -1.5250  1.5654  0.2374
  325TMC3    H2 4940   0.106   2.879  14.011  0.5947 -0.9856 -1.3634
  325TMC3    C7 4941   0.223   3.089  14.116 -0.7198  0.2490 -0.1333
  325TMC3    C8 4942   0.163   2.622  14.028  0.4956  0.3385  0.0023
  325TMC3    O1 4943   0.315   3.167  14.128 -0.1742  0.3442 -0.1794
  325TMC3    O2 4944   0.216   2.513  14.011  0.0557  0.1050  0.1223
  326MPD2     C 4945   2.208   3.801  11.243 -0.0719  0.3598  0.0691
  326MPD2    C1 4946   2.272   3.795  11.118 -0.2372  0.2236  0.1496
  326MPD2    C2 4947   2.384   3.865  11.110 -0.3309 -0.2707 -0.3587
  326MPD2    C3 4948   2.430   3.946  11.214 -0.5415 -0.1714  0.1733
  326MPD2    C4 4949   2.381   3.938  11.339 -0.3094 -0.4323 -0.0034
  326MPD2    C5 4950   2.265   3.856  11.356  0.3101 -1.1270 -0.3290
  326MPD2     H 4951   2.437   3.865  11.016 -1.0267 -1.0082 -0.7548
  326MPD2    H1 4952   2.411   4.006  11.417 -2.6867  1.0485 -0.3597
  326MPD2    H2 4953   2.107   3.761  11.240  0.1445 -0.2709  1.3684
  326MPD2    H3 4954   2.213   3.853  11.450 -0.1445 -1.6162 -0.5956
  326MPD2     N 4955   2.533   4.042  11.202  0.0326 -0.2798  0.3504
  326MPD2    H5 4956   2.553   4.100  11.283 -2.1144 -1.6836  1.8919
  326MPD2    N1 4957   2.217   3.726  11.003  0.2309 -0.3893  0.0633
  326MPD2    H7 4958   2.120   3.699  11.010 -0.3403  0.7972 -3.4490
  327TMC3    C1 4959   2.219   3.631  10.787 -0.0154  0.6254  0.1073
  327TMC3    C2 4960   2.109   3.710  10.753 -0.1038 -0.5816  0.4867
  327TMC3    C3 4961   2.101   3.773  10.627 -0.7318 -0.3403  0.0346
  327TMC3    C4 4962   2.303   3.610  10.686  0.5711 -0.1767  0.3850
  327TMC3    C5 4963   2.295   3.672  10.568 -0.3519  0.2635 -0.2353
  327TMC3    C6 4964   2.191   3.752  10.530 -0.0264  0.7964  0.5285
  327TMC3     C 4965   2.293   3.690  10.897  1.0106 -0.0671  0.1149
  327TMC3     O 4966   2.416   3.683  10.880  0.1326 -0.1810 -0.1173
  327TMC3     H 4967   2.032   3.729  10.827 -0.2692  0.1264  0.1243
  327TMC3    H1 4968   2.388   3.546  10.711  1.0040  0.0986 -0.3961
  327TMC3    H2 4969   2.196   3.800  10.433  1.4190  1.8242  1.1219
  327TMC3    C7 4970   2.421   3.719  10.518  0.3275 -0.1577  0.2230
  327TMC3    C8 4971   1.975   3.845  10.598 -0.8088  0.5758 -0.1959
  327TMC3    O1 4972   2.422   3.759  10.402  0.0563  0.4866 -0.3107
  327TMC3    O2 4973   1.943   3.854  10.479  0.4483  0.5759  0.7182
  328MPD2     C 4974   4.576   3.681  17.221  0.2484 -0.5153  0.6731
  328MPD2    C1 4975   4.473   3.593  17.211  0.0220  0.3953 -0.2169
  328MPD2    C2 4976   4.353   3.634  17.159 -0.6310 -0.1192  0.2220
  328MPD2    C3 4977   4.346   3.764  17.104  0.5078  0.3958 -0.1366
  328MPD2    C4 4978   4.455   3.846  17.117  0.0483 -0.3050 -0.5697
  328MPD2    C5 4979   4.574   3.802  17.162  0.0464  0.2813 -0.2079
  328MPD2     H 4980   4.266   3.570  17.149 -0.5245 -0.2646  0.2321
  328MPD2    H1 4981   4.468   3.948  17.083  1.1377 -0.9888 -2.2615
  328MPD2    H2 4982   4.662   3.649  17.277  0.3648  0.9789  1.3496
  328MPD2    H3 4983   4.647   3.881  17.173 -0.1154  0.1709  1.6765
  328MPD2     N 4984   4.226   3.802  17.054 -1.5183  0.0897  0.1059
  328MPD2    H5 4985   4.147   3.738  17.059 -1.1853 -0.3984 -0.8538
  328MPD2    N1 4986   4.480   3.472  17.282 -0.5608  0.3192  0.1749
  328MPD2    H7 4987   4.567   3.447  17.328 -0.8763 -2.3914 -0.7279
  329TMC3    C1 4988   4.429   3.255  17.364  0.0249 -0.3060  0.6938
  329TMC3    C2 4989   4.503   3.271  17.475  0.8964 -0.0318 -0.7028
  329TMC3    C3 4990   4.581   3.168  17.511  0.6363  0.3168 -0.1598
  329TMC3    C4 4991   4.437   3.137  17.291  0.0800 -0.2458 -0.9133
  329TMC3    C5 4992   4.520   3.036  17.333  0.0914  0.2175 -0.2617
  329TMC3    C6 4993   4.588   3.045  17.454  0.6654  0.3093 -0.0592
  329TMC3     C 4994   4.379   3.382  17.304  0.4786 -0.0583 -0.4484
  329TMC3     O 4995   4.259   3.383  17.286  0.3335  0.0914 -0.3791
  329TMC3     H 4996   4.515   3.369  17.520 -0.0991  1.7000 -4.1926
  329TMC3    H1 4997   4.383   3.128  17.197 -0.6591  1.4550 -0.6539
  329TMC3    H2 4998   4.655   2.967  17.487  0.4204  0.8780  1.7339
  329TMC3    C7 4999   4.553   2.932  17.231  0.5220  0.1965  0.1446
  329TMC3    C8 5000   4.669   3.195  17.629  0.1410 -0.0487  0.2361
  329TMC3    O1 5001   4.515   2.942  17.114 -0.3276  0.1512  0.3402
  329TMC3    O2 5002   0.044   3.145  17.628  0.0575  0.3454 -0.5056
  330TMC3    C1 5003   2.820   2.910  10.029  0.3729  0.4929 -0.2810
  330TMC3    C2 5004   2.755   2.838   9.933 -0.2887 -0.1937  0.2085
  330TMC3    C3 5005   2.631   2.789   9.965 -0.0791 -0.4867 -0.6002
  330TMC3    C4 5006   2.758   2.932  10.150  0.7442 -0.2010 -0.5529
  330TMC3    C5 5007   2.643   2.873  10.182 -0.0518  1.0659 -0.4363
  330TMC3    C6 5008   2.576   2.801  10.091  0.9698  0.0802  0.1918
  330TMC3     C 5009   2.928   3.007  10.003 -0.0947 -1.0460 -0.8325
  330TMC3     O 5010   2.959   3.076  10.097 -0.7531  0.1979  0.3089
  330TMC3     H 5011   2.800   2.821   9.835  0.2558  1.3163  0.1810
  330TMC3    H1 5012   2.802   2.989  10.231 -0.1421  1.5676 -1.3095
  330TMC3    H2 5013   2.480   2.759  10.120  0.1302  0.8931 -1.4287
  330TMC3    C7 5014   2.628   2.844  10.327  0.5244  0.4216  0.0674
  330TMC3    C8 5015   2.539   2.772   9.847  0.0460  1.1380  0.5196
  330TMC3    O1 5016   2.668   2.928  10.407  0.1108  0.1572 -0.1083
  330TMC3    O2 5017   2.581   2.813   9.740 -0.1984 -0.0988  0.7664
  331MPD2     C 5018   0.480   2.167  13.243  0.0842  0.5210  0.5540
  331MPD2    C1 5019   0.600   2.177  13.179 -0.0644  0.5606  0.1285
  331MPD2    C2 5020   0.649   2.068  13.109 -0.4907 -0.1165 -0.4590
  331MPD2    C3 5021   0.580   1.950  13.109 -0.1666 -0.9891  0.4291
  331MPD2    C4 5022   0.466   1.941  13.188 -0.6252  0.2288  0.4724
  331MPD2    C5 5023   0.410   2.052  13.246 -0.1632  0.0678 -0.2054
  331MPD2     H 5024   0.743   2.078  13.056  0.0399 -0.2203  0.4709
  331MPD2    H1 5025   0.411   1.848  13.195  0.8476 -0.7118 -0.5837
  331MPD2    H2 5026   0.449   2.250  13.306 -0.9315  1.5814 -1.3342
  331MPD2    H3 5027   0.319   2.030  13.300 -1.3363  1.6708 -1.5282
  331MPD2     N 5028   0.625   1.854  13.019 -0.0459  0.0872 -0.9374
  331MPD2    H5 5029   0.707   1.890  12.971  1.2363 -0.8435  0.5386
  331MPD2    N1 5030   0.665   2.302  13.188  0.2341  0.8682  0.9575
  331MPD2    H7 5031   0.615   2.381  13.227  0.2313  2.0952 -1.5125
  332TMC3    C1 5032   0.599   1.684  12.855  0.1341  0.4595  0.2493
  332TMC3    C2 5033   0.625   1.772  12.752  0.0182  0.5165 -0.3205
  332TMC3    C3 5034   0.728   1.723  12.669 -0.0080 -0.2750  0.4372
  332TMC3    C4 5035   0.654   1.560  12.867  0.5216 -0.6460  1.0085
  332TMC3    C5 5036   0.765   1.536  12.795  0.3090 -0.4856  0.4785
  332TMC3    C6 5037   0.814   1.624  12.706  0.0080  0.4546  0.3898
  332TMC3     C 5038   0.554   1.738  12.983 -0.2896  0.3672  1.0043
  332TMC3     O 5039   0.490   1.666  13.057 -0.5221 -0.1588  0.1249
  332TMC3     H 5040   0.550   1.846  12.723  0.6826  0.0083 -3.3591
  332TMC3    H1 5041   0.624   1.504  12.955 -1.6068 -1.2256 -0.0839
  332TMC3    H2 5042   0.885   1.599  12.628 -0.9967  1.1185 -0.7509
  332TMC3    C7 5043   0.851   1.444  12.854 -0.1370  0.3826 -0.0294
  332TMC3    C8 5044   0.784   1.823  12.578 -0.6405 -0.1391  1.1353
  332TMC3    O1 5045   0.805   1.336  12.885 -0.1285  0.1779  0.0435
  332TMC3    O2 5046   0.906   1.823  12.570  0.0734 -0.2085 -0.0968
  333MPD2     C 5047   0.642   2.702  11.405 -0.4836  0.0133 -0.1534
  333MPD2    C1 5048   0.767   2.655  11.440 -0.5325  0.2587  0.3825
  333MPD2    C2 5049   0.777   2.527  11.487  0.3034 -0.4944  0.1061
  333MPD2    C3 5050   0.656   2.449  11.501 -0.3174 -0.3296  0.2159
  333MPD2    C4 5051   0.534   2.505  11.488 -0.8549  0.3327 -0.1328
  333MPD2    C5 5052   0.527   2.636  11.447  0.1973  0.6620 -1.1713
  333MPD2     H 5053   0.870   2.477  11.510 -0.0032 -1.2179 -0.2129
  333MPD2    H1 5054   0.443   2.449  11.505 -0.9501  0.8380  1.0238
  333MPD2    H2 5055   0.642   2.801  11.361 -2.4343 -1.4331 -3.4311
  333MPD2    H3 5056   0.427   2.674  11.428 -0.2601  0.0438  0.0086
  333MPD2     N 5057   0.680   2.312  11.531  0.0952  0.8392  0.6098
  333MPD2    H5 5058   0.772   2.273  11.512 -0.1665  1.0552 -1.1179
  333MPD2    N1 5059   0.877   2.745  11.411 -0.5332 -0.1542  0.0396
  333MPD2    H7 5060   0.870   2.831  11.359 -2.8085 -1.0763 -1.1592
  334TMC3    C1 5061   1.097   2.828  11.402  0.0836 -0.1459 -1.2399
  334TMC3    C2 5062   1.216   2.847  11.472 -0.3548  0.2383 -0.0758
  334TMC3    C3 5063   1.324   2.900  11.405  0.2526  0.3702  0.6904
  334TMC3    C4 5064   1.080   2.874  11.280  0.2992  0.4932  0.1577
  334TMC3    C5 5065   1.189   2.925  11.216  0.3357  0.3972 -0.5557
  334TMC3    C6 5066   1.313   2.941  11.272 -0.1213  0.6091 -0.4555
  334TMC3     C 5067   1.012   2.722  11.444  0.0184 -0.1544 -0.0267
  334TMC3     O 5068   1.059   2.627  11.506  1.0721 -0.2130  0.6351
  334TMC3     H 5069   1.234   2.795  11.566 -1.9045  1.7018  1.0436
  334TMC3    H1 5070   0.997   2.854  11.214 -0.4209 -1.4800  1.6531
  334TMC3    H2 5071   1.399   2.969  11.211 -0.1365  3.8495  1.0405
  334TMC3    C7 5072   1.167   3.017  11.106 -0.0787  0.7392 -0.1308
  334TMC3    C8 5073   1.442   2.824  11.435  1.5791 -0.7907  0.0085
  334TMC3    O1 5074   1.270   3.049  11.049 -0.0339  0.3766  0.0027
  334TMC3    O2 5075   1.425   2.720  11.495  0.6107  0.0879  0.4107
  335TMC3    C1 5076   0.214   3.459  17.321 -0.9939 -0.6350 -0.5819
  335TMC3    C2 5077   0.166   3.443  17.198 -0.4710  0.1330 -0.2630
  335TMC3    C3 5078   0.240   3.462  17.088  0.8307 -0.6967 -0.1880
  335TMC3    C4 5079   0.347   3.484  17.337  0.3614 -0.6018  0.0376
  335TMC3    C5 5080   0.421   3.511  17.227  0.3361 -0.1646 -0.0265
  335TMC3    C6 5081   0.368   3.494  17.098  0.3378  0.9443 -0.3104
  335TMC3     C 5082   0.114   3.476  17.428  0.6319 -1.0001  0.1089
  335TMC3     O 5083   4.735   3.446  17.405 -0.2945 -0.6358 -0.4059
  335TMC3     H 5084   0.061   3.422  17.182 -0.8206  2.3795 -1.0420
  335TMC3    H1 5085   0.392   3.497  17.434  0.5866 -0.8251 -0.0379
  335TMC3    H2 5086   0.424   3.521  17.010  0.7174 -0.3819 -0.4790
  335TMC3    C7 5087   0.559   3.535  17.246 -0.4868 -0.3882  0.0500
  335TMC3    C8 5088   0.192   3.418  16.958 -0.2577 -0.2633  0.6406
  335TMC3    O1 5089   0.620   3.545  17.139  0.2427 -0.0751 -0.2219
  335TMC3    O2 5090   0.249   3.461  16.858  0.6501 -0.0072 -0.2845
  336MPD2     C 5091   0.117   1.385  16.152 -0.0124 -0.6951  0.2308
  336MPD2    C1 5092   0.063   1.335  16.035 -0.3644  1.2043 -0.0188
  336MPD2    C2 5093   0.100   1.207  15.998  0.3198  0.2427 -0.3261
  336MPD2    C3 5094   0.190   1.133  16.072 -0.2142 -0.2937 -0.1017
  336MPD2    C4 5095   0.236   1.182  16.188  0.1923 -0.0112 -0.2952
  336MPD2    C5 5096   0.201   1.311  16.228 -0.2615  0.2076 -0.2706
  336MPD2     H 5097   0.056   1.171  15.905 -1.4688 -1.2761  1.0891
  336MPD2    H1 5098   0.299   1.116  16.246 -0.1585 -0.5108 -0.4852
  336MPD2    H2 5099   0.097   1.485  16.190 -2.7609 -1.5777  1.1509
  336MPD2    H3 5100   0.232   1.348  16.325 -1.0439  0.1678 -0.0014
  336MPD2     N 5101   0.227   1.002  16.037 -0.4723 -0.6608 -0.3517
  336MPD2    H5 5102   0.267   0.945  16.110 -0.8744 -0.4978 -0.0039
  336MPD2    N1 5103   4.704   1.393  15.953  0.6663 -0.3526  0.3056
  336MPD2    H7 5104   4.652   1.328  15.896  1.9212  0.4551 -1.7674
  337TMC3    C1 5105   4.614   1.565  15.833 -0.5649 -0.0729 -0.2176
  337TMC3    C2 5106   4.490   1.513  15.806  0.2396 -0.1754  0.5923
  337TMC3    C3 5107   4.434   1.575  15.701 -0.1699 -0.3926  0.0460
  337TMC3    C4 5108   4.671   1.672  15.776 -0.1342 -0.4486 -0.9707
  337TMC3    C5 5109   4.606   1.722  15.668 -0.1081 -0.3999 -0.0681
  337TMC3    C6 5110   4.489   1.675  15.625 -0.1672 -0.8044  0.2076
  337TMC3     C 5111   4.683   1.529  15.954  0.3007 -0.0937  0.0857
  337TMC3     O 5112   0.007   1.615  16.016  0.6151  0.4879  0.0117
  337TMC3     H 5113   4.440   1.450  15.878 -0.7868  2.3149  2.0435
  337TMC3    H1 5114   0.033   1.704  15.798 -1.0726  1.6995  0.1793
  337TMC3    H2 5115   4.432   1.724  15.548  0.0130 -0.6270  0.1852
  337TMC3    C7 5116   4.674   1.824  15.600  0.3045 -0.2448  0.1373
  337TMC3    C8 5117   4.305   1.528  15.667  0.3509 -0.6342 -0.3271
  337TMC3    O1 5118   0.035   1.871  15.661  0.4333 -0.1608 -0.1602
  337TMC3    O2 5119   4.251   1.453  15.748 -0.1225 -0.4574  0.2539
  338MPD2     C 5120   1.063   1.425   0.674 -0.6376  0.3041 -0.3249
  338MPD2    C1 5121   0.979   1.335   0.614 -0.2401 -0.2408 -0.3937
  338MPD2    C2 5122   0.844   1.356   0.603 -0.5695  0.4239 -0.1419
  338MPD2    C3 5123   0.790   1.472   0.653 -1.1884  0.4898 -0.6247
  338MPD2    C4 5124   0.872   1.564   0.707 -0.7715 -0.1892 -0.1970
  338MPD2    C5 5125   1.007   1.543   0.716 -0.2721 -0.2983 -0.2376
  338MPD2     H 5126   0.775   1.291   0.550  2.7238 -1.0752 -2.6124
  338MPD2    H1 5127   0.830   1.663   0.724  2.4822  1.3587 -1.1154
  338MPD2    H2 5128   1.170   1.414   0.690 -1.1433 -2.6662  1.0019
  338MPD2    H3 5129   1.079   1.620   0.745  1.0490 -0.9078 -1.9072
  338MPD2     N 5130   0.652   1.486   0.655  0.0439  0.6329 -0.6712
  338MPD2    H5 5131   0.602   1.417   0.599 -0.0979  1.3382 -1.4092
  338MPD2    N1 5132   1.025   1.215   0.550 -0.1960  0.0863  0.2603
  338MPD2    H7 5133   0.952   1.157   0.509 -0.1034 -0.4590  0.8769
  339TMC3    C1 5134   0.435   1.537   0.753 -0.4028  0.3977  0.6734
  339TMC3    C2 5135   0.392   1.550   0.881 -1.2238 -0.2834  0.1205
  339TMC3    C3 5136   0.278   1.478   0.920 -0.4218 -0.1154  0.5166
  339TMC3    C4 5137   0.374   1.457   0.660  0.9518  0.1174 -0.3518
  339TMC3    C5 5138   0.264   1.383   0.701  0.9395  0.4199  0.1280
  339TMC3    C6 5139   0.212   1.392   0.831  0.3367 -0.1187  0.8327
  339TMC3     C 5140   0.581   1.563   0.739 -0.5055 -0.5693  0.4086
  339TMC3     O 5141   0.628   1.639   0.823 -0.1698 -0.0623  0.4252
  339TMC3     H 5142   0.458   1.583   0.960  1.0637 -0.5703 -1.6799
  339TMC3    H1 5143   0.402   1.458   0.555  1.4667  0.9557 -0.2088
  339TMC3    H2 5144   0.131   1.326   0.861 -0.5523 -0.4836 -2.3771
  339TMC3    C7 5145   0.216   1.288   0.606 -0.4954 -0.2166  0.2000
  339TMC3    C8 5146   0.221   1.504   1.048  0.1189 -0.2365 -0.3924
  339TMC3    O1 5147   0.225   1.323   0.491  0.0151  0.5304 -0.3390
  339TMC3    O2 5148   0.289   1.557   1.134 -0.1385 -0.0079  0.0532
  340MPD2     C 5149   0.296   2.509   9.981 -0.1077  0.7960  0.0641
  340MPD2    C1 5150   0.394   2.529   9.890  0.0275  0.3642  0.3557
  340MPD2    C2 5151   0.465   2.645   9.889 -0.1134 -0.2019 -1.3142
  340MPD2    C3 5152   0.430   2.741   9.981  0.1740  0.4836 -0.3483
  340MPD2    C4 5153   0.330   2.721  10.076  0.0872 -0.1965 -0.3898
  340MPD2    C5 5154   0.268   2.600  10.079 -0.3621 -0.2246 -0.6686
  340MPD2     H 5155   0.546   2.652   9.817 -0.5790  0.3952 -1.7739
  340MPD2    H1 5156   0.315   2.797  10.152 -0.7432 -1.7956  1.0503
  340MPD2    H2 5157   0.256   2.408   9.990  2.5327 -0.0047  2.7642
  340MPD2    H3 5158   0.203   2.565  10.158  1.2458  1.2437  1.3081
  340MPD2     N 5159   0.526   2.848   9.987  0.4534  0.1610  0.2972
  340MPD2    H5 5160   0.592   2.847   9.910  1.7720 -0.8933  1.4549
  340MPD2    N1 5161   0.420   2.431   9.791 -0.5041  0.0429 -0.7108
  340MPD2    H7 5162   0.370   2.344   9.809 -0.3917  0.4991  1.7826
  341TMC3    C1 5163   0.500   2.325   9.591 -0.4213  0.2609  0.1573
  341TMC3    C2 5164   0.453   2.199   9.625  0.0507 -0.0088 -0.0083
  341TMC3    C3 5165   0.431   2.113   9.522  0.3623  1.1671 -0.0475
  341TMC3    C4 5166   0.530   2.354   9.463 -0.8701 -0.2238  0.1525
  341TMC3    C5 5167   0.519   2.256   9.369 -0.2721 -0.0119  0.3615
  341TMC3    C6 5168   0.463   2.140   9.395  0.0578  0.6392 -0.6080
  341TMC3     C 5169   0.514   2.434   9.689 -0.0141  0.2046 -0.2406
  341TMC3     O 5170   0.599   2.516   9.662 -0.1598  0.2200  0.2267
  341TMC3     H 5171   0.429   2.173   9.727 -0.6050 -1.5933 -0.5766
  341TMC3    H1 5172   0.570   2.452   9.442  0.9222 -0.6023  1.7611
  341TMC3    H2 5173   0.436   2.074   9.314 -0.8466  1.4510 -0.9735
  341TMC3    C7 5174   0.579   2.276   9.239 -0.0317 -0.0760 -0.0263
  341TMC3    C8 5175   0.366   1.989   9.565  0.5257  0.6660  0.0116
  341TMC3    O1 5176   0.669   2.359   9.224  0.5631 -0.1472  0.2244
  341TMC3    O2 5177   0.338   1.969   9.681 -0.2384  0.0255 -0.4097
  342MPD2     C 5178   3.062   1.787  17.193  0.8327  0.0186 -0.6240
  342MPD2    C1 5179   3.195   1.783  17.179  0.6608  0.2993 -0.1453
  342MPD2    C2 5180   3.278   1.891  17.220  0.6724  0.0191 -0.2192
  342MPD2    C3 5181   3.226   2.010  17.268  0.8264  0.1616  0.0569
  342MPD2    C4 5182   3.090   2.022  17.254 -0.1480 -0.0050 -0.4916
  342MPD2    C5 5183   3.016   1.905  17.231  0.5278  0.8952 -0.2527
  342MPD2     H 5184   3.385   1.899  17.202  0.7864 -0.5884  0.2180
  342MPD2    H1 5185   3.037   2.111  17.287 -1.7977 -0.4070 -2.0590
  342MPD2    H2 5186   2.995   1.703  17.179  1.3750 -0.8245  1.7999
  342MPD2    H3 5187   2.911   1.907  17.259  0.5816  0.4320 -0.0215
  342MPD2     N 5188   3.300   2.128  17.303 -0.0743 -0.4075 -0.0610
  342MPD2    H5 5189   3.236   2.203  17.329  0.3156 -0.4101  0.9133
  342MPD2    N1 5190   3.263   1.675  17.111  0.2464  0.3714  0.3398
  342MPD2    H7 5191   3.364   1.681  17.109  0.3238 -0.9013  0.2802
  343TMC3    C1 5192   3.280   1.475  16.981 -0.3000 -0.4787 -0.3184
  343TMC3    C2 5193   3.417   1.463  17.021 -0.2323  0.1847 -0.3218
  343TMC3    C3 5194   3.483   1.345  16.994 -0.3245  0.5805  0.0659
  343TMC3    C4 5195   3.212   1.367  16.935 -0.3756  1.0839  0.7947
  343TMC3    C5 5196   3.277   1.246  16.914  0.1199  0.0668  0.4555
  343TMC3    C6 5197   3.415   1.235  16.936  0.1601 -0.0539  0.4047
  343TMC3     C 5198   3.193   1.570  17.046 -0.3304  0.0335  0.1912
  343TMC3     O 5199   3.075   1.554  17.035  0.0592 -0.1218 -0.0053
  343TMC3     H 5200   3.473   1.546  17.063 -0.0058  0.1210 -0.4942
  343TMC3    H1 5201   3.111   1.382  16.900 -0.5010  0.1726  0.7719
  343TMC3    H2 5202   3.465   1.140  16.926 -0.0321 -0.2685  1.5114
  343TMC3    C7 5203   3.205   1.121  16.904 -0.6330 -0.1371  0.0047
  343TMC3    C8 5204   3.624   1.324  17.046  0.4294  0.3849  1.0143
  343TMC3    O1 5205   3.098   1.133  16.842 -0.3676  0.3868 -0.1814
  343TMC3    O2 5206   3.654   1.397  17.143  0.0466 -0.3295 -0.0968
  344MPD2     C 5207   3.870   1.370  10.686  0.0300 -0.2879  0.4856
  344MPD2    C1 5208   3.839   1.377  10.552 -1.2296  0.2745  0.3199
  344MPD2    C2 5209   3.861   1.493  10.474  0.5098 -0.0578  0.2380
  344MPD2    C3 5210   3.924   1.597  10.547 -0.6756  0.0972 -0.7637
  344MPD2    C4 5211   3.956   1.587  10.685  0.9742 -0.3005  0.0695
  344MPD2    C5 5212   3.927   1.473  10.750 -0.3039  0.1284  0.4580
  344MPD2     H 5213   3.849   1.507  10.367  1.3498 -0.6384  0.0711
  344MPD2    H1 5214   4.003   1.671  10.734  2.3527  0.1228 -1.9468
  344MPD2    H2 5215   3.846   1.280  10.741  0.4772 -0.9412 -0.3847
  344MPD2    H3 5216   3.960   1.460  10.852 -0.3614 -1.0070  0.3251
  344MPD2     N 5217   3.966   1.719  10.487 -0.0262 -0.2652 -0.0546
  344MPD2    H5 5218   4.028   1.775  10.545  1.8226 -2.8426  0.4472
  344MPD2    N1 5219   3.752   1.283  10.487 -0.2144  0.3638  0.2380
  344MPD2    H7 5220   3.724   1.309  10.393  0.6840  1.0020  0.1486
  345TMC3    C1 5221   3.996   1.895  10.329 -0.6529 -0.3163 -0.7999
  345TMC3    C2 5222   4.129   1.911  10.368  0.6819 -0.5158 -0.8300
  345TMC3    C3 5223   4.209   1.991  10.291  0.0114 -0.5464  0.2794
  345TMC3    C4 5224   3.941   1.980  10.236  0.0441 -0.9624  0.2481
  345TMC3    C5 5225   4.027   2.070  10.168 -0.0470  0.4109 -0.5674
  345TMC3    C6 5226   4.165   2.066  10.180 -0.0293  0.4604  0.5192
  345TMC3     C 5227   3.931   1.770  10.362  0.0542 -0.1132  0.2126
  345TMC3     O 5228   3.840   1.732  10.292 -0.3794 -0.5123 -0.5100
  345TMC3     H 5229   4.172   1.841  10.438  2.3849  1.7700  0.3688
  345TMC3    H1 5230   3.834   1.990  10.225  0.0340 -0.7710  0.5346
  345TMC3    H2 5231   4.225   2.135  10.120  1.9218 -0.0003  1.9505
  345TMC3    C7 5232   3.978   2.205  10.154 -0.3251 -0.5108 -0.6323
  345TMC3    C8 5233   4.341   2.043  10.346 -0.0022  0.1720  0.4591
  345TMC3    O1 5234   4.061   2.282  10.203 -0.6388  0.2930 -0.4395
  345TMC3    O2 5235   4.413   2.112  10.277  0.3156 -0.1115 -0.2582
  346MPD2     C 5236   4.061   2.637  13.677  0.7296 -0.1344  0.0209
  346MPD2    C1 5237   4.185   2.701  13.703 -0.4397 -0.1928 -0.4683
  346MPD2    C2 5238   4.184   2.815  13.778  1.1800 -0.2308 -0.0855
  346MPD2    C3 5239   4.066   2.861  13.834  0.3500  0.1103  0.3265
  346MPD2    C4 5240   3.949   2.802  13.809 -0.3486 -0.5714 -0.6839
  346MPD2    C5 5241   3.944   2.683  13.736 -0.3397  0.7237  0.7017
  346MPD2     H 5242   4.274   2.876  13.780 -0.8100  2.6471  1.4046
  346MPD2    H1 5243   3.850   2.835  13.839  0.3039  1.1192 -0.3687
  346MPD2    H2 5244   4.049   2.554  13.608 -0.7812  0.5314 -0.5210
  346MPD2    H3 5245   3.848   2.640  13.711 -1.3654  3.3343  0.1466
  346MPD2     N 5246   4.068   2.986  13.903  0.6741  0.9567  0.3546
  346MPD2    H5 5247   4.159   3.010  13.940 -0.6405 -0.6374  4.5323
  346MPD2    N1 5248   4.300   2.671  13.626 -0.3480  0.1730 -0.5465
  346MPD2    H7 5249   4.375   2.739  13.637 -2.0893  2.2049 -1.2903
  347TMC3    C1 5250   4.024   3.197  13.988  0.1212  0.7387 -0.2629
  347TMC3    C2 5251   4.155   3.235  13.963  0.2764 -0.4219 -0.3773
  347TMC3    C3 5252   4.182   3.372  13.954  0.3561 -0.3928  0.5534
  347TMC3    C4 5253   3.937   3.290  14.019 -0.1573 -0.0107 -0.8297
  347TMC3    C5 5254   3.965   3.421  14.008  0.1508 -0.4546 -0.1555
  347TMC3    C6 5255   4.083   3.470  13.964 -0.2396 -0.0707  0.0639
  347TMC3     C 5256   3.968   3.077  13.927 -0.0259  0.8694 -0.4528
  347TMC3     O 5257   3.849   3.079  13.893  1.2906  0.1641 -0.1018
  347TMC3     H 5258   4.231   3.161  13.942  0.3872 -0.6461  0.7854
  347TMC3    H1 5259   3.841   3.259  14.059 -0.9549 -0.0872 -2.7884
  347TMC3    H2 5260   4.105   3.576  13.961 -0.7215 -0.0144 -1.3354
  347TMC3    C7 5261   3.878   3.518  14.074  0.4074  0.5047 -0.6025
  347TMC3    C8 5262   4.321   3.431  13.973  0.9021  0.1098  0.2941
  347TMC3    O1 5263   3.867   3.625  14.020  0.4394  0.3343 -0.3085
  347TMC3    O2 5264   4.334   3.552  13.956 -0.1665 -0.0639 -0.1507
  348MPD2     C 5265   3.275   3.012  12.038 -0.5874  0.6268  0.5507
  348MPD2    C1 5266   3.186   2.990  11.930  0.1036  0.7230 -0.1537
  348MPD2    C2 5267   3.184   3.076  11.826  0.1354 -0.9300  0.2450
  348MPD2    C3 5268   3.263   3.192  11.833 -0.2853  0.1243 -0.2888
  348MPD2    C4 5269   3.340   3.212  11.946  0.7277 -0.5071  0.3463
  348MPD2    C5 5270   3.342   3.125  12.047  0.1757  0.1680 -0.6595
  348MPD2     H 5271   3.125   3.048  11.739 -0.1528  1.7609 -0.4198
  348MPD2    H1 5272   3.415   3.291  11.953  1.3803 -0.9934 -1.1355
  348MPD2    H2 5273   3.281   2.938  12.117  2.3001 -1.1654 -1.3659
  348MPD2    H3 5274   3.399   3.162  12.131 -1.3978 -0.4799  0.6967
  348MPD2     N 5275   3.272   3.278  11.717 -0.5835  0.7958 -0.1843
  348MPD2    H5 5276   3.216   3.260  11.635  1.1798  0.8116 -1.4002
  348MPD2    N1 5277   3.125   2.868  11.907 -0.5457 -0.9213  0.3977
  348MPD2    H7 5278   3.088   2.854  11.813  1.9587  3.1046 -1.1803
  349TMC3    C1 5279   3.052   2.655  11.913  0.7650  0.2321  0.1865
  349TMC3    C2 5280   3.047   2.532  11.976  0.9378  0.6324 -0.1345
  349TMC3    C3 5281   2.935   2.449  11.943  0.4607 -0.0120 -0.1259
  349TMC3    C4 5282   2.942   2.700  11.838  0.3732  0.4300  0.0275
  349TMC3    C5 5283   2.842   2.613  11.805  0.1841 -0.0187 -0.2897
  349TMC3    C6 5284   2.842   2.489  11.856 -0.1753  0.4257 -0.2311
  349TMC3     C 5285   3.135   2.756  11.978  0.2200 -0.3479 -0.4011
  349TMC3     O 5286   3.182   2.730  12.088 -0.0269  0.3361  0.0057
  349TMC3     H 5287   3.123   2.501  12.046 -0.9286 -3.2419  0.1811
  349TMC3    H1 5288   2.928   2.801  11.801  0.7931  1.2553  2.1358
  349TMC3    H2 5289   2.765   2.423  11.819 -0.2731 -0.6183  1.8726
  349TMC3    C7 5290   2.733   2.660  11.719  0.8683 -0.2797 -0.1843
  349TMC3    C8 5291   2.907   2.334  12.029  0.3999  0.2263  0.2611
  349TMC3    O1 5292   2.621   2.626  11.757  0.4625 -0.3187  0.4672
  349TMC3    O2 5293   3.002   2.299  12.095 -0.2991 -0.5623 -0.1496
  350MPD2     C 5294   1.911   1.342  10.176 -0.2414 -0.4996 -0.0141
  350MPD2    C1 5295   1.890   1.260  10.285 -0.8362  0.1235 -0.7168
  350MPD2    C2 5296   1.902   1.308  10.410  0.1956  0.4355  0.2919
  350MPD2    C3 5297   1.953   1.430  10.437 -0.3075  0.1415  0.8499
  350MPD2    C4 5298   1.977   1.512  10.326 -0.1097 -0.2366  0.4537
  350MPD2    C5 5299   1.952   1.472  10.198  0.2686 -0.1842  0.7201
  350MPD2     H 5300   1.874   1.241  10.490 -1.7704  1.8477  0.8086
  350MPD2    H1 5301   2.002   1.615  10.346 -0.8066  0.3974 -1.9738
  350MPD2    H2 5302   1.900   1.311  10.073 -0.1404  2.8636 -1.0451
  350MPD2    H3 5303   1.973   1.539  10.115  1.4509 -0.7237  0.5820
  350MPD2     N 5304   1.964   1.469  10.572 -0.1414  0.3738  0.4692
  350MPD2    H5 5305   1.924   1.406  10.641 -0.7170 -1.1579 -1.2706
  350MPD2    N1 5306   1.833   1.127  10.271 -0.7417 -0.1249  0.4629
  350MPD2    H7 5307   1.825   1.073  10.356  0.1703  2.9773  2.5416
  351TMC3    C1 5308   1.755   0.934  10.177 -0.9188  0.4209 -0.4080
  351TMC3    C2 5309   1.773   0.844  10.081 -0.0453  0.0513 -0.3150
  351TMC3    C3 5310   1.698   0.727  10.101  0.3041 -0.3304  0.0797
  351TMC3    C4 5311   1.665   0.916  10.279  0.3693  0.3754 -1.0376
  351TMC3    C5 5312   1.591   0.799  10.282 -0.0920 -0.1316 -0.1732
  351TMC3    C6 5313   1.606   0.701  10.195  0.1131  0.1982  0.2927
  351TMC3     C 5314   1.814   1.064  10.150 -0.3459 -0.0532  0.0751
  351TMC3     O 5315   1.845   1.092  10.034 -0.0257 -0.2074  0.1698
  351TMC3     H 5316   1.849   0.863  10.006  0.3150 -0.1459  0.0003
  351TMC3    H1 5317   1.648   0.988  10.357 -1.7382  1.0710 -2.1409
  351TMC3    H2 5318   1.542   0.614  10.193 -0.7085  0.8009  0.4542
  351TMC3    C7 5319   1.540   0.759  10.413  0.8071  0.1185  0.0417
  351TMC3    C8 5320   1.751   0.606  10.034  0.3397 -0.2042  0.4738
  351TMC3    O1 5321   1.543   0.847  10.500  0.0675 -0.5864 -0.9627
  351TMC3    O2 5322   1.677   0.508  10.019 -0.2255  0.0697 -0.5995
  352MPD2     C 5323   1.194   3.031   0.943 -0.3486  0.3166 -0.2989
  352MPD2    C1 5324   1.112   2.980   0.844  0.0945  0.2321  0.2151
  352MPD2    C2 5325   1.149   2.889   0.748 -0.1660  0.8042 -0.6559
  352MPD2    C3 5326   1.280   2.839   0.757  0.2800 -0.5333 -0.1197
  352MPD2    C4 5327   1.362   2.879   0.859 -0.3285  0.2495 -0.4430
  352MPD2    C5 5328   1.322   2.978   0.951 -0.3206 -0.0123 -0.2827
  352MPD2     H 5329   1.086   2.864   0.664 -0.0839  0.5117 -0.6281
  352MPD2    H1 5330   1.468   2.854   0.855  0.0377  1.7129  0.0196
  352MPD2    H2 5331   1.165   3.108   1.014 -0.4255 -2.5271  2.7740
  352MPD2    H3 5332   1.384   3.007   1.035 -0.6960 -0.7278  0.2351
  352MPD2     N 5333   1.328   2.736   0.670  0.3350 -0.2421  0.1374
  352MPD2    H5 5334   1.396   2.675   0.714  1.6743  1.8612  0.9304
  352MPD2    N1 5335   0.983   3.034   0.848 -0.1763 -0.0726 -0.5165
  352MPD2    H7 5336   0.956   3.096   0.924 -1.7917 -1.9268  0.4066
  353TMC3    C1 5337   1.294   2.554   0.533  0.1239  0.0801 -0.0169
  353TMC3    C2 5338   1.383   2.483   0.619  0.3110  0.2604 -0.9441
  353TMC3    C3 5339   1.360   2.348   0.648 -0.0342 -0.3784  0.3225
  353TMC3    C4 5340   1.171   2.493   0.496 -0.2539 -0.3838 -0.0019
  353TMC3    C5 5341   1.153   2.364   0.543 -0.6373  0.3087 -1.1126
  353TMC3    C6 5342   1.249   2.286   0.608 -0.5090  0.1677 -0.0265
  353TMC3     C 5343   1.275   2.696   0.554 -0.3128 -0.2437  0.0132
  353TMC3     O 5344   1.187   2.757   0.486  0.3892  0.0619  0.4537
  353TMC3     H 5345   1.472   2.534   0.653  0.0299  1.3903 -1.8704
  353TMC3    H1 5346   1.086   2.538   0.446  0.0989 -0.2132 -0.4442
  353TMC3    H2 5347   1.215   2.184   0.625 -0.1169  0.1476  0.6132
  353TMC3    C7 5348   1.019   2.305   0.546  0.2067 -0.6939 -1.1075
  353TMC3    C8 5349   1.457   2.276   0.721 -0.2099  0.6213  0.7815
  353TMC3    O1 5350   1.007   2.184   0.535  0.4172 -0.0303 -0.0397
  353TMC3    O2 5351   1.545   2.344   0.775  0.1089 -0.1381  0.2820
  354TMC3    C1 5352   2.008   3.773  13.615  0.4954  0.5044  0.4904
  354TMC3    C2 5353   2.035   3.906  13.611 -0.2638 -0.6486 -0.8931
  354TMC3    C3 5354   2.006   3.968  13.499 -0.5050  0.3921  0.1149
  354TMC3    C4 5355   1.971   3.702  13.504 -0.4779 -0.0203 -1.1590
  354TMC3    C5 5356   1.949   3.773  13.389 -0.2887 -0.2889 -0.1916
  354TMC3    C6 5357   1.968   3.907  13.383  0.5564  0.3932 -0.1028
  354TMC3     C 5358   2.028   3.698  13.733  0.1500  0.2104 -0.0228
  354TMC3     O 5359   1.954   3.601  13.753 -0.2199  0.9833  0.3872
  354TMC3     H 5360   2.074   3.960  13.696 -1.8874  0.5258 -0.8979
  354TMC3    H1 5361   1.978   3.594  13.500  4.2475  0.2360  0.5878
  354TMC3    H2 5362   1.963   3.962  13.290 -0.7826 -0.1192 -0.3298
  354TMC3    C7 5363   2.000   3.702  13.276  0.6217  0.7744 -0.0526
  354TMC3    C8 5364   2.012   4.112  13.502 -0.1740 -0.1059 -0.1436
  354TMC3    O1 5365   1.953   3.597  13.244 -0.5227  1.1333 -0.4852
  354TMC3    O2 5366   2.018   4.165  13.614  0.1051  0.8174  0.1931
  355MPD2     C 5367   1.870   0.248  11.888  0.1243 -0.5430  0.2602
  355MPD2    C1 5368   1.965   0.234  11.786 -0.8101 -0.1117  0.3077
  355MPD2    C2 5369   2.094   0.187  11.812 -0.1568 -0.1904 -0.6770
  355MPD2    C3 5370   2.137   0.172  11.946  0.0613  0.5645 -0.2429
  355MPD2    C4 5371   2.045   0.188  12.050  1.0738  0.4290  0.4811
  355MPD2    C5 5372   1.913   0.225  12.021  0.4813  0.0990 -0.1156
  355MPD2     H 5373   2.155   0.162  11.726  1.6634 -0.4451  0.6830
  355MPD2    H1 5374   2.063   0.166  12.154 -0.8021 -1.2624  0.4397
  355MPD2    H2 5375   1.772   0.282  11.858  0.2394 -0.8196 -0.4367
  355MPD2    H3 5376   1.848   0.222  12.107  1.1283  2.2841  0.4486
  355MPD2     N 5377   2.268   0.165  11.988  0.0520  0.6617  0.0126
  355MPD2    H5 5378   2.286   0.152  12.087  2.6772  1.3750 -0.3614
  355MPD2    N1 5379   1.929   0.267  11.650 -0.2147  0.1852  0.9782
  355MPD2    H7 5380   1.828   0.271  11.639  0.1356  1.8429 -1.7155
  356TMC3    C1 5381   2.502   0.208  11.980 -0.4593  0.4718 -0.9279
  356TMC3    C2 5382   2.600   0.263  11.894 -0.4118  0.1530 -0.1176
  356TMC3    C3 5383   2.695   0.354  11.937  0.1876  0.4039 -0.0232
  356TMC3    C4 5384   2.499   0.260  12.106 -0.7666  0.0586  0.3251
  356TMC3    C5 5385   2.591   0.357  12.147  0.6271 -0.0076 -0.3224
  356TMC3    C6 5386   2.692   0.402  12.065  0.7104 -0.8598  0.0271
  356TMC3     C 5387   2.377   0.191  11.912  0.0147 -0.5032 -0.5061
  356TMC3     O 5388   2.384   0.182  11.787 -0.0824  0.2383 -0.3908
  356TMC3     H 5389   2.604   0.221  11.794 -1.2139 -0.5991  0.1656
  356TMC3    H1 5390   2.419   0.235  12.176 -2.5797 -1.5743 -2.3084
  356TMC3    H2 5391   2.769   0.470  12.098 -0.6970  0.9330 -0.3785
  356TMC3    C7 5392   2.608   0.371  12.292 -0.3077  0.4145  0.1359
  356TMC3    C8 5393   2.788   0.414  11.842  0.2913  0.3985 -0.1296
  356TMC3    O1 5394   2.533   0.299  12.358 -0.4771 -0.1342  0.3977
  356TMC3    O2 5395   2.782   0.352  11.740  0.2502 -0.0990  0.9911
  357MPD2     C 5396   2.445   4.688   0.251  0.0338  0.0506  0.4034
  357MPD2    C1 5397   2.415   4.552   0.250 -0.8043 -0.1808 -0.0122
  357MPD2    C2 5398   2.287   4.497   0.261 -0.4062  0.2547  0.0951
  357MPD2    C3 5399   2.178   4.583   0.268 -0.2184 -0.0534  0.1174
  357MPD2    C4 5400   2.201   4.718   0.250  0.9841 -0.7296  0.1702
  357MPD2    C5 5401   2.330   0.029   0.250 -0.6656 -0.0468  0.0371
  357MPD2     H 5402   2.266   4.390   0.255 -2.2373  0.6137  0.2419
  357MPD2    H1 5403   2.113   0.043   0.244  1.6030  0.0649 -0.3763
  357MPD2    H2 5404   2.542   4.733   0.232 -0.3617  0.3886 -0.7904
  357MPD2    H3 5405   2.348   0.136   0.242 -0.6319  0.0658  1.7602
  357MPD2     N 5406   2.040   4.544   0.258  0.1180  0.1389  1.0061
  357MPD2    H5 5407   1.963   4.610   0.256 -0.7606 -1.0618 -2.8850
  357MPD2    N1 5408   2.524   4.467   0.222  0.5227 -0.4682 -0.3651
  357MPD2    H7 5409   2.615   4.507   0.202  0.8304 -0.9320  0.1233
  358TMC3    C1 5410   2.652   4.277   0.209  0.0451 -0.6364 -0.0439
  358TMC3    C2 5411   2.670   4.265   0.074  0.5202 -0.2714 -0.9283
  358TMC3    C3 5412   2.706   4.144   0.027 -0.5211 -0.0570  1.1103
  358TMC3    C4 5413   2.660   4.174   0.293  0.2512 -0.2894 -0.2356
  358TMC3    C5 5414   2.676   4.054   0.243 -0.2672  0.0873  0.4351
  358TMC3    C6 5415   2.714   4.033   0.109  0.3416  0.4845  0.2871
  358TMC3     C 5416   2.527   4.332   0.251 -0.0270  0.3443  0.2557
  358TMC3     O 5417   2.443   4.270   0.322 -0.3652  0.3391 -0.7088
  358TMC3     H 5418   2.657   4.347   0.005 -2.0501  0.8035  0.8240
  358TMC3    H1 5419   2.643   4.186   0.400 -0.4013 -0.0133 -0.3694
  358TMC3    H2 5420   2.724   3.931   0.075  2.8388  0.9223 -0.2715
  358TMC3    C7 5421   2.589   3.949   0.296 -0.7617 -1.1207  1.0122
  358TMC3    C8 5422   2.681   4.130  17.639 -0.0303 -0.1426  0.3996
  358TMC3    O1 5423   2.634   3.836   0.285 -0.7627  0.2363  0.1084
  358TMC3    O2 5424   2.691   4.233  17.576 -0.3285 -0.2744  0.2381
  359MPD2     C 5425   3.183   3.417  12.709  0.4025  0.0236  0.2387
  359MPD2    C1 5426   3.101   3.402  12.596 -0.4886 -0.5366 -0.4522
  359MPD2    C2 5427   2.968   3.376  12.623 -0.1023  0.0936 -0.0805
  359MPD2    C3 5428   2.910   3.354  12.746  0.4890  0.3254 -0.3353
  359MPD2    C4 5429   2.996   3.378  12.852  0.0725 -0.1959  0.7290
  359MPD2    C5 5430   3.128   3.417  12.834  0.2506 -0.0360 -0.5073
  359MPD2     H 5431   2.913   3.366  12.531 -0.1092  1.3931 -0.2131
  359MPD2    H1 5432   2.966   3.360  12.954  0.4287  0.9472  1.0269
  359MPD2    H2 5433   3.283   3.454  12.690 -0.2961  1.9799  0.3485
  359MPD2    H3 5434   3.192   3.443  12.918 -1.1862 -1.7419  1.1177
  359MPD2     N 5435   2.787   3.294  12.771 -0.4328  0.5757 -0.5056
  359MPD2    H5 5436   2.739   3.254  12.691 -0.8640 -0.5906  0.3484
  359MPD2    N1 5437   3.144   3.425  12.461 -0.2028 -0.0102 -0.0615
  359MPD2    H7 5438   3.076   3.440  12.388 -2.2992  0.1473  1.9284
  360TMC3    C1 5439   3.285   3.462  12.281 -0.0417 -0.1778 -0.3183
  360TMC3    C2 5440   3.393   3.526  12.239  0.2056 -0.1640 -0.4984
  360TMC3    C3 5441   3.397   3.580  12.115  0.5646 -0.0455 -0.0003
  360TMC3    C4 5442   3.171   3.447  12.204  0.1779  0.2042  0.3900
  360TMC3    C5 5443   3.166   3.512  12.083 -0.4570 -0.6638  0.2916
  360TMC3    C6 5444   3.280   3.577  12.040 -0.3448 -0.2554  0.1373
  360TMC3     C 5445   3.274   3.439  12.419  0.3075  0.1302  0.1910
  360TMC3     O 5446   3.379   3.439  12.485  0.0267 -0.0448  0.1994
  360TMC3     H 5447   3.452   3.565  12.322 -2.0663  2.1136  0.0537
  360TMC3    H1 5448   3.085   3.387  12.232 -0.9612  1.6155 -0.0859
  360TMC3    H2 5449   3.276   3.629  11.945 -0.8208 -0.1755  0.1965
  360TMC3    C7 5450   3.058   3.474  11.994  0.1059 -0.2357  0.8763
  360TMC3    C8 5451   3.512   3.671  12.086 -0.3700 -0.4710 -0.2347
  360TMC3    O1 5452   2.974   3.400  12.047  0.3855  0.0722  0.3673
  360TMC3    O2 5453   3.542   3.750  12.176 -0.1335  0.2444  0.7621
  361MPD2     C 5454   4.399   2.004  16.471  0.2308 -0.4507  0.2730
  361MPD2    C1 5455   4.386   2.060  16.595 -0.0354  0.5711 -0.2683
  361MPD2    C2 5456   4.448   1.997  16.700 -0.0135 -0.4023 -0.1081
  361MPD2    C3 5457   4.513   1.880  16.691 -0.0326 -0.4965  1.0035
  361MPD2    C4 5458   4.529   1.824  16.570  0.5451  0.5234  0.9073
  361MPD2    C5 5459   4.473   1.887  16.458  0.3272 -0.4772 -0.0121
  361MPD2     H 5460   4.435   2.040  16.798  1.7241 -0.9418  0.3611
  361MPD2    H1 5461   4.589   1.734  16.575  1.0611  0.8392  0.3883
  361MPD2    H2 5462   4.338   2.040  16.389  3.5287  2.4480 -0.9165
  361MPD2    H3 5463   4.476   1.832  16.365  2.6196 -1.1820  0.4993
  361MPD2     N 5464   4.556   1.812  16.806  0.0236 -0.3174 -0.4358
  361MPD2    H5 5465   4.602   1.725  16.784  0.0870  0.3485 -2.9407
  361MPD2    N1 5466   4.304   2.174  16.615  0.3577  0.2156  0.1358
  361MPD2    H7 5467   4.311   2.213  16.709 -1.7902 -2.4987  1.4181
  362TMC3    C1 5468   4.157   2.347  16.591  0.6323 -0.6502 -0.0458
  362TMC3    C2 5469   4.108   2.330  16.719  0.1587  0.3070 -0.5591
  362TMC3    C3 5470   4.019   2.422  16.765  0.3820 -0.4845  0.1815
  362TMC3    C4 5471   4.125   2.452  16.513  0.1450  0.5664 -0.0753
  362TMC3    C5 5472   4.033   2.535  16.568 -0.9380  0.1249  0.0507
  362TMC3    C6 5473   3.997   2.536  16.698 -0.3143 -0.2807 -0.1789
  362TMC3     C 5474   4.239   2.249  16.526  0.0856 -0.0074 -0.2093
  362TMC3     O 5475   4.230   2.240  16.403 -0.0407 -1.0574 -0.2702
  362TMC3     H 5476   4.117   2.234  16.767  0.2139  0.4903 -0.2054
  362TMC3    H1 5477   4.172   2.479  16.419 -1.0353 -0.8966 -1.0878
  362TMC3    H2 5478   3.931   2.614  16.736  1.1619  1.7412 -1.7386
  362TMC3    C7 5479   3.996   2.646  16.489  0.2303  0.3941 -0.2020
  362TMC3    C8 5480   4.003   2.413  16.909  0.2586  0.0138  0.1648
  362TMC3    O1 5481   3.981   2.758  16.533 -0.4807 -0.0633  0.4454
  362TMC3    O2 5482   4.054   2.310  16.958  0.3688 -0.3726 -0.0264
  363TMC3    C1 5483   2.479   4.556   9.392  0.2415  0.4960 -0.2736
  363TMC3    C2 5484   2.545   4.553   9.518  0.5655 -0.1547 -0.0103
  363TMC3    C3 5485   2.475   4.611   9.622  0.0539 -0.9211  0.5955
  363TMC3    C4 5486   2.360   4.631   9.369  0.0127 -0.2689 -0.0996
  363TMC3    C5 5487   2.298   4.675   9.478 -0.3660 -0.3288 -0.8478
  363TMC3    C6 5488   2.359   4.671   9.599  0.4966  0.0137  0.2219
  363TMC3     C 5489   2.514   4.456   9.292  0.6029  0.1847  0.3570
  363TMC3     O 5490   2.443   4.439   9.192  0.2432 -0.1376 -0.5184
  363TMC3     H 5491   2.632   4.492   9.538  1.1229  0.0256 -1.9038
  363TMC3    H1 5492   2.320   4.646   9.269  0.0871 -0.5026 -0.1640
  363TMC3    H2 5493   2.319   4.734   9.678  0.2621 -0.1249  0.2129
  363TMC3    C7 5494   2.186   0.032   9.464 -0.6428 -0.4517  0.4234
  363TMC3    C8 5495   2.536   4.645   9.750 -0.6864 -0.7026  0.0408
  363TMC3    O1 5496   2.164   0.103   9.562 -0.5288 -0.3542  0.2495
  363TMC3    O2 5497   2.460   4.658   9.846  0.0265  0.6732 -0.2710
  364MPD2     C 5498   1.598   4.166  10.711  0.1319 -0.3208 -0.7736
  364MPD2    C1 5499   1.698   4.174  10.616  0.0370  0.8036 -0.0632
  364MPD2    C2 5500   1.802   4.079  10.615 -0.0073 -0.1439  0.6114
  364MPD2    C3 5501   1.802   3.976  10.704 -0.2368  0.3904  0.5443
  364MPD2    C4 5502   1.704   3.976  10.804 -0.3587 -0.2629 -0.9726
  364MPD2    C5 5503   1.593   4.065  10.799  0.6659  0.4135 -0.1006
  364MPD2     H 5504   1.888   4.085  10.550 -0.3459  0.2070  0.1966
  364MPD2    H1 5505   1.717   3.903  10.883 -0.2717  2.2706  1.3693
  364MPD2    H2 5506   1.531   4.251  10.715 -0.0911 -0.5328 -0.0924
  364MPD2    H3 5507   1.518   4.074  10.877  0.9138 -0.1295  0.2079
  364MPD2     N 5508   1.902   3.880  10.708 -0.1242 -0.3588 -0.2613
  364MPD2    H5 5509   1.932   3.832  10.792 -2.8463 -0.7165  0.4926
  364MPD2    N1 5510   1.697   4.290  10.537  0.1701  0.5257 -0.1922
  364MPD2    H7 5511   1.636   4.366  10.564  0.9964  1.7896 -1.8638
  365TMC3    C1 5512   1.762   4.434  10.355 -0.4307  0.1355  0.2969
  365TMC3    C2 5513   1.744   4.425  10.219 -0.4352  0.0755  0.3595
  365TMC3    C3 5514   1.722   4.545  10.158 -0.6875 -0.6704  0.2753
  365TMC3    C4 5515   1.767   4.543  10.438 -0.6434 -0.0363 -0.0053
  365TMC3    C5 5516   1.740   4.657  10.369  0.1489  0.1484 -0.6758
  365TMC3    C6 5517   1.713   4.657  10.233  0.3513  0.0827 -0.5211
  365TMC3     C 5518   1.768   4.303  10.416  0.4755  0.1834  0.6574
  365TMC3     O 5519   1.856   4.238  10.366  0.0170 -0.1178  0.4485
  365TMC3     H 5520   1.745   4.336  10.158 -1.8058  1.1110 -1.1827
  365TMC3    H1 5521   1.793   4.532  10.543  2.3572 -0.1792 -0.7522
  365TMC3    H2 5522   1.690   0.012  10.183 -0.0094  0.3229  0.1083
  365TMC3    C7 5523   1.696   0.041  10.444  0.4599 -0.2176  0.2586
  365TMC3    C8 5524   1.636   4.550  10.036  0.3340 -0.5066  0.1726
  365TMC3    O1 5525   1.650   0.132  10.379 -0.7417 -0.0722 -0.5625
  365TMC3    O2 5526   1.549   4.638  10.039  0.1662  0.3062  0.0957
  366MPD2     C 5527   4.482   0.316  15.234  0.1702  0.1471  0.1179
  366MPD2    C1 5528   4.563   0.430  15.259  0.4764 -0.3468 -0.1906
  366MPD2    C2 5529   4.687   0.437  15.204 -0.0811 -0.1182  0.2720
  366MPD2    C3 5530   4.730   0.348  15.108  0.0533  0.0393 -0.0799
  366MPD2    C4 5531   4.653   0.236  15.078  0.1146 -0.0161  0.0152
  366MPD2    C5 5532   4.528   0.227  15.143 -0.9044  0.1231  0.2778
  366MPD2     H 5533   0.005   0.528  15.218 -1.3069  0.4706  1.4733
  366MPD2    H1 5534   4.667   0.173  14.992  0.7746 -0.4810  0.4622
  366MPD2    H2 5535   4.380   0.307  15.271 -0.6786 -0.4793 -2.3549
  366MPD2    H3 5536   4.464   0.140  15.130  1.1485 -1.2460 -0.6182
  366MPD2     N 5537   0.110   0.374  15.046  0.1244  0.6584 -0.4948
  366MPD2    H5 5538   0.144   0.466  15.072 -0.8348  0.5240  1.2252
  366MPD2    N1 5539   4.522   0.545  15.329  0.4148 -0.0345  0.3481
  366MPD2    H7 5540   4.595   0.616  15.331 -2.1526  2.7061 -2.8059
  367TMC3    C1 5541   4.381   0.725  15.422  0.4792 -0.2353 -0.0258
  367TMC3    C2 5542   4.486   0.797  15.466 -0.0489 -0.0028  0.7844
  367TMC3    C3 5543   4.482   0.928  15.452 -0.3563  0.1774 -0.8915
  367TMC3    C4 5544   4.272   0.787  15.366  0.2774 -0.4430  0.5533
  367TMC3    C5 5545   4.274   0.924  15.360 -0.1199  0.0326  0.0436
  367TMC3    C6 5546   4.378   0.995  15.392 -0.1491  0.3601 -0.5073
  367TMC3     C 5547   4.400   0.577  15.384  0.3734 -0.4254  0.7469
  367TMC3     O 5548   4.303   0.510  15.397  0.3015 -0.1765  0.2648
  367TMC3     H 5549   4.552   0.741  15.531  0.3259 -0.7187 -0.2102
  367TMC3    H1 5550   4.205   0.730  15.304 -1.9625  0.9384  1.7007
  367TMC3    H2 5551   4.372   1.104  15.391  2.2008  0.4907 -1.6354
  367TMC3    C7 5552   4.224   0.964  15.233 -0.2597 -0.0693 -0.0185
  367TMC3    C8 5553   4.585   1.012  15.519 -0.1704 -0.5305  0.0072
  367TMC3    O1 5554   4.299   1.036  15.167  0.2467  0.0306  0.0723
  367TMC3    O2 5555   4.644   0.951  15.606  0.3686 -0.3672  0.1329
  368MPD2     C 5556   1.033   2.493  13.360 -0.4898  0.0463 -0.5324
  368MPD2    C1 5557   1.066   2.617  13.314 -0.3073 -0.1237 -0.4984
  368MPD2    C2 5558   1.208   2.636  13.289  0.5134 -0.1795 -0.3585
  368MPD2    C3 5559   1.298   2.534  13.311 -0.0765  0.2583 -0.7898
  368MPD2    C4 5560   1.265   2.416  13.364  0.6669 -0.0468  0.2223
  368MPD2    C5 5561   1.131   2.399  13.383 -0.0666 -0.0725  0.7798
  368MPD2     H 5562   1.238   2.731  13.245 -1.5958  1.1971  1.1452
  368MPD2    H1 5563   1.341   2.342  13.387  1.6287  0.7608 -0.3744
  368MPD2    H2 5564   0.930   2.475  13.390  0.1511 -0.6770  1.2266
  368MPD2    H3 5565   1.101   2.305  13.428 -0.6078 -0.0521  0.4684
  368MPD2     N 5566   1.435   2.545  13.275  0.1320 -0.0787 -0.8954
  368MPD2    H5 5567   1.508   2.483  13.309  0.0789 -0.1098 -0.8386
  368MPD2    N1 5568   0.966   2.709  13.290 -0.2677 -0.4461 -0.2226
  368MPD2    H7 5569   0.872   2.676  13.310 -1.0132  0.0395 -2.9858
  369TMC3    C1 5570   0.873   2.905  13.200 -0.2611 -0.4641 -0.8094
  369TMC3    C2 5571   0.908   3.003  13.108 -0.1265 -0.3793 -0.1893
  369TMC3    C3 5572   0.812   3.034  13.014 -0.0319  0.4872  0.0643
  369TMC3    C4 5573   0.742   2.852  13.212  0.0913 -0.4609  0.2018
  369TMC3    C5 5574   0.657   2.890  13.110 -0.5632 -0.5153 -0.4327
  369TMC3    C6 5575   0.682   2.983  13.010 -0.2042 -0.2143 -0.1404
  369TMC3     C 5576   0.985   2.842  13.255 -0.8195 -0.1755  0.2149
  369TMC3     O 5577   1.096   2.887  13.228  0.1779 -0.3475  0.2495
  369TMC3     H 5578   1.008   3.045  13.103  0.2408 -1.1460  0.6425
  369TMC3    H1 5579   0.713   2.788  13.295 -0.9100  1.5085  1.3695
  369TMC3    H2 5580   0.621   2.997  12.921 -2.0265 -2.1958  0.7920
  369TMC3    C7 5581   0.539   2.807  13.103 -0.3265  0.1546 -0.1632
  369TMC3    C8 5582   0.870   3.103  12.902  0.0253  0.0870  0.1953
  369TMC3    O1 5583   0.546   2.708  13.171 -0.2203  0.4528  0.0528
  369TMC3    O2 5584   0.783   3.166  12.843 -0.1209  0.0481 -0.8687
  370TMC3    C1 5585   0.383   3.040  15.947 -0.2547 -0.1675  0.1484
  370TMC3    C2 5586   0.312   3.006  16.059 -0.5405 -0.9035 -0.6748
  370TMC3    C3 5587   0.288   2.880  16.082 -0.6490 -0.2446  0.6663
  370TMC3    C4 5588   0.433   2.946  15.861 -0.3584 -0.8451  0.0627
  370TMC3    C5 5589   0.406   2.822  15.891  0.1818 -0.2380  0.3516
  370TMC3    C6 5590   0.340   2.777  16.004 -0.7298 -0.0860  0.1800
  370TMC3     C 5591   0.399   3.176  15.904  0.1283 -0.0307 -0.3419
  370TMC3     O 5592   0.413   3.186  15.784 -0.5560  0.5034  0.5781
  370TMC3     H 5593   0.263   3.092  16.103  1.1472  0.2651 -1.1180
  370TMC3    H1 5594   0.510   2.976  15.790  0.8655 -1.0978  1.2785
  370TMC3    H2 5595   0.325   2.672  16.027  2.8136 -1.2793 -2.8548
  370TMC3    C7 5596   0.495   2.727  15.819 -0.0758 -0.1245  0.7167
  370TMC3    C8 5597   0.247   2.839  16.216 -0.1160  0.3364  0.1399
  370TMC3    O1 5598   0.591   2.767  15.759  0.5011  0.1654 -0.4249
  370TMC3    O2 5599   0.220   2.722  16.227  0.3936  0.4963 -0.2154
  371TMC3    C1 5600   1.716   1.246  15.277 -0.5409  0.0162  0.0316
  371TMC3    C2 5601   1.607   1.241  15.362  0.0536 -0.0771  0.0534
  371TMC3    C3 5602   1.555   1.360  15.395 -0.1357 -0.2775 -0.5454
  371TMC3    C4 5603   1.779   1.362  15.230 -0.4939 -0.1234  0.0339
  371TMC3    C5 5604   1.726   1.477  15.282  0.6542 -0.1524  0.6775
  371TMC3    C6 5605   1.613   1.481  15.360  0.2477  0.2963 -0.1669
  371TMC3     C 5606   1.801   1.127  15.268  0.1408 -0.3828 -0.1959
  371TMC3     O 5607   1.875   1.124  15.170  0.1223  0.4026  0.8736
  371TMC3     H 5608   1.560   1.152  15.401 -0.5606 -0.8774 -2.5138
  371TMC3    H1 5609   1.853   1.353  15.151  1.6875 -1.2881  2.2170
  371TMC3    H2 5610   1.564   1.576  15.379 -1.5225 -0.6642  0.1273
  371TMC3    C7 5611   1.762   1.605  15.221  0.3149  0.2349 -0.3391
  371TMC3    C8 5612   1.431   1.360  15.466  0.4957  0.8404  0.1088
  371TMC3    O1 5613   1.696   1.704  15.234  0.7466  0.1687  0.1019
  371TMC3    O2 5614   1.363   1.257  15.470  0.1003 -0.5328  0.3436
  372MPD2     C 5615   1.742   3.000  13.359 -0.4099  0.0386 -0.0777
  372MPD2    C1 5616   1.798   2.917  13.450  0.1292  0.1162  0.6232
  372MPD2    C2 5617   1.716   2.820  13.512  1.1495  0.1711 -0.3518
  372MPD2    C3 5618   1.579   2.815  13.492  0.0717  0.1876 -0.0799
  372MPD2    C4 5619   1.527   2.911  13.415  0.0171 -0.2099 -0.1831
  372MPD2    C5 5620   1.608   3.000  13.348 -0.5531 -0.3532 -0.3512
  372MPD2     H 5621   1.766   2.748  13.576  0.9721  1.3034  1.0434
  372MPD2    H1 5622   1.419   2.925  13.407  0.0715 -0.2018 -0.8827
  372MPD2    H2 5623   1.795   3.074  13.300  2.3211 -2.1863 -0.4524
  372MPD2    H3 5624   1.557   3.078  13.292 -0.3704 -0.0234 -0.0561
  372MPD2     N 5625   1.499   2.723  13.572 -0.3805 -0.1742 -0.3115
  372MPD2    H5 5626   1.543   2.673  13.649  1.8261  1.1770 -0.6872
  372MPD2    N1 5627   1.937   2.916  13.492  0.0462  0.8491  1.0675
  372MPD2    H7 5628   1.959   2.850  13.566 -0.0648  1.3323  1.5282
  373TMC3    C1 5629   1.315   2.627  13.668 -0.9430 -0.6687 -0.5564
  373TMC3    C2 5630   1.199   2.641  13.739  0.2517  0.4361  0.4996
  373TMC3    C3 5631   1.149   2.534  13.800  0.5617 -0.5802 -0.1786
  373TMC3    C4 5632   1.384   2.511  13.660 -0.1072 -0.7845  0.2638
  373TMC3    C5 5633   1.330   2.401  13.715  0.0764  0.0256 -1.1317
  373TMC3    C6 5634   1.217   2.414  13.793  0.2741 -0.4855  0.1734
  373TMC3     C 5635   1.358   2.725  13.576  0.1846 -0.3718 -0.1087
  373TMC3     O 5636   1.277   2.814  13.546  1.1271 -0.1891  0.3257
  373TMC3     H 5637   1.128   2.722  13.725  0.8241  1.2202  2.1536
  373TMC3    H1 5638   1.483   2.502  13.614 -0.4624  0.1637 -0.6996
  373TMC3    H2 5639   1.183   2.327  13.847  0.9942 -0.1819  1.1217
  373TMC3    C7 5640   1.418   2.288  13.730 -0.0389 -0.3528  0.2881
  373TMC3    C8 5641   1.010   2.540  13.846  0.6986 -0.2796  0.5529
  373TMC3    O1 5642   1.465   2.245  13.626  0.2772 -0.3351 -0.2455
  373TMC3    O2 5643   0.939   2.626  13.796 -0.7219  0.4211 -0.0338
  374TMC3    C1 5644   2.079   2.935   9.859 -0.3986  0.4803 -0.3388
  374TMC3    C2 5645   2.192   3.005   9.880 -0.2649  0.3614  0.1460
  374TMC3    C3 5646   2.236   3.086   9.778  0.2976 -0.9595  0.2706
  374TMC3    C4 5647   2.020   2.926   9.734 -1.1300 -0.2868 -0.1805
  374TMC3    C5 5648   2.061   3.010   9.634  1.0885 -0.3126 -0.2225
  374TMC3    C6 5649   2.161   3.100   9.659 -0.5103 -0.0676  0.5938
  374TMC3     C 5650   2.027   2.863   9.975  0.1660 -0.4445  1.3311
  374TMC3     O 5651   2.104   2.836  10.062 -0.4435 -0.1239  0.2982
  374TMC3     H 5652   2.241   3.001   9.976  2.6297 -0.6957 -1.3832
  374TMC3    H1 5653   1.940   2.856   9.719  0.3757 -1.6891 -1.6526
  374TMC3    H2 5654   2.211   3.156   9.581  0.4154 -0.4338  0.9197
  374TMC3    C7 5655   1.982   3.017   9.514  0.1598  0.3459  0.0881
  374TMC3    C8 5656   2.363   3.153   9.774  0.6412 -0.5358  0.2773
  374TMC3    O1 5657   1.918   2.915   9.486  0.2063  0.5163  0.0143
  374TMC3    O2 5658   2.395   3.213   9.673  0.1632 -0.2541 -0.3667
  375MPD2     C 5659   1.917   3.516  17.085 -0.2228  0.5198 -0.7439
  375MPD2    C1 5660   1.836   3.515  16.973  0.0850 -0.6124 -0.6613
  375MPD2    C2 5661   1.878   3.468  16.850 -0.0832  0.3740 -0.4291
  375MPD2    C3 5662   2.006   3.414  16.844 -0.1740  0.0988  0.4388
  375MPD2    C4 5663   2.087   3.406  16.957  0.0242 -0.6237  0.5083
  375MPD2    C5 5664   2.043   3.461  17.075 -0.3321 -0.1214 -0.4735
  375MPD2     H 5665   1.808   3.467  16.767 -2.1594  1.0207  1.3189
  375MPD2    H1 5666   2.187   3.365  16.957 -0.2251 -1.2454  1.5949
  375MPD2    H2 5667   1.900   3.548  17.187 -0.5970 -1.4402 -0.1985
  375MPD2    H3 5668   2.111   3.459  17.160 -0.1801 -0.0080 -0.5931
  375MPD2     N 5669   2.048   3.363  16.719  0.2250 -0.3930 -0.5486
  375MPD2    H5 5670   1.980   3.355  16.643 -0.8081 -1.7968  0.5308
  375MPD2    N1 5671   1.705   3.569  16.976  0.2064  0.0331 -0.3771
  375MPD2    H7 5672   1.659   3.581  16.886 -2.4621  3.4473  1.4415
  376TMC3    C1 5673   2.136   3.188  16.593  0.1279 -0.0037 -0.0048
  376TMC3    C2 5674   2.207   3.064  16.593  0.0539  0.0827  0.4867
  376TMC3    C3 5675   2.172   2.968  16.505  0.6303  0.1634 -0.1470
  376TMC3    C4 5676   2.046   3.215  16.490 -0.4129  0.5787 -0.5668
  376TMC3    C5 5677   2.025   3.121  16.397 -0.0586 -0.3093 -0.2064
  376TMC3    C6 5678   2.092   2.997  16.396 -0.1113 -0.1204 -0.3235
  376TMC3     C 5679   2.160   3.283  16.697  0.1151  0.4301  0.0136
  376TMC3     O 5680   2.241   3.250  16.784 -0.0268  0.0809  0.3732
  376TMC3     H 5681   2.275   3.036  16.673  1.4009 -0.9479 -1.0162
  376TMC3    H1 5682   1.993   3.309  16.477 -1.4651 -0.0550 -0.8295
  376TMC3    H2 5683   2.071   2.926  16.317  0.3470 -1.1425  0.4741
  376TMC3    C7 5684   1.952   3.159  16.280  0.1533  0.5377 -0.2773
  376TMC3    C8 5685   2.261   2.859  16.471 -0.1085  0.2060 -0.0855
  376TMC3    O1 5686   1.936   3.281  16.256 -0.2069  0.2044 -0.1410
  376TMC3    O2 5687   2.212   2.758  16.420  0.6085  0.6116 -0.4242
  377MPD2     C 5688   0.126   3.158  12.853 -0.3804 -0.4068  0.0343
  377MPD2    C1 5689   0.114   3.125  12.717 -0.8674  0.2416  0.1155
  377MPD2    C2 5690   4.730   3.135  12.649  0.1247 -0.0972 -0.7933
  377MPD2    C3 5691   4.615   3.166  12.732  0.4421  0.0614  0.4932
  377MPD2    C4 5692   4.628   3.190  12.863 -0.2159 -0.1666  0.3288
  377MPD2    C5 5693   0.011   3.183  12.916  0.7724  0.0846  0.1940
  377MPD2     H 5694   4.726   3.112  12.544  0.9075 -2.0733 -0.4022
  377MPD2    H1 5695   4.544   3.203  12.930 -0.7714 -2.4399  0.0724
  377MPD2    H2 5696   0.219   3.170  12.908 -0.4357  0.9663 -0.1664
  377MPD2    H3 5697   0.027   3.210  13.020  0.6659 -1.2094  0.5502
  377MPD2     N 5698   4.483   3.156  12.686  0.2039  0.0088 -0.6690
  377MPD2    H5 5699   4.407   3.191  12.743  1.1458 -0.9176  1.1611
  377MPD2    N1 5700   0.227   3.105  12.637 -0.3408  0.6981  0.3329
  377MPD2    H7 5701   0.215   3.081  12.539 -0.9730  2.9625 -0.1524
  378TMC3    C1 5702   0.505   3.077  12.353  0.2783  0.0731  0.4561
  378TMC3    C2 5703   0.420   3.109  12.453  0.1066 -0.1145 -0.2223
  378TMC3    C3 5704   0.448   3.061  12.580 -0.2915  1.1020 -0.0137
  378TMC3    C4 5705   0.623   3.012  12.378  0.0675  0.7673  0.8881
  378TMC3    C5 5706   0.653   2.988  12.511 -0.3154  0.1061  0.2493
  378TMC3    C6 5707   0.563   3.005  12.611  0.5904  1.0760  0.1618
  378TMC3     C 5708   0.460   3.114  12.219 -0.0083  0.4536 -0.1188
  378TMC3     O 5709   0.342   3.153  12.208 -0.4767 -0.3917  0.3124
  378TMC3     H 5710   0.337   3.172  12.425 -0.4185 -1.1748 -1.0802
  378TMC3    H1 5711   0.683   2.969  12.298  0.0549 -0.3322  1.4666
  378TMC3    H2 5712   0.583   2.986  12.715  0.3765  0.0094  0.0060
  378TMC3    C7 5713   0.787   2.932  12.542  0.3608 -0.0115  0.5046
  378TMC3    C8 5714   0.354   3.098  12.683 -0.6826 -0.3690 -0.1542
  378TMC3    O1 5715   0.793   2.868  12.647 -0.8216 -0.5782 -0.7113
  378TMC3    O2 5716   0.395   3.082  12.799  0.2438  0.6984 -0.0536
  379MPD2     C 5717   1.007   1.156  15.925  0.0063 -0.4618  0.1517
  379MPD2    C1 5718   0.916   1.127  16.021  0.8536  0.3313  0.3506
  379MPD2    C2 5719   0.955   1.073  16.138  0.1915  0.0241 -0.2892
  379MPD2    C3 5720   1.090   1.055  16.178  0.6910  0.3560  0.7413
  379MPD2    C4 5721   1.187   1.081  16.084  0.0344 -0.1069  0.1105
  379MPD2    C5 5722   1.142   1.130  15.960 -0.3345 -0.3822  0.0695
  379MPD2     H 5723   0.881   1.040  16.210  1.8377 -1.5170  0.7056
  379MPD2    H1 5724   1.292   1.058  16.092  0.2921  1.0536  0.1397
  379MPD2    H2 5725   0.988   1.209  15.832 -0.6528  0.2792  0.7082
  379MPD2    H3 5726   1.219   1.146  15.886  1.9719 -0.6545  2.3958
  379MPD2     N 5727   1.137   1.016  16.303 -0.6754  0.1357  0.2225
  379MPD2    H5 5728   1.233   0.984  16.304 -1.0054 -0.8697 -0.4784
  379MPD2    N1 5729   0.781   1.152  15.989  0.0073  0.4395 -0.1829
  379MPD2    H7 5730   0.772   1.203  15.902 -1.4267  0.9883  0.2855
  380TMC3    C1 5731   0.560   1.091  15.952 -0.1742  0.0571 -0.0368
  380TMC3    C2 5732   0.594   0.993  15.865 -0.1487  0.4138 -0.2085
  380TMC3    C3 5733   0.562   1.006  15.732  0.0060  0.1247 -0.3911
  380TMC3    C4 5734   0.518   1.206  15.907 -0.5463  0.3867  0.2324
  380TMC3    C5 5735   0.470   1.217  15.780 -0.5194 -0.3929 -0.1784
  380TMC3    C6 5736   0.490   1.114  15.690  0.5670  0.2364 -0.5041
  380TMC3     C 5737   0.666   1.110  16.052 -0.4965 -0.0656  0.0143
  380TMC3     O 5738   0.670   1.035  16.150 -0.1131 -0.5841  0.5500
  380TMC3     H 5739   0.645   0.908  15.908 -0.8208  0.5293  0.8126
  380TMC3    H1 5740   0.521   1.290  15.977 -2.8928  1.2367 -0.6785
  380TMC3    H2 5741   0.455   1.128  15.588 -0.4869 -2.7981 -0.5567
  380TMC3    C7 5742   0.368   1.310  15.744  0.0371 -0.6599 -0.2186
  380TMC3    C8 5743   0.665   0.977  15.640  0.3459  0.5632 -0.2256
  380TMC3    O1 5744   0.376   1.423  15.791 -0.4120 -0.1842  0.3222
  380TMC3    O2 5745   0.647   1.006  15.519  0.5781  0.4930  0.4966
  381TMC3    C1 5746   0.418   2.077  16.126 -0.5600 -0.6476  0.3316
  381TMC3    C2 5747   0.433   2.201  16.083 -0.3347  0.9229  0.7753
  381TMC3    C3 5748   0.426   2.303  16.175  0.3280 -0.1698 -0.2777
  381TMC3    C4 5749   0.350   2.049  16.245 -1.5495  0.2810 -0.4634
  381TMC3    C5 5750   0.310   2.153  16.320  0.1344  0.5578  0.2340
  381TMC3    C6 5751   0.367   2.278  16.298  0.7125  0.2459 -0.0401
  381TMC3     C 5752   0.475   1.962  16.060  0.0356  0.1544 -0.4479
  381TMC3     O 5753   0.465   1.845  16.106  0.2802 -0.2487 -0.1257
  381TMC3     H 5754   0.461   2.225  15.981 -1.2932  0.8121  0.4876
  381TMC3    H1 5755   0.336   1.948  16.281 -0.1871  0.8726  1.7868
  381TMC3    H2 5756   0.352   2.363  16.365  1.7713  0.2775  0.1571
  381TMC3    C7 5757   0.264   2.119  16.450  0.1233 -0.2055 -0.1067
  381TMC3    C8 5758   0.522   2.412  16.153 -0.9758  0.5326 -0.3345
  381TMC3    O1 5759   0.295   2.010  16.493  0.1603 -0.4555  0.1747
  381TMC3    O2 5760   0.601   2.390  16.063  0.5046  0.3045  0.2769
  382MPD2     C 5761   4.464   0.001  16.599  0.2272  0.1367  0.8124
  382MPD2    C1 5762   4.564   0.012  16.692 -0.7206  0.4385 -0.3654
  382MPD2    C2 5763   4.594   4.643  16.774 -0.6192  0.4811 -0.7135
  382MPD2    C3 5764   4.507   4.533  16.778 -0.6264 -0.8027 -0.0959
  382MPD2    C4 5765   4.399   4.524  16.682  0.6766 -0.2754  0.2097
  382MPD2    C5 5766   4.387   4.623  16.588 -0.2495 -0.0683 -0.3923
  382MPD2     H 5767   4.676   4.650  16.844 -0.0352  0.2517 -1.3684
  382MPD2    H1 5768   4.326   4.444  16.680 -2.0660  2.1962  1.6140
  382MPD2    H2 5769   4.442   0.084  16.533  0.3044 -1.0077 -0.6536
  382MPD2    H3 5770   4.304   4.620  16.518 -0.5649 -1.1705  0.0293
  382MPD2     N 5771   4.511   4.438  16.880 -0.3925 -0.3176 -0.4474
  382MPD2    H5 5772   4.438   4.369  16.872 -0.2795 -0.5288  0.2932
  382MPD2    N1 5773   4.628   0.135  16.726 -0.0040  0.5083  0.1918
  382MPD2    H7 5774   4.690   0.133  16.806  0.6467  0.7644 -0.3052
  383TMC3    C1 5775   4.564   4.312  17.076  0.1577  0.8904  0.4996
  383TMC3    C2 5776   4.436   4.324  17.125  0.5653 -0.3365 -0.0795
  383TMC3    C3 5777   4.409   4.275  17.250 -0.0768  0.4337  0.0942
  383TMC3    C4 5778   4.660   4.237  17.146 -0.6910 -0.2620 -0.6877
  383TMC3    C5 5779   4.622   4.186  17.271 -0.7815 -0.0952 -0.1749
  383TMC3    C6 5780   4.499   4.204  17.323 -0.6651  0.1174  0.1283
  383TMC3     C 5781   4.608   4.419  16.982  0.3002 -0.7273 -0.0002
  383TMC3     O 5782   4.725   4.455  16.986  0.2303  0.1620  0.4434
  383TMC3     H 5783   4.360   4.365  17.060  1.2007  2.9152  1.2045
  383TMC3    H1 5784   0.014   4.220  17.092  0.7602  1.1159  1.3618
  383TMC3    H2 5785   4.476   4.184  17.427 -2.2711 -0.2971 -0.3118
  383TMC3    C7 5786   4.709   4.094  17.346 -0.0168 -0.0242  0.0322
  383TMC3    C8 5787   4.272   4.237  17.254  0.0264 -0.1185 -0.0841
  383TMC3    O1 5788   4.678   4.077  17.464 -0.0331 -0.0343  0.0921
  383TMC3    O2 5789   4.191   4.317  17.211 -0.1832 -0.4277  0.1524
  384MPD2     C 5790   1.247   1.511  12.089  0.2116 -0.6723 -0.3137
  384MPD2    C1 5791   1.186   1.390  12.120  0.1521  0.1689  0.7437
  384MPD2    C2 5792   1.265   1.282  12.099 -0.3906 -0.1706  0.0163
  384MPD2    C3 5793   1.403   1.290  12.072  0.1489  0.3523  0.8176
  384MPD2    C4 5794   1.461   1.415  12.058  0.1897 -0.3328 -0.4542
  384MPD2    C5 5795   1.377   1.528  12.057 -0.3409 -0.7326  0.0780
  384MPD2     H 5796   1.219   1.188  12.129  0.4928  0.3830  3.0986
  384MPD2    H1 5797   1.568   1.425  12.039 -0.2177 -0.6472 -2.8889
  384MPD2    H2 5798   1.189   1.603  12.092  0.3386 -0.5787 -0.7637
  384MPD2    H3 5799   1.422   1.626  12.054 -2.1617  0.0438 -1.5655
  384MPD2     N 5800   1.496   1.187  12.071 -0.3007 -0.2807 -0.5545
  384MPD2    H5 5801   1.595   1.202  12.054 -0.0272 -0.3787  0.9858
  384MPD2    N1 5802   1.055   1.396  12.174  0.0984 -0.3844  0.2092
  384MPD2    H7 5803   1.017   1.488  12.192  0.4052 -0.1684 -0.2685
  385TMC3    C1 5804   1.577   0.973  12.097  0.0602  0.1537 -0.4161
  385TMC3    C2 5805   1.552   0.842  12.065  0.3178  0.6513  0.2073
  385TMC3    C3 5806   1.588   0.747  12.163 -0.5843  0.7705  0.2393
  385TMC3    C4 5807   1.645   1.016  12.210 -0.1060  0.6092  0.3899
  385TMC3    C5 5808   1.648   0.929  12.316  0.4536 -0.0131 -0.6892
  385TMC3    C6 5809   1.613   0.798  12.289 -0.3710 -0.2775  0.1563
  385TMC3     C 5810   1.456   1.054  12.069  0.0835 -0.0493 -0.1039
  385TMC3     O 5811   1.348   0.999  12.049  0.2566 -0.7291 -0.1959
  385TMC3     H 5812   1.504   0.813  11.973  1.8575 -1.0910 -0.0469
  385TMC3    H1 5813   1.690   1.113  12.228  1.7112 -0.4788  1.7339
  385TMC3    H2 5814   1.620   0.733  12.375  1.1368 -2.2159 -1.4243
  385TMC3    C7 5815   1.588   0.989  12.444  0.2341  0.8211 -0.6385
  385TMC3    C8 5816   1.497   0.635  12.145  1.3133  0.0169 -0.0055
  385TMC3    O1 5817   1.568   1.110  12.446  0.0664 -0.2286 -0.5097
  385TMC3    O2 5818   1.430   0.597  12.247 -0.2636 -0.7578 -0.4155
  386TMC3    C1 5819   1.817   3.510  11.742  0.4656  0.6262 -0.1598
  386TMC3    C2 5820   1.826   3.575  11.619 -0.8629 -0.1167  0.1721
  386TMC3    C3 5821   1.707   3.605  11.551  0.0891  0.5999 -0.0743
  386TMC3    C4 5822   1.697   3.477  11.811 -1.3360  0.2161  0.4273
  386TMC3    C5 5823   1.583   3.506  11.737 -0.1132 -0.1513 -0.5166
  386TMC3    C6 5824   1.588   3.567  11.615  0.6619  0.4734 -0.7349
  386TMC3     C 5825   1.935   3.525  11.821 -0.6698 -0.1725 -0.6291
  386TMC3     O 5826   1.987   3.636  11.800  0.2284  0.1721  0.7898
  386TMC3     H 5827   1.922   3.601  11.574 -1.1206  0.9372  0.2285
  386TMC3    H1 5828   1.698   3.428  11.907 -1.3646 -0.3096  0.1584
  386TMC3    H2 5829   1.500   3.594  11.557  1.2898  1.5761 -1.1693
  386TMC3    C7 5830   1.455   3.496  11.812 -0.1233  0.2985  0.1036
  386TMC3    C8 5831   1.706   3.636  11.409  0.0530  0.1834 -0.1879
  386TMC3    O1 5832   1.460   3.469  11.930 -0.0666  0.4815  0.6117
  386TMC3    O2 5833   1.607   3.689  11.365  0.9509  0.7731 -0.0371
  387MPD2     C 5834   3.937   3.774  10.230 -0.0934 -0.5522 -0.4195
  387MPD2    C1 5835   4.058   3.715  10.185 -0.1545 -0.1156  0.4031
  387MPD2    C2 5836   4.058   3.591  10.122  0.5108  0.5207 -0.2675
  387MPD2    C3 5837   3.945   3.519  10.104 -0.8058  0.6625 -0.7386
  387MPD2    C4 5838   3.827   3.577  10.147  0.6448 -0.2692 -0.0614
  387MPD2    C5 5839   3.828   3.703  10.205 -0.4955  0.1623 -0.4275
  387MPD2     H 5840   4.152   3.553  10.085  1.3792  4.3441 -1.9745
  387MPD2    H1 5841   3.731   3.529  10.130  0.4222  0.2299 -0.2339
  387MPD2    H2 5842   3.931   3.869  10.281  1.7225 -0.5368 -0.2406
  387MPD2    H3 5843   3.736   3.730  10.256  1.0189 -0.3220  2.5380
  387MPD2     N 5844   3.952   3.386  10.060  0.8781 -0.1650  0.4333
  387MPD2    H5 5845   4.039   3.355  10.018  1.7135  0.2062  1.8820
  387MPD2    N1 5846   4.179   3.770  10.215  0.0450 -0.2580 -0.4209
  387MPD2    H7 5847   4.260   3.719  10.181  0.4914  0.1188  0.0612
  388TMC3    C1 5848   4.340   3.900  10.341 -0.1402  0.1435 -0.2759
  388TMC3    C2 5849   4.364   4.001  10.427 -0.2011  0.3119  0.5383
  388TMC3    C3 5850   4.462   3.976  10.523  0.4423 -0.0557  0.3824
  388TMC3    C4 5851   4.401   3.777  10.366 -0.0828  0.2408  0.2098
  388TMC3    C5 5852   4.494   3.760  10.463 -0.7508  0.2719  1.4629
  388TMC3    C6 5853   4.528   3.860  10.550 -0.2898  0.6117  0.3751
  388TMC3     C 5854   4.201   3.887  10.291  0.1501  0.1947 -0.0391
  388TMC3     O 5855   4.129   3.980  10.323  0.2070  0.0670 -0.3964
  388TMC3     H 5856   4.281   4.070  10.439  1.2825  2.0624  0.7551
  388TMC3    H1 5857   4.387   3.689  10.305  1.5949 -0.2332  0.4938
  388TMC3    H2 5858   4.603   3.859  10.629  0.4600  0.1563 -0.3519
  388TMC3    C7 5859   4.541   3.624  10.498 -0.1400  0.4072  0.7775
  388TMC3    C8 5860   4.479   4.077  10.617  0.0128  0.1302  0.1722
  388TMC3    O1 5861   4.655   3.599  10.550  0.4065  0.9902 -0.1853
  388TMC3    O2 5862   4.525   4.066  10.727 -0.2128  0.0725 -0.7666
  389MPD2     C 5863   3.534   1.456  11.665  0.2451  0.0179  0.5157
  389MPD2    C1 5864   3.416   1.419  11.610  0.2870 -0.3515  0.3544
  389MPD2    C2 5865   3.327   1.356  11.693  0.1253  0.0783  0.3495
  389MPD2    C3 5866   3.355   1.324  11.826  0.3970  0.1793 -0.0221
  389MPD2    C4 5867   3.481   1.353  11.877 -0.1577 -0.2026 -0.3129
  389MPD2    C5 5868   3.561   1.427  11.796  1.1063 -0.0802  0.0917
  389MPD2     H 5869   3.225   1.339  11.658  1.1955 -2.0994 -1.7353
  389MPD2    H1 5870   3.519   1.335  11.977  2.6946  1.3644 -1.1230
  389MPD2    H2 5871   3.611   1.513  11.614  0.1006 -0.4719 -0.2497
  389MPD2    H3 5872   3.652   1.459  11.845  2.7751 -0.9490 -2.4019
  389MPD2     N 5873   3.270   1.247  11.916  0.2202  0.0658 -0.4641
  389MPD2    H5 5874   3.282   1.237  12.016 -1.2376 -0.0413 -0.2964
  389MPD2    N1 5875   3.392   1.448  11.470 -0.3457 -0.3768 -0.0820
  389MPD2    H7 5876   3.456   1.509  11.420  0.5973 -0.8008  0.6072
  390TMC3    C1 5877   3.078   1.129  11.990 -0.2805 -0.2422 -0.0118
  390TMC3    C2 5878   2.993   1.026  11.967  0.2929  0.4496 -0.7452
  390TMC3    C3 5879   2.907   0.988  12.065 -0.0325 -0.1789  0.6402
  390TMC3    C4 5880   3.076   1.210  12.103  0.4000  0.3257  0.5158
  390TMC3    C5 5881   2.980   1.172  12.197 -0.2916 -0.0308 -0.3231
  390TMC3    C6 5882   2.901   1.058  12.182  0.4064  0.9197 -0.4121
  390TMC3     C 5883   3.152   1.186  11.882  0.8550 -0.2132 -0.7640
  390TMC3     O 5884   3.131   1.151  11.767 -0.4811  0.2610  0.1418
  390TMC3     H 5885   2.992   0.987  11.866 -1.4907 -2.0378  0.2433
  390TMC3    H1 5886   3.136   1.299  12.114  2.2620 -0.7063 -1.3637
  390TMC3    H2 5887   2.833   1.014  12.254  1.2944 -1.0795 -0.7750
  390TMC3    C7 5888   2.985   1.243  12.320  0.2893 -0.2156  0.0702
  390TMC3    C8 5889   2.807   0.891  12.034 -0.0344  0.4828  0.7059
  390TMC3    O1 5890   3.076   1.326  12.336 -0.5654  0.4318  0.6954
  390TMC3    O2 5891   2.785   0.878  11.916 -0.2236 -0.2478 -0.2149
  391MPD2     C 5892   2.797   3.267  11.272 -0.5736  0.7425  0.2373
  391MPD2    C1 5893   2.903   3.344  11.224 -0.2716 -0.1975 -0.1134
  391MPD2    C2 5894   2.891   3.380  11.093 -0.4759  0.3756  0.1156
  391MPD2    C3 5895   2.779   3.363  11.013  0.7520  0.0845  0.7485
  391MPD2    C4 5896   2.678   3.293  11.070  0.3123 -0.6793  0.0567
  391MPD2    C5 5897   2.684   3.252  11.201 -0.0293 -1.2296  0.6091
  391MPD2     H 5898   2.966   3.440  11.044 -1.1572  0.1087 -1.2654
  391MPD2    H1 5899   2.586   3.278  11.016 -1.6542  0.5616  3.0531
  391MPD2    H2 5900   2.785   3.241  11.376  0.9118 -1.0754 -0.0568
  391MPD2    H3 5901   2.599   3.198  11.242  0.0294 -1.6084  0.2355
  391MPD2     N 5902   2.791   3.410  10.883  0.7650  0.7367 -0.3717
  391MPD2    H5 5903   2.875   3.462  10.861 -0.5951  1.9908 -2.5709
  391MPD2    N1 5904   3.018   3.377  11.314  0.2303  0.4725 -0.0736
  391MPD2    H7 5905   3.028   3.325  11.400  2.0794  0.4915 -0.2576
  392TMC3    C1 5906   2.752   3.453  10.659  0.3554 -0.2301  0.3433
  392TMC3    C2 5907   2.681   3.425  10.546  0.1282  0.4028 -0.0295
  392TMC3    C3 5908   2.745   3.442  10.421  0.4450  0.0204  0.8219
  392TMC3    C4 5909   2.891   3.489  10.648 -0.2664 -0.0851 -0.1011
  392TMC3    C5 5910   2.946   3.509  10.523 -0.2771 -0.7443 -0.1217
  392TMC3    C6 5911   2.877   3.481  10.411 -0.2137  0.4320  0.1830
  392TMC3     C 5912   2.693   3.414  10.788 -0.9591  0.1021 -0.6583
  392TMC3     O 5913   2.573   3.394  10.799 -0.1172  0.1131  0.2845
  392TMC3     H 5914   2.576   3.399  10.548  0.0708  0.7047  0.6318
  392TMC3    H1 5915   2.942   3.516  10.740 -1.8385 -0.2345  0.8110
  392TMC3    H2 5916   2.921   3.492  10.312 -0.9426 -0.9696 -0.2949
  392TMC3    C7 5917   3.061   3.590  10.531 -0.1247 -0.6375  0.1030
  392TMC3    C8 5918   2.673   3.381  10.308 -0.2729 -0.1619  0.1644
  392TMC3    O1 5919   3.089   3.642  10.638  0.0307 -0.7142 -0.6349
  392TMC3    O2 5920   2.549   3.370  10.317 -0.1997 -0.7116 -0.1568
  393TMC3    C1 5921   1.075   1.165  11.045 -0.2666  0.3830 -0.0742
  393TMC3    C2 5922   0.963   1.110  11.099 -0.4369  0.5808  0.5469
  393TMC3    C3 5923   0.968   1.079  11.236 -0.0888 -0.6453 -0.4856
  393TMC3    C4 5924   1.180   1.210  11.119 -0.3974 -0.2052 -0.0529
  393TMC3    C5 5925   1.186   1.176  11.258 -0.0847 -0.9205 -0.1594
  393TMC3    C6 5926   1.073   1.111  11.317  0.3173  0.0144  0.4145
  393TMC3     C 5927   1.069   1.212  10.907  0.2137 -0.0007 -0.0053
  393TMC3     O 5928   1.018   1.143  10.818 -0.4398  0.2394 -0.1135
  393TMC3     H 5929   0.881   1.085  11.032  1.9101 -0.2801 -2.0291
  393TMC3    H1 5930   1.269   1.237  11.064 -1.4419  1.5140 -0.9121
  393TMC3    H2 5931   1.072   1.089  11.423 -0.5978 -0.4138  0.3155
  393TMC3    C7 5932   1.313   1.189  11.332  0.3826 -0.3422 -0.2646
  393TMC3    C8 5933   0.862   1.005  11.302 -0.0894  0.3052 -0.4505
  393TMC3    O1 5934   1.311   1.159  11.449  0.5924  0.3747  0.1570
  393TMC3    O2 5935   0.866   0.991  11.423  0.1537  0.4770  0.1905
  394TMC3    C1 5936   3.301   1.445  11.260  0.2600 -0.4202  0.6233
  394TMC3    C2 5937   3.239   1.354  11.174 -0.1725 -0.1905  0.0633
  394TMC3    C3 5938   3.257   1.380  11.038  0.7684  0.4480 -0.8502
  394TMC3    C4 5939   3.383   1.547  11.219 -0.0961 -0.5174  0.0382
  394TMC3    C5 5940   3.395   1.568  11.085 -0.2193  0.2444  0.7982
  394TMC3    C6 5941   3.331   1.487  10.997  0.5355 -0.1060 -0.0012
  394TMC3     C 5942   3.285   1.414  11.403  0.2405 -0.2670  0.2842
  394TMC3     O 5943   3.176   1.355  11.425 -0.3312  0.0873 -0.0809
  394TMC3     H 5944   3.165   1.281  11.203 -2.0888  2.5260  1.9688
  394TMC3    H1 5945   3.417   1.620  11.291  0.6681  1.2471 -2.1067
  394TMC3    H2 5946   3.348   1.508  10.892  0.5029 -0.9245 -0.1699
  394TMC3    C7 5947   3.431   1.700  11.038  0.2401 -0.0766  0.1353
  394TMC3    C8 5948   3.149   1.329  10.954 -0.1430  0.3996  0.3430
  394TMC3    O1 5949   3.400   1.721  10.918  0.8638 -0.0266  0.0192
  394TMC3    O2 5950   3.091   1.233  10.998 -0.3064  0.2786  0.4555
  395TMC3    C1 5951   2.720   2.766  14.724 -0.1044 -0.2567 -1.3775
  395TMC3    C2 5952   2.591   2.813  14.726 -0.3535 -0.2442 -0.1550
  395TMC3    C3 5953   2.567   2.927  14.658 -0.3209  0.4233 -0.7890
  395TMC3    C4 5954   2.820   2.825  14.647  0.8894 -0.5075 -0.1637
  395TMC3    C5 5955   2.787   2.941  14.575  0.9439  0.6770  0.1544
  395TMC3    C6 5956   2.659   2.993  14.576  0.0761 -0.3516 -0.3864
  395TMC3     C 5957   2.745   2.673  14.832 -0.2014  0.1686 -0.2370
  395TMC3     O 5958   2.647   2.665  14.909  0.6557 -0.2532  0.2187
  395TMC3     H 5959   2.510   2.755  14.769  0.3998 -1.7765 -0.8335
  395TMC3    H1 5960   2.916   2.775  14.645  0.7574 -0.8320  1.1578
  395TMC3    H2 5961   2.633   3.076  14.511  1.7132 -1.1625 -2.0616
  395TMC3    C7 5962   2.880   3.050  14.590 -0.1356  0.1367  0.0903
  395TMC3    C8 5963   2.463   3.019  14.700 -0.1696  0.6015 -0.2871
  395TMC3    O1 5964   2.833   3.155  14.633 -0.5437 -0.1417 -0.0096
  395TMC3    O2 5965   2.414   3.095  14.619  0.1432  0.5922  0.3323
  396MPD2     C 5966   2.528   4.145  16.568  0.0139 -0.2259 -0.4667
  396MPD2    C1 5967   2.613   4.214  16.654 -0.9447  0.1084  0.6899
  396MPD2    C2 5968   2.652   4.342  16.612 -0.6996  0.0203  0.7430
  396MPD2    C3 5969   2.609   4.401  16.488  0.1345 -0.2641 -0.0469
  396MPD2    C4 5970   2.517   4.329  16.416 -0.0055 -0.2908 -0.3129
  396MPD2    C5 5971   2.477   4.210  16.461  0.0601  0.3837  0.2845
  396MPD2     H 5972   2.717   4.402  16.674 -0.8397  1.3217 -0.3703
  396MPD2    H1 5973   2.477   4.359  16.319  2.7625 -0.4904 -1.5133
  396MPD2    H2 5974   2.493   4.047  16.597 -0.5654  1.1419  3.4450
  396MPD2    H3 5975   2.402   4.154  16.406 -0.5972 -0.8663  2.4580
  396MPD2     N 5976   2.641   4.534  16.454 -0.0565  0.2791 -0.2030
  396MPD2    H5 5977   2.713   4.580  16.508  1.0182 -1.0501 -0.5063
  396MPD2    N1 5978   2.643   4.154  16.777 -0.0907 -0.1337 -0.5383
  396MPD2    H7 5979   2.593   4.068  16.799  0.0186 -0.1866 -0.4972
  397TMC3    C1 5980   2.762   4.111  16.973  0.0698  0.2901 -0.4061
  397TMC3    C2 5981   2.869   4.156  17.046 -0.8704  0.8189  0.3582
  397TMC3    C3 5982   2.968   4.075  17.091 -0.3754  0.4280 -0.5862
  397TMC3    C4 5983   2.752   3.981  16.942 -0.0956 -0.1431 -0.7127
  397TMC3    C5 5984   2.837   3.894  17.012 -0.4460 -0.5181  0.7118
  397TMC3    C6 5985   2.946   3.938  17.081 -0.4010  0.1307 -0.3213
  397TMC3     C 5986   2.740   4.199  16.859 -0.5036  0.2291  0.1437
  397TMC3     O 5987   2.814   4.296  16.844  0.2251  0.1410 -0.2512
  397TMC3     H 5988   2.878   4.263  17.058  1.4467  0.6097  0.3958
  397TMC3    H1 5989   2.680   3.937  16.874 -0.5900  0.0963 -0.3462
  397TMC3    H2 5990   3.029   3.878  17.116 -0.3422 -1.0029 -2.3947
  397TMC3    C7 5991   2.795   3.770  17.038  0.5941  0.0234  0.1353
  397TMC3    C8 5992   3.096   4.099  17.029  0.0826 -0.1706  0.6392
  397TMC3    O1 5993   2.715   3.721  16.963  0.3072  0.9070 -0.3539
  397TMC3    O2 5994   3.132   4.016  16.950  0.1862 -0.2357  0.3807
  398MPD2     C 5995   0.818   1.024  17.631 -0.4457  0.6535 -0.4066
  398MPD2    C1 5996   0.945   0.993  17.647  0.0383 -0.2291  0.1323
  398MPD2    C2 5997   1.039   1.096  17.656  0.0846 -0.6238  0.4566
  398MPD2    C3 5998   1.001   1.228  17.644 -0.0915  1.4777  0.5825
  398MPD2    C4 5999   0.866   1.251  17.618  0.6925 -0.3935  0.1051
  398MPD2    C5 6000   0.774   1.149  17.611  0.1616  0.0738 -0.3520
  398MPD2     H 6001   1.145   1.076  17.668  0.7870  2.5511 -0.3880
  398MPD2    H1 6002   0.826   1.350  17.601 -0.8080 -1.4684 -2.5209
  398MPD2    H2 6003   0.747   0.944  17.651 -1.3143  1.6069  0.3263
  398MPD2    H3 6004   0.667   1.156  17.593 -0.2964 -1.9989  1.6073
  398MPD2     N 6005   1.102   1.328  17.652  0.4697 -0.2023  0.5289
  398MPD2    H5 6006   1.199   1.302  17.666  0.3033 -1.1560 -0.0778
  398MPD2    N1 6007   1.000   0.863  17.662 -0.5141 -0.8336 -0.2337
  398MPD2    H7 6008   1.100   0.852  17.676 -0.7462 -0.9973  1.3253
  399TMC3    C1 6009   1.018   0.629  17.634  0.9121 -0.0580  0.7533
  399TMC3    C2 6010   1.146   0.631  17.607  0.2568  0.0378 -0.1655
  399TMC3    C3 6011   1.216   0.518  17.623 -0.5212  0.3366 -0.5720
  399TMC3    C4 6012   0.956   0.524  17.690  0.2966  0.2779  0.3320
  399TMC3    C5 6013   1.028   0.409  17.697 -0.1150  0.2322 -0.1097
  399TMC3    C6 6014   1.158   0.405  17.662 -0.0806  0.0938  0.5446
  399TMC3     C 6015   0.929   0.746  17.638  0.8684  0.1462 -0.6620
  399TMC3     O 6016   0.811   0.725  17.610 -0.2732  0.3125 -0.1979
  399TMC3     H 6017   1.198   0.719  17.569  1.2988 -0.4936  0.0474
  399TMC3    H1 6018   0.854   0.533  17.726  0.5529 -1.0695  1.3894
  399TMC3    H2 6019   1.220   0.320  17.690 -0.6103 -1.1827 -2.1167
  399TMC3    C7 6020   0.974   0.285  17.751  0.5250  0.3195 -0.4364
  399TMC3    C8 6021   1.347   0.505  17.551  0.2181  0.3513 -0.5459
  399TMC3    O1 6022   1.041   0.184  17.743  0.1533 -0.5390 -0.8216
  399TMC3    O2 6023   1.402   0.612  17.538 -0.2446 -0.6966 -0.4510
  400TMC3    C1 6024   4.069   3.942  16.966  0.5463  0.4351 -0.4334
  400TMC3    C2 6025   3.973   3.842  16.972  0.0170  0.1361 -0.2804
  400TMC3    C3 6026   3.852   3.857  16.905  0.3388 -0.1539  0.2134
  400TMC3    C4 6027   4.035   4.063  16.914  0.1014 -0.4390  0.2363
  400TMC3    C5 6028   3.911   4.086  16.866  0.0119  0.5499  0.1686
  400TMC3    C6 6029   3.817   3.985  16.859 -0.3178 -0.0292  0.4556
  400TMC3     C 6030   4.208   3.921  16.991  0.0590  0.2203 -0.0436
  400TMC3     O 6031   4.285   4.015  16.967 -0.7053  0.3225 -0.4699
  400TMC3     H 6032   3.988   3.744  17.014  2.8715  1.3442  1.5642
  400TMC3    H1 6033   4.117   4.134  16.923 -0.3137  0.3308 -2.0447
  400TMC3    H2 6034   3.722   3.996  16.808 -0.8740  0.0192  1.4932
  400TMC3    C7 6035   3.886   4.211  16.799 -0.2402  0.2565  0.3203
  400TMC3    C8 6036   3.753   3.757  16.928  0.3032  0.0474  0.5278
  400TMC3    O1 6037   3.795   4.212  16.720 -0.5003 -0.2241 -0.2848
  400TMC3    O2 6038   3.747   3.712  17.042  0.5263 -0.4580  0.4265
  401MPD2     C 6039   3.024   3.484   1.097 -0.0766 -0.4747  0.0133
  401MPD2    C1 6040   3.150   3.425   1.085  0.3922 -0.0717 -0.5958
  401MPD2    C2 6041   3.171   3.318   1.006 -0.5675  0.5598 -0.2006
  401MPD2    C3 6042   3.066   3.258   0.936 -0.1486  0.0797  0.3062
  401MPD2    C4 6043   2.940   3.309   0.948 -0.0315 -0.2430  0.7262
  401MPD2    C5 6044   2.917   3.423   1.033 -0.2501  0.1497  0.0953
  401MPD2     H 6045   3.270   3.274   1.001 -0.6980  0.4448 -1.8164
  401MPD2    H1 6046   2.858   3.270   0.888 -0.2047 -3.0323  2.7771
  401MPD2    H2 6047   3.009   3.564   1.167  0.9087  0.4977 -0.8867
  401MPD2    H3 6048   2.820   3.471   1.039  0.4506  1.3336  1.8700
  401MPD2     N 6049   3.097   3.148   0.857 -0.1444 -0.6196 -0.0075
  401MPD2    H5 6050   3.191   3.112   0.870  0.9296  1.1349 -2.8452
  401MPD2    N1 6051   3.271   3.476   1.138  0.4893 -0.1868  0.6238
  401MPD2    H7 6052   3.361   3.453   1.098  0.4032 -0.9116  0.8489
  402TMC3    C1 6053   3.058   2.955   0.735  0.5711  0.4008  0.2798
  402TMC3    C2 6054   3.137   2.878   0.822  0.4903 -0.5206 -0.1833
  402TMC3    C3 6055   3.173   2.755   0.774  1.0947 -0.3080  0.9880
  402TMC3    C4 6056   3.010   2.901   0.617 -0.0182  0.1797  0.3920
  402TMC3    C5 6057   3.058   2.783   0.579 -0.2691  0.2628  0.2019
  402TMC3    C6 6058   3.137   2.701   0.655  0.0859  0.4761 -0.0292
  402TMC3     C 6059   3.009   3.082   0.773 -1.1341 -0.2765 -0.2601
  402TMC3     O 6060   2.903   3.119   0.721  0.1336  0.3262 -0.6634
  402TMC3     H 6061   3.156   2.908   0.924 -2.6907  0.2618  0.1829
  402TMC3    H1 6062   2.936   2.952   0.556  0.0613 -2.6295 -2.0371
  402TMC3    H2 6063   3.146   2.594   0.645  2.9488  0.6069  1.2169
  402TMC3    C7 6064   2.990   2.732   0.462 -0.1759 -0.4361  0.1629
  402TMC3    C8 6065   3.212   2.656   0.869 -0.2056 -0.4354  0.1310
  402TMC3    O1 6066   2.907   2.799   0.403  0.4124 -0.4355  0.1971
  402TMC3    O2 6067   3.262   2.553   0.823  0.4209  0.9809 -0.0074
  403MPD2     C 6068   1.096   4.691  13.709  0.4257 -0.1084 -0.4461
  403MPD2    C1 6069   1.086   0.087  13.724  0.2704  0.4136  0.4284
  403MPD2    C2 6070   1.161   0.146  13.824 -0.6582 -0.4016 -0.1025
  403MPD2    C3 6071   1.260   0.073  13.899 -0.1551 -0.0183 -0.2403
  403MPD2    C4 6072   1.257   4.675  13.878 -0.7821 -0.4283  0.3721
  403MPD2    C5 6073   1.170   4.617  13.793  0.9721 -0.3630 -0.3253
  403MPD2     H 6074   1.153   0.252  13.843  0.1644 -0.2353 -0.7024
  403MPD2    H1 6075   1.329   4.614  13.931  0.7645  0.3344 -0.8606
  403MPD2    H2 6076   1.037   4.643  13.633 -0.8265  1.1637 -0.2750
  403MPD2    H3 6077   1.175   4.510  13.778 -1.5343 -0.3339 -1.4729
  403MPD2     N 6078   1.351   0.139  13.989 -0.3537 -0.1932  0.1030
  403MPD2    H5 6079   1.360   0.240  13.980  0.4119 -0.1371  1.3972
  403MPD2    N1 6080   0.998   0.160  13.637 -0.3541 -0.0785  0.1799
  403MPD2    H7 6081   0.932   0.106  13.582  1.0614 -0.3776 -1.2364
  404TMC3    C1 6082   0.850   0.328  13.560  0.1458  0.0806  0.4689
  404TMC3    C2 6083   0.750   0.255  13.625 -0.3937 -0.5677 -0.1846
  404TMC3    C3 6084   0.676   0.165  13.557 -0.3043  0.1237 -0.1079
  404TMC3    C4 6085   0.865   0.324  13.426 -0.0615 -0.2473 -0.9917
  404TMC3    C5 6086   0.776   0.244  13.358  0.4680  0.6690  0.3004
  404TMC3    C6 6087   0.691   0.157  13.424 -0.7478 -0.1529  0.3410
  404TMC3     C 6088   0.974   0.295  13.633 -0.0889  0.1221  0.3268
  404TMC3     O 6089   1.044   0.389  13.671 -0.3548 -0.2189  0.2945
  404TMC3     H 6090   0.753   0.251  13.733 -0.5954 -1.7982 -0.2205
  404TMC3    H1 6091   0.945   0.379  13.377  0.0664 -0.6719 -1.2594
  404TMC3    H2 6092   0.641   0.074  13.376 -0.8500 -0.9425  1.7969
  404TMC3    C7 6093   0.727   0.314  13.239  0.7347  1.1867  0.3293
  404TMC3    C8 6094   0.675   0.028  13.618 -0.3052  0.1043 -0.4532
  404TMC3    O1 6095   0.800   0.405  13.201  0.2586  0.2301  0.0625
  404TMC3    O2 6096   0.772   4.698  13.586 -0.1703  0.2747 -0.0649
  405MPD2     C 6097   0.908   1.288  14.392  0.3523 -0.1776  0.5448
  405MPD2    C1 6098   0.948   1.157  14.365 -0.0529  0.0107  0.8957
  405MPD2    C2 6099   0.877   1.087  14.277  0.1461  0.4462 -0.8350
  405MPD2    C3 6100   0.758   1.136  14.215 -0.5191 -0.0008 -0.5711
  405MPD2    C4 6101   0.720   1.266  14.247 -0.4003  0.3474  0.0789
  405MPD2    C5 6102   0.790   1.336  14.340  0.0596 -0.2344  0.2473
  405MPD2     H 6103   0.896   0.985  14.248 -0.7348  0.2362 -0.6584
  405MPD2    H1 6104   0.641   1.318  14.194 -2.2512 -0.3030  2.2013
  405MPD2    H2 6105   0.960   1.361  14.453  1.6223 -0.3061 -0.3954
  405MPD2    H3 6106   0.763   1.439  14.360  0.1175 -0.0360 -0.6775
  405MPD2     N 6107   0.688   1.057  14.118 -0.4571 -0.2864 -0.6969
  405MPD2    H5 6108   0.734   0.972  14.086 -1.3800 -0.8542 -0.5028
  405MPD2    N1 6109   1.065   1.100  14.422 -0.6802 -0.1336 -0.2883
  405MPD2    H7 6110   1.122   1.166  14.474  0.4783 -2.2212  1.0698
  406TMC3    C1 6111   0.270   0.944  14.075 -0.2586 -0.4544 -0.7215
  406TMC3    C2 6112   0.305   0.845  14.172  0.2349 -0.4412  0.7480
  406TMC3    C3 6113   0.435   0.808  14.177 -0.6382  0.5455  0.0382
  406TMC3    C4 6114   0.363   1.002  13.996 -1.0647 -0.2107  0.1268
  406TMC3    C5 6115   0.496   0.965  14.014  0.1233 -0.2670 -0.5405
  406TMC3    C6 6116   0.519   0.854  14.085 -0.1865 -0.2300  0.2337
  406TMC3     C 6117   0.141   1.009  14.078 -0.0300  0.5725  0.0874
  406TMC3     O 6118   0.094   1.040  13.967  0.5389 -1.0642  0.3102
  406TMC3     H 6119   0.237   0.798  14.243  2.0483 -1.8549  1.5436
  406TMC3    H1 6120   0.336   1.081  13.928  1.6079 -0.9302 -1.7558
  406TMC3    H2 6121   0.620   0.818  14.072 -0.2115 -0.1831 -0.0843
  406TMC3    C7 6122   0.559   1.085  14.067  0.1647  0.1603 -0.1943
  406TMC3    C8 6123   0.483   0.710  14.273  0.0234  0.2978 -0.2276
  406TMC3    O1 6124   0.499   1.191  14.079 -0.1804 -0.2882 -0.0425
  406TMC3    O2 6125   0.403   0.626  14.314  0.1334 -0.0250 -0.1300
  407MPD2     C 6126   3.394   3.384  10.486  0.0661 -0.1178  0.9032
  407MPD2    C1 6127   3.498   3.393  10.396 -0.0209  0.4233  0.2985
  407MPD2    C2 6128   3.601   3.480  10.421  0.1053  0.1373 -0.0077
  407MPD2    C3 6129   3.590   3.576  10.519  0.1818  0.2210 -0.3305
  407MPD2    C4 6130   3.469   3.586  10.585  0.2347 -0.2402  0.5037
  407MPD2    C5 6131   3.383   3.476  10.588 -0.2261 -0.5264  0.7360
  407MPD2     H 6132   3.685   3.485  10.353  0.5259  0.4789  0.5384
  407MPD2    H1 6133   3.459   3.662  10.661  0.1052 -0.2859  0.5318
  407MPD2    H2 6134   3.319   3.310  10.464 -0.3632  0.9017 -1.0675
  407MPD2    H3 6135   3.299   3.481  10.656 -1.6675 -0.3996 -1.0704
  407MPD2     N 6136   3.680   3.679  10.549 -0.2884 -0.3860 -0.4850
  407MPD2    H5 6137   3.647   3.751  10.613 -0.5527  1.7707 -3.0493
  407MPD2    N1 6138   3.502   3.311  10.284 -0.7250  0.3543  0.4864
  407MPD2    H7 6139   3.581   3.326  10.222 -1.0141 -1.1984 -0.2547
  408TMC3    C1 6140   3.431   3.167  10.104  0.1992  0.0505 -0.1802
  408TMC3    C2 6141   3.503   3.240  10.012 -0.9413  0.2981 -0.0889
  408TMC3    C3 6142   3.546   3.174   9.906 -0.2716 -0.4937  0.1020
  408TMC3    C4 6143   3.388   3.040  10.084 -0.9704  0.5722 -0.1622
  408TMC3    C5 6144   3.444   2.971   9.982  0.1376 -0.2684  0.1253
  408TMC3    C6 6145   3.523   3.038   9.889 -0.2636 -0.0315 -0.0856
  408TMC3     C 6146   3.404   3.222  10.236 -0.2194 -0.0721 -0.5352
  408TMC3     O 6147   3.301   3.185  10.289  0.0178 -0.2523 -0.5214
  408TMC3     H 6148   3.521   3.344  10.034  2.1603 -0.1694 -0.4311
  408TMC3    H1 6149   3.321   2.998  10.159 -0.0336  0.2076  0.4725
  408TMC3    H2 6150   3.538   2.991   9.793 -1.1999 -2.1245  0.7947
  408TMC3    C7 6151   3.362   2.856   9.923  0.7998  0.4304  0.5199
  408TMC3    C8 6152   3.652   3.232   9.825  0.4070 -0.2120 -0.2776
  408TMC3    O1 6153   3.387   2.804   9.810 -0.4094 -0.4639  0.8358
  408TMC3    O2 6154   3.716   3.146   9.762  0.1889 -0.0326  0.4448
  409MPD2     C 6155   3.128   3.437  17.097  0.3433  0.4366 -0.5420
  409MPD2    C1 6156   3.257   3.458  17.145  0.0698  0.8223  0.4505
  409MPD2    C2 6157   3.309   3.584  17.136  0.0053 -0.0190 -0.1421
  409MPD2    C3 6158   3.248   3.682  17.066  0.0500  0.7136  0.4558
  409MPD2    C4 6159   3.123   3.654  17.014 -0.4761 -0.6186 -0.1934
  409MPD2    C5 6160   3.059   3.534  17.037 -0.0446  0.2003 -0.3608
  409MPD2     H 6161   3.414   3.595  17.161 -0.8228  1.8795  2.4762
  409MPD2    H1 6162   3.068   3.728  16.956  1.4411  0.5799 -0.4996
  409MPD2    H2 6163   3.074   3.343  17.102 -2.3052  1.9691 -0.3380
  409MPD2    H3 6164   2.960   3.522  16.994  0.2527 -0.6759 -0.8074
  409MPD2     N 6165   3.294   3.816  17.061 -0.3499 -0.1963  0.4642
  409MPD2    H5 6166   3.252   3.868  16.984  1.4332 -0.9945 -1.0316
  409MPD2    N1 6167   3.335   3.358  17.215  0.3093 -0.0772  0.1104
  409MPD2    H7 6168   3.426   3.386  17.250 -0.2799  0.2965  1.3582
  410TMC3    C1 6169   3.439   3.993  17.081  0.4101 -0.3669  0.5519
  410TMC3    C2 6170   3.542   4.044  17.160 -0.1593  0.4579 -0.8336
  410TMC3    C3 6171   3.607   4.158  17.112  0.8709 -0.4899 -0.3120
  410TMC3    C4 6172   3.426   4.038  16.954  0.5003 -0.8520 -0.4076
  410TMC3    C5 6173   3.485   4.152  16.914 -0.3085  0.4389 -0.1446
  410TMC3    C6 6174   3.581   4.214  16.992 -0.1462  0.2135  0.2968
  410TMC3     C 6175   3.412   3.858  17.117  0.4226 -0.3180 -0.3263
  410TMC3     O 6176   3.484   3.809  17.206 -0.5357  0.0737 -0.5951
  410TMC3     H 6177   3.541   4.016  17.265 -1.1867 -0.3718 -1.0710
  410TMC3    H1 6178   3.348   3.996  16.891  0.6865 -0.1931 -1.0785
  410TMC3    H2 6179   3.652   4.284  16.948 -0.4412  1.4588  1.8208
  410TMC3    C7 6180   3.482   4.181  16.769  0.1944  0.1262  0.1669
  410TMC3    C8 6181   3.751   4.156  17.156  0.5615  0.6594 -0.2455
  410TMC3    O1 6182   3.429   4.099  16.697 -1.5287  0.4214 -0.2465
  410TMC3    O2 6183   3.816   4.247  17.115  0.1426  0.1653  0.1749
  411MPD2     C 6184   3.227   3.716  14.419  0.1682 -0.0167 -0.2817
  411MPD2    C1 6185   3.154   3.754  14.530 -0.1663  0.2276  0.0944
  411MPD2    C2 6186   3.036   3.690  14.569  0.3224 -0.7065 -0.1290
  411MPD2    C3 6187   2.999   3.578  14.502 -0.8161 -0.1626 -0.3995
  411MPD2    C4 6188   3.069   3.546  14.387 -0.3144  0.1974 -0.2896
  411MPD2    C5 6189   3.179   3.614  14.343  0.0157 -0.3484  0.0994
  411MPD2     H 6190   2.975   3.732  14.648  2.0277 -0.5983  1.1406
  411MPD2    H1 6191   3.027   3.487  14.307  1.3597 -0.9471 -0.3245
  411MPD2    H2 6192   3.320   3.766  14.398  0.6502 -0.4159  0.8800
  411MPD2    H3 6193   3.225   3.581  14.250 -0.5155 -2.4860  0.5998
  411MPD2     N 6194   2.875   3.516  14.529 -0.1752 -0.3183  0.3170
  411MPD2    H5 6195   2.849   3.446  14.460  3.1151 -1.5036  0.2544
  411MPD2    N1 6196   3.200   3.868  14.593 -0.5491  0.1542  0.4032
  411MPD2    H7 6197   3.266   3.923  14.540  1.0622 -0.8517  1.3765
  412TMC3    C1 6198   2.652   3.490  14.596 -0.3847  1.2256 -0.3793
  412TMC3    C2 6199   2.546   3.574  14.609  0.1041  0.4673 -0.7000
  412TMC3    C3 6200   2.486   3.599  14.490  0.2225 -0.3141 -0.1083
  412TMC3    C4 6201   2.657   3.395  14.498  0.1026 -0.0676  0.0404
  412TMC3    C5 6202   2.564   3.391  14.399 -0.0977 -0.3283 -0.4932
  412TMC3    C6 6203   2.472   3.501  14.399  0.3818 -0.5648  0.3732
  412TMC3     C 6204   2.784   3.539  14.634 -0.3127  0.5846  0.1283
  412TMC3     O 6205   2.784   3.617  14.730  0.2531  0.2734  0.2107
  412TMC3     H 6206   2.549   3.642  14.693 -1.3454 -2.4163  1.6616
  412TMC3    H1 6207   2.737   3.322  14.493  0.3767  0.3444 -1.4689
  412TMC3    H2 6208   2.418   3.531  14.310 -2.2520 -2.0468  1.4828
  412TMC3    C7 6209   2.642   3.384  14.276  0.5172  0.5448  0.0502
  412TMC3    C8 6210   2.545   3.717  14.423 -0.2500  0.4599 -0.3388
  412TMC3    O1 6211   2.762   3.397  14.286  0.1072  0.0463 -0.4658
  412TMC3    O2 6212   2.562   3.703  14.302  0.4265  0.3196 -0.7105
  413MPD2     C 6213   0.326   2.622  15.392 -0.1383  0.6685 -0.6278
  413MPD2    C1 6214   0.241   2.582  15.295 -0.7436  0.0904  0.6101
  413MPD2    C2 6215   0.287   2.485  15.207  0.7492 -0.0039  0.1711
  413MPD2    C3 6216   0.416   2.435  15.208  0.8313 -0.5213  0.4872
  413MPD2    C4 6217   0.497   2.472  15.311 -0.3136  0.9583 -1.2797
  413MPD2    C5 6218   0.452   2.561  15.396 -0.0495  0.0774 -0.5526
  413MPD2     H 6219   0.215   2.436  15.143  1.7802 -0.1272 -0.8756
  413MPD2    H1 6220   0.595   2.429  15.330 -1.2401 -0.1041  1.1576
  413MPD2    H2 6221   0.299   2.687  15.475  1.1770  1.7324 -1.0245
  413MPD2    H3 6222   0.515   2.568  15.483 -1.1962 -1.5852  0.4133
  413MPD2     N 6223   0.459   2.333  15.123 -0.4880  0.4458  0.4119
  413MPD2    H5 6224   0.536   2.274  15.154 -1.8989 -0.7489  1.6506
  413MPD2    N1 6225   0.099   2.611  15.313  0.5391  0.0636 -0.2601
  413MPD2    H7 6226   0.064   2.650  15.400  0.3332 -2.1331  0.6419
  414TMC3    C1 6227   0.437   2.164  14.938  0.1767 -0.5051  0.1228
  414TMC3    C2 6228   0.478   2.068  15.028  0.2059 -0.1800 -0.6880
  414TMC3    C3 6229   0.459   1.937  14.982  0.2132  0.2308 -0.4121
  414TMC3    C4 6230   0.385   2.138  14.815 -0.1385  0.1044  0.4555
  414TMC3    C5 6231   0.375   2.009  14.774  0.2879  0.0567 -0.1620
  414TMC3    C6 6232   0.401   1.915  14.861 -0.6689 -0.4761  0.2529
  414TMC3     C 6233   0.404   2.293  14.997 -0.3106  0.6909  0.9650
  414TMC3     O 6234   0.320   2.358  14.938  0.2688 -0.1567  0.6677
  414TMC3     H 6235   0.525   2.098  15.121  1.5666  0.3523 -1.5493
  414TMC3    H1 6236   0.337   2.213  14.753  1.1011 -0.4488 -1.1557
  414TMC3    H2 6237   0.400   1.812  14.825 -0.5738 -0.2789 -0.3124
  414TMC3    C7 6238   0.296   1.978  14.661 -0.8700  0.0151 -0.3280
  414TMC3    C8 6239   0.560   1.837  15.023  0.2555 -0.1753 -0.2616
  414TMC3    O1 6240   0.190   2.030  14.659  0.2366 -0.4986  0.3950
  414TMC3    O2 6241   0.567   1.733  14.965 -0.2196  0.1666 -0.0051
  415TMC3    C1 6242   1.135   0.873  10.637  0.1807 -0.3054  0.2145
  415TMC3    C2 6243   1.187   0.940  10.535 -0.2044  0.4078  0.4036
  415TMC3    C3 6244   1.147   0.918  10.411  0.0708  0.2371 -0.0011
  415TMC3    C4 6245   1.029   0.783  10.614 -0.2649 -0.3605 -0.6852
  415TMC3    C5 6246   0.997   0.745  10.486 -0.7406 -0.1892 -0.2203
  415TMC3    C6 6247   1.059   0.813  10.388 -0.0303 -0.2225  0.0034
  415TMC3     C 6248   1.177   0.885  10.779  0.0247  0.2928  0.4354
  415TMC3     O 6249   1.107   0.821  10.857  0.5144  0.1584  0.2884
  415TMC3     H 6250   1.271   1.007  10.549 -1.5148  1.3804  3.4703
  415TMC3    H1 6251   0.975   0.738  10.697 -0.8551  0.4058 -0.6468
  415TMC3    H2 6252   1.037   0.791  10.284 -0.9333 -0.0954  0.1641
  415TMC3    C7 6253   0.949   0.614  10.449 -0.2037  0.1081  0.3031
  415TMC3    C8 6254   1.231   0.955  10.299 -0.0914 -0.7370 -0.6925
  415TMC3    O1 6255   0.955   0.584  10.331  0.8587  0.1098 -0.3063
  415TMC3    O2 6256   1.229   0.874  10.208  0.4606  0.0237  0.2666
  416MPD2     C 6257   2.936   4.625  11.367 -0.0001 -0.6568  0.2988
  416MPD2    C1 6258   2.867   4.531  11.434 -0.3566  0.4777  0.5608
  416MPD2    C2 6259   2.894   4.399  11.404  0.4488 -0.5065  0.2488
  416MPD2    C3 6260   2.991   4.352  11.319 -0.4203  0.3942 -0.2658
  416MPD2    C4 6261   3.069   4.450  11.263  0.7506 -0.1943 -0.1311
  416MPD2    C5 6262   3.037   4.586  11.279  0.2155  0.1639 -0.0742
  416MPD2     H 6263   2.823   4.327  11.442 -1.1676 -0.1373 -2.0795
  416MPD2    H1 6264   3.144   4.423  11.189 -1.1796 -1.7104 -1.5444
  416MPD2    H2 6265   2.921   4.730  11.388 -1.5060 -0.5796 -1.2080
  416MPD2    H3 6266   3.108   4.658  11.240 -1.0066  0.6928 -1.3036
  416MPD2     N 6267   3.012   4.214  11.299  0.1149  0.3528 -0.1657
  416MPD2    H5 6268   2.957   4.147  11.351 -0.6427  0.0351 -1.3634
  416MPD2    N1 6269   2.776   4.574  11.531 -0.3993 -0.2115  0.5693
  416MPD2    H7 6270   2.742   4.670  11.523  1.2257  0.2829 -0.5419
  417TMC3    C1 6271   2.609   4.559  11.683  0.1867 -0.1588 -1.0108
  417TMC3    C2 6272   2.556   4.488  11.790 -0.0906  0.6488  0.3744
  417TMC3    C3 6273   2.423   4.506  11.833 -0.4108  0.2097 -0.1653
  417TMC3    C4 6274   2.524   4.636  11.604  0.5158  0.5772 -0.8482
  417TMC3    C5 6275   2.389   4.645  11.635 -0.1634 -0.1985  0.2141
  417TMC3    C6 6276   2.342   4.585  11.754 -0.1985  0.2839  0.0366
  417TMC3     C 6277   2.729   4.501  11.631  0.4020 -0.1554  0.0140
  417TMC3     O 6278   2.749   4.380  11.653  0.1910  0.2373  0.5046
  417TMC3     H 6279   2.623   4.442  11.861 -1.0073  1.8252  1.9994
  417TMC3    H1 6280   2.558   4.690  11.516 -1.1130 -1.2290 -2.5776
  417TMC3    H2 6281   2.241   4.588  11.792 -0.1851 -0.3318  0.1225
  417TMC3    C7 6282   2.302   4.685  11.529  0.2806 -0.2026  0.1149
  417TMC3    C8 6283   2.393   4.481  11.984 -0.0898 -0.0743  0.2361
  417TMC3    O1 6284   2.361   4.725  11.432 -0.3802 -0.0282  0.9278
  417TMC3    O2 6285   2.295   4.538  12.027  0.0822  0.1007  0.5329
  418TMC3    C1 6286   1.351   1.653  17.482 -0.3376 -0.0890 -0.4864
  418TMC3    C2 6287   1.227   1.615  17.504  0.1394 -0.0901 -0.7947
  418TMC3    C3 6288   1.207   1.530  17.607 -0.6686 -0.3459 -0.4834
  418TMC3    C4 6289   1.449   1.631  17.569  0.6605 -0.6731 -0.4331
  418TMC3    C5 6290   1.421   1.561  17.687 -0.3973  0.0322  0.2118
  418TMC3    C6 6291   1.298   1.509  17.708  0.0146  0.9727 -0.1236
  418TMC3     C 6292   1.381   1.705  17.349  0.2586  0.3805 -0.6091
  418TMC3     O 6293   1.285   1.744  17.283  0.1849 -0.4030 -0.0238
  418TMC3     H 6294   1.154   1.635  17.426  0.0062 -1.4265 -1.0220
  418TMC3    H1 6295   1.544   1.679  17.551 -0.1966  0.9717 -0.6558
  418TMC3    H2 6296   1.280   1.441   0.038 -2.3524 -0.5630 -1.9142
  418TMC3    C7 6297   1.526   1.526   0.025  0.9143  0.1936 -0.8747
  418TMC3    C8 6298   1.082   1.454  17.611 -0.3493  0.4615  0.0474
  418TMC3    O1 6299   1.519   1.420   0.080 -0.0991  0.0024  0.3300
  418TMC3    O2 6300   0.981   1.503  17.565  0.0881 -0.6660 -0.1602
  419MPD2     C 6301   4.634   3.825  12.018 -0.4120  0.3993  0.1105
  419MPD2    C1 6302   4.637   3.929  12.108  0.1112  0.6722  0.0430
  419MPD2    C2 6303   4.561   3.920  12.225  0.0744 -0.2264  0.3671
  419MPD2    C3 6304   4.457   3.827  12.236 -0.1308  0.4985  0.8944
  419MPD2    C4 6305   4.441   3.732  12.132  0.5642 -1.0945 -0.4233
  419MPD2    C5 6306   4.539   3.728  12.032  0.3201 -0.4968 -0.2928
  419MPD2     H 6307   4.567   3.998  12.300  0.6744  0.1414 -0.0608
  419MPD2    H1 6308   4.364   3.656  12.133 -1.7446  1.2143 -3.0746
  419MPD2    H2 6309   4.705   3.810  11.937 -1.2370 -0.2374 -0.4971
  419MPD2    H3 6310   4.524   3.648  11.960 -0.3839  0.4101 -1.1560
  419MPD2     N 6311   4.382   3.825  12.355 -0.0625  0.1595  0.2532
  419MPD2    H5 6312   4.407   3.896  12.423  0.8332 -0.6623  0.7717
  419MPD2    N1 6313   4.700   4.054  12.079  0.1382  0.3845 -0.4476
  419MPD2    H7 6314   4.701   4.119  12.157 -2.1959  2.4839 -2.1317
  420TMC3    C1 6315   4.237   3.755  12.523  0.1661  0.0893  0.2787
  420TMC3    C2 6316   4.106   3.749  12.544  0.3105  0.6666  0.3785
  420TMC3    C3 6317   4.065   3.771  12.674  0.3002 -0.1237  0.6693
  420TMC3    C4 6318   4.334   3.787  12.617  0.1434  0.1574  0.0244
  420TMC3    C5 6319   4.287   3.800  12.743 -0.0682  0.2457  0.1322
  420TMC3    C6 6320   4.151   3.790  12.777 -0.4901  0.4264  0.1248
  420TMC3     C 6321   4.272   3.744  12.384 -0.6107  1.1693 -1.0663
  420TMC3     O 6322   4.203   3.683  12.306  0.3762  0.1349 -0.4729
  420TMC3     H 6323   4.040   3.748  12.457  0.2756  0.7287  0.4039
  420TMC3    H1 6324   4.438   3.773  12.592  0.2927  0.4539  0.4726
  420TMC3    H2 6325   4.119   3.785  12.880 -1.0092 -2.5310 -0.1681
  420TMC3    C7 6326   4.382   3.820  12.858 -0.1260 -0.4118 -0.0562
  420TMC3    C8 6327   3.936   3.835  12.684 -0.4430  0.3764 -0.1397
  420TMC3    O1 6328   4.334   3.788  12.968  0.0247  0.7078 -0.3249
  420TMC3    O2 6329   3.894   3.868  12.575 -0.4540 -0.2816 -0.1869
  421TMC3    C1 6330   1.520   0.186  14.144 -0.0130  0.0574 -0.0672
  421TMC3    C2 6331   1.476   0.311  14.160 -0.3759 -1.1920 -0.0065
  421TMC3    C3 6332   1.555   0.402  14.221 -0.0365  1.1325  0.3298
  421TMC3    C4 6333   1.639   0.149  14.206  0.2057 -0.4456 -0.8212
  421TMC3    C5 6334   1.713   0.239  14.274  0.1556 -0.3141 -0.3606
  421TMC3    C6 6335   1.670   0.365  14.289 -0.7713 -0.3029  0.7932
  421TMC3     C 6336   1.456   0.083  14.060  0.0310  0.0684 -0.2893
  421TMC3     O 6337   1.480   4.706  14.089  0.7067  0.2676  0.5833
  421TMC3     H 6338   1.373   0.332  14.132  0.8520  3.5941 -0.9119
  421TMC3    H1 6339   1.681   0.056  14.171  0.5584 -0.1249 -1.2522
  421TMC3    H2 6340   1.729   0.440  14.341 -1.1306 -0.6747  1.7399
  421TMC3    C7 6341   1.851   0.215  14.308 -0.1280 -0.1863 -0.4186
  421TMC3    C8 6342   1.523   0.543  14.221  0.3128  0.0328  0.1863
  421TMC3    O1 6343   1.916   0.312  14.354 -0.0280 -0.2697  0.3579
  421TMC3    O2 6344   1.583   0.620  14.296 -0.2162  0.2783 -0.4704
  422TMC3    C1 6345   3.648   2.596  12.316 -0.8887  0.7604  0.7650
  422TMC3    C2 6346   3.644   2.739  12.313 -0.7641 -0.3097 -0.7022
  422TMC3    C3 6347   3.536   2.809  12.353 -0.2496  0.1333  0.1126
  422TMC3    C4 6348   3.539   2.522  12.363 -0.4417  0.1949 -0.5084
  422TMC3    C5 6349   3.433   2.598  12.409  0.4099  0.6323 -0.3421
  422TMC3    C6 6350   3.435   2.738  12.408  0.4543 -0.6254 -0.9850
  422TMC3     C 6351   3.755   2.526  12.252  0.5154  0.1500 -0.1647
  422TMC3     O 6352   3.800   2.579  12.149 -0.3412 -0.2523 -0.1317
  422TMC3     H 6353   3.734   2.793  12.288 -1.6944  2.4671  2.0221
  422TMC3    H1 6354   3.534   2.414  12.363  3.2467  0.0432 -0.7231
  422TMC3    H2 6355   3.354   2.790  12.457 -0.7253 -2.1667 -1.2810
  422TMC3    C7 6356   3.307   2.533  12.398 -0.2308 -0.2971  0.6883
  422TMC3    C8 6357   3.537   2.957  12.351 -0.9237 -0.8953  0.4554
  422TMC3    O1 6358   3.297   2.447  12.314  0.1524  0.1653  0.1188
  422TMC3    O2 6359   3.486   3.009  12.449  0.0705  0.1037  0.9158
  423MPD2     C 6360   0.287   2.725   0.652 -0.0453  0.0975  0.0367
  423MPD2    C1 6361   0.338   2.815   0.558  0.3743 -0.4051  0.0962
  423MPD2    C2 6362   0.316   2.792   0.418  0.4838  0.9765  0.3384
  423MPD2    C3 6363   0.242   2.683   0.371  0.2948  0.2667  0.4218
  423MPD2    C4 6364   0.189   2.598   0.471  0.3022  0.2223  0.2809
  423MPD2    C5 6365   0.216   2.615   0.605 -0.1381 -0.0629 -0.3591
  423MPD2     H 6366   0.360   2.859   0.345  0.9379  0.6083  0.2712
  423MPD2    H1 6367   0.120   2.517   0.453 -0.0938  0.9661 -1.5130
  423MPD2    H2 6368   0.310   2.732   0.758 -0.7209  1.0372  0.1216
  423MPD2    H3 6369   0.160   2.559   0.679  1.2707 -2.5632 -1.1913
  423MPD2     N 6370   0.214   2.658   0.235  0.3623 -0.4512 -0.5859
  423MPD2    H5 6371   0.147   2.585   0.213  0.2387  0.3259 -2.7359
  423MPD2    N1 6372   0.408   2.924   0.597 -0.4888  0.1409  1.1101
  423MPD2    H7 6373   0.470   2.974   0.535 -0.6769  0.5884  1.2850
  424TMC3    C1 6374   0.522   3.053   0.763 -0.2466 -0.6652 -0.2470
  424TMC3    C2 6375   0.646   3.011   0.716 -0.1004 -0.4855  0.3962
  424TMC3    C3 6376   0.754   3.071   0.780 -0.5322 -0.5212  0.5580
  424TMC3    C4 6377   0.503   3.149   0.861 -0.1945 -0.2837  0.2060
  424TMC3    C5 6378   0.614   3.209   0.915 -0.4142  0.1946  0.1916
  424TMC3    C6 6379   0.738   3.161   0.879 -0.4785  0.3309  0.1260
  424TMC3     C 6380   0.411   2.963   0.733  0.0539  0.4385  0.7015
  424TMC3     O 6381   0.315   2.971   0.812  0.1140 -0.0757 -0.4939
  424TMC3     H 6382   0.656   2.931   0.644  0.7697  0.6643 -0.7770
  424TMC3    H1 6383   0.402   3.172   0.894 -0.2992  0.0396 -0.3470
  424TMC3    H2 6384   0.818   3.223   0.916 -0.2876 -1.0235  2.0523
  424TMC3    C7 6385   0.602   3.293   1.038 -0.9726 -0.5190  0.5826
  424TMC3    C8 6386   0.884   3.005   0.756  0.1093  0.4486  0.1550
  424TMC3    O1 6387   0.695   3.278   1.118  0.0203 -0.0816  0.5169
  424TMC3    O2 6388   0.887   2.930   0.660  0.2477 -0.2134  0.4711
  425MPD2     C 6389   4.059   2.154   0.104  0.4843  0.1670 -0.0948
  425MPD2    C1 6390   4.060   2.082  17.737  1.0750 -0.2083 -0.2141
  425MPD2    C2 6391   3.985   2.141  17.629  0.4989  0.3553 -0.5022
  425MPD2    C3 6392   3.921   2.264  17.649 -0.0489  0.5624  0.0505
  425MPD2    C4 6393   3.916   2.323   0.022 -1.0437 -0.2946  0.0315
  425MPD2    C5 6394   3.989   2.271   0.130  0.0088  0.3074 -0.0591
  425MPD2     H 6395   3.986   2.097  17.530  1.8067 -1.3425  0.2479
  425MPD2    H1 6396   3.856   2.408   0.052 -1.1810  0.4246 -2.2756
  425MPD2    H2 6397   4.118   2.115   0.187  3.1096  1.6105 -1.2858
  425MPD2    H3 6398   3.984   2.324   0.224  0.8432  1.5739 -0.7264
  425MPD2     N 6399   3.837   2.304  17.548  0.4949 -0.5637  0.1862
  425MPD2    H5 6400   3.838   2.251  17.461  0.3812  0.8639 -0.6878
  425MPD2    N1 6401   4.134   1.960  17.710  0.2516 -0.1420 -0.0829
  425MPD2    H7 6402   4.149   1.897   0.035 -2.0496  1.5671  1.7266
  426TMC3    C1 6403   4.179   1.778  17.566  0.9721  0.6108 -0.5547
  426TMC3    C2 6404   4.234   1.745  17.444 -0.5514  0.0589 -0.1147
  426TMC3    C3 6405   4.185   1.632  17.387  0.0278 -0.2923 -0.2951
  426TMC3    C4 6406   4.079   1.713  17.619 -0.5633 -0.0272  0.4418
  426TMC3    C5 6407   4.043   1.596  17.565 -0.2771  0.9256  0.1330
  426TMC3    C6 6408   4.090   1.553  17.446 -0.4200 -0.0751 -0.6700
  426TMC3     C 6409   4.172   1.926  17.584  0.1123 -0.1643  0.0680
  426TMC3     O 6410   4.200   1.994  17.485 -0.3226 -0.6723  0.0495
  426TMC3     H 6411   4.311   1.806  17.397 -0.0530  0.7402  1.5750
  426TMC3    H1 6412   4.056   1.734  17.723 -2.0679 -0.1994  0.1436
  426TMC3    H2 6413   4.048   1.473  17.386  1.9641  0.3391 -2.8873
  426TMC3    C7 6414   3.906   1.550  17.602 -0.4774  0.5394 -0.2332
  426TMC3    C8 6415   4.187   1.625  17.243  0.6186  0.3033  0.6997
  426TMC3    O1 6416   3.840   1.491  17.513 -0.6161 -0.0184 -0.1339
  426TMC3    O2 6417   4.169   1.517  17.182  0.6613  1.6789  0.9595
  427MPD2     C 6418   1.932   3.743  15.100  0.4516  0.0430 -0.3471
  427MPD2    C1 6419   2.053   3.790  15.150  0.0177 -0.7436  0.4502
  427MPD2    C2 6420   2.067   3.926  15.171  0.3432 -0.8161 -0.2465
  427MPD2    C3 6421   1.957   4.015  15.140 -0.6408 -0.4392  0.6899
  427MPD2    C4 6422   1.839   3.963  15.097 -0.2927 -0.1266  0.1058
  427MPD2    C5 6423   1.830   3.825  15.076 -0.2899 -0.6696  0.3856
  427MPD2     H 6424   2.164   3.967  15.200  0.1952  0.0142 -0.9012
  427MPD2    H1 6425   1.753   4.025  15.073 -0.4217 -1.6592 -3.4222
  427MPD2    H2 6426   1.911   3.638  15.085 -2.2690  0.2179  2.3405
  427MPD2    H3 6427   1.741   3.778  15.036 -0.9134 -0.1834  1.1811
  427MPD2     N 6428   1.961   4.156  15.132 -0.4503  0.6530  1.0412
  427MPD2    H5 6429   1.886   4.199  15.078 -0.4329 -0.1576  0.3619
  427MPD2    N1 6430   2.154   3.700  15.195 -0.5900  0.3179 -0.1019
  427MPD2    H7 6431   2.240   3.740  15.233  0.6087 -4.0153  1.7241
  428TMC3    C1 6432   2.259   3.512  15.284 -0.1922 -0.3744  0.2933
  428TMC3    C2 6433   2.236   3.392  15.352  0.5618  1.0875 -0.1730
  428TMC3    C3 6434   2.330   3.335  15.429  0.2741 -1.0794  0.4715
  428TMC3    C4 6435   2.380   3.576  15.294  0.4696  0.5127 -0.1989
  428TMC3    C5 6436   2.475   3.504  15.361  0.2052 -0.4311 -0.8227
  428TMC3    C6 6437   2.458   3.384  15.428  0.4864 -0.0246 -0.1483
  428TMC3     C 6438   2.156   3.565  15.202  0.6319 -0.2429  0.0790
  428TMC3     O 6439   2.057   3.495  15.193 -0.3513 -0.2398  0.4992
  428TMC3     H 6440   2.144   3.336  15.335  0.1267  1.6428  0.3508
  428TMC3    H1 6441   2.405   3.673  15.254 -0.1121  1.5468  1.9506
  428TMC3    H2 6442   2.539   3.333  15.479  0.3006  0.2623  0.4311
  428TMC3    C7 6443   2.601   3.559  15.382  0.4490  0.0879 -0.0727
  428TMC3    C8 6444   2.325   3.191  15.471 -0.2333  0.1822  1.0033
  428TMC3    O1 6445   2.657   3.530  15.487  0.4109 -0.1682 -0.6763
  428TMC3    O2 6446   2.431   3.138  15.452 -0.1629  0.5978  0.5946
  429MPD2     C 6447   3.921   4.579  17.627 -0.4371 -0.1735  0.2064
  429MPD2    C1 6448   4.031   4.511  17.572  0.0085 -0.1969  0.1816
  429MPD2    C2 6449   4.114   4.582  17.492 -0.4347 -0.1499 -0.6296
  429MPD2    C3 6450   4.099   4.715  17.466  1.0741  0.7782 -0.1202
  429MPD2    C4 6451   4.005   0.048  17.536 -0.4535  0.5171 -0.5692
  429MPD2    C5 6452   3.912   4.714  17.611  0.0732 -0.6173 -0.1243
  429MPD2     H 6453   4.203   4.532  17.454 -1.2179 -0.7040 -1.7186
  429MPD2    H1 6454   3.996   0.156  17.540  0.1885  0.6331 -2.3423
  429MPD2    H2 6455   3.850   4.526  17.690  1.6930 -4.8435 -1.3522
  429MPD2    H3 6456   3.829   0.029  17.656  1.0467  0.2175  0.6797
  429MPD2     N 6457   4.193   0.031  17.377 -0.1732 -0.6636 -0.1323
  429MPD2    H5 6458   4.251   4.702  17.328 -0.5520 -1.0514 -0.0382
  429MPD2    N1 6459   4.052   4.375  17.590 -0.0679  0.3288 -0.0198
  429MPD2    H7 6460   4.139   4.336  17.558  0.7154  1.1471  1.1053
  430TMC3    C1 6461   4.275   0.176  17.214  0.4054  0.9325  0.5678
  430TMC3    C2 6462   4.241   0.286  17.144  0.1956 -0.5335 -0.4530
  430TMC3    C3 6463   4.273   0.293  17.010  0.8686  0.2529  0.2678
  430TMC3    C4 6464   4.333   0.069  17.157  0.1913 -0.6166 -0.2865
  430TMC3    C5 6465   4.356   0.064  17.022  0.0635  0.7325 -0.4199
  430TMC3    C6 6466   4.323   0.182  16.948 -0.3533 -0.4302  0.9731
  430TMC3     C 6467   4.191   0.163  17.333  0.3333 -0.4319  0.2500
  430TMC3     O 6468   4.130   0.260  17.374 -0.2035  0.2954  0.0002
  430TMC3     H 6469   4.198   0.371  17.195  1.2303  0.1357 -0.6863
  430TMC3    H1 6470   4.357   4.714  17.207 -0.1778 -0.2144  0.6532
  430TMC3    H2 6471   4.354   0.185  16.844  0.4385  2.7823  1.2789
  430TMC3    C7 6472   4.294   4.683  16.970 -0.9553 -0.2232 -0.4282
  430TMC3    C8 6473   4.188   0.369  16.926 -0.0253 -0.2779  0.3684
  430TMC3    O1 6474   4.282   4.590  17.047  0.2828  0.0762 -0.2206
  430TMC3    O2 6475   4.167   0.308  16.819 -0.5084  0.3060  0.1049
  431MPD2     C 6476   4.290   4.581  12.481  0.5233  0.7116 -0.1297
  431MPD2    C1 6477   4.417   4.617  12.501  0.2850  0.1323  0.0728
  431MPD2    C2 6478   4.501   4.584  12.395  0.7329 -0.3369  0.1451
  431MPD2    C3 6479   4.463   4.529  12.278 -0.8838 -0.4476 -0.0339
  431MPD2    C4 6480   4.333   4.505  12.255 -0.7888  0.0008  0.1942
  431MPD2    C5 6481   4.255   4.519  12.363 -0.2159  0.6465 -0.4317
  431MPD2     H 6482   4.606   4.608  12.412  0.7969  0.8745 -1.9645
  431MPD2    H1 6483   4.284   4.469  12.165  2.5895 -0.1842 -1.5984
  431MPD2    H2 6484   4.206   4.584  12.551  1.2868  0.0606  0.8160
  431MPD2    H3 6485   4.149   4.503  12.350 -0.1623 -0.5904  0.6661
  431MPD2     N 6486   4.556   4.494  12.182  0.4710  0.3919  0.5100
  431MPD2    H5 6487   4.515   4.440  12.106  0.6751  0.0251  0.6606
  431MPD2    N1 6488   4.457   4.680  12.622 -0.2846  0.1921  0.6974
  431MPD2    H7 6489   4.381   4.706  12.685  0.0325 -0.7183  1.4603
  432TMC3    C1 6490   0.029   4.458  12.078  0.4043 -0.3725 -0.1788
  432TMC3    C2 6491   0.147   4.502  12.027  0.0916 -0.6511  0.0180
  432TMC3    C3 6492   0.213   4.417  11.939 -0.3715  0.1350  0.2493
  432TMC3    C4 6493   4.722   4.330  12.064  0.1473 -0.3974  0.1443
  432TMC3    C5 6494   0.062   4.243  11.989 -0.0634  0.6603  0.3704
  432TMC3    C6 6495   0.169   4.286  11.917 -0.7503  0.1927  0.1114
  432TMC3     C 6496   4.689   4.533  12.177 -0.5065  0.1377 -0.1625
  432TMC3     O 6497   4.736   4.625  12.245  0.5164 -0.6096  0.1407
  432TMC3     H 6498   0.189   4.597  12.056 -1.0362 -0.1750  0.0990
  432TMC3    H1 6499   4.647   4.284  12.127  0.5090 -1.0176  0.1306
  432TMC3    H2 6500   0.219   4.216  11.851 -0.7123  1.2268 -0.9508
  432TMC3    C7 6501   0.023   4.108  11.969 -0.5656  0.5655  0.1534
  432TMC3    C8 6502   0.332   4.464  11.884  0.3392 -0.0448  0.0781
  432TMC3    O1 6503   0.044   4.050  11.864  0.2615 -0.3758 -0.0478
  432TMC3    O2 6504   0.353   4.435  11.764 -0.5200 -0.2664  0.3211
  433MPD2     C 6505   3.719   3.400  10.814 -0.1935 -0.2527 -0.4946
  433MPD2    C1 6506   3.817   3.310  10.845  0.4814  0.1753  0.6591
  433MPD2    C2 6507   3.917   3.352  10.937  0.1204 -0.2339  0.2256
  433MPD2    C3 6508   3.918   3.481  10.991 -0.0136 -0.0704  0.1796
  433MPD2    C4 6509   3.815   3.567  10.953 -0.5919 -0.7459  0.0909
  433MPD2    C5 6510   3.721   3.526  10.870  0.3369 -1.1054 -0.1844
  433MPD2     H 6511   4.000   3.283  10.948 -1.1115 -1.7069  0.2837
  433MPD2    H1 6512   3.801   3.668  10.988  1.9549 -0.0729 -0.8477
  433MPD2    H2 6513   3.636   3.369  10.750 -0.7058  0.9198 -0.3814
  433MPD2    H3 6514   3.648   3.596  10.831  0.0984 -1.0616  0.3545
  433MPD2     N 6515   4.027   3.514  11.079  0.1573  0.0124  0.0116
  433MPD2    H5 6516   4.086   3.436  11.106  0.7364 -0.2121 -1.8690
  433MPD2    N1 6517   3.798   3.172  10.800 -0.6943  0.8666  0.3005
  433MPD2    H7 6518   3.729   3.150  10.728 -1.3508  1.3025  0.7883
  434TMC3    C1 6519   3.850   2.928  10.805 -0.1587  0.1274  0.0186
  434TMC3    C2 6520   3.952   2.847  10.837 -0.3990  0.8704  0.0094
  434TMC3    C3 6521   3.927   2.710  10.847 -0.5486 -0.0299  0.0509
  434TMC3    C4 6522   3.721   2.886  10.803 -0.5537 -0.1559  0.1450
  434TMC3    C5 6523   3.696   2.755  10.824 -0.5208  0.9631  0.2012
  434TMC3    C6 6524   3.802   2.662  10.833  0.2002  0.0057 -0.2874
  434TMC3     C 6525   3.870   3.067  10.847  0.0470 -0.2381 -0.1780
  434TMC3     O 6526   3.964   3.075  10.921 -0.3606  0.0201  0.0362
  434TMC3     H 6527   4.056   2.877  10.843 -0.9206  2.5753  0.5136
  434TMC3    H1 6528   3.644   2.952  10.764 -0.0235  0.4402  0.0959
  434TMC3    H2 6529   3.778   2.557  10.847  0.5216 -0.0951 -0.4809
  434TMC3    C7 6530   3.556   2.705  10.820  0.5388 -0.1694 -0.3137
  434TMC3    C8 6531   4.034   2.624  10.883  0.1025  0.5607 -0.1467
  434TMC3    O1 6532   3.469   2.762  10.754 -0.1221  0.2388  0.1565
  434TMC3    O2 6533   4.144   2.678  10.876 -0.0831  0.1980 -0.1245
  435MPD2     C 6534   0.388   3.061  15.334 -0.5236  0.0829 -0.6801
  435MPD2    C1 6535   0.369   2.999  15.456  0.3706 -0.4150 -0.4030
  435MPD2    C2 6536   0.464   2.914  15.510  0.4149  0.9059 -0.1876
  435MPD2    C3 6537   0.583   2.901  15.450 -0.2863 -0.1012  0.8451
  435MPD2    C4 6538   0.603   2.958  15.325  0.1201  0.0010 -0.0110
  435MPD2    C5 6539   0.502   3.028  15.264  0.6721  0.1953  0.6240
  435MPD2     H 6540   0.435   2.859  15.598 -1.1757  0.8380 -0.7532
  435MPD2    H1 6541   0.699   2.958  15.275  0.4478  0.8582  0.6125
  435MPD2    H2 6542   0.306   3.109  15.283 -0.5126  1.3874  0.5316
  435MPD2    H3 6543   0.507   3.067  15.162  0.3569 -1.7449 -0.1288
  435MPD2     N 6544   0.687   2.847  15.527  0.2777 -0.6425 -0.4264
  435MPD2    H5 6545   0.668   2.822  15.624 -0.3584  0.8783 -0.1725
  435MPD2    N1 6546   0.254   3.031  15.538  0.2995  0.4629 -0.5942
  435MPD2    H7 6547   0.224   2.968  15.612 -1.2801  1.2984 -0.5182
  436TMC3    C1 6548   0.047   3.274  15.845 -0.3351 -0.3642 -0.4187
  436TMC3    C2 6549   0.101   3.277  15.715  0.3733 -0.2413  0.4810
  436TMC3    C3 6550   0.087   3.168  15.640  0.0312  0.7638  0.4144
  436TMC3    C4 6551   4.708   3.168  15.882  1.1248  1.0056  0.0531
  436TMC3    C5 6552   4.683   3.069  15.794 -0.0251 -0.0140  0.7998
  436TMC3    C6 6553   0.004   3.063  15.672 -0.6573 -0.4015  0.1529
  436TMC3     C 6554   0.052   3.389  15.930 -0.1766  0.4130 -0.2517
  436TMC3     O 6555   0.082   3.495  15.876  0.1000  0.3030  0.6800
  436TMC3     H 6556   0.162   3.363  15.692  0.6818 -1.1301 -2.0263
  436TMC3    H1 6557   4.639   3.179  15.965  0.4701 -2.0378 -0.0798
  436TMC3    H2 6558   4.724   2.980  15.603 -2.3799  0.6174 -0.5949
  436TMC3    C7 6559   4.575   2.971  15.815  0.5390 -0.8643 -0.0567
  436TMC3    C8 6560   0.186   3.160  15.530 -0.3956  0.8762 -0.7673
  436TMC3    O1 6561   4.608   2.859  15.787  0.0843 -0.2999 -0.3025
  436TMC3    O2 6562   0.212   3.254  15.454 -0.1024  0.1970  0.5000
  437TMC3    C1 6563   4.012   0.067  12.791 -0.2146  0.2980  0.1761
  437TMC3    C2 6564   3.878   0.031  12.793 -0.1255 -0.4391 -0.0741
  437TMC3    C3 6565   3.785   0.127  12.772  0.2108  0.0122 -0.5058
  437TMC3    C4 6566   4.056   0.192  12.769  0.5326 -0.9796  0.1086
  437TMC3    C5 6567   3.956   0.290  12.744 -0.5155 -0.1332  0.2606
  437TMC3    C6 6568   3.824   0.259  12.746 -0.1547 -0.3681  0.0074
  437TMC3     C 6569   4.116   4.707  12.814  0.2128  1.2996 -0.1711
  437TMC3     O 6570   4.235   4.738  12.794  0.2158 -0.2974  0.6349
  437TMC3     H 6571   3.853   4.665  12.794  2.2002 -1.0250 -1.3074
  437TMC3    H1 6572   4.163   0.212  12.774  0.7096 -1.8416 -0.2162
  437TMC3    H2 6573   3.740   0.326  12.730  0.6185  0.1322 -1.8954
  437TMC3    C7 6574   3.985   0.437  12.731  0.6147 -0.3389  0.1386
  437TMC3    C8 6575   3.647   0.099  12.776  0.0939  0.0291  0.3620
  437TMC3    O1 6576   3.894   0.514  12.704  0.5112  0.0509 -0.1311
  437TMC3    O2 6577   3.568   0.188  12.737 -0.4856  0.1814  0.2634
  438MPD2     C 6578   1.739   1.341  16.069  0.0257 -0.3693  0.5320
  438MPD2    C1 6579   1.831   1.274  16.144 -0.2627  0.1162 -0.1040
  438MPD2    C2 6580   1.812   1.286  16.276 -0.2242 -0.4834  0.5904
  438MPD2    C3 6581   1.711   1.345  16.341  0.1089  0.5803  0.3778
  438MPD2    C4 6582   1.620   1.416  16.266 -0.9882 -0.1357  0.1715
  438MPD2    C5 6583   1.639   1.408  16.132 -0.3035  0.4149  0.4733
  438MPD2     H 6584   1.887   1.240  16.340 -0.2024 -1.8958 -0.4599
  438MPD2    H1 6585   1.543   1.476  16.312 -0.1645  1.8309 -1.0122
  438MPD2    H2 6586   1.747   1.342  15.961  2.6343  1.5595  0.7508
  438MPD2    H3 6587   1.559   1.450  16.072 -0.0016  3.0344  1.8614
  438MPD2     N 6588   1.697   1.345  16.483 -0.2663  0.2585  0.0907
  438MPD2    H5 6589   1.627   1.411  16.516  0.8714  1.5179 -0.0499
  438MPD2    N1 6590   1.945   1.210  16.092 -0.2489  0.2523 -0.6943
  438MPD2    H7 6591   2.011   1.164  16.154 -1.2924  0.8795  0.8771
  439TMC3    C1 6592   2.065   1.082  15.941 -0.4263 -0.1370  0.0820
  439TMC3    C2 6593   2.127   1.069  15.819 -0.1230 -0.6302 -0.1581
  439TMC3    C3 6594   2.209   0.960  15.797 -0.0552 -0.2000  0.1811
  439TMC3    C4 6595   2.075   0.985  16.039 -0.5774 -0.4795 -0.5414
  439TMC3    C5 6596   2.147   0.871  16.008 -0.4146 -0.0613  0.1960
  439TMC3    C6 6597   2.228   0.864  15.897 -0.4581 -0.0644  0.1805
  439TMC3     C 6598   1.955   1.167  15.957  0.6623 -0.0968  0.6771
  439TMC3     O 6599   1.903   1.201  15.852  0.1266 -0.0233  0.0759
  439TMC3     H 6600   2.118   1.148  15.746 -0.8869 -0.9184 -0.3654
  439TMC3    H1 6601   2.017   0.995  16.130  0.1144  1.1980 -0.3009
  439TMC3    H2 6602   2.302   0.786  15.890 -0.3098 -0.0230  1.2826
  439TMC3    C7 6603   2.176   0.782  16.125  0.3309  0.3861  0.2343
  439TMC3    C8 6604   2.272   0.932  15.670 -0.0979  0.6600  0.1266
  439TMC3    O1 6605   2.291   0.753  16.150  0.0395 -0.3817 -0.8721
  439TMC3    O2 6606   2.340   0.829  15.660 -0.1647 -0.4268  0.5118
  440MPD2     C 6607   0.611   1.087  14.548 -0.0967 -0.4098 -0.0005
  440MPD2    C1 6608   0.619   1.218  14.602  0.3681 -0.0533  0.4112
  440MPD2    C2 6609   0.735   1.247  14.677 -0.0556 -0.2980 -0.0770
  440MPD2    C3 6610   0.839   1.153  14.697  0.2035 -0.0242  1.0782
  440MPD2    C4 6611   0.819   1.025  14.650 -0.3531 -0.4187  0.1346
  440MPD2    C5 6612   0.705   0.998  14.585  0.1031  0.0815  0.4107
  440MPD2     H 6613   0.745   1.353  14.699 -0.0036 -0.3451  0.1273
  440MPD2    H1 6614   0.879   0.939  14.674 -0.7973 -0.5376  0.8277
  440MPD2    H2 6615   0.523   1.034  14.514  0.9698 -0.0315 -3.2804
  440MPD2    H3 6616   0.704   0.892  14.559  1.9639  0.1519  0.0463
  440MPD2     N 6617   0.946   1.182  14.779 -0.6955  0.3653 -0.1635
  440MPD2    H5 6618   1.003   1.107  14.819 -1.7871 -0.0500  0.6015
  440MPD2    N1 6619   0.508   1.308  14.588 -0.3641 -0.3833  0.5835
  440MPD2    H7 6620   0.508   1.391  14.645 -0.6024  0.9177 -1.3254
  441TMC3    C1 6621   1.024   1.309  14.952 -0.2513  0.0921 -0.0663
  441TMC3    C2 6622   1.102   1.415  14.983  0.0933 -0.1800  0.3000
  441TMC3    C3 6623   1.157   1.418  15.101  0.3180 -0.3933  0.2783
  441TMC3    C4 6624   0.995   1.211  15.042 -0.1965  0.3885 -0.0044
  441TMC3    C5 6625   1.068   1.212  15.156  0.1499 -0.1124  0.7875
  441TMC3    C6 6626   1.154   1.313  15.183  0.4965 -0.5458 -0.5799
  441TMC3     C 6627   0.969   1.312  14.820 -0.4948  0.3196 -0.3749
  441TMC3     O 6628   0.961   1.420  14.757 -0.0754  0.0841  0.0125
  441TMC3     H 6629   1.113   1.485  14.901  0.1959 -0.2766  0.2312
  441TMC3    H1 6630   0.925   1.130  15.023  0.2879  0.5890 -2.7329
  441TMC3    H2 6631   1.205   1.319  15.278 -0.1939 -2.3732 -0.0937
  441TMC3    C7 6632   1.009   1.151  15.273 -0.5516 -0.1339  0.0793
  441TMC3    C8 6633   1.142   1.539  15.177 -0.2569  0.1437  0.4477
  441TMC3    O1 6634   0.886   1.143  15.259  0.4667 -0.1940  0.1524
  441TMC3    O2 6635   1.198   1.563  15.281  0.6472  0.1961  0.0710
  442MPD2     C 6636   3.855   1.666  16.902 -0.5466 -0.2642 -0.3953
  442MPD2    C1 6637   3.811   1.751  16.802 -0.4048 -0.8464  0.4593
  442MPD2    C2 6638   3.786   1.692  16.680 -0.0213 -0.1246  1.0740
  442MPD2    C3 6639   3.798   1.555  16.663 -0.3470  0.1251  0.0844
  442MPD2    C4 6640   3.831   1.472  16.771 -0.6569 -0.3318  0.1788
  442MPD2    C5 6641   3.862   1.530  16.888  0.1947 -0.5335  0.7608
  442MPD2     H 6642   3.749   1.757  16.601  0.0319 -1.5522 -0.1018
  442MPD2    H1 6643   3.843   1.365  16.758 -2.2061 -0.5065  0.2120
  442MPD2    H2 6644   3.850   1.701  17.005 -0.0945  0.8267 -0.7424
  442MPD2    H3 6645   3.883   1.473  16.978  1.7687 -1.9808 -0.5368
  442MPD2     N 6646   3.765   1.493  16.540 -0.5785 -0.2855 -0.0814
  442MPD2    H5 6647   3.745   1.394  16.549 -1.1885 -0.1112  0.4414
  442MPD2    N1 6648   3.783   1.889  16.809 -0.1036 -0.0850  0.4284
  442MPD2    H7 6649   3.748   1.942  16.729  0.7658  1.0735  0.8171
  443TMC3    C1 6650   3.739   2.093  16.904 -0.1486  0.0729  0.2057
  443TMC3    C2 6651   3.779   2.154  16.783 -0.6588 -0.3360 -0.9941
  443TMC3    C3 6652   3.715   2.265  16.751 -0.6939 -0.3953  0.0886
  443TMC3    C4 6653   3.653   2.146  16.995 -0.1863  0.7854  0.8028
  443TMC3    C5 6654   3.588   2.266  16.962 -0.1241 -1.0472  0.0968
  443TMC3    C6 6655   3.623   2.320  16.841 -0.1285  0.0959  0.7887
  443TMC3     C 6656   3.782   1.959  16.924  0.4483  0.2486 -0.3389
  443TMC3     O 6657   3.776   1.914  17.037 -0.5514  0.5014 -0.5799
  443TMC3     H 6658   3.849   2.112  16.712 -1.1090 -3.2220  0.2635
  443TMC3    H1 6659   3.617   2.091  17.081 -0.1924 -0.8927 -0.2820
  443TMC3    H2 6660   3.577   2.413  16.809  0.6208  0.8512  1.8489
  443TMC3    C7 6661   3.446   2.249  16.974  0.2011  0.1134 -0.1340
  443TMC3    C8 6662   3.718   2.326  16.619  0.1582  0.1384 -0.0928
  443TMC3    O1 6663   3.407   2.137  17.004 -0.3532 -0.3584  0.5497
  443TMC3    O2 6664   3.715   2.451  16.622 -0.3850  0.0680 -0.0504
  444MPD2     C 6665   3.912   1.218  17.124  0.6440  0.6161  0.3864
  444MPD2    C1 6666   3.833   1.187  17.008  0.4746  0.3586 -0.1683
  444MPD2    C2 6667   3.881   1.107  16.915  0.7909 -0.1345 -0.7188
  444MPD2    C3 6668   4.021   1.069  16.924 -0.5624 -0.6303  0.1147
  444MPD2    C4 6669   4.108   1.110  17.025  0.2752  0.8299 -0.2779
  444MPD2    C5 6670   4.043   1.179  17.130 -0.4205  0.1957 -0.0606
  444MPD2     H 6671   3.819   1.066  16.836 -0.7241 -1.2467  1.0229
  444MPD2    H1 6672   4.211   1.079  17.026 -0.4811 -1.5900  2.6581
  444MPD2    H2 6673   3.875   1.291  17.195 -0.8806  0.1849  0.0351
  444MPD2    H3 6674   4.103   1.212  17.214 -0.5937  1.6934 -0.5254
  444MPD2     N 6675   4.074   0.981  16.818  0.3853  0.2375 -0.2626
  444MPD2    H5 6676   4.007   0.964  16.744 -2.5400  1.2357  2.1527
  444MPD2    N1 6677   3.696   1.226  16.983  0.3059 -0.3830 -0.4159
  444MPD2    H7 6678   3.654   1.187  16.900 -1.1174  0.5734 -0.1543
  445TMC3    C1 6679   4.199   0.809  16.715 -0.4810  0.6082 -0.1342
  445TMC3    C2 6680   4.081   0.756  16.672 -0.3154 -0.7955  1.6747
  445TMC3    C3 6681   4.086   0.683  16.560 -0.6607  0.0121  0.1143
  445TMC3    C4 6682   4.319   0.793  16.648 -0.1880  0.8991 -0.0047
  445TMC3    C5 6683   4.317   0.711  16.536 -0.7106  0.2569  0.1087
  445TMC3    C6 6684   4.203   0.650  16.487  0.4895 -0.0436 -0.1588
  445TMC3     C 6685   4.196   0.918  16.814 -0.3891  0.1783 -0.8487
  445TMC3     O 6686   4.300   0.944  16.870 -0.2143  0.4587  0.0954
  445TMC3     H 6687   3.985   0.756  16.721 -1.0911  1.2822  0.1880
  445TMC3    H1 6688   4.414   0.822  16.692 -0.3631  3.2554 -1.1762
  445TMC3    H2 6689   4.187   0.593  16.396  2.1430  1.4338 -1.3581
  445TMC3    C7 6690   4.447   0.675  16.481 -0.1806 -0.6534  0.5374
  445TMC3    C8 6691   3.961   0.633  16.509  0.7084 -0.3570  0.1211
  445TMC3    O1 6692   4.547   0.739  16.516 -0.2401 -0.2049  0.1414
  445TMC3    O2 6693   3.975   0.517  16.473  0.1656 -0.5150 -0.1966
  446MPD2     C 6694   3.737   2.739  11.339 -0.0145 -0.0218  0.4222
  446MPD2    C1 6695   3.711   2.816  11.227  0.1300  0.4673 -0.3221
  446MPD2    C2 6696   3.820   2.877  11.163 -0.1104 -0.4901  0.5604
  446MPD2    C3 6697   3.950   2.842  11.202  0.1750  0.2295 -0.7158
  446MPD2    C4 6698   3.966   2.753  11.309  0.6742 -0.3108  0.8597
  446MPD2    C5 6699   3.860   2.704  11.377 -0.1261 -0.5264 -0.6193
  446MPD2     H 6700   3.801   2.948  11.083  0.4965  0.7245  1.4812
  446MPD2    H1 6701   4.063   2.720  11.345  1.2093  0.4286  0.0967
  446MPD2    H2 6702   3.657   2.697  11.399 -0.2444  0.1751  0.2511
  446MPD2    H3 6703   3.891   2.643  11.461 -0.1343  1.6894  0.9947
  446MPD2     N 6704   4.064   2.898  11.142 -0.4821  0.1396  0.2103
  446MPD2    H5 6705   4.041   2.977  11.082  1.5815 -0.2969 -1.1808
  446MPD2    N1 6706   3.573   2.845  11.183  0.0902  0.3496 -0.0109
  446MPD2    H7 6707   3.573   2.894  11.094  0.4030  2.0052  0.9044
  447TMC3    C1 6708   4.286   2.919  11.064  0.6377  0.3134 -0.4746
  447TMC3    C2 6709   4.260   3.053  11.029  0.3408  0.5946  0.3396
  447TMC3    C3 6710   4.365   3.128  10.984 -0.1445 -0.0945  0.1408
  447TMC3    C4 6711   4.408   2.867  11.041 -0.2403 -0.2031 -0.3370
  447TMC3    C5 6712   4.503   2.944  10.981  0.0124 -0.2591  0.1240
  447TMC3    C6 6713   4.489   3.079  10.959 -0.0040 -0.6786  0.0638
  447TMC3     C 6714   4.195   2.851  11.154  0.0921 -0.0116 -0.2961
  447TMC3     O 6715   4.238   2.753  11.204 -0.3001 -0.2504  0.5002
  447TMC3     H 6716   4.165   3.105  11.041  0.0656  0.3588 -0.8801
  447TMC3    H1 6717   4.419   2.761  11.058 -0.3967 -0.5442 -2.3723
  447TMC3    H2 6718   4.574   3.146  10.950 -0.2151 -0.4776 -0.4231
  447TMC3    C7 6719   4.643   2.894  10.974 -0.1019 -0.4234  0.3469
  447TMC3    C8 6720   4.341   3.271  10.982 -0.5615 -0.1622 -0.3706
  447TMC3    O1 6721   4.662   2.783  11.021 -0.2031  0.2836 -0.4244
  447TMC3    O2 6722   4.240   3.316  11.034 -0.0517  0.1417 -0.1129
  448TMC3    C1 6723   1.563   2.442  16.927  0.3195  0.5592  0.5369
  448TMC3    C2 6724   1.591   2.364  16.817  0.5489 -0.1148 -0.3267
  448TMC3    C3 6725   1.668   2.249  16.841  0.6213 -0.8452 -0.2112
  448TMC3    C4 6726   1.609   2.406  17.047 -0.8064 -0.6384  0.3263
  448TMC3    C5 6727   1.694   2.303  17.063 -0.4740 -0.9073  0.0940
  448TMC3    C6 6728   1.727   2.224  16.961  0.2755  0.5953  0.5603
  448TMC3     C 6729   1.496   2.567  16.912  0.5744  0.4534 -0.5296
  448TMC3     O 6730   1.482   2.630  17.014 -0.0341 -0.6836  0.1497
  448TMC3     H 6731   1.570   2.393  16.715 -1.3327 -1.4572 -0.3228
  448TMC3    H1 6732   1.584   2.460  17.138  0.0885 -0.3393  0.3931
  448TMC3    H2 6733   1.786   2.133  16.967 -2.1993 -0.9973  0.5096
  448TMC3    C7 6734   1.808   2.327  17.154  0.1632 -0.0847  0.3924
  448TMC3    C8 6735   1.703   2.157  16.731  0.1519 -0.1471 -0.7917
  448TMC3    O1 6736   1.919   2.304  17.107  0.4133 -0.3076 -0.3333
  448TMC3    O2 6737   1.813   2.103  16.738 -0.6446  0.3586  0.1040
  449MPD2     C 6738   3.222   1.068  13.790 -0.1305  0.2676  0.1651
  449MPD2    C1 6739   3.090   1.106  13.768  0.1842  1.0556 -0.4724
  449MPD2    C2 6740   2.983   1.050  13.837 -0.7211  0.2568 -0.5024
  449MPD2    C3 6741   3.012   0.956  13.934 -0.1052  0.6025  1.0000
  449MPD2    C4 6742   3.139   0.920  13.964  0.0596 -0.4777  0.4283
  449MPD2    C5 6743   3.243   0.979  13.893 -0.3460  0.4574  0.2338
  449MPD2     H 6744   2.883   1.079  13.807 -0.2539  0.3096 -2.0090
  449MPD2    H1 6745   3.154   0.844  14.041  1.5282 -0.2037  0.4208
  449MPD2    H2 6746   3.299   1.111  13.727  0.4522 -1.2460 -0.1574
  449MPD2    H3 6747   3.346   0.955  13.918 -0.0613 -1.0432 -2.3908
  449MPD2     N 6748   2.896   0.891  13.986  0.0153 -0.0261 -0.4092
  449MPD2    H5 6749   2.807   0.919  13.946  0.4226 -0.8535 -1.9124
  449MPD2    N1 6750   3.057   1.197  13.661  0.0303  0.8209  0.7311
  449MPD2    H7 6751   2.958   1.211  13.647 -0.3308 -1.1914  1.2086
  450TMC3    C1 6752   3.060   1.288  13.447  0.0743 -0.0366  0.1441
  450TMC3    C2 6753   3.091   1.208  13.340  0.2923 -0.0834 -0.8229
  450TMC3    C3 6754   2.988   1.160  13.263 -0.0224  0.0826  0.5497
  450TMC3    C4 6755   2.928   1.314  13.479 -0.5699 -0.4993 -0.2400
  450TMC3    C5 6756   2.831   1.261  13.391  0.0568 -0.4504  0.5506
  450TMC3    C6 6757   2.853   1.180  13.283  0.0091  0.3645 -0.0488
  450TMC3     C 6758   3.139   1.257  13.566 -1.1907 -0.3558  0.4750
  450TMC3     O 6759   3.253   1.238  13.542  0.3663 -0.3635 -0.1401
  450TMC3     H 6760   3.194   1.179  13.325 -0.1630 -1.6217 -1.0303
  450TMC3    H1 6761   2.907   1.379  13.563 -1.8482 -1.9195  0.5470
  450TMC3    H2 6762   2.778   1.123  13.230  0.0279 -1.3634  1.7808
  450TMC3    C7 6763   2.706   1.216  13.456  1.2718  0.4397  0.8744
  450TMC3    C8 6764   3.015   1.052  13.167 -0.4643  0.1593 -0.3183
  450TMC3    O1 6765   2.665   1.100  13.433 -0.4261  0.6941 -0.3678
  450TMC3    O2 6766   2.923   0.970  13.152  0.1444  1.1366 -0.8025
  451MPD2     C 6767   0.345   3.953   1.279 -0.3474  0.0025 -0.3804
  451MPD2    C1 6768   0.346   4.002   1.152  0.3745  0.1743  0.1005
  451MPD2    C2 6769   0.417   3.939   1.056 -0.5442 -0.4601  0.2729
  451MPD2    C3 6770   0.496   3.823   1.089  0.0942 -0.4635 -0.1822
  451MPD2    C4 6771   0.490   3.781   1.218  0.1765  0.0930  0.0897
  451MPD2    C5 6772   0.412   3.841   1.314  0.3155  0.4018 -0.4022
  451MPD2     H 6773   0.428   3.978   0.955  1.9859  0.5443  0.9375
  451MPD2    H1 6774   0.545   3.695   1.256  1.2146 -0.0549 -1.7957
  451MPD2    H2 6775   0.295   4.003   1.361  1.2887  0.6113  0.2673
  451MPD2    H3 6776   0.422   3.819   1.419  0.7574  0.6420 -0.3905
  451MPD2     N 6777   0.576   3.750   0.995  0.0278  0.1309 -0.4195
  451MPD2    H5 6778   0.611   3.662   1.031  0.4352  0.6253  0.3902
  451MPD2    N1 6779   0.274   4.120   1.127  0.1553 -0.2703 -0.7775
  451MPD2    H7 6780   0.236   4.172   1.206  4.1671 -0.5498  1.3182
  452TMC3    C1 6781   0.709   3.705   0.814  0.0953  0.1024 -0.2759
  452TMC3    C2 6782   0.662   3.580   0.788 -0.8909 -0.0997  0.5576
  452TMC3    C3 6783   0.709   3.517   0.677  0.0129  0.1555 -0.1912
  452TMC3    C4 6784   0.795   3.762   0.727  0.5346  0.3764  0.4297
  452TMC3    C5 6785   0.837   3.701   0.611  0.3590 -0.2106 -0.3698
  452TMC3    C6 6786   0.800   3.574   0.590 -0.4123 -0.5726 -0.0377
  452TMC3     C 6787   0.614   3.798   0.877  1.0257  0.0116  0.2488
  452TMC3     O 6788   0.598   3.910   0.831  0.0033  0.6203 -0.0236
  452TMC3     H 6789   0.582   3.534   0.845 -2.3005 -0.9825 -2.1431
  452TMC3    H1 6790   0.816   3.868   0.730  1.0961  0.2377  1.2025
  452TMC3    H2 6791   0.830   3.522   0.499 -1.3877  0.0267 -0.7116
  452TMC3    C7 6792   0.891   3.791   0.509 -0.3634  0.4028 -0.7363
  452TMC3    C8 6793   0.617   3.415   0.621 -0.2123  0.4760  0.0329
  452TMC3    O1 6794   0.860   3.910   0.512  0.4028  0.1240 -0.4010
  452TMC3    O2 6795   0.499   3.428   0.659  0.0742  0.1254 -0.4013
  453TMC3    C1 6796   0.989   1.895  12.014  0.1262  0.5476 -0.0396
  453TMC3    C2 6797   0.958   1.768  11.975 -0.1044 -0.2182  0.1117
  453TMC3    C3 6798   0.947   1.745  11.845  0.0108  0.4678  0.7012
  453TMC3    C4 6799   1.005   2.001  11.927  0.5052  0.2950 -0.2873
  453TMC3    C5 6800   0.987   1.967  11.790  0.1636  0.3819  0.3786
  453TMC3    C6 6801   0.962   1.841  11.752 -0.7123 -0.0657 -0.0975
  453TMC3     C 6802   1.083   1.914  12.132  0.1503  0.6334  0.6123
  453TMC3     O 6803   1.163   2.006  12.135 -0.3424  0.4393 -0.2172
  453TMC3     H 6804   0.956   1.681  12.039  2.9332  1.2586  2.1642
  453TMC3    H1 6805   1.051   2.093  11.960 -1.6103  0.6733  1.6112
  453TMC3    H2 6806   0.940   1.809  11.651 -0.6743  3.4544 -1.2196
  453TMC3    C7 6807   1.080   2.035  11.699 -0.0649  0.6970  1.1129
  453TMC3    C8 6808   0.918   1.603  11.808 -0.2614 -0.2972 -0.9688
  453TMC3    O1 6809   1.117   2.151  11.728  0.0806  0.2350 -0.0226
  453TMC3    O2 6810   0.975   1.554  11.712  0.2509 -0.1950  0.4209
  454MPD2     C 6811   4.676   1.070  16.274  0.2400 -0.4818 -0.2003
  454MPD2    C1 6812   4.586   1.122  16.179 -0.2361 -0.5594 -0.2563
  454MPD2    C2 6813   4.529   1.253  16.195  0.0838 -0.2904  0.0616
  454MPD2    C3 6814   4.553   1.319  16.314 -0.2662 -0.3285  0.0703
  454MPD2    C4 6815   4.647   1.274  16.411  0.5228  0.4324 -0.5476
  454MPD2    C5 6816   4.700   1.148  16.389  0.6074  1.2367  0.4396
  454MPD2     H 6817   4.450   1.286  16.129 -0.7381 -0.8936  0.7441
  454MPD2    H1 6818   4.669   1.321  16.506 -0.9071  1.6661 -0.8408
  454MPD2    H2 6819   4.717   0.970  16.287 -0.0460 -0.9808 -3.1535
  454MPD2    H3 6820   0.027   1.105  16.463  1.6465 -1.9900 -2.3692
  454MPD2     N 6821   4.469   1.433  16.345 -1.0018 -0.0987  0.2740
  454MPD2    H5 6822   4.452   1.442  16.444  0.9729 -3.3239  0.8960
  454MPD2    N1 6823   4.543   1.053  16.063  0.3389  0.3893 -0.2001
  454MPD2    H7 6824   4.480   1.101  15.999  0.4941 -0.2823 -0.8560
  455TMC3    C1 6825   4.247   1.526  16.344  0.1719 -0.4073 -0.1713
  455TMC3    C2 6826   4.265   1.550  16.479  0.4909  0.1155 -0.7042
  455TMC3    C3 6827   4.190   1.487  16.570  0.1471  0.8094  0.3125
  455TMC3    C4 6828   4.144   1.441  16.312 -0.1750  0.2577  0.1963
  455TMC3    C5 6829   4.061   1.379  16.411  0.9530 -0.1224 -0.5820
  455TMC3    C6 6830   4.087   1.405  16.539 -0.3773 -1.1094 -0.0068
  455TMC3     C 6831   4.370   1.498  16.265 -0.0813 -0.1798 -0.5153
  455TMC3     O 6832   4.353   1.485  16.144  0.3013 -0.6507  0.0045
  455TMC3     H 6833   4.348   1.615  16.502 -0.0305 -0.2822  2.3154
  455TMC3    H1 6834   4.134   1.419  16.207  0.5111 -2.5869  0.7175
  455TMC3    H2 6835   4.026   1.366  16.619 -0.7980  2.4762  1.3846
  455TMC3    C7 6836   4.032   1.239  16.374  0.0646 -0.1671 -0.2303
  455TMC3    C8 6837   4.181   1.535  16.700 -0.0414  0.4047  0.2649
  455TMC3    O1 6838   3.937   1.180  16.422  0.5169  0.9184  0.2356
  455TMC3    O2 6839   4.175   1.450  16.789 -0.2303 -0.1868 -0.2916
  456MPD2     C 6840   2.322   1.421  15.644 -0.1865  0.3175 -0.3725
  456MPD2    C1 6841   2.377   1.343  15.741 -0.3985  0.6175 -0.3928
  456MPD2    C2 6842   2.331   1.356  15.876  0.4330  0.6543 -0.8591
  456MPD2    C3 6843   2.225   1.440  15.907 -0.2666  0.1399 -0.3002
  456MPD2    C4 6844   2.171   1.512  15.808  0.1746  0.3179  0.4762
  456MPD2    C5 6845   2.218   1.506  15.677 -0.2934 -0.1358 -0.2397
  456MPD2     H 6846   2.388   1.312  15.957 -1.3662 -0.6475 -0.2901
  456MPD2    H1 6847   2.086   1.577  15.821  0.9688  1.4199  0.1107
  456MPD2    H2 6848   2.353   1.425  15.540 -1.4811  1.1702 -0.7249
  456MPD2    H3 6849   2.170   1.569  15.603  2.4901 -0.8330 -2.6579
  456MPD2     N 6850   2.183   1.466  16.039 -0.8167  0.0312  0.0671
  456MPD2    H5 6851   2.247   1.442  16.113  0.0210 -0.8807 -0.9466
  456MPD2    N1 6852   2.476   1.249  15.713 -0.6172  0.2715  0.5211
  456MPD2    H7 6853   2.509   1.252  15.617  0.3291  0.6212  0.8529
  457TMC3    C1 6854   2.058   1.550  16.215  0.5365 -0.6352 -0.3990
  457TMC3    C2 6855   1.978   1.644  16.265  0.2837  0.2486  0.3172
  457TMC3    C3 6856   1.950   1.636  16.398 -0.3176  0.1592 -0.1686
  457TMC3    C4 6857   2.104   1.446  16.294 -0.0316 -0.3190 -0.6668
  457TMC3    C5 6858   2.060   1.445  16.425  0.4970 -0.9424 -0.2440
  457TMC3    C6 6859   1.982   1.536  16.482  0.3388  0.1340 -0.3194
  457TMC3     C 6860   2.062   1.531  16.075 -0.0391  0.2052 -0.8994
  457TMC3     O 6861   1.963   1.569  16.014  0.0748  0.5203  0.4600
  457TMC3     H 6862   1.946   1.732  16.211 -0.2795 -1.2651 -1.7974
  457TMC3    H1 6863   2.163   1.364  16.254 -0.0752 -0.5447 -0.2713
  457TMC3    H2 6864   1.959   1.529  16.588 -0.5319  1.9934 -0.3883
  457TMC3    C7 6865   2.146   1.369  16.514  0.2318  0.4316 -0.3640
  457TMC3    C8 6866   1.842   1.724  16.444 -0.5391  0.4902 -0.1221
  457TMC3    O1 6867   2.086   1.320  16.607 -0.1968  0.3835 -0.1892
  457TMC3    O2 6868   1.816   1.730  16.565 -0.2821  0.4123 -0.5280
  458MPD2     C 6869   4.302   0.836  12.694 -0.5166  0.5333  0.1488
  458MPD2    C1 6870   4.369   0.740  12.751  0.5598 -0.0700  0.1942
  458MPD2    C2 6871   4.299   0.623  12.769 -0.0227 -0.0883  0.7554
  458MPD2    C3 6872   4.166   0.603  12.740  0.0197 -0.2281 -0.3679
  458MPD2    C4 6873   4.099   0.713  12.687  0.4746 -0.1915 -0.6354
  458MPD2    C5 6874   4.169   0.821  12.660  0.4026  0.5035  0.8932
  458MPD2     H 6875   4.353   0.543  12.819  2.5089  1.4079  0.3949
  458MPD2    H1 6876   3.996   0.707  12.654  0.1912 -0.8805  0.3696
  458MPD2    H2 6877   4.349   0.931  12.670 -0.0941  0.8745  2.2586
  458MPD2    H3 6878   4.123   0.904  12.608 -0.5342 -0.2130  0.5840
  458MPD2     N 6879   4.112   0.474  12.763 -0.2452 -0.4626 -0.1618
  458MPD2    H5 6880   4.182   0.402  12.779  0.2588  0.0699  0.0072
  458MPD2    N1 6881   4.497   0.763  12.792  0.0159 -0.5332 -0.0986
  458MPD2    H7 6882   4.539   0.848  12.756  2.9669 -2.0428 -0.2545
  459TMC3    C1 6883   4.695   0.719  12.912 -0.0922 -0.1556 -0.4337
  459TMC3    C2 6884   0.034   0.755  12.806 -0.2099  0.1555 -0.1311
  459TMC3    C3 6885   0.173   0.734  12.816  0.0506 -0.3537  0.6076
  459TMC3    C4 6886   0.009   0.668  13.022  0.3715  0.2234 -0.2718
  459TMC3    C5 6887   0.146   0.656  13.029  0.1341 -0.7312 -0.2215
  459TMC3    C6 6888   0.230   0.686  12.930 -0.5827 -0.1877  0.3923
  459TMC3     C 6889   4.560   0.685  12.888 -0.4786  0.1717  0.1602
  459TMC3     O 6890   4.511   0.603  12.965 -0.2968 -0.3972 -0.7648
  459TMC3     H 6891   4.720   0.801  12.723 -1.1424 -0.9928 -0.1695
  459TMC3    H1 6892   4.692   0.607  13.092  0.6569 -1.1065 -1.2064
  459TMC3    H2 6893   0.336   0.691  12.953 -0.3035 -1.4422 -0.5970
  459TMC3    C7 6894   0.190   0.552  13.118  1.1177  0.1746  0.2080
  459TMC3    C8 6895   0.268   0.804  12.730 -0.0844 -0.0588  0.4892
  459TMC3    O1 6896   0.120   0.452  13.131  0.5222  0.2455  0.0233
  459TMC3    O2 6897   0.387   0.815  12.764  0.1320  0.9506  0.8515
  460MPD2     C 6898   4.549   3.552  10.882 -0.2428  0.2232  0.0952
  460MPD2    C1 6899   4.432   3.486  10.895 -0.7732 -0.0496  0.6255
  460MPD2    C2 6900   4.312   3.557  10.892 -0.1282 -0.6074 -0.2488
  460MPD2    C3 6901   4.313   3.695  10.862 -0.4716  0.2389 -0.4824
  460MPD2    C4 6902   4.435   3.758  10.871 -0.2360 -0.2577  0.4672
  460MPD2    C5 6903   4.550   3.690  10.888 -0.3261 -0.0396  0.1933
  460MPD2     H 6904   4.214   3.511  10.895  0.4847 -1.9951 -1.5946
  460MPD2    H1 6905   4.432   3.866  10.857  0.3666 -0.1174  1.4023
  460MPD2    H2 6906   4.650   3.513  10.883 -0.8022 -1.1086  2.6869
  460MPD2    H3 6907   4.644   3.744  10.894 -0.7342  0.8984 -2.3147
  460MPD2     N 6908   4.191   3.757  10.823 -0.5672  0.0400  0.1687
  460MPD2    H5 6909   4.107   3.701  10.814 -1.3399  1.3294 -0.7762
  460MPD2    N1 6910   4.436   3.347  10.914 -0.5550  0.1242  0.5590
  460MPD2    H7 6911   4.503   3.299  10.855  1.1864  1.0257  1.8183
  461TMC3    C1 6912   4.047   3.886  10.710 -0.3976 -0.2350  0.1746
  461TMC3    C2 6913   3.979   3.768  10.680 -0.6178  0.0103  0.0476
  461TMC3    C3 6914   3.876   3.783  10.596 -0.1636 -0.2374 -0.7654
  461TMC3    C4 6915   4.030   4.007  10.655  0.0827  0.3509  1.3335
  461TMC3    C5 6916   3.925   4.012  10.570  0.3027  0.1318  0.0552
  461TMC3    C6 6917   3.846   3.907  10.536  0.3030  0.4582 -0.5072
  461TMC3     C 6918   4.168   3.885  10.789 -0.3302  0.0326  0.0321
  461TMC3     O 6919   4.242   3.981  10.803 -0.0380  0.8093  0.8282
  461TMC3     H 6920   3.993   3.677  10.737 -2.0502 -0.0381  0.3249
  461TMC3    H1 6921   4.083   4.093  10.693  1.9588  0.2395 -1.0372
  461TMC3    H2 6922   3.770   3.913  10.459  0.7442 -1.4267 -1.1038
  461TMC3    C7 6923   3.901   4.126  10.489 -0.0896  0.5232  1.0155
  461TMC3    C8 6924   3.814   3.665  10.526  0.0044  0.0951 -0.0994
  461TMC3    O1 6925   3.809   4.124  10.407 -0.2690 -0.3064 -0.1955
  461TMC3    O2 6926   3.886   3.562  10.504 -0.3382  1.0505 -0.6386
  462TMC3    C1 6927   4.332   3.923   0.607  0.4716  0.4376 -0.2936
  462TMC3    C2 6928   4.430   3.837   0.567 -1.1945  0.4504  0.1128
  462TMC3    C3 6929   4.425   3.777   0.446  0.5406  0.5681 -0.0468
  462TMC3    C4 6930   4.211   3.904   0.552 -0.5649 -0.6264  0.4924
  462TMC3    C5 6931   4.205   3.835   0.435 -0.0882  0.2272 -0.1566
  462TMC3    C6 6932   4.309   3.769   0.379  0.9799  0.0909  0.2399
  462TMC3     C 6933   4.333   3.960   0.754 -0.3550  0.3804 -0.5838
  462TMC3     O 6934   4.226   4.005   0.791  0.5800  0.2608 -0.1308
  462TMC3     H 6935   4.529   3.848   0.609 -1.4022  0.2519  0.6579
  462TMC3    H1 6936   4.122   3.950   0.595 -0.2045  0.5844 -0.0581
  462TMC3    H2 6937   4.306   3.742   0.274 -1.2831  0.0818  0.2916
  462TMC3    C7 6938   4.083   3.797   0.377  0.0407  0.1487  0.6290
  462TMC3    C8 6939   4.539   3.701   0.399  0.3468  0.1628 -0.6377
  462TMC3    O1 6940   4.093   3.711   0.290  0.0104  0.0458  0.3861
  462TMC3    O2 6941   4.647   3.734   0.448 -0.1080 -0.7903  0.4582
  463MPD2     C 6942   0.896   3.240   1.476 -0.6757 -0.1452 -0.8380
  463MPD2    C1 6943   0.765   3.235   1.524  0.4154 -0.0773  0.3161
  463MPD2    C2 6944   0.722   3.340   1.601  0.5279 -0.2707  0.5922
  463MPD2    C3 6945   0.802   3.450   1.632 -0.3842  0.3692  0.8296
  463MPD2    C4 6946   0.937   3.441   1.604 -0.5379 -1.0125  0.4361
  463MPD2    C5 6947   0.985   3.333   1.529 -0.9441 -0.5487  0.0885
  463MPD2     H 6948   0.623   3.336   1.645  2.0154 -3.3666  3.6125
  463MPD2    H1 6949   1.008   3.517   1.634  0.2471 -1.8542  0.7185
  463MPD2    H2 6950   0.932   3.165   1.408 -1.0444 -0.0778 -1.1047
  463MPD2    H3 6951   1.086   3.323   1.490 -0.6861 -2.7960  1.3358
  463MPD2     N 6952   0.758   3.568   1.705 -0.1323 -0.2342  1.2408
  463MPD2    H5 6953   0.825   3.644   1.716  1.6306 -1.5847 -0.0328
  463MPD2    N1 6954   0.672   3.156   1.466 -0.7501  0.5509  0.8703
  463MPD2    H7 6955   0.576   3.169   1.497 -0.9193  1.4754 -0.0372
  464TMC3    C1 6956   0.592   3.002   1.307  0.7869 -0.1159  0.2319
  464TMC3    C2 6957   0.478   3.082   1.294 -0.6978 -0.4706  0.4003
  464TMC3    C3 6958   0.391   3.033   1.204  0.0090  0.2803 -0.2120
  464TMC3    C4 6959   0.620   2.899   1.225  0.4151  0.8217 -0.4536
  464TMC3    C5 6960   0.532   2.856   1.134  0.2585 -0.2009 -0.5974
  464TMC3    C6 6961   0.412   2.915   1.123 -0.2135  0.2487  0.8582
  464TMC3     C 6962   0.701   3.051   1.388  0.3919  0.0872  0.4413
  464TMC3     O 6963   0.803   2.987   1.390  0.2226  0.8842  0.3425
  464TMC3     H 6964   0.461   3.175   1.347  0.6880  1.1490 -2.0579
  464TMC3    H1 6965   0.709   2.839   1.242 -1.4952 -1.9448 -0.3687
  464TMC3    H2 6966   0.336   2.880   1.054 -0.9809 -0.2381  1.9627
  464TMC3    C7 6967   0.564   2.747   1.046 -1.6308 -0.2541 -0.0065
  464TMC3    C8 6968   0.266   3.102   1.185 -0.3322  0.4481 -0.8972
  464TMC3    O1 6969   0.682   2.731   1.019 -0.1455  0.1879 -0.4132
  464TMC3    O2 6970   0.196   3.071   1.087  0.2320  0.1964 -0.5381
  465MPD2     C 6971   1.351   1.227  16.564  0.0365  0.3237  0.1661
  465MPD2    C1 6972   1.224   1.265  16.609  1.2939  0.2923 -0.6429
  465MPD2    C2 6973   1.132   1.317  16.520  0.0903  0.2473  1.0832
  465MPD2    C3 6974   1.160   1.351  16.395  0.0422 -0.0040  0.0436
  465MPD2    C4 6975   1.283   1.320  16.347 -0.1726  0.9109  0.3647
  465MPD2    C5 6976   1.374   1.256  16.429  0.0411  0.0974  0.3056
  465MPD2     H 6977   1.032   1.338  16.557  0.1875  1.1962  0.7976
  465MPD2    H1 6978   1.306   1.327  16.241 -0.3215  0.7644  0.3228
  465MPD2    H2 6979   1.425   1.164  16.612  0.4277  0.2030 -0.5901
  465MPD2    H3 6980   1.472   1.234  16.390  0.2456  2.7318 -0.6664
  465MPD2     N 6981   1.054   1.375  16.304  0.0893 -0.8147  0.0909
  465MPD2    H5 6982   0.961   1.358  16.340 -0.6401  0.1143 -1.3563
  465MPD2    N1 6983   1.181   1.241  16.747  0.9912 -0.6641 -0.2417
  465MPD2    H7 6984   1.088   1.277  16.769  0.6018 -2.1381  0.5136
  466TMC3    C1 6985   0.713   1.517  16.173 -0.3663 -0.0205 -0.3816
  466TMC3    C2 6986   0.707   1.621  16.097 -0.3922 -0.0184  0.3937
  466TMC3    C3 6987   0.829   1.653  16.030 -0.0628  0.1907  0.2881
  466TMC3    C4 6988   0.825   1.442  16.190  0.0798  0.3278  0.4851
  466TMC3    C5 6989   0.942   1.475  16.123 -0.3991  0.7813  0.0566
  466TMC3    C6 6990   0.941   1.589  16.047 -0.2645 -0.0251  0.3219
  466TMC3     C 6991   0.604   1.487  16.261  0.2314  0.3124  0.1937
  466TMC3     O 6992   0.620   1.396  16.338 -0.0557  0.4284  0.2264
  466TMC3     H 6993   0.626   1.691  16.079  1.6609  2.1647 -0.3373
  466TMC3    H1 6994   0.827   1.353  16.252  0.4107 -0.7837 -1.1146
  466TMC3    H2 6995   1.037   1.612  16.002  0.1861 -0.1700  1.2127
  466TMC3    C7 6996   1.069   1.430  16.175 -0.4175 -0.0318 -0.1749
  466TMC3    C8 6997   0.848   1.802  16.021 -0.2192  0.1268 -0.6969
  466TMC3    O1 6998   1.171   1.470  16.121 -0.6384 -0.3917  0.0766
  466TMC3    O2 6999   0.941   1.842  15.953 -0.4172 -0.0526  0.3983
  467TMC3    C1 7000   1.952   4.474  13.829  0.0253  0.4002  0.4916
  467TMC3    C2 7001   1.872   4.551  13.742  0.4031 -1.0914 -0.1974
  467TMC3    C3 7002   1.735   4.570  13.768  0.1288 -0.8604  0.1185
  467TMC3    C4 7003   1.898   4.429  13.944 -0.4988  0.5192 -0.3349
  467TMC3    C5 7004   1.766   4.465  13.973 -0.8930  0.1885  0.0863
  467TMC3    C6 7005   1.681   4.521  13.881 -1.1507 -0.3451  0.5176
  467TMC3     C 7006   2.086   4.534  13.845  0.3501 -0.5989 -0.1138
  467TMC3     O 7007   2.103   4.636  13.783  0.3577 -0.3070  0.0671
  467TMC3     H 7008   1.908   4.587  13.647  0.1405  0.9254  0.4695
  467TMC3    H1 7009   1.954   4.370  14.016  1.3872  1.3612 -1.1004
  467TMC3    H2 7010   1.584   4.555  13.914  0.3399 -1.4070  5.9331
  467TMC3    C7 7011   1.744   4.460  14.117  0.1954  0.0261 -0.3890
  467TMC3    C8 7012   1.704   4.704  13.734 -0.2079  0.1462 -0.1589
  467TMC3    O1 7013   1.845   4.469  14.183  0.4659 -0.0782  0.2468
  467TMC3    O2 7014   1.773   0.058  13.773 -0.1072 -0.3228  0.4280
  468MPD2     C 7015   0.936   3.419  10.882  0.0744 -0.2306 -0.6985
  468MPD2    C1 7016   1.069   3.383  10.885  0.0171 -0.3661  0.1101
  468MPD2    C2 7017   1.097   3.269  10.948 -0.2878  0.0321  0.4764
  468MPD2    C3 7018   1.005   3.195  11.027  0.7753 -0.2718 -0.0720
  468MPD2    C4 7019   0.875   3.242  11.035 -0.8780  0.7281 -0.8741
  468MPD2    C5 7020   0.840   3.349  10.960 -0.0128  0.0695  0.0745
  468MPD2     H 7021   1.200   3.238  10.953 -0.8033 -1.8789 -0.4771
  468MPD2    H1 7022   0.795   3.183  11.077 -0.1178  1.0991  1.1007
  468MPD2    H2 7023   0.905   3.511  10.833 -0.9871 -0.1800  0.0543
  468MPD2    H3 7024   0.740   3.390  10.959 -0.2326 -0.4654 -0.6345
  468MPD2     N 7025   1.043   3.083  11.105  0.5679  0.1641  0.0800
  468MPD2    H5 7026   0.970   3.046  11.166  1.7727  0.7120  1.8467
  468MPD2    N1 7027   1.175   3.455  10.824 -0.7523  0.1169 -0.3720
  468MPD2    H7 7028   1.269   3.420  10.844 -1.3138 -0.0118  1.9381
  469TMC3    C1 7029   1.289   3.615  10.680 -0.8132  0.0234 -0.0332
  469TMC3    C2 7030   1.403   3.623  10.759 -0.7428  0.4960 -0.2776
  469TMC3    C3 7031   1.515   3.688  10.710  0.3780 -0.4540  0.1034
  469TMC3    C4 7032   1.281   3.667  10.550 -0.2558  0.3602  0.1581
  469TMC3    C5 7033   1.398   3.722  10.508 -0.0756 -0.1983  0.7021
  469TMC3    C6 7034   1.512   3.732  10.579  0.2909  0.8471 -0.3440
  469TMC3     C 7035   1.165   3.564  10.742  0.7620  0.5330 -0.4073
  469TMC3     O 7036   1.071   3.624  10.699 -0.2541 -0.0762 -0.5076
  469TMC3     H 7037   1.406   3.581  10.859  0.8795  2.4453  0.4967
  469TMC3    H1 7038   1.187   3.659  10.495 -0.4055  1.4943  0.2381
  469TMC3    H2 7039   1.594   3.787  10.537  0.8141  1.3637  1.3319
  469TMC3    C7 7040   1.409   3.753  10.362  0.4874 -0.2269  0.2531
  469TMC3    C8 7041   1.644   3.644  10.759 -0.5752  0.0040 -0.8072
  469TMC3    O1 7042   1.497   3.831  10.325  0.3676 -0.2530 -0.0700
  469TMC3    O2 7043   1.727   3.614  10.674  0.3745  0.2049 -0.2430
  470TMC3    C1 7044   3.254   3.436   0.661 -0.2287 -0.8276 -0.4194
  470TMC3    C2 7045   3.345   3.509   0.733  0.4300 -0.0283 -0.0736
  470TMC3    C3 7046   3.301   3.632   0.768 -0.2258  0.0424  0.1709
  470TMC3    C4 7047   3.124   3.464   0.648 -0.0055 -0.6619  0.5318
  470TMC3    C5 7048   3.077   3.583   0.707  0.2597 -0.0101 -0.2210
  470TMC3    C6 7049   3.167   3.667   0.766  0.1116  0.0345  0.5761
  470TMC3     C 7050   3.304   3.310   0.601 -0.7628 -0.6008  0.0576
  470TMC3     O 7051   3.425   3.291   0.612  0.4196 -0.0670 -0.3645
  470TMC3     H 7052   3.443   3.468   0.756  0.0566 -0.6719  0.3922
  470TMC3    H1 7053   3.058   3.388   0.608 -0.2935 -0.1372  0.0077
  470TMC3    H2 7054   3.135   3.767   0.793  2.8117  0.4535  2.2355
  470TMC3    C7 7055   2.945   3.610   0.693  0.1245  0.2313  0.2813
  470TMC3    C8 7056   3.390   3.741   0.815 -0.1827 -0.3496  0.2699
  470TMC3    O1 7057   2.881   3.529   0.629 -0.0436  0.3593 -0.2912
  470TMC3    O2 7058   3.354   3.854   0.838  0.6413 -0.7447  0.2659
  471MPD2     C 7059   3.761   0.657  16.878  0.1627  1.1848  0.0557
  471MPD2    C1 7060   3.802   0.541  16.812  0.0925  0.7318  0.7601
  471MPD2    C2 7061   3.923   0.479  16.845 -0.2550  0.6320 -1.3134
  471MPD2    C3 7062   4.017   0.546  16.936  0.1289 -0.5217 -0.3015
  471MPD2    C4 7063   3.972   0.669  16.986  0.0019  0.0238 -0.1521
  471MPD2    C5 7064   3.855   0.724  16.956 -0.1520  0.8230 -0.1151
  471MPD2     H 7065   3.935   0.385  16.793  1.1504 -0.8027  1.6446
  471MPD2    H1 7066   4.038   0.723  17.053  1.8624 -2.6932  0.2051
  471MPD2    H2 7067   3.659   0.694  16.875 -0.7223 -0.9913  3.3082
  471MPD2    H3 7068   3.821   0.809  17.015 -0.8765  0.6456 -0.2733
  471MPD2     N 7069   4.135   0.481  16.984  0.7003 -0.0553 -0.1065
  471MPD2    H5 7070   4.183   0.524  17.062  1.2941 -0.4207 -0.2634
  471MPD2    N1 7071   3.713   0.479  16.727 -0.5085  0.2490 -0.0897
  471MPD2    H7 7072   3.743   0.390  16.687  0.4220  0.6053 -0.1830
  472TMC3    C1 7073   3.527   0.424  16.607 -0.0060  0.7918 -0.0620
  472TMC3    C2 7074   3.424   0.454  16.516 -0.0135  0.3402  1.1912
  472TMC3    C3 7075   3.378   0.348  16.438  0.0399 -0.4504  0.1853
  472TMC3    C4 7076   3.574   0.295  16.627  0.4051  0.8973  0.2568
  472TMC3    C5 7077   3.540   0.196  16.535 -0.4371 -1.0029  0.3400
  472TMC3    C6 7078   3.443   0.223  16.441  0.5274 -0.6463 -0.0577
  472TMC3     C 7079   3.589   0.529  16.683 -0.6681  0.3053 -0.1460
  472TMC3     O 7080   3.548   0.645  16.679  0.2184 -0.2378 -0.3299
  472TMC3     H 7081   3.365   0.544  16.503  0.4684  0.6809  1.3375
  472TMC3    H1 7082   3.625   0.275  16.721  0.6986  1.0219  0.1267
  472TMC3    H2 7083   3.394   0.137  16.397  0.2582 -0.2713 -0.4952
  472TMC3    C7 7084   3.569   0.056  16.571 -0.1944  0.3527  0.5071
  472TMC3    C8 7085   3.267   0.363  16.340  0.4765  0.2268 -0.4613
  472TMC3    O1 7086   3.616   0.034  16.682  0.0645  0.2799 -0.5964
  472TMC3    O2 7087   3.257   0.464  16.270 -0.0489 -0.0841 -0.3170
  473MPD2     C 7088   3.238   2.271  13.671 -0.1173  0.3789  0.2765
  473MPD2    C1 7089   3.280   2.396  13.627 -0.2578  0.2913  0.3288
  473MPD2    C2 7090   3.374   2.467  13.701 -0.0627  0.9096  0.1191
  473MPD2    C3 7091   3.430   2.409  13.819 -0.7644  0.2371  0.1570
  473MPD2    C4 7092   3.379   2.293  13.860 -0.2602 -0.6219 -0.2264
  473MPD2    C5 7093   3.286   2.219  13.790 -0.0526 -0.3992 -0.0771
  473MPD2     H 7094   3.399   2.561  13.654  0.7252  0.1818 -0.9165
  473MPD2    H1 7095   3.411   2.242  13.950 -0.7248  1.8536  1.3471
  473MPD2    H2 7096   3.164   2.212  13.616  0.9845  0.5440 -1.3849
  473MPD2    H3 7097   3.251   2.122  13.823 -2.5018  0.4242 -0.1945
  473MPD2     N 7098   3.525   2.475  13.903  0.0359  0.0397  0.4960
  473MPD2    H5 7099   3.542   2.430  13.992  2.5662  0.3566  0.1820
  473MPD2    N1 7100   3.235   2.451  13.505  0.2172  0.4105  0.0154
  473MPD2    H7 7101   3.284   2.532  13.468  0.3020 -1.1186 -3.2002
  474TMC3    C1 7102   3.661   2.649  13.979 -0.2859 -0.1913 -1.2705
  474TMC3    C2 7103   3.629   2.785  13.994  0.5562  0.0302 -0.0883
  474TMC3    C3 7104   3.693   2.857  14.092  0.9524  0.5008 -0.6442
  474TMC3    C4 7105   3.765   2.589  14.055  0.4499  0.1983  0.3036
  474TMC3    C5 7106   3.826   2.671  14.147 -0.2079  0.5591  0.0162
  474TMC3    C6 7107   3.783   2.801  14.177  0.4289 -0.1536  0.5853
  474TMC3     C 7108   3.600   2.584  13.864  0.0058  0.2976  0.1040
  474TMC3     O 7109   3.602   2.651  13.763 -0.1057 -0.2448  0.1637
  474TMC3     H 7110   3.539   2.833  13.958 -0.6608 -1.3034  1.2352
  474TMC3    H1 7111   3.787   2.484  14.040 -0.9003 -0.4442  2.8808
  474TMC3    H2 7112   3.815   2.873  14.252 -1.9520  1.5745 -0.0642
  474TMC3    C7 7113   3.910   2.601  14.241 -0.2194  0.6062 -0.5782
  474TMC3    C8 7114   3.612   2.963  14.147  0.1618 -0.2373 -0.2195
  474TMC3    O1 7115   3.944   2.487  14.210  0.4318  0.7283 -0.5918
  474TMC3    O2 7116   3.567   2.950  14.258  0.4773 -0.0061  0.5575
  475MPD2     C 7117   1.827   1.300  11.342 -0.1847 -0.1885 -0.1201
  475MPD2    C1 7118   1.766   1.359  11.239 -0.6728 -0.3826  0.3053
  475MPD2    C2 7119   1.631   1.324  11.214  0.6416  1.0291  0.5565
  475MPD2    C3 7120   1.550   1.255  11.294  0.0749  0.5569  0.5019
  475MPD2    C4 7121   1.606   1.200  11.409  0.7911  0.9836 -0.6663
  475MPD2    C5 7122   1.750   1.219  11.425 -0.5023 -0.1104  0.1377
  475MPD2     H 7123   1.596   1.359  11.117 -0.8007  1.3362  1.2017
  475MPD2    H1 7124   1.554   1.141  11.483  1.4795  1.7239  0.4133
  475MPD2    H2 7125   1.934   1.314  11.353 -0.3351  0.5630  0.4185
  475MPD2    H3 7126   1.800   1.173  11.509 -2.0818 -1.1963  0.4933
  475MPD2     N 7127   1.414   1.249  11.257  0.2851 -0.0753 -0.5662
  475MPD2    H5 7128   1.389   1.292  11.168  1.6390  1.2909 -0.2640
  475MPD2    N1 7129   1.839   1.443  11.160  0.7051 -1.1804 -0.0400
  475MPD2    H7 7130   1.922   1.481  11.206  0.9918 -0.3652 -1.2287
  476TMC3    C1 7131   1.905   1.578  10.968  0.1495  0.1510  0.1738
  476TMC3    C2 7132   1.922   1.557  10.834 -0.1504  0.3010  0.3355
  476TMC3    C3 7133   2.036   1.594  10.767  0.2283 -1.1204  0.1174
  476TMC3    C4 7134   2.009   1.644  11.033  0.4948  0.2583  0.0492
  476TMC3    C5 7135   2.125   1.676  10.961 -0.1219 -0.3868  0.2919
  476TMC3    C6 7136   2.139   1.653  10.828  0.4551  0.0078  0.3280
  476TMC3     C 7137   1.811   1.482  11.031  0.1069 -1.2889  1.2102
  476TMC3     O 7138   1.725   1.435  10.955  0.0757  0.3157  0.5132
  476TMC3     H 7139   1.832   1.533  10.779 -0.9434  2.3242  0.7774
  476TMC3    H1 7140   2.007   1.633  11.141 -1.5455 -0.5619 -0.0630
  476TMC3    H2 7141   2.230   1.671  10.771 -0.3895  1.7311 -0.4810
  476TMC3    C7 7142   2.242   1.728  11.035 -0.9879 -1.4846 -0.2177
  476TMC3    C8 7143   2.038   1.579  10.622 -0.9087 -0.6838  0.8129
  476TMC3    O1 7144   2.349   1.711  10.981 -0.7946  0.4593  0.0075
  476TMC3    O2 7145   2.109   1.660  10.562 -0.5941 -0.3403 -0.3978
  477MPD2     C 7146   4.709   2.708  11.996 -0.2024  0.3258  0.0023
  477MPD2    C1 7147   4.714   2.589  11.927  0.1443  0.3532 -0.1275
  477MPD2    C2 7148   4.734   2.475  11.999  0.1016 -0.2233  0.3330
  477MPD2    C3 7149   4.738   2.470  12.139 -0.1534 -0.0588  0.4932
  477MPD2    C4 7150   4.727   2.591  12.211  0.0779 -0.3039 -0.4447
  477MPD2    C5 7151   4.723   2.708  12.135  0.6245  0.3585  0.0407
  477MPD2     H 7152   4.737   2.384  11.941 -2.0888  0.0851 -0.2798
  477MPD2    H1 7153   4.733   2.594  12.319  1.4225 -1.2766 -0.4894
  477MPD2    H2 7154   4.698   2.798  11.936  1.8962  0.2354 -0.5109
  477MPD2    H3 7155   4.713   2.804  12.183 -1.1195 -0.2065  0.8085
  477MPD2     N 7156   4.724   2.344  12.195  0.4428  0.0186  0.3267
  477MPD2    H5 7157   0.005   2.270  12.128 -2.1815 -2.0519  1.8969
  477MPD2    N1 7158   4.683   2.598  11.788  0.0275  0.4784 -0.2523
  477MPD2    H7 7159   4.658   2.688  11.749 -0.8948  1.8482  3.4906
  478TMC3    C1 7160   4.630   2.525  11.569  0.0096 -0.4895 -0.4964
  478TMC3    C2 7161   4.660   2.657  11.527 -0.3296  0.0186  0.1501
  478TMC3    C3 7162   4.619   2.687  11.404  0.1277  0.4580 -0.3763
  478TMC3    C4 7163   4.567   2.437  11.495 -0.3864 -0.7346 -0.0804
  478TMC3    C5 7164   4.535   2.474  11.366  0.4338 -0.2966  0.2533
  478TMC3    C6 7165   4.547   2.603  11.318  0.9276 -0.7412 -0.4234
  478TMC3     C 7166   4.674   2.489  11.703  0.1809 -0.0876  0.0082
  478TMC3     O 7167   4.666   2.375  11.734  0.0831 -0.2774 -0.1289
  478TMC3     H 7168   4.727   2.721  11.583  1.5461  1.9959 -4.3303
  478TMC3    H1 7169   4.553   2.336  11.531  0.4079 -1.2485 -1.2209
  478TMC3    H2 7170   4.515   2.640  11.221 -1.0998  0.7477  0.8207
  478TMC3    C7 7171   4.452   2.368  11.303 -0.2129  0.3699 -0.3908
  478TMC3    C8 7172   4.678   2.800  11.349  0.4463 -0.6238  0.3658
  478TMC3    O1 7173   4.438   2.256  11.348  0.2075  0.0736  0.1611
  478TMC3    O2 7174   0.058   2.810  11.333  0.8445 -0.0845 -1.0466
  479MPD2     C 7175   2.830   3.703  15.142  0.0398 -0.5174  0.0050
  479MPD2    C1 7176   2.772   3.700  15.263 -0.2803 -0.7189  0.0459
  479MPD2    C2 7177   2.831   3.748  15.372 -0.5144 -0.1784  0.3052
  479MPD2    C3 7178   2.939   3.837  15.354  0.4376 -0.4835  0.0753
  479MPD2    C4 7179   2.991   3.851  15.226  0.4976  0.5322 -0.1737
  479MPD2    C5 7180   2.940   3.782  15.125  0.0153  0.6963 -0.4048
  479MPD2     H 7181   2.786   3.726  15.468 -3.0481  2.1977 -0.3381
  479MPD2    H1 7182   3.080   3.913  15.218  1.0372 -0.4566 -1.9091
  479MPD2    H2 7183   2.793   3.656  15.052  1.1235 -0.0964 -0.6565
  479MPD2    H3 7184   2.986   3.781  15.027 -0.1983 -0.8819 -0.4803
  479MPD2     N 7185   2.998   3.910  15.460 -0.0675 -0.7076  0.1956
  479MPD2    H5 7186   3.086   3.956  15.443  0.5174 -1.3660  1.4279
  479MPD2    N1 7187   2.648   3.625  15.269  0.5078 -0.2359 -0.2288
  479MPD2    H7 7188   2.599   3.606  15.183 -0.2382  0.3458  0.0688
  480TMC3    C1 7189   3.101   4.044  15.887  0.1177  0.1332  0.4380
  480TMC3    C2 7190   3.158   4.161  15.851  0.2408 -0.0367  0.8365
  480TMC3    C3 7191   3.161   4.187  15.715  0.8704 -0.7657 -0.5343
  480TMC3    C4 7192   3.028   3.965  15.808 -0.1260  0.6543 -0.2660
  480TMC3    C5 7193   3.036   3.993  15.674 -0.1890  0.4749 -0.3256
  480TMC3    C6 7194   3.106   4.105  15.631 -0.2081  0.1556  0.0566
  480TMC3     C 7195   3.138   3.998  16.022  0.2019  0.2361  0.2989
  480TMC3     O 7196   3.159   4.083  16.106 -0.7219 -0.0493 -0.1168
  480TMC3     H 7197   3.199   4.229  15.925 -0.2843  0.8737  0.2899
  480TMC3    H1 7198   2.977   3.876  15.843 -0.1797  0.7881 -0.0032
  480TMC3    H2 7199   3.061   4.143  15.540 -0.5751 -0.3881  0.0111
  480TMC3    C7 7200   2.944   3.927  15.583  0.3645 -0.1698 -0.0786
  480TMC3    C8 7201   3.239   4.299  15.664  0.0281  0.3149  0.5592
  480TMC3    O1 7202   2.831   3.910  15.620  0.1115 -0.4022  0.0973
  480TMC3    O2 7203   3.295   4.384  15.727 -0.1400 -0.2406 -0.1603
  481MPD2     C 7204   0.036   4.200  13.969  0.0932 -1.3563 -0.0721
  481MPD2    C1 7205   0.038   4.064  13.985 -0.4193  0.5091 -0.0114
  481MPD2    C2 7206   0.052   4.015  14.116  0.4958  0.2226 -0.3852
  481MPD2    C3 7207   0.070   4.108  14.225 -0.1523 -0.0222 -0.2646
  481MPD2    C4 7208   0.082   4.241  14.198 -0.2416  0.4454  0.7349
  481MPD2    C5 7209   0.054   4.286  14.073 -0.1614  0.5688 -0.3805
  481MPD2     H 7210   0.039   3.908  14.127 -0.8373  0.4264  0.0179
  481MPD2    H1 7211   0.107   4.312  14.275  1.3841 -0.8424  1.3743
  481MPD2    H2 7212   0.015   4.245  13.872  0.5488  0.2366  0.5591
  481MPD2    H3 7213   0.069   4.390  14.046 -2.4081  1.0552  0.2736
  481MPD2     N 7214   0.077   4.072  14.363  0.7335 -0.2414  0.3457
  481MPD2    H5 7215   0.102   4.139  14.435 -1.8266  1.4137 -0.3098
  481MPD2    N1 7216   0.014   3.985  13.870  0.5247 -0.2315  0.1767
  481MPD2    H7 7217   4.721   4.043  13.794  0.0029 -0.0335  0.5380
  482TMC3    C1 7218   4.736   3.807  13.721  0.0032  0.1099  0.2890
  482TMC3    C2 7219   4.684   3.681  13.710  0.1051  0.5111  0.6353
  482TMC3    C3 7220   4.683   3.625  13.588  0.2795  0.2412 -0.4415
  482TMC3    C4 7221   0.043   3.877  13.611 -0.6430 -0.2270  0.6398
  482TMC3    C5 7222   0.032   3.819  13.488  0.8212  0.0139 -0.3853
  482TMC3    C6 7223   4.721   3.692  13.471 -0.3326  0.2847  0.2285
  482TMC3     C 7224   4.733   3.855  13.860  0.2818  0.5948 -0.1162
  482TMC3     O 7225   4.725   3.772  13.946 -0.4438  0.4035  0.2047
  482TMC3     H 7226   4.651   3.629  13.800  1.6143 -0.9937  0.3269
  482TMC3    H1 7227   0.066   3.983  13.610  0.2251 -0.3882  2.6132
  482TMC3    H2 7228   4.722   3.647  13.372  0.1523 -3.4617  1.9160
  482TMC3    C7 7229   0.061   3.899  13.372  0.6051 -0.1843 -0.3037
  482TMC3    C8 7230   4.620   3.503  13.560  0.6451 -1.1463 -0.5120
  482TMC3    O1 7231   0.144   3.988  13.367  0.0550  0.7581  0.1927
  482TMC3    O2 7232   4.662   3.441  13.462  0.0946 -0.4515  0.3070
  483TMC3    C1 7233   3.408   3.584   1.279 -0.0053  0.1456  0.4232
  483TMC3    C2 7234   3.491   3.601   1.173 -0.3909 -0.3960  0.1998
  483TMC3    C3 7235   3.605   3.520   1.168 -0.6153  0.7473 -0.4599
  483TMC3    C4 7236   3.453   3.517   1.390  0.4547  0.7257 -0.1001
  483TMC3    C5 7237   3.582   3.460   1.388  0.0364 -0.6030  0.3628
  483TMC3    C6 7238   3.661   3.467   1.279 -0.1502  1.0816 -0.0188
  483TMC3     C 7239   3.274   3.553   1.246  0.1527 -0.5092 -0.4527
  483TMC3     O 7240   3.192   3.551   1.337 -0.5883 -0.5790 -0.5117
  483TMC3     H 7241   3.458   3.656   1.086  1.3277 -0.4956 -0.5159
  483TMC3    H1 7242   3.391   3.495   1.476 -0.9768 -2.4394 -1.8934
  483TMC3    H2 7243   3.760   3.424   1.290 -0.0664  1.8326  2.0717
  483TMC3    C7 7244   3.600   3.328   1.453  0.5972 -0.1867  0.2797
  483TMC3    C8 7245   3.601   3.428   1.053  0.1652 -0.1901 -0.6210
  483TMC3    O1 7246   3.683   3.255   1.406  0.6483  0.6855 -0.7564
  483TMC3    O2 7247   3.532   3.458   0.956  0.5330 -0.4027  0.1812
  484MPD2     C 7248   0.198   0.972  12.412  0.2392 -0.0547  0.0585
  484MPD2    C1 7249   0.272   0.938  12.519  0.2350  0.0032 -0.1263
  484MPD2    C2 7250   0.404   0.989  12.529  0.2202  0.4394  0.6981
  484MPD2    C3 7251   0.447   1.077  12.431  0.0662  0.0432  0.1679
  484MPD2    C4 7252   0.365   1.117  12.331 -0.4703  0.1809 -0.9869
  484MPD2    C5 7253   0.245   1.063  12.321 -0.0929  0.8661 -0.0191
  484MPD2     H 7254   0.476   0.953  12.603 -0.7059  0.6376  1.6967
  484MPD2    H1 7255   0.396   1.183  12.251  2.2024  1.4178  1.0502
  484MPD2    H2 7256   0.097   0.936  12.397 -0.3126  2.4771 -2.3095
  484MPD2    H3 7257   0.186   1.098  12.237 -0.5635  0.5558  0.1845
  484MPD2     N 7258   0.580   1.135  12.434  0.0110  0.2084 -0.0864
  484MPD2    H5 7259   0.600   1.205  12.364  0.1357  1.0481  0.7897
  484MPD2    N1 7260   0.209   0.853  12.613  0.2672  0.4174 -0.5366
  484MPD2    H7 7261   0.111   0.832  12.593 -0.1867  2.4968 -0.4839
  485TMC3    C1 7262   0.791   1.191  12.496 -0.2661  0.0667  0.0667
  485TMC3    C2 7263   0.888   1.203  12.594 -0.2417 -0.1582  0.7950
  485TMC3    C3 7264   0.999   1.276  12.564  0.2413 -0.7894  0.5376
  485TMC3    C4 7265   0.814   1.251  12.377 -0.2854 -0.5001  0.4972
  485TMC3    C5 7266   0.918   1.333  12.353  0.0740  0.5392  0.4245
  485TMC3    C6 7267   1.015   1.346  12.455 -0.2710  0.4028  0.3446
  485TMC3     C 7268   0.668   1.131  12.537 -0.0396  0.2299 -0.4130
  485TMC3     O 7269   0.660   1.079  12.649 -0.4400  0.5975  0.4100
  485TMC3     H 7270   0.863   1.157  12.689 -0.6287  0.0404  0.7863
  485TMC3    H1 7271   0.752   1.230  12.291  1.4568  1.3487 -1.2056
  485TMC3    H2 7272   1.102   1.405  12.430 -0.5425 -0.3412 -2.3756
  485TMC3    C7 7273   0.988   1.294  12.232  0.4599 -0.0869  0.7228
  485TMC3    C8 7274   1.128   1.223  12.600 -0.6849  0.5583  0.2050
  485TMC3    O1 7275   1.007   1.173  12.227  0.7014  0.4445  0.2205
  485TMC3    O2 7276   1.228   1.289  12.575  0.1066 -0.6171 -0.0377
  486MPD2     C 7277   2.684   4.443  12.418  0.2268  0.4046 -0.0245
  486MPD2    C1 7278   2.636   4.462  12.545  0.3541 -0.2925  0.5796
  486MPD2    C2 7279   2.575   4.582  12.582  0.3551 -0.6377  0.3615
  486MPD2    C3 7280   2.558   4.682  12.489 -0.3140 -0.0840  0.4918
  486MPD2    C4 7281   2.596   4.664  12.358 -0.2208  0.4251  0.3165
  486MPD2    C5 7282   2.659   4.546  12.329 -0.0536 -1.4036  0.2590
  486MPD2     H 7283   2.551   4.594  12.687 -3.3351  3.0714 -0.9005
  486MPD2    H1 7284   2.579   4.731  12.274  0.0148  2.3096  1.7637
  486MPD2    H2 7285   2.737   4.353  12.388 -0.6591 -0.5659  1.3180
  486MPD2    H3 7286   2.697   4.534  12.228 -0.1541  0.7605 -0.0377
  486MPD2     N 7287   2.497   0.072  12.528  0.0171  0.5539 -0.3638
  486MPD2    H5 7288   2.499   0.144  12.457  1.4621  1.5183  0.6567
  486MPD2    N1 7289   2.663   4.360  12.638 -0.2656  0.1673 -0.2939
  486MPD2    H7 7290   2.725   4.290  12.600  1.0070  0.2497  1.6526
  487TMC3    C1 7291   2.684   4.237  12.826 -0.6572 -0.1023  0.3637
  487TMC3    C2 7292   2.634   4.124  12.764  0.0632 -1.0308  0.3189
  487TMC3    C3 7293   2.628   4.004  12.830  0.5679  0.1400 -0.6471
  487TMC3    C4 7294   2.722   4.225  12.952  0.3153 -0.7509  0.4522
  487TMC3    C5 7295   2.724   4.104  13.018  0.4404 -0.7166  0.8180
  487TMC3    C6 7296   2.666   3.993  12.965  0.5869  0.4574 -0.2873
  487TMC3     C 7297   2.644   4.366  12.771  0.2215  0.6166  0.2175
  487TMC3     O 7298   2.629   4.459  12.851 -0.7141 -0.2786  0.0389
  487TMC3     H 7299   2.579   4.134  12.670  1.7216 -0.2650 -0.5825
  487TMC3    H1 7300   2.768   4.316  12.992  2.1016 -1.6711  0.5026
  487TMC3    H2 7301   2.660   3.895  13.012  0.7841  1.9377  2.8758
  487TMC3    C7 7302   2.761   4.104  13.158 -0.1686 -0.3363 -0.6648
  487TMC3    C8 7303   2.513   3.916  12.797 -0.1347 -0.1779  0.0650
  487TMC3    O1 7304   2.782   3.995  13.210 -0.6604  0.0559 -0.2284
  487TMC3    O2 7305   2.475   3.902  12.679 -0.2003 -0.1472 -0.0367
  488MPD2     C 7306   2.865   1.525  16.275 -0.7110  0.3645 -0.0483
  488MPD2    C1 7307   2.914   1.653  16.304  0.4248  0.6696  0.1862
  488MPD2    C2 7308   2.911   1.696  16.432 -0.1568 -0.0875  0.5578
  488MPD2    C3 7309   2.838   1.629  16.528  0.3120 -0.5679  0.0452
  488MPD2    C4 7310   2.774   1.510  16.491 -0.7020  0.3729  0.2716
  488MPD2    C5 7311   2.791   1.458  16.367 -0.5364  0.3842  0.6608
  488MPD2     H 7312   2.958   1.792  16.451  0.2381 -0.4337  1.3074
  488MPD2    H1 7313   2.712   1.452  16.558 -0.5228 -1.1064 -0.8311
  488MPD2    H2 7314   2.874   1.478  16.178  0.6646 -0.1692  0.3331
  488MPD2    H3 7315   2.755   1.364  16.325  0.4794  0.0646  0.5078
  488MPD2     N 7316   2.834   1.684  16.658 -0.0409  0.8612  0.3178
  488MPD2    H5 7317   2.877   1.773  16.681 -1.7855  1.8222 -0.1794
  488MPD2    N1 7318   2.987   1.728  16.216 -0.0709  0.2921  0.3105
  488MPD2    H7 7319   3.008   1.825  16.237  1.5283  0.1959 -0.8079
  489TMC3    C1 7320   2.782   1.710  16.871  0.3223 -0.3798 -0.0891
  489TMC3    C2 7321   2.881   1.804  16.860  0.6124  0.6625  0.1801
  489TMC3    C3 7322   2.858   1.929  16.908  0.3813 -0.0751  0.3401
  489TMC3    C4 7323   2.661   1.729  16.926 -0.1605  0.3465  0.2158
  489TMC3    C5 7324   2.643   1.857  16.976  0.3366 -0.0943 -0.6263
  489TMC3    C6 7325   2.736   1.960  16.961 -0.2066  0.3817 -0.2252
  489TMC3     C 7326   2.777   1.623  16.762 -0.0186 -0.7593  0.6891
  489TMC3     O 7327   2.695   1.534  16.773  0.0528  0.3070  0.1250
  489TMC3     H 7328   2.977   1.777  16.817  0.1191 -1.8939  0.7010
  489TMC3    H1 7329   2.583   1.655  16.938  0.9177 -1.2459 -2.6295
  489TMC3    H2 7330   2.723   2.049  17.022 -0.7578  0.2690 -0.1867
  489TMC3    C7 7331   2.517   1.900  17.017  0.1229 -0.2692 -0.3108
  489TMC3    C8 7332   2.961   2.024  16.913  0.0558 -0.0201 -0.4995
  489TMC3    O1 7333   2.497   2.024  17.013 -0.4150  0.2327 -0.3928
  489TMC3    O2 7334   3.072   1.979  16.883  0.0056 -0.2487  0.3065
  490MPD2     C 7335   3.742   0.801  17.302  0.1357 -0.6940 -0.3916
  490MPD2    C1 7336   3.736   0.664  17.338 -0.1305  0.6829  0.4632
  490MPD2    C2 7337   3.787   0.626  17.461 -0.3558  0.4417 -0.4557
  490MPD2    C3 7338   3.846   0.722  17.545 -0.1519  0.9875 -0.5667
  490MPD2    C4 7339   3.839   0.851  17.507 -0.1958 -0.7061 -0.4854
  490MPD2    C5 7340   3.794   0.896  17.380 -0.0202 -0.8290 -0.2436
  490MPD2     H 7341   3.782   0.519  17.478  1.8534  0.1161 -1.7989
  490MPD2    H1 7342   3.902   0.912  17.570 -2.5035  0.6667  0.4756
  490MPD2    H2 7343   3.705   0.840  17.208  1.8432 -1.1029 -1.2450
  490MPD2    H3 7344   3.784   1.001  17.354 -3.0506 -0.8756  0.7197
  490MPD2     N 7345   3.913   0.691  17.668 -0.8687  0.9093 -0.7222
  490MPD2    H5 7346   3.979   0.762  17.700 -0.0291  0.0445 -0.5308
  490MPD2    N1 7347   3.675   0.561  17.265  0.3592  0.1454 -0.0065
  490MPD2    H7 7348   3.705   0.467  17.287 -0.0114 -0.1516 -0.7619
  491TMC3    C1 7349   3.549   0.458  17.106  0.0017 -0.5758 -0.4569
  491TMC3    C2 7350   3.589   0.337  17.164 -0.6462  0.1847  0.6632
  491TMC3    C3 7351   3.532   0.223  17.109  0.2001 -0.4112 -0.0346
  491TMC3    C4 7352   3.454   0.464  17.000 -0.2919  0.5606 -0.7454
  491TMC3    C5 7353   3.402   0.344  16.957 -0.5566 -0.1580 -0.3340
  491TMC3    C6 7354   3.439   0.224  17.004 -0.5225 -0.4350 -0.1061
  491TMC3     C 7355   3.585   0.583  17.161  0.6478  0.1151  0.7529
  491TMC3     O 7356   3.539   0.688  17.124  0.0666  0.7121  0.3871
  491TMC3     H 7357   3.653   0.316  17.248 -0.4233 -2.2665 -0.1227
  491TMC3    H1 7358   3.412   0.559  16.970  1.6266  1.9064  0.8998
  491TMC3    H2 7359   3.404   0.131  16.961 -0.3960  0.0783 -1.3180
  491TMC3    C7 7360   3.286   0.337  16.873 -0.2184  0.5553  0.3403
  491TMC3    C8 7361   3.499   0.129  17.207 -0.2729  0.6157  0.0152
  491TMC3    O1 7362   3.236   0.232  16.833  0.0082  0.2594  0.0802
  491TMC3    O2 7363   3.489   0.171  17.321  0.6801 -0.5750  0.1855
  492MPD2     C 7364   3.137   0.580  10.561  0.2914 -0.2685  0.3904
  492MPD2    C1 7365   3.247   0.633  10.619  0.3223 -0.3692  0.3840
  492MPD2    C2 7366   3.277   0.591  10.743 -0.7274  0.1346 -0.1133
  492MPD2    C3 7367   3.205   0.495  10.807 -0.4193  0.1790  0.1887
  492MPD2    C4 7368   3.109   0.435  10.738  0.5353 -0.5615  0.1049
  492MPD2    C5 7369   3.069   0.488  10.623 -0.1771  0.6244  0.0214
  492MPD2     H 7370   3.365   0.633  10.790 -2.3639  0.6204  2.5063
  492MPD2    H1 7371   3.040   0.359  10.773  2.5540 -1.6417  1.6812
  492MPD2    H2 7372   3.101   0.607  10.462 -0.8948  2.8749  1.6540
  492MPD2    H3 7373   2.986   0.437  10.576  0.4722 -0.3158 -0.1117
  492MPD2     N 7374   3.238   0.439  10.934  0.3380  0.1989  0.3591
  492MPD2    H5 7375   3.190   0.358  10.972  0.6563 -0.2417 -0.1798
  492MPD2    N1 7376   3.313   0.738  10.546  0.4570  0.0991  0.1353
  492MPD2    H7 7377   3.283   0.750  10.450 -0.1079 -1.3026  0.1374
  493TMC3    C1 7378   3.481   0.910  10.504 -0.5914 -0.1666 -0.0608
  493TMC3    C2 7379   3.604   0.962  10.527  0.2266 -0.2981 -0.5384
  493TMC3    C3 7380   3.628   1.084  10.466 -0.2094  0.2237  0.3895
  493TMC3    C4 7381   3.391   0.963  10.416 -0.4736  0.6789 -0.4781
  493TMC3    C5 7382   3.429   1.068  10.335  0.3054 -0.5610  0.5164
  493TMC3    C6 7383   3.539   1.139  10.375 -0.3506  0.1734  0.0626
  493TMC3     C 7384   3.431   0.797  10.593  0.3415  0.0168 -0.5591
  493TMC3     O 7385   3.504   0.778  10.687  0.1919  0.5720  0.2640
  493TMC3     H 7386   3.667   0.913  10.601 -0.7946 -0.4486  0.2328
  493TMC3    H1 7387   3.294   0.917  10.409 -0.6019  0.9631 -0.5727
  493TMC3    H2 7388   3.552   1.235  10.328  0.4992  0.5799  1.1352
  493TMC3    C7 7389   3.328   1.121  10.252 -0.3646 -0.0857 -0.4100
  493TMC3    C8 7390   3.724   1.160  10.535 -0.2069 -0.4739 -0.6263
  493TMC3    O1 7391   3.343   1.241  10.227 -0.2763 -0.2093  0.5877
  493TMC3    O2 7392   3.760   1.109  10.641 -0.5389 -0.1876  0.1158
  494TMC3    C1 7393   4.297   2.629   0.289 -0.3217  0.1632 -0.6226
  494TMC3    C2 7394   4.339   2.503   0.317  0.2385  1.1331 -0.0620
  494TMC3    C3 7395   4.324   2.410   0.219  0.7367  0.3843  0.4963
  494TMC3    C4 7396   4.239   2.675   0.173 -0.1556  0.8506  0.4920
  494TMC3    C5 7397   4.231   2.579   0.074  0.4744 -0.4498 -0.1208
  494TMC3    C6 7398   4.264   2.447   0.096 -0.4624 -0.2712  0.2707
  494TMC3     C 7399   4.331   2.747   0.374 -0.6354  0.0707  0.1537
  494TMC3     O 7400   4.241   2.833   0.385 -1.1041  0.1040  0.1881
  494TMC3     H 7401   4.397   2.480   0.406  0.5351 -1.4393 -0.9144
  494TMC3    H1 7402   4.222   2.782   0.163  2.4968  1.2487  0.2480
  494TMC3    H2 7403   4.248   2.376   0.016 -1.9398 -0.2854  0.5775
  494TMC3    C7 7404   4.208   2.628  17.692  0.3070 -0.3679  0.1043
  494TMC3    C8 7405   4.416   2.294   0.229  0.2818 -0.1090 -0.6869
  494TMC3    O1 7406   4.259   2.555  17.605  0.0977  0.6863 -0.2410
  494TMC3    O2 7407   4.498   2.292   0.325 -0.0516  0.3433  0.3140
  495TMC3    C1 7408   3.201   4.062  14.734  0.3598  0.9199  0.0095
  495TMC3    C2 7409   3.209   4.155  14.636  0.0310  0.9141  0.8538
  495TMC3    C3 7410   3.214   4.284  14.674 -0.1157  1.1816  0.3049
  495TMC3    C4 7411   3.192   4.101  14.867  0.4098 -0.3358  0.1654
  495TMC3    C5 7412   3.217   4.228  14.902  0.0836 -0.1524  0.0471
  495TMC3    C6 7413   3.234   4.315  14.806  0.3861  0.2056  0.2197
  495TMC3     C 7414   3.158   3.921  14.714  0.1225 -0.3150  0.4773
  495TMC3     O 7415   3.081   3.865  14.792 -0.3454 -0.6216  0.5975
  495TMC3     H 7416   3.195   4.125  14.533 -1.8837  0.9496  1.0958
  495TMC3    H1 7417   3.202   4.029  14.948 -0.4204  1.3526  1.7520
  495TMC3    H2 7418   3.236   4.422  14.826  0.2686  0.6621 -2.1824
  495TMC3    C7 7419   3.196   4.265  15.040  0.1574  0.5653 -0.3683
  495TMC3    C8 7420   3.125   4.387  14.609 -0.3276 -0.8670  0.0277
  495TMC3    O1 7421   3.123   4.188  15.101 -0.3851  0.5936  0.0114
  495TMC3    O2 7422   3.073   4.479  14.679  0.2266  0.6124 -0.7987
  496MPD2     C 7423   0.059   4.665  14.977  0.5685  1.0819  0.0125
  496MPD2    C1 7424   0.086   4.661  15.110  0.0493 -0.5418  0.7548
  496MPD2    C2 7425   0.039   4.554  15.185  0.0529  0.5720 -0.4164
  496MPD2    C3 7426   4.709   4.444  15.130 -0.2335 -0.3026  0.1535
  496MPD2    C4 7427   4.682   4.454  14.995  0.5230 -0.6415  0.4305
  496MPD2    C5 7428   4.725   4.563  14.926 -0.3828 -0.4683  0.5886
  496MPD2     H 7429   0.061   4.552  15.291  1.7943 -1.8280 -0.8210
  496MPD2    H1 7430   4.621   4.385  14.937 -0.3247  0.7768 -0.3509
  496MPD2    H2 7431   0.098   4.733  14.902 -0.1896 -0.8407 -2.1363
  496MPD2    H3 7432   4.686   4.571  14.825  0.6941 -0.6044  0.1659
  496MPD2     N 7433   4.668   4.325  15.199  0.0216 -0.2134  0.0806
  496MPD2    H5 7434   4.605   4.267  15.145  1.1757  0.2453 -1.7673
  496MPD2    N1 7435   0.160   0.027  15.168  0.6387  0.2113  1.0643
  496MPD2    H7 7436   0.184   0.096  15.098  1.6987 -1.0402  0.1983
  497TMC3    C1 7437   4.641   4.191  15.385 -0.2619  0.8479 -0.1331
  497TMC3    C2 7438   4.522   4.157  15.335 -0.5144 -0.0231  0.2348
  497TMC3    C3 7439   4.427   4.121  15.423  0.2448  0.2433  0.1470
  497TMC3    C4 7440   4.678   4.177  15.518 -0.0275 -0.3717 -0.3134
  497TMC3    C5 7441   4.574   4.149  15.602  0.7243  0.2726 -0.0649
  497TMC3    C6 7442   4.448   4.135  15.558 -0.1847 -0.8495  0.4300
  497TMC3     C 7443   4.726   4.281  15.314 -0.1932 -0.2111  0.1265
  497TMC3     O 7444   0.067   4.335  15.383 -0.7430 -0.2652  0.4025
  497TMC3     H 7445   4.493   4.160  15.231 -0.0817 -0.1741  0.1084
  497TMC3    H1 7446   0.044   4.174  15.548 -0.7164 -0.0106  2.1509
  497TMC3    H2 7447   4.369   4.113  15.629 -0.6408  1.4177  0.6416
  497TMC3    C7 7448   4.592   4.113  15.732  0.4724 -0.2033  0.4363
  497TMC3    C8 7449   4.290   4.150  15.363 -0.0056 -0.2338 -0.4073
  497TMC3    O1 7450   4.519   4.025  15.776 -0.1000 -0.1470  0.5684
  497TMC3    O2 7451   4.255   4.082  15.269  0.4344  0.1415  0.7299
  498MPD2     C 7452   1.523   1.275  10.021 -0.7962  0.2338 -0.4677
  498MPD2    C1 7453   1.498   1.330  10.150 -0.6273  0.8641  0.4236
  498MPD2    C2 7454   1.427   1.258  10.247  0.1897 -0.6160  0.7152
  498MPD2    C3 7455   1.377   1.133  10.216 -0.2347  0.1262 -0.2279
  498MPD2    C4 7456   1.400   1.071  10.094 -0.6708  0.1771 -0.6737
  498MPD2    C5 7457   1.485   1.143   9.999  0.6929 -0.3117  0.4446
  498MPD2     H 7458   1.402   1.304  10.342 -1.6236  0.1554 -0.1291
  498MPD2    H1 7459   1.369   0.970  10.068 -0.4833 -0.2648  0.8670
  498MPD2    H2 7460   1.578   1.330   9.945  2.7008 -0.7539  1.3215
  498MPD2    H3 7461   1.502   1.098   9.901  1.6805  0.7244  0.1479
  498MPD2     N 7462   1.317   1.066  10.323 -0.7070 -0.0921 -0.2085
  498MPD2    H5 7463   1.287   1.111  10.409  2.0002 -1.5827  1.5039
  498MPD2    N1 7464   1.543   1.461  10.186  0.2021 -0.4408  0.4331
  498MPD2    H7 7465   1.535   1.492  10.283  0.2046 -0.2550  0.3733
  499TMC3    C1 7466   1.658   1.665  10.170 -0.1982  0.2618 -0.3444
  499TMC3    C2 7467   1.684   1.677  10.304 -0.4404  0.5287 -0.3774
  499TMC3    C3 7468   1.766   1.779  10.350  0.4960  0.7738  0.9111
  499TMC3    C4 7469   1.716   1.750  10.081 -0.5749 -0.1911 -0.0607
  499TMC3    C5 7470   1.794   1.857  10.132 -0.1844 -0.0551  0.5503
  499TMC3    C6 7471   1.822   1.866  10.267  0.5926  0.6623 -0.0691
  499TMC3     C 7472   1.615   1.544  10.104  0.4773  0.0739 -0.6380
  499TMC3     O 7473   1.650   1.528   9.985  0.5693 -0.7537  0.3886
  499TMC3     H 7474   1.634   1.604  10.366  0.8257  0.0681  0.1041
  499TMC3    H1 7475   1.692   1.747   9.975  1.1242 -0.0687 -0.4460
  499TMC3    H2 7476   1.890   1.942  10.304 -0.2019  2.0444 -1.4187
  499TMC3    C7 7477   1.848   1.955  10.040  0.0710 -0.2064  0.0201
  499TMC3    C8 7478   1.759   1.818  10.490 -0.3595  0.4684 -1.0449
  499TMC3    O1 7479   1.900   2.056  10.078 -0.4516 -0.0740 -0.5143
  499TMC3    O2 7480   1.847   1.890  10.536  0.1989 -0.4615  0.0797
  500MPD2     C 7481   2.951   1.647  11.269  0.7080 -0.4748  0.1027
  500MPD2    C1 7482   3.008   1.751  11.201  0.0449  0.1029 -0.1756
  500MPD2    C2 7483   2.943   1.781  11.088 -0.6055  0.2016  0.1945
  500MPD2    C3 7484   2.848   1.698  11.032 -0.1097 -0.4702 -0.4935
  500MPD2    C4 7485   2.801   1.590  11.101 -0.9559 -0.1962  0.3021
  500MPD2    C5 7486   2.855   1.566  11.222 -0.0711  0.7860  0.2702
  500MPD2     H 7487   2.970   1.876  11.042 -2.8843  1.1644  0.8472
  500MPD2    H1 7488   2.718   1.540  11.053 -2.5776  0.6326  2.2818
  500MPD2    H2 7489   2.986   1.611  11.365  0.9376 -1.4393 -0.3422
  500MPD2    H3 7490   2.816   1.481  11.276 -2.7540  1.6056 -0.3878
  500MPD2     N 7491   2.788   1.724  10.914 -0.4900  0.2444 -0.3293
  500MPD2    H5 7492   2.714   1.661  10.887 -1.2981  0.3318  1.6920
  500MPD2    N1 7493   3.124   1.823  11.238 -0.0454 -0.1426  0.6562
  500MPD2    H7 7494   3.151   1.897  11.174  0.2819 -0.2693  0.6429
  501TMC3    C1 7495   3.299   1.905  11.373 -0.9015 -0.2218 -0.2877
  501TMC3    C2 7496   3.304   2.013  11.288  0.1253 -0.9939 -0.1714
  501TMC3    C3 7497   3.404   2.107  11.312 -1.1023 -1.1471 -0.6127
  501TMC3    C4 7498   3.371   1.890  11.486  0.2163  0.1827 -0.1317
  501TMC3    C5 7499   3.468   1.981  11.502 -0.2425  0.6439 -0.8041
  501TMC3    C6 7500   3.488   2.092  11.425  0.0528  0.6003  0.0884
  501TMC3     C 7501   3.195   1.800  11.345  0.0195 -0.1911  0.0211
  501TMC3     O 7502   3.189   1.704  11.420  0.5388  0.1143  0.3609
  501TMC3     H 7503   3.248   2.029  11.197  0.0792 -0.3707 -0.0396
  501TMC3    H1 7504   3.366   1.801  11.547  2.9405  1.4985  1.9478
  501TMC3    H2 7505   3.576   2.155  11.434  1.9023 -1.7152 -1.7865
  501TMC3    C7 7506   3.588   1.943  11.578  0.0057 -0.2868  0.4238
  501TMC3    C8 7507   3.409   2.226  11.239  0.6275  0.6867 -0.2197
  501TMC3    O1 7508   3.692   1.966  11.516  0.5940  0.2127  0.8960
  501TMC3    O2 7509   3.496   2.302  11.280  0.4608 -0.7339 -0.2819
  502TMC3    C1 7510   2.306   0.194  14.491  0.1322 -0.3322  0.1326
  502TMC3    C2 7511   2.346   0.316  14.436  0.0586  0.0185 -0.1279
  502TMC3    C3 7512   2.296   0.430  14.499 -0.9904  0.1614 -0.1954
  502TMC3    C4 7513   2.200   0.193  14.582  0.1090 -0.6508  0.3212
  502TMC3    C5 7514   2.157   0.310  14.644 -0.3857  0.5127  0.1805
  502TMC3    C6 7515   2.201   0.429  14.594 -0.0935 -0.3142 -0.3914
  502TMC3     C 7516   2.416   0.121  14.542 -0.7474 -0.1745  0.2634
  502TMC3     O 7517   2.512   0.106  14.464  0.4792 -0.7672 -0.5487
  502TMC3     H 7518   2.430   0.330  14.370  1.1618 -2.0084  0.8550
  502TMC3    H1 7519   2.170   0.095  14.617 -0.7429 -0.4234  0.2163
  502TMC3    H2 7520   2.170   0.521  14.643 -0.0256 -0.1079 -0.7369
  502TMC3    C7 7521   2.133   0.299  14.788  1.2612 -0.8377  0.8026
  502TMC3    C8 7522   2.394   0.532  14.519  0.9075 -0.5041 -0.1401
  502TMC3    O1 7523   2.172   0.198  14.843  0.1779 -0.5326  0.3145
  502TMC3    O2 7524   2.360   0.647  14.542  0.0648 -0.4165 -0.5141
  503MPD2     C 7525   4.641   1.100  16.963  0.0358 -0.2354  0.5269
  503MPD2    C1 7526   4.718   1.159  17.060 -0.1067 -0.2874  0.4329
  503MPD2    C2 7527   0.059   1.074  17.133  0.0670 -0.0306  0.1342
  503MPD2    C3 7528   0.069   0.935  17.116 -0.1686  0.9492  0.2513
  503MPD2    C4 7529   4.732   0.883  17.015 -0.5485 -0.0683  0.2225
  503MPD2    C5 7530   4.659   0.967  16.934  0.8284 -0.1847  0.3934
  503MPD2     H 7531   0.126   1.129  17.198  0.8270  1.3082 -1.7834
  503MPD2    H1 7532   4.731   0.776  16.999 -0.2838  0.3259 -2.3980
  503MPD2    H2 7533   4.569   1.157  16.905 -1.0635 -1.8414  0.2912
  503MPD2    H3 7534   4.597   0.929  16.853  1.7328 -1.4559  0.3018
  503MPD2     N 7535   0.156   0.861  17.200  0.2057  0.4822 -0.0041
  503MPD2    H5 7536   0.197   0.921  17.271 -0.7294 -1.3058  2.0538
  503MPD2    N1 7537   4.699   1.298  17.087 -0.3213  0.2066 -0.1195
  503MPD2    H7 7538   4.737   1.336  17.173 -0.5307 -0.9001  0.4575
  504TMC3    C1 7539   0.321   0.702  17.272 -0.3617  0.6516 -0.8854
  504TMC3    C2 7540   0.311   0.734  17.407  0.3182 -0.1795  1.0301
  504TMC3    C3 7541   0.425   0.761  17.480  0.0271 -0.6770  0.5679
  504TMC3    C4 7542   0.444   0.711  17.212  0.5144 -0.0234 -0.4762
  504TMC3    C5 7543   0.555   0.746  17.283  0.8493 -1.1532 -0.4635
  504TMC3    C6 7544   0.551   0.776  17.419  0.2178  0.2342 -0.2145
  504TMC3     C 7545   0.207   0.731  17.183 -0.4639  0.1649  0.0904
  504TMC3     O 7546   0.200   0.660  17.082  0.1890 -0.4531 -0.0745
  504TMC3     H 7547   0.217   0.700  17.450  0.1435 -1.5022 -0.4019
  504TMC3    H1 7548   0.449   0.695  17.104 -0.1108  0.5243 -0.5822
  504TMC3    H2 7549   0.634   0.811  17.478 -0.4864  0.4412  0.6507
  504TMC3    C7 7550   0.680   0.763  17.200 -0.9101  0.0712 -0.4550
  504TMC3    C8 7551   0.413   0.768  17.620 -0.1306  0.9667  0.6528
  504TMC3    O1 7552   0.681   0.701  17.093  0.3333  0.2319 -0.2625
  504TMC3    O2 7553   0.301   0.780  17.671  0.2187 -0.4468  0.0295
  505MPD2     C 7554   0.611   0.133  11.622 -0.5655  0.2204  0.2059
  505MPD2    C1 7555   0.681   0.161  11.508 -0.0427  0.0581  0.1006
  505MPD2    C2 7556   0.756   0.276  11.502 -0.0344  0.0695  0.5350
  505MPD2    C3 7557   0.768   0.348  11.618  0.5248 -0.0121  0.4396
  505MPD2    C4 7558   0.709   0.316  11.733 -0.5494 -0.0728 -0.1163
  505MPD2    C5 7559   0.627   0.210  11.737  0.3056  0.1607 -0.3041
  505MPD2     H 7560   0.828   0.283  11.422 -2.0963 -0.4900 -1.3699
  505MPD2    H1 7561   0.721   0.384  11.816 -0.0509 -2.1306  1.4907
  505MPD2    H2 7562   0.552   0.046  11.646 -0.0127 -0.4165 -0.7873
  505MPD2    H3 7563   0.580   0.191  11.833 -0.2845 -0.6426 -0.7602
  505MPD2     N 7564   0.865   0.454  11.626  0.1077  0.5766  0.6484
  505MPD2    H5 7565   0.875   0.496  11.717  2.2719  0.5772  0.4264
  505MPD2    N1 7566   0.687   0.074  11.397  0.5461  0.3561  0.0729
  505MPD2    H7 7567   0.674   4.715  11.420  1.7872 -0.0605 -0.9793
  506TMC3    C1 7568   0.746   4.733  11.176  1.1256 -0.5514 -0.8563
  506TMC3    C2 7569   0.731   0.027  11.043 -0.3030  0.0116 -0.6340
  506TMC3    C3 7570   0.821   4.706  10.958 -0.0008  0.2032 -0.1846
  506TMC3    C4 7571   0.839   4.647  11.219  0.1202  0.5195  0.5311
  506TMC3    C5 7572   0.937   4.607  11.133  0.8864 -0.6209 -0.2785
  506TMC3    C6 7573   0.922   4.626  11.001  0.2458  0.6427 -0.0665
  506TMC3     C 7574   0.727   0.107  11.267 -0.4673  0.2224 -0.5190
  506TMC3     O 7575   0.747   0.217  11.214  0.6691  0.6996  0.1419
  506TMC3     H 7576   0.662   0.105  11.012 -1.3959 -0.8809 -0.3933
  506TMC3    H1 7577   0.852   4.647  11.327 -1.2447 -0.4864  0.7039
  506TMC3    H2 7578   0.977   4.562  10.934  1.5986  1.5572  0.1892
  506TMC3    C7 7579   1.058   4.663  11.180  0.3023  0.5367 -0.1955
  506TMC3    C8 7580   0.802   4.736  10.816  0.4995 -0.4014 -0.3978
  506TMC3    O1 7581   1.077   4.663  11.299 -0.3772 -0.1845  0.4345
  506TMC3    O2 7582   0.812   4.642  10.742  0.4641 -0.2341 -0.3471
  507TMC3    C1 7583   1.243   0.858  14.712  0.6891 -1.2739 -0.5324
  507TMC3    C2 7584   1.282   0.728  14.683 -0.0906 -0.6976  0.1785
  507TMC3    C3 7585   1.262   0.690  14.553  0.1439  0.2889 -0.4949
  507TMC3    C4 7586   1.207   0.954  14.614  0.1165 -0.7368 -0.4562
  507TMC3    C5 7587   1.214   0.913  14.485 -0.7901  0.6414  0.8862
  507TMC3    C6 7588   1.250   0.782  14.449  0.1732 -0.1247 -1.1756
  507TMC3     C 7589   1.155   0.873  14.827 -0.5395 -0.4591 -0.4302
  507TMC3     O 7590   1.149   0.988  14.868 -0.0957 -0.4993  0.7379
  507TMC3     H 7591   1.286   0.657  14.764 -2.1243 -0.0617  0.8464
  507TMC3    H1 7592   1.157   1.048  14.638  1.4106  0.2404 -1.5830
  507TMC3    H2 7593   1.237   0.747  14.347  0.0177 -0.9192 -0.8885
  507TMC3    C7 7594   1.107   0.969  14.403  0.7070  0.4495  0.2679
  507TMC3    C8 7595   1.156   0.590  14.554 -0.0345  0.2302 -0.4500
  507TMC3    O1 7596   1.065   0.880  14.331 -0.0104 -0.3066  0.3168
  507TMC3    O2 7597   1.155   0.515  14.650 -0.3587  0.1111 -0.2102
  508MPD2     C 7598   1.750   2.960  16.031 -0.0499  0.6796  0.1987
  508MPD2    C1 7599   1.830   3.067  16.087 -0.6675 -0.1879 -0.9165
  508MPD2    C2 7600   1.836   3.180  16.000  0.2164  0.3732 -0.1517
  508MPD2    C3 7601   1.780   3.189  15.872  0.5231  0.3948  0.3060
  508MPD2    C4 7602   1.723   3.074  15.819 -0.3821  0.3506 -0.5299
  508MPD2    C5 7603   1.705   2.966  15.896 -0.0230 -0.4065  0.1054
  508MPD2     H 7604   1.897   3.261  16.040  0.8095  0.3958 -1.1060
  508MPD2    H1 7605   1.690   3.077  15.716 -0.0768 -3.6888 -0.7376
  508MPD2    H2 7606   1.737   2.872  16.092 -0.8672  0.0021 -0.9598
  508MPD2    H3 7607   1.652   2.884  15.848 -0.5968 -0.2085  0.4037
  508MPD2     N 7608   1.798   3.308  15.797  0.5860  0.0941  0.2143
  508MPD2    H5 7609   1.861   3.371  15.844  1.2237 -0.2366 -0.1978
  508MPD2    N1 7610   1.891   3.057  16.214  0.1366 -0.1607 -0.5042
  508MPD2    H7 7611   1.897   2.966  16.258  3.0928 -0.1519 -0.9343
  509TMC3    C1 7612   1.740   3.627  15.458  0.4921  0.3479  0.3983
  509TMC3    C2 7613   1.861   3.672  15.472  0.9168  0.2061  0.0945
  509TMC3    C3 7614   1.948   3.604  15.548  0.0171 -0.0432 -0.1699
  509TMC3    C4 7615   1.698   3.518  15.522  0.1993 -0.3542 -0.0778
  509TMC3    C5 7616   1.788   3.453  15.602  0.0461 -0.0805  0.7414
  509TMC3    C6 7617   1.916   3.492  15.618 -1.4012  0.0261  0.2827
  509TMC3     C 7618   1.650   3.704  15.381 -0.1408 -0.0820  0.4963
  509TMC3     O 7619   1.542   3.656  15.362 -0.1601 -0.5264  0.5003
  509TMC3     H 7620   1.897   3.746  15.402  0.3682 -0.1244 -0.5323
  509TMC3    H1 7621   1.597   3.481  15.510  0.2136 -0.0198 -1.2736
  509TMC3    H2 7622   1.990   3.437  15.675  1.2266  0.9151 -2.2585
  509TMC3    C7 7623   1.727   3.341  15.678 -0.4741  0.1860 -0.0002
  509TMC3    C8 7624   2.084   3.653  15.567 -0.2379  0.8125 -0.2162
  509TMC3    O1 7625   1.634   3.282  15.620  0.0226  0.4044 -0.3398
  509TMC3    O2 7626   2.156   3.568  15.615  0.1766 -0.5358  0.4079
  510MPD2     C 7627   4.449   0.408  14.627 -0.0338 -0.2178 -0.1701
  510MPD2    C1 7628   4.469   0.285  14.697 -0.0676 -0.6878  0.2953
  510MPD2    C2 7629   4.590   0.225  14.664  0.5440  0.1989  0.0422
  510MPD2    C3 7630   4.674   0.263  14.558  0.4810  0.6454  0.0823
  510MPD2    C4 7631   4.639   0.374  14.488 -0.3682  0.3552  0.1029
  510MPD2    C5 7632   4.527   0.440  14.521 -0.9790 -0.2648  1.1577
  510MPD2     H 7633   4.619   0.137  14.720 -2.9130 -0.6235  0.5091
  510MPD2    H1 7634   4.696   0.412  14.405  0.3631 -1.0461 -0.0410
  510MPD2    H2 7635   4.362   0.473  14.642 -0.9224 -0.8842 -2.4143
  510MPD2    H3 7636   4.483   0.507  14.448 -2.3915  1.5762  3.7079
  510MPD2     N 7637   0.057   0.195  14.541 -0.4069  0.0908 -0.0197
  510MPD2    H5 7638   0.086   0.118  14.600  0.7775 -0.0717 -0.7985
  510MPD2    N1 7639   4.372   0.240  14.794  0.0941  0.3372  0.4411
  510MPD2    H7 7640   4.295   0.305  14.808 -0.8320 -0.9659  1.3626
  511TMC3    C1 7641   4.241   0.085  14.910 -0.0553 -0.2893  0.4327
  511TMC3    C2 7642   4.186   0.158  15.017 -0.0976 -0.2428 -0.2024
  511TMC3    C3 7643   4.082   0.109  15.088  0.0045  0.3620  0.3358
  511TMC3    C4 7644   4.186   4.705  14.870  0.2945  0.4266  0.1446
  511TMC3    C5 7645   4.073   4.663  14.936 -0.3891  0.2308  0.0011
  511TMC3    C6 7646   4.023   4.730  15.049 -0.3496  0.4744  0.8253
  511TMC3     C 7647   4.370   0.116  14.845  1.0680  0.4206 -0.2789
  511TMC3     O 7648   4.435   0.015  14.821  0.3724  0.5055 -0.5542
  511TMC3     H 7649   4.225   0.257  15.037 -1.0940  0.2207 -0.5436
  511TMC3    H1 7650   4.211   4.663  14.774 -0.4978  0.2840 -0.0036
  511TMC3    H2 7651   3.925   4.687  15.069 -0.6340  1.0708  0.7319
  511TMC3    C7 7652   4.032   4.527  14.917 -0.1892 -0.6370  1.0415
  511TMC3    C8 7653   4.029   0.179  15.204  0.3409  0.2337 -0.0688
  511TMC3    O1 7654   3.914   4.505  14.926 -0.7129 -0.0342 -0.2144
  511TMC3    O2 7655   4.095   0.273  15.236 -0.4227  0.6282 -0.2510
  512TMC3    C1 7656   3.085   4.501  13.411 -0.2607 -0.6588 -0.4045
  512TMC3    C2 7657   3.211   4.486  13.462  0.5151 -0.2424 -0.3925
  512TMC3    C3 7658   3.291   4.386  13.422  0.1767  0.9573 -0.0838
  512TMC3    C4 7659   3.034   4.411  13.324  0.5424 -0.5574 -0.1068
  512TMC3    C5 7660   3.116   4.310  13.280  0.5389 -0.3609 -0.4813
  512TMC3    C6 7661   3.246   4.294  13.328  0.6503  0.5285 -1.1034
  512TMC3     C 7662   3.008   4.607  13.466  0.2501 -0.8251  0.2095
  512TMC3     O 7663   3.037   4.654  13.577 -0.7091 -0.4048  0.0924
  512TMC3     H 7664   3.254   4.565  13.521 -1.5434 -0.1300  0.9762
  512TMC3    H1 7665   2.929   4.402  13.298  0.8166 -0.7062 -1.1940
  512TMC3    H2 7666   3.309   4.221  13.278  0.6622  0.0870 -0.4473
  512TMC3    C7 7667   3.079   4.265  13.145 -0.9460 -0.0115 -0.0842
  512TMC3    C8 7668   3.415   4.352  13.488 -0.5402 -0.4702  0.5488
  512TMC3    O1 7669   2.997   4.334  13.089 -0.0378  0.2807  0.3434
  512TMC3    O2 7670   3.461   4.235  13.497  0.2933  0.2825  0.2051
  513MPD2     C 7671   0.491   4.393  13.645 -0.4947 -0.0179  0.1389
  513MPD2    C1 7672   0.515   4.266  13.592 -0.0041 -0.7430 -0.4465
  513MPD2    C2 7673   0.624   4.203  13.647  0.3625 -0.3654  0.2485
  513MPD2    C3 7674   0.705   4.260  13.741  0.2931 -0.2490 -0.1262
  513MPD2    C4 7675   0.680   4.381  13.796  0.0635 -0.2411 -0.6394
  513MPD2    C5 7676   0.568   4.442  13.742  0.2965 -0.4631  0.3101
  513MPD2     H 7677   0.663   4.106  13.618  1.7655  0.4245 -0.4922
  513MPD2    H1 7678   0.753   4.428  13.861 -1.9065 -0.1607  1.5416
  513MPD2    H2 7679   0.416   4.455  13.597  0.1863  0.9735  0.3321
  513MPD2    H3 7680   0.553   4.540  13.786 -1.7414 -0.2989 -0.7708
  513MPD2     N 7681   0.830   4.194  13.766  0.0776 -0.3399  0.3410
  513MPD2    H5 7682   0.849   4.109  13.714  1.2347 -0.4956  1.0137
  513MPD2    N1 7683   0.431   4.222  13.483 -0.4693 -0.4651 -0.0280
  513MPD2    H7 7684   0.363   4.284  13.440  1.7104  1.5347 -0.6024
  514TMC3    C1 7685   0.420   4.103  13.283  0.1139  0.2461 -0.0042
  514TMC3    C2 7686   0.403   4.224  13.219  0.3562 -0.0989 -0.0345
  514TMC3    C3 7687   0.431   4.216  13.088  0.4582 -0.0599 -0.2556
  514TMC3    C4 7688   0.463   3.984  13.231  0.0906  0.1521 -0.1446
  514TMC3    C5 7689   0.489   3.986  13.098 -1.0099  0.0674 -0.2577
  514TMC3    C6 7690   0.469   4.099  13.029 -1.0427  0.9013  0.6421
  514TMC3     C 7691   0.449   4.101  13.433  0.3556  0.4251 -0.4261
  514TMC3     O 7692   0.509   4.007  13.479 -0.2924  0.5485 -0.5688
  514TMC3     H 7693   0.392   4.323  13.262  1.0770  1.3286 -3.0613
  514TMC3    H1 7694   0.457   3.889  13.281 -1.2527 -0.8024 -2.1103
  514TMC3    H2 7695   0.485   4.095  12.922 -1.2678 -1.4279  0.6865
  514TMC3    C7 7696   0.615   3.923  13.071  0.4185 -0.0333 -0.1013
  514TMC3    C8 7697   0.406   4.337  13.009  0.3633 -0.1437  0.4692
  514TMC3    O1 7698   0.663   3.914  12.957 -0.5100  0.2405  0.0487
  514TMC3    O2 7699   0.300   4.387  13.042 -0.2229  0.1275  0.4491
  515MPD2     C 7700   3.536   1.445  14.208  0.0958 -0.1402 -0.0240
  515MPD2    C1 7701   3.525   1.361  14.318  0.5450 -0.2226 -0.3069
  515MPD2    C2 7702   3.607   1.386  14.433  0.1178  0.7078 -0.6490
  515MPD2    C3 7703   3.690   1.499  14.425  0.1956  0.2929 -0.7747
  515MPD2    C4 7704   3.691   1.583  14.313  0.1606  0.4370  0.5780
  515MPD2    C5 7705   3.613   1.550  14.208 -0.1015 -0.3254  0.3482
  515MPD2     H 7706   3.611   1.315  14.515 -0.9953 -1.0089 -2.0610
  515MPD2    H1 7707   3.747   1.675  14.304 -0.5712  1.1510  3.4454
  515MPD2    H2 7708   3.487   1.427  14.113  0.5363 -0.3869 -0.2060
  515MPD2    H3 7709   3.615   1.610  14.118  1.3161  1.1292  1.3632
  515MPD2     N 7710   3.770   1.536  14.533  0.0280  0.1568  0.9452
  515MPD2    H5 7711   3.821   1.623  14.526  0.9934 -0.4476  0.6209
  515MPD2    N1 7712   3.445   1.244  14.304 -0.0238  0.3359  0.5214
  515MPD2    H7 7713   3.403   1.232  14.213 -0.7712  0.5533  0.8336
  516TMC3    C1 7714   3.318   1.066  14.383 -0.1701 -0.0935  0.3209
  516TMC3    C2 7715   3.214   1.109  14.309  0.2604 -0.4829  0.6140
  516TMC3    C3 7716   3.097   1.033  14.305 -0.9766  0.3953 -0.1953
  516TMC3    C4 7717   3.313   0.939  14.442  0.1803 -0.1278 -0.5079
  516TMC3    C5 7718   3.205   0.855  14.426  0.2181 -0.2152 -0.3088
  516TMC3    C6 7719   3.090   0.905  14.367  0.6696 -0.0865 -0.1759
  516TMC3     C 7720   3.439   1.142  14.396 -0.4723 -0.8342  0.1034
  516TMC3     O 7721   3.508   1.101  14.487 -0.1657  0.0479  0.2473
  516TMC3     H 7722   3.207   1.216  14.292 -0.4982 -0.7541 -0.7552
  516TMC3    H1 7723   3.405   0.902  14.486  0.0926 -0.8318 -0.9109
  516TMC3    H2 7724   2.990   0.864  14.375  0.4307  0.3293 -0.9718
  516TMC3    C7 7725   3.217   0.727  14.483 -0.7112 -0.0312 -0.8767
  516TMC3    C8 7726   2.972   1.097  14.269 -0.1980  0.2151 -0.3057
  516TMC3    O1 7727   3.292   0.708  14.578  0.2812 -0.1058  0.2471
  516TMC3    O2 7728   2.864   1.050  14.296  0.2193  0.2250  0.1814
  517MPD2     C 7729   3.230   2.900  17.433 -0.5135  0.4187  0.7913
  517MPD2    C1 7730   3.335   2.834  17.498  0.4292 -0.4551 -0.6315
  517MPD2    C2 7731   3.398   2.904  17.597  0.0854  0.1172 -0.9110
  517MPD2    C3 7732   3.346   3.017  17.656 -0.0301 -0.4687 -0.4676
  517MPD2    C4 7733   3.232   3.067  17.597 -0.5921 -0.3735 -0.0597
  517MPD2    C5 7734   3.179   3.015  17.485  0.2052  1.0368 -0.4152
  517MPD2     H 7735   3.481   2.856  17.647 -2.7150 -2.9797  0.7700
  517MPD2    H1 7736   3.186   3.158  17.634  0.8960  1.5336 -2.9009
  517MPD2    H2 7737   3.188   2.854  17.344  1.4955  0.0908 -0.0044
  517MPD2    H3 7738   3.099   3.064  17.432 -1.7526 -2.4775 -0.7400
  517MPD2     N 7739   3.401   3.087   0.009 -0.5575 -0.0341 -0.1839
  517MPD2    H5 7740   3.352   3.173   0.032  0.1052  0.4124 -0.4447
  517MPD2    N1 7741   3.398   2.713  17.470 -0.0087 -0.5082  0.2753
  517MPD2    H7 7742   3.469   2.685  17.536 -0.5956 -1.1330  0.6484
  518TMC3    C1 7743   3.456   2.507  17.375  0.1595  0.1600 -0.4218
  518TMC3    C2 7744   3.409   2.385  17.335  0.0014  0.0809  0.0584
  518TMC3    C3 7745   3.479   2.268  17.358 -0.4467 -0.4907  0.2229
  518TMC3    C4 7746   3.568   2.523  17.456  0.2398 -0.2356 -0.0864
  518TMC3    C5 7747   3.646   2.408  17.462  0.3529  0.2695 -0.0883
  518TMC3    C6 7748   3.600   2.281  17.419 -0.0164 -0.4805 -1.0516
  518TMC3     C 7749   3.366   2.625  17.374  0.6417  0.2932  0.0246
  518TMC3     O 7750   3.265   2.618  17.306 -0.0066  0.4034  0.5299
  518TMC3     H 7751   3.324   2.385  17.268  0.5143 -1.0449 -0.5861
  518TMC3    H1 7752   3.604   2.619  17.493 -1.1063  0.5365 -0.7674
  518TMC3    H2 7753   3.657   2.198  17.459  0.1137 -0.3989 -1.0689
  518TMC3    C7 7754   3.762   2.416  17.547 -0.2782 -0.2576 -0.2824
  518TMC3    C8 7755   3.434   2.134  17.329  0.3687  0.3608  0.2427
  518TMC3    O1 7756   3.758   2.514  17.620  0.2305  0.3177  0.0005
  518TMC3    O2 7757   3.511   2.040  17.353 -0.2321 -0.5095  0.2926
  519MPD2     C 7758   4.585   0.839  14.459  0.2923  0.0720 -0.3960
  519MPD2    C1 7759   4.519   0.781  14.349  0.3495  0.0402 -0.4942
  519MPD2    C2 7760   4.580   0.700  14.258  0.1314  0.1782 -0.3729
  519MPD2    C3 7761   4.711   0.662  14.279 -0.1509 -0.2118 -0.1674
  519MPD2    C4 7762   0.026   0.703  14.399  0.8583 -0.1973 -0.4253
  519MPD2    C5 7763   4.715   0.800  14.474  0.7520 -0.2598  0.2695
  519MPD2     H 7764   4.522   0.666  14.173  1.6152  1.1594 -1.7674
  519MPD2    H1 7765   0.125   0.677  14.436  0.5760 -0.9007 -0.1672
  519MPD2    H2 7766   4.551   0.918  14.525 -2.6485  0.1693 -2.0221
  519MPD2    H3 7767   0.038   0.831  14.558 -0.1519 -1.1228  1.2500
  519MPD2     N 7768   0.057   0.590  14.191  0.3050 -0.2554 -0.4175
  519MPD2    H5 7769   0.148   0.568  14.229  0.2757  0.6135  0.1521
  519MPD2    N1 7770   4.390   0.827  14.328 -0.3574  0.5197 -0.4102
  519MPD2    H7 7771   4.356   0.899  14.390 -0.8282 -1.0176  1.1187
  520TMC3    C1 7772   0.125   0.505  13.986 -0.0332 -0.1884  0.3397
  520TMC3    C2 7773   0.111   0.549  13.863 -0.1795 -0.5916 -0.2180
  520TMC3    C3 7774   0.226   0.599  13.798  0.0305 -0.7296  0.5742
  520TMC3    C4 7775   0.252   0.483  14.045 -0.4517  0.6840 -0.2949
  520TMC3    C5 7776   0.363   0.511  13.971  1.1064  0.6756 -0.1602
  520TMC3    C6 7777   0.350   0.577  13.854  0.3739 -0.7415  0.8170
  520TMC3     C 7778   0.018   0.543  14.066  0.0326  0.2348  0.1384
  520TMC3     O 7779   4.646   0.562  14.016 -0.5984  0.0489 -0.1521
  520TMC3     H 7780   0.017   0.587  13.825 -0.5167  1.2859  2.5211
  520TMC3    H1 7781   0.261   0.450  14.148 -1.3953  0.4760 -0.2786
  520TMC3    H2 7782   0.436   0.608  13.796  0.2596 -1.8273  0.0589
  520TMC3    C7 7783   0.487   0.471  14.035  0.8261 -0.3201 -0.2673
  520TMC3    C8 7784   0.217   0.686  13.677 -0.7205  0.2818 -0.7409
  520TMC3    O1 7785   0.480   0.395  14.130  0.6101  0.1203  0.0550
  520TMC3    O2 7786   0.318   0.734  13.627  0.4263 -0.0873 -0.0782
  521MPD2     C 7787   0.768   3.605  17.529  0.5784 -0.5701  0.3757
  521MPD2    C1 7788   0.742   3.592  17.391  0.5739 -0.2616  0.5639
  521MPD2    C2 7789   0.847   3.609  17.303  0.7700 -0.2380 -0.4724
  521MPD2    C3 7790   0.975   3.622  17.352  0.2672 -0.3616 -0.0005
  521MPD2    C4 7791   1.001   3.609  17.482  0.2859  0.4330  0.2178
  521MPD2    C5 7792   0.897   3.612  17.568  0.0445  0.9366 -0.6743
  521MPD2     H 7793   0.830   3.618  17.197  0.3093 -1.5856 -0.5161
  521MPD2    H1 7794   1.099   3.623  17.525  0.1122 -0.4843  0.9173
  521MPD2    H2 7795   0.691   3.594  17.605 -0.5384  1.6721 -0.4346
  521MPD2    H3 7796   0.911   3.624  17.674 -1.8635 -0.9751 -0.1912
  521MPD2     N 7797   1.082   3.650  17.262 -0.2789  0.0685  0.0496
  521MPD2    H5 7798   1.057   3.684  17.169 -0.7924 -1.9803 -0.5674
  521MPD2    N1 7799   0.600   3.570  17.365 -0.3512  0.5235  0.1886
  521MPD2    H7 7800   0.538   3.568  17.445 -1.8732 -1.1079 -1.0373
  522TMC3    C1 7801   1.293   3.660  17.164  0.0541 -0.0426  0.3269
  522TMC3    C2 7802   1.423   3.616  17.174 -0.2595 -0.5526  0.0493
  522TMC3    C3 7803   1.506   3.642  17.067 -0.3062  0.0769 -0.4289
  522TMC3    C4 7804   1.250   3.737  17.058  0.6770 -0.4413 -0.0205
  522TMC3    C5 7805   1.338   3.762  16.957  0.2313  0.3147  0.0111
  522TMC3    C6 7806   1.467   3.720  16.963 -0.0831  0.2351  0.5192
  522TMC3     C 7807   1.210   3.615  17.278  0.5174  0.4757  0.0494
  522TMC3     O 7808   1.261   3.544  17.362  0.1750  0.3143 -0.3743
  522TMC3     H 7809   1.454   3.575  17.270 -0.8496  0.6085  0.7376
  522TMC3    H1 7810   1.151   3.781  17.062  1.4365  1.0386  1.8514
  522TMC3    H2 7811   1.542   3.732  16.885  1.3972 -0.6684  1.8232
  522TMC3    C7 7812   1.309   3.860  16.851 -0.0866 -0.9709 -0.0443
  522TMC3    C8 7813   1.637   3.598  17.086  0.0411  0.3707  0.2326
  522TMC3    O1 7814   1.407   3.908  16.793 -0.1968 -0.1217  0.4675
  522TMC3    O2 7815   1.664   3.562  17.202  0.4680 -0.4380  0.4092
  523MPD2     C 7816   4.092   4.451  10.464 -0.2777 -0.4876  0.4726
  523MPD2    C1 7817   3.989   4.362  10.444 -0.4174 -0.3080  0.5425
  523MPD2    C2 7818   3.885   4.404  10.356 -0.1515 -0.5939 -0.1444
  523MPD2    C3 7819   3.889   4.530  10.295 -0.0348 -0.8379  0.2359
  523MPD2    C4 7820   3.992   4.615  10.318 -0.0107 -0.6266  0.0048
  523MPD2    C5 7821   4.089   4.577  10.400  0.2893 -0.5231  0.2958
  523MPD2     H 7822   3.804   4.338  10.327  0.0350 -0.9386  0.1084
  523MPD2    H1 7823   3.990   4.712  10.270 -1.5566 -0.2837  0.7509
  523MPD2    H2 7824   4.178   4.426  10.525  0.2023 -0.7067 -0.2807
  523MPD2    H3 7825   4.170   4.648  10.414 -0.9191  0.8733  0.2630
  523MPD2     N 7826   3.789   4.575  10.207  0.1090 -0.0458  0.3229
  523MPD2    H5 7827   3.797   4.658  10.149  0.2464 -0.1354  0.2128
  523MPD2    N1 7828   3.988   4.234  10.514 -0.2014  0.4202  0.0169
  523MPD2    H7 7829   4.061   4.224  10.584 -1.1401 -2.8892  0.5443
  524TMC3    C1 7830   3.586   4.587  10.084 -0.0763  0.0815  0.1428
  524TMC3    C2 7831   3.644   4.607   9.964 -0.7717  0.0921 -0.7781
  524TMC3    C3 7832   3.552   4.637   9.863  0.2310  0.3489 -0.0809
  524TMC3    C4 7833   3.453   4.603  10.110 -0.7691 -0.2017 -0.0788
  524TMC3    C5 7834   3.369   4.628  10.001 -0.7312 -0.2167 -0.2824
  524TMC3    C6 7835   3.417   4.641   9.880 -0.0483 -0.2102 -0.3296
  524TMC3     C 7836   3.665   4.522  10.189  0.6659  0.2431 -0.1298
  524TMC3     O 7837   3.607   4.452  10.276 -0.2390  0.1769  0.4094
  524TMC3     H 7838   3.747   4.592   9.932 -0.8375 -1.9558 -0.0569
  524TMC3    H1 7839   3.416   4.580  10.210  1.9950  0.6841  1.1525
  524TMC3    H2 7840   3.349   4.670   9.801  0.9382  0.8126 -0.7964
  524TMC3    C7 7841   3.226   4.662  10.037  0.4863  1.0378 -0.3066
  524TMC3    C8 7842   3.591   4.607   9.729 -0.5040 -0.2541  0.4399
  524TMC3    O1 7843   3.212   4.706  10.153  0.5544 -0.4381  0.2164
  524TMC3    O2 7844   3.500   4.583   9.649 -0.2811  0.2536  0.3388
  525MPD2     C 7845   1.490   0.311  14.814  0.1011 -0.1582  1.1869
  525MPD2    C1 7846   1.617   0.328  14.850 -0.4987  0.9185 -0.0552
  525MPD2    C2 7847   1.694   0.409  14.766  0.1314  0.0405 -0.2750
  525MPD2    C3 7848   1.650   0.473  14.650 -0.2640 -0.4795  0.0055
  525MPD2    C4 7849   1.522   0.442  14.616  0.3734  0.0620 -0.3045
  525MPD2    C5 7850   1.444   0.365  14.698  0.3194 -0.7512  0.1395
  525MPD2     H 7851   1.798   0.433  14.788 -0.4690  2.2769  0.1919
  525MPD2    H1 7852   1.484   0.482  14.522 -2.2230 -0.4431  0.5179
  525MPD2    H2 7853   1.426   0.237  14.861 -1.5535  0.3132 -0.3433
  525MPD2    H3 7854   1.352   0.335  14.649  0.0687 -0.2882  0.3271
  525MPD2     N 7855   1.717   0.565  14.564  0.4405  0.2735  0.4632
  525MPD2    H5 7856   1.664   0.588  14.480  0.6852 -1.2537 -0.1151
  525MPD2    N1 7857   1.667   0.295  14.975  0.0971 -0.2921 -0.5981
  525MPD2    H7 7858   1.759   0.326  15.002  0.8716 -1.8058 -1.5035
  526TMC3    C1 7859   1.656   0.198  15.202 -0.2365 -0.1946  0.0717
  526TMC3    C2 7860   1.574   0.180  15.307  0.2268  0.4883 -0.2335
  526TMC3    C3 7861   1.631   0.140  15.424 -0.5847 -0.1896 -0.2626
  526TMC3    C4 7862   1.788   0.192  15.216 -0.3386  0.1403  0.0096
  526TMC3    C5 7863   1.840   0.137  15.332 -0.9858  0.5173 -0.3097
  526TMC3    C6 7864   1.760   0.102  15.436 -0.0857 -0.3097 -0.2550
  526TMC3     C 7865   1.591   0.232  15.073  0.3856 -0.9171  0.4699
  526TMC3     O 7866   1.475   0.197  15.071 -0.2630 -0.1349  0.0596
  526TMC3     H 7867   1.472   0.215  15.298 -0.1977 -1.0806 -1.6068
  526TMC3    H1 7868   1.862   0.202  15.137 -0.5774  0.4726 -0.1703
  526TMC3    H2 7869   1.808   0.078  15.530  0.6251  2.6576  0.1088
  526TMC3    C7 7870   1.976   0.114  15.341 -0.2606 -0.1452 -0.2604
  526TMC3    C8 7871   1.581   0.220  15.542 -0.0690 -0.3921 -0.1215
  526TMC3    O1 7872   2.025   0.103  15.449 -0.1210  0.2002 -0.0553
  526TMC3    O2 7873   1.672   0.242  15.620  0.1416  0.3022  0.6764
  527MPD2     C 7874   0.352   3.544   1.401 -0.3245  0.2956 -0.2938
  527MPD2    C1 7875   0.278   3.541   1.286  0.1715 -0.9433 -0.1265
  527MPD2    C2 7876   0.320   3.474   1.174  0.4043 -0.2486  0.1726
  527MPD2    C3 7877   0.444   3.418   1.169 -0.5992  0.0152  0.1342
  527MPD2    C4 7878   0.531   3.438   1.278 -0.5905  0.4917  0.2777
  527MPD2    C5 7879   0.480   3.498   1.401 -0.1631  0.3905  0.5428
  527MPD2     H 7880   0.254   3.462   1.089  0.0131  0.1327  0.4226
  527MPD2    H1 7881   0.633   3.403   1.284 -0.6385  0.4772  1.0062
  527MPD2    H2 7882   0.322   3.610   1.481  0.0429  0.7713 -0.5422
  527MPD2    H3 7883   0.555   3.526   1.474  2.6062 -0.3467 -2.0063
  527MPD2     N 7884   0.483   3.354   1.054  0.1737 -0.2888  0.5079
  527MPD2    H5 7885   0.418   3.351   0.977  0.5385 -0.7232  0.2204
  527MPD2    N1 7886   0.142   3.594   1.274  0.2408 -0.0093  1.2744
  527MPD2    H7 7887   0.105   3.591   1.180 -0.7614 -4.5667  1.8267
  528TMC3    C1 7888   4.679   3.698   1.321  1.0050  0.1308  0.0170
  528TMC3    C2 7889   4.660   3.679   1.190 -0.1856  0.0614  0.3704
  528TMC3    C3 7890   4.533   3.657   1.144  0.0134  0.2709 -0.8542
  528TMC3    C4 7891   4.574   3.693   1.403  0.6305 -0.7990 -0.6468
  528TMC3    C5 7892   4.450   3.678   1.356  0.0713 -0.0432  0.6383
  528TMC3    C6 7893   4.426   3.659   1.221 -0.6160  0.6706 -0.0287
  528TMC3     C 7894   0.080   3.671   1.368 -0.2175  0.8409  0.5080
  528TMC3     O 7895   0.108   3.675   1.488  0.4048 -0.3641 -0.5609
  528TMC3     H 7896   4.736   3.702   1.117  3.8883 -4.5849  3.1178
  528TMC3    H1 7897   4.589   3.698   1.510 -2.1407  0.0443 -0.2960
  528TMC3    H2 7898   4.326   3.654   1.180 -0.4531 -1.4099 -0.1551
  528TMC3    C7 7899   4.339   3.654   1.454  0.5111 -0.0002 -0.2949
  528TMC3    C8 7900   4.524   3.620   1.010 -0.5946 -0.1175 -0.2612
  528TMC3    O1 7901   4.354   3.574   1.549  0.0355  0.4956 -0.0892
  528TMC3    O2 7902   4.630   3.585   0.954 -0.0904  0.3292 -0.0475
  529MPD2     C 7903   1.754   1.608   0.412 -0.7358  0.4687  0.3251
  529MPD2    C1 7904   1.847   1.702   0.464  0.0920 -0.3023 -0.4770
  529MPD2    C2 7905   1.817   1.837   0.472  0.1595  0.5919  0.8793
  529MPD2    C3 7906   1.703   1.886   0.421  0.1727  0.8521  0.0459
  529MPD2    C4 7907   1.617   1.794   0.374 -0.6885  0.5438  0.2450
  529MPD2    C5 7908   1.635   1.662   0.374  0.6559 -0.5048 -0.3202
  529MPD2     H 7909   1.889   1.903   0.519 -0.2695  1.7900 -0.1635
  529MPD2    H1 7910   1.523   1.832   0.336 -0.7635  0.7419  0.6273
  529MPD2    H2 7911   1.770   1.501   0.404 -0.9409  0.4607  0.0232
  529MPD2    H3 7912   1.558   1.597   0.334  1.1691 -1.1981 -0.1855
  529MPD2     N 7913   1.689   2.022   0.395 -0.2938 -0.2978 -0.6815
  529MPD2    H5 7914   1.605   2.046   0.344  0.1109  0.4279 -1.0238
  529MPD2    N1 7915   1.976   1.663   0.511  0.0015  0.0540 -0.2595
  529MPD2    H7 7916   2.030   1.745   0.535 -0.7930  0.6610 -0.5312
  530TMC3    C1 7917   2.168   1.515   0.530  0.1323 -0.3823  0.0863
  530TMC3    C2 7918   2.240   1.607   0.600 -0.2326 -0.2642  0.1375
  530TMC3    C3 7919   2.380   1.610   0.589 -0.5841 -0.9113  0.1110
  530TMC3    C4 7920   2.228   1.421   0.454  0.2419  0.2334 -0.3014
  530TMC3    C5 7921   2.367   1.436   0.431 -0.2900  0.1211 -0.6608
  530TMC3    C6 7922   2.444   1.524   0.502 -0.2552 -0.6754 -0.0773
  530TMC3     C 7923   2.028   1.526   0.517 -0.2891  0.4498 -0.0412
  530TMC3     O 7924   1.961   1.428   0.496  0.3106 -0.3066  0.0102
  530TMC3     H 7925   2.186   1.670   0.669  1.1089  1.0677 -0.0325
  530TMC3    H1 7926   2.166   1.367   0.384  1.2523 -2.0334  0.5436
  530TMC3    H2 7927   2.552   1.530   0.490 -0.3004 -0.5050 -0.4036
  530TMC3    C7 7928   2.441   1.323   0.388 -0.2031 -0.3588 -0.1903
  530TMC3    C8 7929   2.458   1.679   0.691  0.0272 -0.3265 -0.5791
  530TMC3    O1 7930   2.553   1.328   0.338  0.0708 -0.1543 -0.3713
  530TMC3    O2 7931   2.396   1.771   0.738  0.1791  0.0210  0.5985
  531MPD2     C 7932   1.037   3.725  13.306  0.0524  0.0952 -0.3087
  531MPD2    C1 7933   0.956   3.792  13.398 -0.1838 -0.4121  0.5993
  531MPD2    C2 7934   0.835   3.849  13.355  0.7013 -0.2136 -0.3573
  531MPD2    C3 7935   0.797   3.834  13.224 -0.5480 -0.3464  0.1386
  531MPD2    C4 7936   0.873   3.767  13.135  0.2019  0.2131  0.5610
  531MPD2    C5 7937   0.995   3.707  13.181 -0.0553 -0.0957  0.2135
  531MPD2     H 7938   0.773   3.902  13.426  2.2951  3.0048 -1.3666
  531MPD2    H1 7939   0.837   3.771  13.033 -0.8932  1.1231  0.9860
  531MPD2    H2 7940   1.134   3.688  13.336 -0.9228 -1.6266  0.6928
  531MPD2    H3 7941   1.052   3.654  13.105 -1.0589 -1.2457  0.2518
  531MPD2     N 7942   0.673   3.898  13.194 -0.6689 -0.3231 -0.3592
  531MPD2    H5 7943   0.640   3.960  13.267 -0.4756  1.0381 -1.4332
  531MPD2    N1 7944   1.014   3.818  13.526 -0.4890  0.6041 -0.1774
  531MPD2    H7 7945   1.109   3.786  13.536  0.6658  3.5086 -1.8383
  532TMC3    C1 7946   1.048   3.927  13.743  0.5485 -0.2233  0.1706
  532TMC3    C2 7947   0.973   4.011  13.817  0.0563 -0.0915  0.1123
  532TMC3    C3 7948   1.024   4.135  13.847 -0.1253 -1.0635 -0.5109
  532TMC3    C4 7949   1.178   3.962  13.696 -0.2168  0.2352 -0.7605
  532TMC3    C5 7950   1.214   4.093  13.718  0.7266 -0.2915 -0.5062
  532TMC3    C6 7951   1.139   4.180  13.792 -0.4389  0.0934 -0.0464
  532TMC3     C 7952   0.961   3.890  13.631 -0.4525 -0.0604 -0.1116
  532TMC3     O 7953   0.850   3.942  13.643 -0.1983  0.0052 -0.1028
  532TMC3     H 7954   0.880   3.971  13.853  1.2562 -1.0176  2.1648
  532TMC3    H1 7955   1.240   3.886  13.650  1.4771 -0.1244  2.1426
  532TMC3    H2 7956   1.182   4.271  13.835  0.4150  0.8298 -2.4719
  532TMC3    C7 7957   1.352   4.117  13.709  0.3087  0.5299  0.7083
  532TMC3    C8 7958   0.928   4.237  13.852  0.0290 -0.7231  0.1539
  532TMC3    O1 7959   1.394   4.230  13.686 -0.0359  0.4032  0.3259
  532TMC3    O2 7960   0.949   4.351  13.890 -0.7830 -0.2713 -0.1152
  533TMC3    C1 7961   1.840   0.747  14.508  0.3029 -0.0711  0.3151
  533TMC3    C2 7962   1.964   0.804  14.519  0.2987  0.5214  0.4232
  533TMC3    C3 7963   1.968   0.940  14.497  0.2303  0.1541 -0.3902
  533TMC3    C4 7964   1.728   0.817  14.473 -0.1123 -0.3640  0.3622
  533TMC3    C5 7965   1.737   0.952  14.459  0.2268 -1.0472 -0.2236
  533TMC3    C6 7966   1.855   1.018  14.463 -0.0018  0.3839  0.0736
  533TMC3     C 7967   1.830   0.634  14.592  0.0675 -0.0269  0.3724
  533TMC3     O 7968   1.915   0.623  14.680  0.5223 -0.3595  0.0625
  533TMC3     H 7969   2.054   0.765  14.566  0.2703 -1.8602 -1.5345
  533TMC3    H1 7970   1.626   0.780  14.481 -0.7417  0.9802 -1.5786
  533TMC3    H2 7971   1.857   1.126  14.449  1.3836  0.7175  2.8668
  533TMC3    C7 7972   1.626   1.026  14.512 -0.0219  0.0472  0.2877
  533TMC3    C8 7973   2.105   1.000  14.497  0.1656  1.1348  0.1923
  533TMC3    O1 7974   1.515   1.020  14.463 -0.6995  0.0806 -0.6106
  533TMC3    O2 7975   2.202   0.925  14.505 -0.1652 -0.0350  0.2060
  534MPD2     C 7976   0.569   2.500   0.862  0.4002  0.1055 -0.3333
  534MPD2    C1 7977   0.458   2.553   0.929  0.3322  0.1860  0.4635
  534MPD2    C2 7978   0.340   2.480   0.927 -0.0505  0.4782  0.7302
  534MPD2    C3 7979   0.333   2.361   0.859 -0.2393 -0.2456 -0.1925
  534MPD2    C4 7980   0.444   2.310   0.797  0.5838 -0.2072 -0.7472
  534MPD2    C5 7981   0.558   2.380   0.802 -0.3337  0.0970  0.0089
  534MPD2     H 7982   0.253   2.515   0.982 -0.0840  1.9344 -0.2618
  534MPD2    H1 7983   0.432   2.219   0.741 -1.7205 -0.4007  0.0629
  534MPD2    H2 7984   0.665   2.547   0.848 -0.2428  1.5495  0.0662
  534MPD2    H3 7985   0.631   2.358   0.725 -1.1167  0.4276 -0.8395
  534MPD2     N 7986   0.219   2.279   0.858 -0.7492  0.6243 -0.1244
  534MPD2    H5 7987   0.235   2.193   0.805 -2.8160  1.0764 -1.4671
  534MPD2    N1 7988   0.460   2.669   1.014  0.1552 -0.0010 -0.1595
  534MPD2    H7 7989   0.367   2.688   1.049  0.4232  0.2125  0.4319
  535TMC3    C1 7990   0.006   2.204   0.902 -0.1218 -0.1279  0.5721
  535TMC3    C2 7991   4.649   2.195   1.008 -0.5333 -0.4817  0.5869
  535TMC3    C3 7992   4.567   2.083   1.009  0.2023  0.1733  0.4059
  535TMC3    C4 7993   0.016   2.115   0.795 -0.0200  0.4746  0.0494
  535TMC3    C5 7994   4.655   2.021   0.792 -0.5949 -0.4369 -0.4801
  535TMC3    C6 7995   4.564   1.999   0.897  0.2641  0.2646  0.0083
  535TMC3     C 7996   0.101   2.308   0.918 -0.4938 -0.2400  0.4250
  535TMC3     O 7997   0.064   2.407   0.983  0.5908 -0.0199 -0.4594
  535TMC3     H 7998   4.650   2.268   1.087 -2.2748  0.4755 -0.2705
  535TMC3    H1 7999   0.082   2.118   0.708  2.1759  0.3120  1.7043
  535TMC3    H2 8000   4.487   1.924   0.887  1.1587 -0.8228  1.4587
  535TMC3    C7 8001   4.629   1.963   0.666  0.1158 -0.4060 -0.1251
  535TMC3    C8 8002   4.440   2.090   1.084  0.0622 -0.1802 -0.1644
  535TMC3    O1 8003   4.711   1.905   0.600 -0.2019 -0.4169 -0.3063
  535TMC3    O2 8004   4.341   2.037   1.033  0.3740 -0.4594 -0.2908
  536MPD2     C 8005   2.594   0.610  16.025  0.1415  0.7339  0.0438
  536MPD2    C1 8006   2.640   0.485  15.990 -0.1154  0.0687  0.3713
  536MPD2    C2 8007   2.682   0.456  15.862 -0.0836  0.0803 -0.2351
  536MPD2    C3 8008   2.663   0.553  15.758  0.1806 -0.0729  0.5484
  536MPD2    C4 8009   2.603   0.667  15.790  0.4556 -0.1640  0.3231
  536MPD2    C5 8010   2.573   0.699  15.924  0.5084  0.2688 -0.1118
  536MPD2     H 8011   2.731   0.361  15.845 -1.4353 -0.1495 -2.7919
  536MPD2    H1 8012   2.581   0.751  15.726 -0.2411  0.0480  0.8444
  536MPD2    H2 8013   2.560   0.632  16.126 -0.7193  0.0551 -0.1031
  536MPD2    H3 8014   2.522   0.793  15.941 -0.1894 -0.0103 -0.6852
  536MPD2     N 8015   2.712   0.539  15.622  0.2054  0.6060  0.8191
  536MPD2    H5 8016   2.693   0.623  15.568 -0.4387  0.5180  0.9050
  536MPD2    N1 8017   2.657   0.406  16.105  0.1057 -0.2589 -0.0225
  536MPD2    H7 8018   2.626   0.450  16.191 -0.6605 -0.5942 -0.1302
  537TMC3    C1 8019   2.679   0.204  16.222 -0.7313 -0.1898  0.2122
  537TMC3    C2 8020   2.761   0.261  16.322  0.5397 -0.6699  0.1864
  537TMC3    C3 8021   2.785   0.184  16.432  0.4182 -0.2099 -0.4757
  537TMC3    C4 8022   2.630   0.079  16.227  0.3603 -0.2004  0.0084
  537TMC3    C5 8023   2.661   0.004  16.338 -0.2221  0.0187 -1.1287
  537TMC3    C6 8024   2.737   0.054  16.442  0.2940  0.7443 -0.6435
  537TMC3     C 8025   2.667   0.268  16.093 -0.1574 -0.2263  0.4548
  537TMC3     O 8026   2.661   0.196  15.997 -0.0085  0.6011 -0.4451
  537TMC3     H 8027   2.826   0.341  16.288  0.3316 -0.7511 -0.4043
  537TMC3    H1 8028   2.557   0.048  16.153  0.4447  0.5996 -0.4116
  537TMC3    H2 8029   2.755   0.004  16.536  0.9680 -0.6970 -1.5416
  537TMC3    C7 8030   2.599   4.613  16.351  0.1085 -0.0962 -0.3503
  537TMC3    C8 8031   2.877   0.234  16.528  0.1565  0.3782 -0.1796
  537TMC3    O1 8032   2.534   4.577  16.250 -0.2323  0.4320 -0.3020
  537TMC3    O2 8033   2.911   0.158  16.621  0.3078 -0.3038  0.4923
  538TMC3    C1 8034   4.293   3.969  11.289  0.1841  0.0890 -0.3500
  538TMC3    C2 8035   4.432   3.954  11.263 -0.4388  0.0432  0.0243
  538TMC3    C3 8036   4.476   4.024  11.146 -0.6254 -0.1539  0.2060
  538TMC3    C4 8037   4.209   4.046  11.222 -0.0942 -0.1201  0.5025
  538TMC3    C5 8038   4.251   4.110  11.106 -0.0771  0.4333  0.6769
  538TMC3    C6 8039   4.383   4.098  11.066  0.0193  0.3092 -0.4311
  538TMC3     C 8040   4.237   3.926  11.413 -0.2262 -0.2113 -0.0376
  538TMC3     O 8041   4.125   3.958  11.455  0.0141 -0.0506  0.3076
  538TMC3     H 8042   4.499   3.911  11.338 -0.0215  0.1944 -0.2602
  538TMC3    H1 8043   4.105   4.037  11.250 -0.6534 -2.4420 -2.2967
  538TMC3    H2 8044   4.418   4.159  10.984  1.4695 -1.0941 -0.8825
  538TMC3    C7 8045   4.152   4.178  11.031 -0.4275  0.5135  0.4870
  538TMC3    C8 8046   4.618   4.036  11.131 -0.4178  0.7459 -0.3934
  538TMC3    O1 8047   4.041   4.119  11.035  0.4313 -0.5774 -0.3276
  538TMC3    O2 8048   4.681   4.012  11.230  0.0603  0.5604 -0.2169
  539MPD2     C 8049   4.714   3.092  11.266 -0.0755 -0.0835  0.6962
  539MPD2    C1 8050   4.594   3.042  11.318  0.4524 -0.0885  0.3334
  539MPD2    C2 8051   4.482   3.117  11.339 -0.2565  0.4746 -0.1958
  539MPD2    C3 8052   4.495   3.251  11.312 -0.4848  1.2059  0.1059
  539MPD2    C4 8053   4.609   3.304  11.251 -0.6218 -0.6593 -0.3303
  539MPD2    C5 8054   4.718   3.225  11.240 -0.3870  0.2032 -0.1748
  539MPD2     H 8055   4.399   3.067  11.389  1.0635  0.0589  1.5655
  539MPD2    H1 8056   4.614   3.409  11.224  1.9126 -0.0567  2.4365
  539MPD2    H2 8057   0.063   3.029  11.256 -0.7818 -0.6290 -2.3374
  539MPD2    H3 8058   0.070   3.279  11.214  1.3724 -1.3928  2.6606
  539MPD2     N 8059   4.393   3.339  11.345 -0.6378  0.3541  0.4485
  539MPD2    H5 8060   4.416   3.430  11.306 -1.5818  0.8690  1.1118
  539MPD2    N1 8061   4.582   2.904  11.350 -0.1530 -0.2995 -0.3947
  539MPD2    H7 8062   4.496   2.869  11.390  0.3097  0.4425  1.2603
  540TMC3    C1 8063   4.180   3.422  11.382 -0.9382 -0.1961  0.7512
  540TMC3    C2 8064   4.201   3.502  11.273 -0.6135  0.0688  0.4113
  540TMC3    C3 8065   4.113   3.611  11.260  0.3510  0.6724 -0.7112
  540TMC3    C4 8066   4.086   3.446  11.481  0.1280  0.2063  0.3579
  540TMC3    C5 8067   4.012   3.563  11.467  0.3934 -0.0022 -0.3786
  540TMC3    C6 8068   4.032   3.646  11.362  0.4021 -0.0601 -0.7655
  540TMC3     C 8069   4.272   3.316  11.405  0.2501  0.1161 -0.4705
  540TMC3     O 8070   4.239   3.224  11.480  0.4937 -0.3249 -0.1650
  540TMC3     H 8071   4.264   3.465  11.193  0.5858 -1.5420  2.1117
  540TMC3    H1 8072   4.074   3.381  11.567  0.4219  0.2165  0.4086
  540TMC3    H2 8073   3.980   3.741  11.359 -0.2574 -0.4914 -2.6850
  540TMC3    C7 8074   3.913   3.579  11.567 -0.0539  0.1724 -0.0254
  540TMC3    C8 8075   4.047   3.636  11.138  0.3532 -0.0536 -0.3174
  540TMC3    O1 8076   3.835   3.484  11.583 -0.2334 -0.5350  0.1162
  540TMC3    O2 8077   3.972   3.733  11.127 -0.2589  0.4786  0.8415
  541MPD2     C 8078   2.041   4.392  13.452 -0.0584 -0.4000  0.2763
  541MPD2    C1 8079   2.049   4.302  13.350  0.3991  0.3685  0.4280
  541MPD2    C2 8080   2.085   4.348  13.223 -0.2589  0.8753 -0.3177
  541MPD2    C3 8081   2.112   4.482  13.197  0.6773  0.1929  0.0807
  541MPD2    C4 8082   2.120   4.562  13.305  0.3043  0.0972  0.2372
  541MPD2    C5 8083   2.082   4.518  13.427  0.2883  0.1320  0.1615
  541MPD2     H 8084   2.075   4.284  13.136  0.4387 -0.0439  0.2712
  541MPD2    H1 8085   2.141   4.667  13.290  0.5892 -0.1060 -0.7629
  541MPD2    H2 8086   2.007   4.367  13.552  0.9134  0.8945  0.9275
  541MPD2    H3 8087   2.077   4.593  13.505 -0.4145  0.7768 -0.5048
  541MPD2     N 8088   2.134   4.541  13.068  0.8318  0.3835  0.0414
  541MPD2    H5 8089   2.157   4.640  13.066 -0.6117  0.7297  1.3062
  541MPD2    N1 8090   2.023   4.167  13.375  1.0704 -0.2177  0.0853
  541MPD2    H7 8091   2.044   4.098  13.304 -1.3772 -0.0941 -0.7587
  542TMC3    C1 8092   2.153   4.547  12.837 -0.2391  0.1995 -0.4991
  542TMC3    C2 8093   2.198   4.490  12.723 -0.3973  0.0963 -0.6771
  542TMC3    C3 8094   2.171   4.541  12.598  0.0732 -0.3565  0.1493
  542TMC3    C4 8095   2.071   4.651  12.822  0.5414  0.0966  0.3089
  542TMC3    C5 8096   2.038   4.702  12.701 -0.2196  0.7872 -0.8506
  542TMC3    C6 8097   2.098   4.655  12.585 -0.2189  0.6371 -0.0150
  542TMC3     C 8098   2.162   4.466  12.953  0.3425  0.7645  0.5932
  542TMC3     O 8099   2.173   4.345  12.938 -0.1495  0.5057 -0.5548
  542TMC3     H 8100   2.272   4.410  12.730 -0.2513  0.4664  1.9633
  542TMC3    H1 8101   2.043   4.707  12.910  0.9191  0.7332  0.0194
  542TMC3    H2 8102   2.058   4.685  12.488 -2.6563  2.1144  1.4662
  542TMC3    C7 8103   1.938   0.072  12.699  0.3275 -1.2120 -0.3299
  542TMC3    C8 8104   2.218   4.482  12.475  0.0861  0.3903 -0.1406
  542TMC3    O1 8105   1.917   0.132  12.803 -1.0828 -0.0670  0.7376
  542TMC3    O2 8106   2.175   4.533  12.371  0.3407  0.4625 -0.1511
  543TMC3    C1 8107   1.742   1.287  16.711 -1.0919  0.4990  0.5799
  543TMC3    C2 8108   1.807   1.199  16.798 -0.0676  0.1568 -0.6477
  543TMC3    C3 8109   1.771   1.217  16.928  0.1485  0.9090  0.2342
  543TMC3    C4 8110   1.648   1.369  16.749  0.6339 -0.3616 -0.4268
  543TMC3    C5 8111   1.606   1.367  16.877  0.0068  0.5796  0.0500
  543TMC3    C6 8112   1.667   1.292  16.974  0.0927  0.1946 -0.3173
  543TMC3     C 8113   1.766   1.263  16.572 -0.7553  0.5586  0.2718
  543TMC3     O 8114   1.824   1.158  16.545 -0.5232  0.2009 -0.2412
  543TMC3     H 8115   1.883   1.129  16.766  0.0800 -0.6598  1.5444
  543TMC3    H1 8116   1.607   1.447  16.686 -1.4430 -1.4351 -0.4192
  543TMC3    H2 8117   1.634   1.299  17.077 -2.2949 -0.7851 -1.0096
  543TMC3    C7 8118   1.485   1.425  16.918  0.2030  0.4371 -0.5878
  543TMC3    C8 8119   1.788   1.085  16.993  0.2967  0.1805  0.6749
  543TMC3    O1 8120   1.457   1.428  17.039 -0.3471  0.6063 -0.1082
  543TMC3    O2 8121   1.845   0.993  16.935  0.0382 -0.2612  0.0120
  544MPD2     C 8122   1.547   0.758  17.287  0.1895 -0.5201  0.2286
  544MPD2    C1 8123   1.619   0.733  17.171 -0.2597  0.0720  0.1741
  544MPD2    C2 8124   1.688   0.841  17.117  0.1032  0.5868  0.3018
  544MPD2    C3 8125   1.689   0.965  17.180  0.4440 -0.6783  0.3456
  544MPD2    C4 8126   1.624   0.978  17.299 -0.3759 -1.1912  0.8513
  544MPD2    C5 8127   1.551   0.879  17.351  0.5674 -0.6109  0.4191
  544MPD2     H 8128   1.730   0.816  17.020 -4.6426 -0.8972 -1.3749
  544MPD2    H1 8129   1.620   1.077  17.342 -2.7241 -0.0332 -2.0476
  544MPD2    H2 8130   1.479   0.686  17.331 -0.2183  0.0397  0.5029
  544MPD2    H3 8131   1.492   0.896  17.440  0.3005 -0.5344  0.2273
  544MPD2     N 8132   1.717   1.085  17.109  1.1318 -0.6670  0.3376
  544MPD2    H5 8133   1.687   1.165  17.163  0.3931  0.9640 -2.4958
  544MPD2    N1 8134   1.605   0.612  17.098  0.0547 -0.0883  0.3342
  544MPD2    H7 8135   1.519   0.564  17.122 -0.3398  0.8351  0.7299
  545TMC3    C1 8136   1.626   0.442  16.932  0.0118  0.6199  0.1624
  545TMC3    C2 8137   1.491   0.446  16.903  0.0714  0.1493 -0.6259
  545TMC3    C3 8138   1.428   0.336  16.856 -0.2307 -0.0465 -0.3711
  545TMC3    C4 8139   1.703   0.340  16.903  0.2258 -0.3211  0.7409
  545TMC3    C5 8140   1.641   0.231  16.844  0.1485 -0.3092 -0.3224
  545TMC3    C6 8141   1.507   0.227  16.819 -0.1661  0.0289 -0.2282
  545TMC3     C 8142   1.688   0.555  17.002 -0.1275 -0.1832 -0.5246
  545TMC3     O 8143   1.805   0.595  16.973  0.1466 -0.1229 -0.1348
  545TMC3     H 8144   1.435   0.539  16.909  2.3370  1.4454  0.1603
  545TMC3    H1 8145   1.808   0.338  16.930  0.9476  3.1223 -1.7818
  545TMC3    H2 8146   1.451   0.142  16.784 -1.3631  1.0943 -0.9063
  545TMC3    C7 8147   1.728   0.116  16.824 -0.2631 -0.7069  0.1967
  545TMC3    C8 8148   1.305   0.342  16.778 -0.1111  0.5042  0.5724
  545TMC3    O1 8149   1.846   0.132  16.821 -0.1076 -0.0318  0.3830
  545TMC3    O2 8150   1.295   0.271  16.679  0.0878  0.1249  0.5303
  546MPD2     C 8151   3.067   0.651  17.082  0.5770 -0.3148  0.2325
  546MPD2    C1 8152   3.000   0.733  16.993 -0.5195  0.0331  0.5106
  546MPD2    C2 8153   3.059   0.857  16.954 -0.2330 -0.7873  0.1287
  546MPD2    C3 8154   3.187   0.892  17.005  0.0098  0.2567 -0.5203
  546MPD2    C4 8155   3.245   0.812  17.099  0.3752 -0.3264 -0.4239
  546MPD2    C5 8156   3.185   0.694  17.138  0.0007 -0.0356  0.2013
  546MPD2     H 8157   3.010   0.922  16.883  1.4394  0.0916 -0.2011
  546MPD2    H1 8158   3.333   0.844  17.154  1.3013  1.3866 -2.9197
  546MPD2    H2 8159   3.028   0.552  17.101  1.2231 -0.6219 -0.0166
  546MPD2    H3 8160   3.242   0.632  17.205 -0.6033 -1.2938 -0.4550
  546MPD2     N 8161   3.254   1.014  16.976 -0.0020 -0.8693 -0.0665
  546MPD2    H5 8162   3.344   1.033  17.019 -0.3665  0.7736 -0.0315
  546MPD2    N1 8163   2.881   0.681  16.937  0.6935  0.2881 -0.4927
  546MPD2    H7 8164   2.859   0.584  16.957 -1.7559  0.7948 -0.7442
  547TMC3    C1 8165   2.660   0.679  16.843 -0.5302  0.3831  0.7353
  547TMC3    C2 8166   2.585   0.708  16.732 -0.6770  0.2149  0.0950
  547TMC3    C3 8167   2.452   0.675  16.747 -0.0830  0.8079  0.4208
  547TMC3    C4 8168   2.617   0.604  16.950  0.2184 -0.8645  0.1335
  547TMC3    C5 8169   2.485   0.564  16.952  0.6837  0.2476 -0.2802
  547TMC3    C6 8170   2.400   0.610  16.854  0.6001 -1.4216  0.5490
  547TMC3     C 8171   2.794   0.737  16.846  0.1175 -0.2067  0.3379
  547TMC3     O 8172   2.815   0.837  16.778 -0.1542  0.2008  0.0308
  547TMC3     H 8173   2.628   0.751  16.642 -0.2883  0.9288  0.6119
  547TMC3    H1 8174   2.683   0.578  17.032 -0.5486 -0.1561  0.9834
  547TMC3    H2 8175   2.295   0.582  16.864 -0.6821  2.7063 -1.2929
  547TMC3    C7 8176   2.444   0.487  17.068 -0.1946 -0.0485 -0.1575
  547TMC3    C8 8177   2.378   0.700  16.628  1.3516  0.3878 -0.5176
  547TMC3    O1 8178   2.507   0.496  17.170 -0.8106 -0.5293 -0.1695
  547TMC3    O2 8179   2.438   0.749  16.532 -0.1961 -0.3682 -0.1905
  548MPD2     C 8180   2.668   1.441  13.113 -0.4210 -0.2771 -0.6001
  548MPD2    C1 8181   2.618   1.324  13.059 -0.7927  0.1877 -0.3287
  548MPD2    C2 8182   2.702   1.239  12.981  0.5945 -0.1878  0.0571
  548MPD2    C3 8183   2.831   1.285  12.958  0.6895  0.2803 -0.0494
  548MPD2    C4 8184   2.873   1.407  13.003 -0.3438  0.6000 -0.2223
  548MPD2    C5 8185   2.786   1.484  13.082  0.4826  0.5193  0.3121
  548MPD2     H 8186   2.668   1.142  12.948 -1.4903 -0.3575  2.6561
  548MPD2    H1 8187   2.966   1.456  12.976  0.6781 -1.2646 -0.0821
  548MPD2    H2 8188   2.600   1.510  13.161  1.0118  1.2553 -0.8014
  548MPD2    H3 8189   2.819   1.583  13.112 -0.0161  0.8566 -0.2604
  548MPD2     N 8190   2.915   1.214  12.865  0.0023  0.3812  0.5448
  548MPD2    H5 8191   2.864   1.132  12.833  2.7320 -0.9880 -0.2850
  548MPD2    N1 8192   2.486   1.301  13.095 -0.2131 -0.5492  0.0221
  548MPD2    H7 8193   2.442   1.369  13.156  0.4844  1.6182 -1.8784
  549TMC3    C1 8194   2.270   1.215  13.101 -0.0925 -0.5518  0.4477
  549TMC3    C2 8195   2.218   1.342  13.087 -0.3820 -0.2023 -0.3562
  549TMC3    C3 8196   2.083   1.340  13.070  0.9366  0.0176 -0.2020
  549TMC3    C4 8197   2.194   1.105  13.117 -0.4102 -0.1697  0.1740
  549TMC3    C5 8198   2.055   1.108  13.121 -0.3073  0.4159 -0.5205
  549TMC3    C6 8199   2.003   1.233  13.094 -0.5942  0.5334  0.2570
  549TMC3     C 8200   2.403   1.193  13.071 -0.5929  0.1593 -0.0975
  549TMC3     O 8201   2.424   1.103  12.993 -0.2110  0.1864 -0.7362
  549TMC3     H 8202   2.285   1.423  13.058 -0.4926 -0.2247 -0.6762
  549TMC3    H1 8203   2.241   1.007  13.129 -0.3992 -0.1598  0.2150
  549TMC3    H2 8204   1.896   1.243  13.076 -0.3041 -0.6038 -2.0200
  549TMC3    C7 8205   1.966   0.992  13.116  0.5004 -0.1890 -0.1549
  549TMC3    C8 8206   2.026   1.472  13.035  0.2473 -0.0465  0.1716
  549TMC3    O1 8207   1.847   1.016  13.123  0.4940  0.0062  0.4856
  549TMC3    O2 8208   1.939   1.466  12.949  0.1427  0.4248 -0.1926
  550TMC3    C1 8209   1.777   4.440  13.067  0.2048  0.1895 -0.0088
  550TMC3    C2 8210   1.716   4.450  13.191  0.0839  0.4483 -0.3814
  550TMC3    C3 8211   1.675   4.574  13.231 -0.2282 -0.5590 -0.7707
  550TMC3    C4 8212   1.778   4.547  12.979  0.5233  0.0328  0.7214
  550TMC3    C5 8213   1.739   4.670  13.023 -0.9610 -0.4555 -0.4882
  550TMC3    C6 8214   1.688   4.682  13.154  1.0082 -0.4110  0.4552
  550TMC3     C 8215   1.803   4.304  13.022 -0.2716  0.0431 -0.3994
  550TMC3     O 8216   1.767   4.203  13.090  0.2043 -0.5596 -0.0174
  550TMC3     H 8217   1.708   4.370  13.265 -0.1104  1.5002  0.7401
  550TMC3    H1 8218   1.822   4.539  12.881 -0.2959  1.6237  0.2216
  550TMC3    H2 8219   1.677   0.046  13.188  4.1907  0.4380 -1.1289
  550TMC3    C7 8220   1.641   4.726  12.934  0.1290 -0.1818 -0.2233
  550TMC3    C8 8221   1.546   4.564  13.296  0.4038 -0.3564  0.2181
  550TMC3    O1 8222   1.616   4.661  12.831 -0.2111 -1.0560  0.0840
  550TMC3    O2 8223   1.518   4.478  13.381  0.3630 -0.3335  0.2797
  551TMC3    C1 8224   3.640   2.405  13.341 -0.2808  0.0493  0.7447
  551TMC3    C2 8225   3.762   2.437  13.283  0.0144  0.4102 -0.2011
  551TMC3    C3 8226   3.874   2.427  13.360  0.1375 -0.0226  0.0109
  551TMC3    C4 8227   3.638   2.366  13.478  0.1305  0.2539  0.1245
  551TMC3    C5 8228   3.762   2.348  13.545  0.0507  0.1997 -0.0545
  551TMC3    C6 8229   3.878   2.377  13.489  0.1715 -0.2513 -0.2382
  551TMC3     C 8230   3.542   2.337  13.253  0.1467 -0.0175 -0.1683
  551TMC3     O 8231   3.556   2.344  13.131  0.0203  0.3853 -0.1924
  551TMC3     H 8232   3.769   2.454  13.176  0.8431  0.7312 -0.0994
  551TMC3    H1 8233   3.550   2.346  13.539  0.8082  1.3670  1.4621
  551TMC3    H2 8234   3.969   2.361  13.546  0.1458 -2.6316 -0.8773
  551TMC3    C7 8235   3.759   2.280  13.670  0.2811  0.1656  0.1676
  551TMC3    C8 8236   3.999   2.411  13.285 -0.3846 -0.3265 -0.7276
  551TMC3    O1 8237   3.805   2.335  13.766  0.1729 -0.1103  0.3084
  551TMC3    O2 8238   4.070   2.317  13.308 -0.0786 -0.1377  0.8597
  552MPD2     C 8239   0.927   4.107  14.181  0.3956  0.0736  0.3271
  552MPD2    C1 8240   0.928   3.984  14.235 -0.0579  0.1105  0.2392
  552MPD2    C2 8241   1.036   3.941  14.322  0.3015 -0.8001 -0.6376
  552MPD2    C3 8242   1.152   4.010  14.335  0.2623  0.7987  0.8082
  552MPD2    C4 8243   1.158   4.132  14.273  0.2634 -0.5919  0.3380
  552MPD2    C5 8244   1.044   4.178  14.205 -0.5322  0.8549  0.0368
  552MPD2     H 8245   1.014   3.849  14.375  1.7648 -0.7771  0.0202
  552MPD2    H1 8246   1.250   4.189  14.280  0.2128 -0.2967 -1.3242
  552MPD2    H2 8247   0.838   4.148  14.136  1.3996  1.3699 -0.4467
  552MPD2    H3 8248   1.055   4.284  14.184 -1.5999  0.8081 -0.7317
  552MPD2     N 8249   1.258   3.973  14.423  0.0085 -0.0389 -0.7406
  552MPD2    H5 8250   1.340   4.032  14.412 -0.8400  0.6179 -3.5395
  552MPD2    N1 8251   0.827   3.883  14.227 -0.0066 -0.4919  0.0300
  552MPD2    H7 8252   0.854   3.790  14.258 -2.0831 -1.1346 -0.0984
  553TMC3    C1 8253   0.671   3.767  14.109 -0.1627 -0.3784  0.3340
  553TMC3    C2 8254   0.670   3.742  13.975 -0.1074  0.3260 -0.1503
  553TMC3    C3 8255   0.722   3.624  13.936 -0.6054  0.7664 -0.3417
  553TMC3    C4 8256   0.717   3.669  14.197 -0.0999 -0.1100 -0.3314
  553TMC3    C5 8257   0.783   3.559  14.154  0.1493 -0.5871  0.5982
  553TMC3    C6 8258   0.786   3.539  14.022  0.4927  0.1689 -1.0618
  553TMC3     C 8259   0.721   3.896  14.139  0.8758  0.4418 -0.1129
  553TMC3     O 8260   0.696   3.987  14.062  0.8855 -0.4377  0.3798
  553TMC3     H 8261   0.650   3.817  13.899 -0.7940  0.2190 -0.0810
  553TMC3    H1 8262   0.708   3.688  14.304  0.3208 -2.1461  0.0598
  553TMC3    H2 8263   0.838   3.454  13.981  0.2828 -0.2704 -0.4067
  553TMC3    C7 8264   0.921   3.551  14.214 -0.2761  0.0629  0.2450
  553TMC3    C8 8265   0.816   3.655  13.832 -0.0726  0.1161 -0.2166
  553TMC3    O1 8266   0.934   3.571  14.333  0.2706 -0.1788 -0.7704
  553TMC3    O2 8267   0.912   3.714  13.875 -0.2093  0.0973  0.1146
  554TMC3    C1 8268   3.311   3.481  11.585 -0.1722 -0.1826 -0.0421
  554TMC3    C2 8269   3.210   3.433  11.501 -0.2980  0.1941  0.4523
  554TMC3    C3 8270   3.227   3.481  11.370 -0.1128  0.5432  0.0093
  554TMC3    C4 8271   3.405   3.582  11.551 -0.5945  0.2440  0.2717
  554TMC3    C5 8272   3.420   3.611  11.418 -0.2188  0.3554 -0.2630
  554TMC3    C6 8273   3.343   3.544  11.327 -0.2255  0.5140  0.2724
  554TMC3     C 8274   3.339   3.404  11.714 -0.0182 -0.3788  0.3464
  554TMC3     O 8275   3.423   3.449  11.794 -0.2570  0.6627 -0.7464
  554TMC3     H 8276   3.115   3.398  11.538 -1.3150  3.2641  0.7193
  554TMC3    H1 8277   3.472   3.623  11.625  0.0987 -1.0493  0.3664
  554TMC3    H2 8278   3.353   3.571  11.223 -1.6392 -2.4288 -0.6516
  554TMC3    C7 8279   3.487   3.729  11.371  0.4650 -0.2255  0.2167
  554TMC3    C8 8280   3.125   3.447  11.277 -0.3903  0.9031  0.4249
  554TMC3    O1 8281   3.517   3.724  11.249 -0.3790  0.1807  0.7437
  554TMC3    O2 8282   3.167   3.462  11.166 -0.4753  0.3171  0.4185
  555TMC3    C1 8283   1.887   2.403  14.795 -0.5627 -0.6349  0.3646
  555TMC3    C2 8284   1.810   2.492  14.871  0.0939  0.1328  0.2917
  555TMC3    C3 8285   1.750   2.449  14.989 -0.2587 -0.1504  0.1062
  555TMC3    C4 8286   1.884   2.269  14.827 -0.3219 -0.0277 -0.7696
  555TMC3    C5 8287   1.824   2.230  14.942  0.3337  0.0842 -0.5348
  555TMC3    C6 8288   1.767   2.321  15.031 -0.1261 -0.1959  0.1100
  555TMC3     C 8289   1.949   2.448  14.670 -0.0720 -0.3102  0.6510
  555TMC3     O 8290   2.041   2.388  14.618 -0.5841 -0.2145  0.2279
  555TMC3     H 8291   1.801   2.595  14.840 -1.9836 -0.0847  0.1396
  555TMC3    H1 8292   1.926   2.200  14.754 -0.0209 -1.7142  0.9930
  555TMC3    H2 8293   1.717   2.286  15.121 -1.7414 -1.7427 -1.3849
  555TMC3    C7 8294   1.837   2.103  14.998 -0.1103  0.4129  0.0578
  555TMC3    C8 8295   1.752   2.547  15.098 -0.1739 -0.7865  0.1331
  555TMC3    O1 8296   1.756   2.073  15.083 -0.2445  0.7331 -0.2720
  555TMC3    O2 8297   1.736   2.662  15.069 -0.4379 -0.1933 -0.3383
  556MPD2     C 8298   0.470   0.322  10.884  0.0781 -0.3811 -0.5839
  556MPD2    C1 8299   0.416   0.212  10.942  0.1228  0.0092 -0.1876
  556MPD2    C2 8300   0.395   0.097  10.864 -0.2059  0.0746  0.0046
  556MPD2    C3 8301   0.411   0.090  10.729  0.6951 -0.4559  0.6435
  556MPD2    C4 8302   0.461   0.206  10.670 -0.1652 -0.1905  0.0190
  556MPD2    C5 8303   0.482   0.320  10.748 -0.2332  0.2835  0.4495
  556MPD2     H 8304   0.342   0.012  10.906  0.0646 -2.0398 -3.9080
  556MPD2    H1 8305   0.472   0.221  10.563 -1.8521  1.6748  0.1081
  556MPD2    H2 8306   0.497   0.416  10.931 -1.6056 -1.3846  2.3564
  556MPD2    H3 8307   0.524   0.407  10.697 -1.4562 -0.4524 -1.8083
  556MPD2     N 8308   0.371   4.715  10.658 -0.5452  0.1167 -0.1009
  556MPD2    H5 8309   0.340   4.637  10.714 -0.2007 -0.5369 -0.8268
  556MPD2    N1 8310   0.381   0.208  11.078  0.7442 -0.4390 -0.4005
  556MPD2    H7 8311   0.355   0.115  11.111  0.6164 -0.4208 -0.4485
  557TMC3    C1 8312   0.283   4.602  10.466  0.1987 -0.6440 -0.1916
  557TMC3    C2 8313   0.205   4.623  10.361  0.2646 -0.1334 -0.6849
  557TMC3    C3 8314   0.108   4.530  10.329  0.0835 -0.4554 -0.0671
  557TMC3    C4 8315   0.272   4.482  10.533 -0.4507 -0.8525 -0.4551
  557TMC3    C5 8316   0.174   4.386  10.502  0.3973  0.6560 -0.5017
  557TMC3    C6 8317   0.087   4.414  10.399 -0.6279  0.2925 -0.7686
  557TMC3     C 8318   0.367   4.708  10.523  0.7384  0.6729 -0.8997
  557TMC3     O 8319   0.389   0.061  10.446  0.0298  0.2105 -0.1989
  557TMC3     H 8320   0.195   4.725  10.326  1.9371 -0.1146 -1.1246
  557TMC3    H1 8321   0.339   4.467  10.617  1.2809  2.2660 -1.2903
  557TMC3    H2 8322   4.736   4.353  10.387 -0.9353  0.6134 -0.1076
  557TMC3    C7 8323   0.133   4.274  10.583 -0.7987 -0.5510 -0.2784
  557TMC3    C8 8324   4.719   4.581  10.279 -0.5072  0.7572  0.4503
  557TMC3    O1 8325   0.022   4.228  10.563 -0.1113 -0.0101  0.0691
  557TMC3    O2 8326   4.708   4.699  10.294  0.0585 -0.4242 -0.0428
  558TMC3    C1 8327   2.746   1.856  10.724 -0.2554  0.2951 -0.4317
  558TMC3    C2 8328   2.609   1.860  10.751  0.3044 -0.5799 -0.5677
  558TMC3    C3 8329   2.531   1.926  10.670 -0.0287 -0.3227 -0.6135
  558TMC3    C4 8330   2.796   1.905  10.609  0.2038 -0.6776  0.2289
  558TMC3    C5 8331   2.708   1.972  10.525  0.6283  0.4423  0.4527
  558TMC3    C6 8332   2.572   1.988  10.550  0.1623 -0.3660 -0.2567
  558TMC3     C 8333   2.845   1.798  10.819  0.0484 -0.1853  0.0523
  558TMC3     O 8334   2.962   1.830  10.813 -0.6048  0.0959 -0.0374
  558TMC3     H 8335   2.569   1.823  10.844  0.8548  0.9271  0.2614
  558TMC3    H1 8336   2.901   1.899  10.583  0.4514  1.2866  0.8161
  558TMC3    H2 8337   2.513   2.053  10.488 -0.8107  0.2196  1.2912
  558TMC3    C7 8338   2.761   2.014  10.397  0.2361  0.4815  0.1783
  558TMC3    C8 8339   2.397   1.950  10.715  0.5145 -0.5516  0.5752
  558TMC3    O1 8340   2.874   1.978  10.380  0.0388  0.0904  0.0326
  558TMC3    O2 8341   2.309   1.966  10.630 -0.2086  0.0284  0.0622
  559MPD2     C 8342   2.758   3.137  10.639  0.6566  0.1999 -0.2317
  559MPD2    C1 8343   2.718   3.090  10.762 -0.4989  0.2821 -0.5434
  559MPD2    C2 8344   2.808   3.043  10.857 -0.7936 -0.4516  0.1642
  559MPD2    C3 8345   2.938   3.030  10.817  0.1310  0.4740  0.1457
  559MPD2    C4 8346   2.984   3.088  10.699  0.0760  0.1069  0.0641
  559MPD2    C5 8347   2.891   3.134  10.612  0.2800 -0.4229 -0.7499
  559MPD2     H 8348   2.777   3.012  10.956  0.5673  3.4507  1.8079
  559MPD2    H1 8349   3.088   3.080  10.668  0.6918  1.5675  1.8090
  559MPD2    H2 8350   2.676   3.176  10.580 -0.5671  0.7516  1.8428
  559MPD2    H3 8351   2.931   3.150  10.512  0.2225 -0.4974 -0.7847
  559MPD2     N 8352   3.019   2.960  10.908  0.3675  0.2990 -0.3542
  559MPD2    H5 8353   2.977   2.914  10.988 -0.7609  2.1292  0.1143
  559MPD2    N1 8354   2.580   3.084  10.795 -0.3816 -0.5895 -0.3659
  559MPD2    H7 8355   2.517   3.106  10.719 -1.5575  1.7419  1.3166
  560TMC3    C1 8356   3.199   2.839  10.984  0.2766  0.7792  0.1063
  560TMC3    C2 8357   3.107   2.749  11.024  0.0474 -1.1983  0.1069
  560TMC3    C3 8358   3.132   2.682  11.141 -0.1277 -0.3043 -0.0752
  560TMC3    C4 8359   3.319   2.864  11.051 -0.0037 -0.0875 -0.3362
  560TMC3    C5 8360   3.335   2.795  11.170 -0.3700 -0.2378 -0.4711
  560TMC3    C6 8361   3.239   2.707  11.222  0.8122 -0.7096 -0.2721
  560TMC3     C 8362   3.154   2.941  10.894  0.9169  0.7079  0.3569
  560TMC3     O 8363   3.235   3.008  10.831  0.8680  0.1801 -0.1572
  560TMC3     H 8364   3.025   2.711  10.964 -0.9198 -0.5754  1.0247
  560TMC3    H1 8365   3.390   2.939  11.018 -0.8144  1.5383  1.5756
  560TMC3    H2 8366   3.248   2.669  11.323 -1.4176  0.3094  0.3229
  560TMC3    C7 8367   3.457   2.796  11.242  0.3922  0.2455 -0.0120
  560TMC3    C8 8368   3.027   2.605  11.193  0.1415 -0.4841 -0.2471
  560TMC3    O1 8369   3.446   2.753  11.356  0.5259  0.1442 -0.1577
  560TMC3    O2 8370   2.921   2.615  11.134 -0.5095  0.5078  0.3004
  561TMC3    C1 8371   0.715   1.915  11.475  0.2427 -0.0492 -0.3053
  561TMC3    C2 8372   0.656   1.826  11.562  0.3519  0.8210  0.1550
  561TMC3    C3 8373   0.556   1.871  11.647  0.7041 -0.1624 -0.6439
  561TMC3    C4 8374   0.696   2.050  11.484  0.0821  0.5224  0.9169
  561TMC3    C5 8375   0.606   2.091  11.578  0.1623 -0.6497 -0.0828
  561TMC3    C6 8376   0.535   2.006  11.659  0.8215 -0.3810  0.1542
  561TMC3     C 8377   0.814   1.859  11.387  0.1669 -0.3731  0.4307
  561TMC3     O 8378   0.882   1.769  11.434  0.5770  0.2018  0.4362
  561TMC3     H 8379   0.679   1.721  11.549 -2.4728  0.4910 -2.2846
  561TMC3    H1 8380   0.732   2.122  11.411 -2.0513 -1.7822 -2.4107
  561TMC3    H2 8381   0.467   2.047  11.733  2.3765 -1.5416  2.2087
  561TMC3    C7 8382   0.585   2.237  11.599  0.1035 -0.0906  0.2379
  561TMC3    C8 8383   0.476   1.767  11.713 -0.7640  0.4691  0.7224
  561TMC3    O1 8384   0.488   2.278  11.664  0.1872  0.5369 -0.5558
  561TMC3    O2 8385   0.491   1.650  11.663  0.2284 -0.2605  0.1113
  562TMC3    C1 8386   1.677   2.896  16.520 -0.2974 -0.4692 -0.2472
  562TMC3    C2 8387   1.659   3.020  16.460 -0.1141  0.3993  0.5098
  562TMC3    C3 8388   1.570   3.022  16.355 -0.5515 -0.0644  0.6512
  562TMC3    C4 8389   1.630   2.780  16.470 -0.2863 -0.1819 -0.0926
  562TMC3    C5 8390   1.544   2.786  16.367 -0.0436 -0.2581 -0.6778
  562TMC3    C6 8391   1.520   2.908  16.302 -0.1257  0.3049 -0.1507
  562TMC3     C 8392   1.781   2.888  16.618 -0.4435 -0.1676 -0.4571
  562TMC3     O 8393   1.831   2.779  16.639 -0.1210  0.0830 -0.6057
  562TMC3     H 8394   1.722   3.106  16.482 -0.7860  0.9984  0.0760
  562TMC3    H1 8395   1.639   2.680  16.512  1.5367 -0.1791 -0.4528
  562TMC3    H2 8396   1.462   2.905  16.210  0.2813 -2.4402 -0.3246
  562TMC3    C7 8397   1.503   2.663  16.293  0.5662  0.1043 -0.5628
  562TMC3    C8 8398   1.565   3.148  16.283 -0.2143 -0.0704 -0.0523
  562TMC3    O1 8399   1.396   2.677  16.235 -0.3787 -0.4008  0.2239
  562TMC3    O2 8400   1.614   3.242  16.346 -0.0815  0.0114  0.2580
  563MPD2     C 8401   3.958   4.122  15.622  0.2696 -0.3809  0.1984
  563MPD2    C1 8402   4.018   4.091  15.738 -1.0998 -0.1819 -0.0542
  563MPD2    C2 8403   4.117   3.993  15.749 -0.1966  0.0320 -1.4429
  563MPD2    C3 8404   4.147   3.911  15.642  0.6047  0.6971  0.1706
  563MPD2    C4 8405   4.072   3.930  15.522  0.1372 -0.3241  0.0766
  563MPD2    C5 8406   3.979   4.034  15.519  0.7666 -0.4427  0.3154
  563MPD2     H 8407   4.164   3.980  15.846  1.1189  2.0149 -1.8422
  563MPD2    H1 8408   4.099   3.876  15.431  0.1538  0.1763 -0.2155
  563MPD2    H2 8409   3.885   4.203  15.623  0.4744 -0.1978  0.8138
  563MPD2    H3 8410   3.924   4.064  15.431  3.1117 -0.8361 -1.2801
  563MPD2     N 8411   4.255   3.825  15.645 -0.0978  0.9545 -0.2677
  563MPD2    H5 8412   4.299   3.804  15.735 -1.4251 -2.0077 -0.3077
  563MPD2    N1 8413   3.973   4.159  15.854 -0.4561 -0.4118  0.3968
  563MPD2    H7 8414   3.916   4.243  15.845 -0.6479 -0.6785 -0.8846
  564TMC3    C1 8415   3.932   4.214  16.081 -0.6668  0.0836 -0.4709
  564TMC3    C2 8416   3.797   4.220  16.061  0.8957  0.2923 -0.5528
  564TMC3    C3 8417   3.719   4.208  16.178 -0.0587 -0.0293 -0.5164
  564TMC3    C4 8418   3.992   4.201  16.208  0.1008 -0.9466 -0.4112
  564TMC3    C5 8419   3.908   4.196  16.314 -0.0548 -0.0009  0.1714
  564TMC3    C6 8420   3.774   4.200  16.299  0.3374 -0.7503 -0.1013
  564TMC3     C 8421   4.012   4.143  15.983 -0.0546 -0.0679 -0.1016
  564TMC3     O 8422   4.094   4.064  16.034 -0.3444  0.1440  0.5616
  564TMC3     H 8423   3.763   4.196  15.961  0.3211 -0.3054 -0.2152
  564TMC3    H1 8424   4.101   4.201  16.214  0.0226 -2.3345  1.0125
  564TMC3    H2 8425   3.714   4.202  16.389 -0.1277  0.7761 -0.4437
  564TMC3    C7 8426   3.943   4.083  16.405  0.3161  0.6011 -0.2980
  564TMC3    C8 8427   3.614   4.108  16.162  0.5698 -0.1494  0.0228
  564TMC3    O1 8428   4.059   4.071  16.438  0.1191  0.2329 -0.3185
  564TMC3    O2 8429   3.600   4.039  16.260  0.6483 -0.0424 -0.4564
  565TMC3    C1 8430   4.668   1.070  10.327  0.3059 -1.1455 -0.4591
  565TMC3    C2 8431   4.680   1.074  10.462  0.1998 -0.0516  0.1119
  565TMC3    C3 8432   4.601   0.995  10.540 -0.2005  0.2944  0.1053
  565TMC3    C4 8433   4.569   0.993  10.273  0.4804  0.2001  0.0391
  565TMC3    C5 8434   4.496   0.917  10.356 -0.2270  1.1033  0.1689
  565TMC3    C6 8435   4.499   0.920  10.493  0.0946  0.1101 -0.2138
  565TMC3     C 8436   4.722   1.174  10.237 -0.7403  0.4760 -0.0032
  565TMC3     O 8437   4.730   1.149  10.118 -0.0704 -0.0346 -0.2506
  565TMC3     H 8438   0.027   1.126  10.503  0.5486 -0.0014 -0.6692
  565TMC3    H1 8439   4.568   0.976  10.166  0.3097  4.3534 -0.6071
  565TMC3    H2 8440   4.451   0.854  10.564  1.4886 -0.8924 -0.2027
  565TMC3    C7 8441   4.385   0.843  10.306  0.3749 -0.6285 -0.0634
  565TMC3    C8 8442   4.665   0.939  10.655  0.5865 -0.0310 -0.3958
  565TMC3    O1 8443   4.334   0.758  10.380 -0.5182 -0.2474  0.5602
  565TMC3    O2 8444   4.593   0.905  10.750  0.6694 -0.4887  0.0176
  566MPD2     C 8445   1.148   2.276  14.273 -0.2620 -0.2693  0.1393
  566MPD2    C1 8446   1.224   2.367  14.204  0.2203 -0.3213  0.2828
  566MPD2    C2 8447   1.168   2.433  14.091 -0.1103  0.2661  0.4015
  566MPD2    C3 8448   1.033   2.402  14.056  0.1923 -0.1543 -0.4272
  566MPD2    C4 8449   0.966   2.302  14.129 -0.2796  0.0286 -0.2617
  566MPD2    C5 8450   1.023   2.246  14.236 -0.3689  0.0951 -0.3397
  566MPD2     H 8451   1.225   2.511  14.043 -0.5518 -0.3042 -1.0480
  566MPD2    H1 8452   0.867   2.273  14.094  0.4733 -0.3469 -2.1069
  566MPD2    H2 8453   1.181   2.228  14.365 -0.7156  0.3715  0.6380
  566MPD2    H3 8454   0.964   2.175  14.294 -0.8705  1.1267  0.4142
  566MPD2     N 8455   0.965   2.459  13.945  0.9805  0.1249  0.4771
  566MPD2    H5 8456   0.863   2.459  13.944  0.9850 -0.4816 -0.7826
  566MPD2    N1 8457   1.349   2.398  14.260  0.0577  0.0510  0.2986
  566MPD2    H7 8458   1.382   2.354  14.345 -0.5261 -2.8182 -0.9847
  567TMC3    C1 8459   1.583   2.454  14.246 -0.2955 -0.4658  0.7964
  567TMC3    C2 8460   1.674   2.484  14.145 -0.1614  0.4451 -0.0674
  567TMC3    C3 8461   1.787   2.413  14.137  0.4470  0.3257  0.0443
  567TMC3    C4 8462   1.609   2.354  14.338  0.2753 -0.5477 -0.2319
  567TMC3    C5 8463   1.733   2.290  14.329 -0.2330 -0.4097  0.0056
  567TMC3    C6 8464   1.824   2.315  14.230  0.0202 -0.3936 -0.4199
  567TMC3     C 8465   1.444   2.468  14.196 -0.1233 -0.0288 -0.3958
  567TMC3     O 8466   1.429   2.535  14.096 -0.2761  0.1514 -0.1486
  567TMC3     H 8467   1.660   2.565  14.075 -1.4261  0.8503  0.6552
  567TMC3    H1 8468   1.539   2.319  14.413  0.2087  1.0146  0.4337
  567TMC3    H2 8469   1.912   2.253  14.219  0.9154  0.7903  0.0938
  567TMC3    C7 8470   1.776   2.187  14.428  0.1583  0.3603 -0.7920
  567TMC3    C8 8471   1.888   2.456  14.048 -0.1921 -0.0719  0.0202
  567TMC3    O1 8472   1.893   2.145  14.415 -0.9363 -0.0910 -0.6627
  567TMC3    O2 8473   1.854   2.523  13.952 -0.0047 -0.4947 -0.2409
  568MPD2     C 8474   3.868   2.606  16.156  0.4837  0.5824 -0.2841
  568MPD2    C1 8475   3.887   2.676  16.277  0.1797 -0.1739  0.0201
  568MPD2    C2 8476   3.825   2.798  16.295 -0.1030  0.7996 -1.0381
  568MPD2    C3 8477   3.740   2.852  16.195  0.3283  0.6467 -0.3293
  568MPD2    C4 8478   3.738   2.787  16.066 -0.8893  0.0968 -0.2190
  568MPD2    C5 8479   3.792   2.662  16.053 -0.2789  0.0068  0.2428
  568MPD2     H 8480   3.830   2.853  16.388 -2.0430  0.6191 -0.8199
  568MPD2    H1 8481   3.677   2.825  15.985 -1.2965  0.3438  0.2067
  568MPD2    H2 8482   3.931   2.519  16.141 -1.3660 -1.0668  1.5998
  568MPD2    H3 8483   3.780   2.602  15.963 -1.7538 -0.0452  0.4769
  568MPD2     N 8484   3.674   2.974  16.218 -1.1897  0.1672  0.2436
  568MPD2    H5 8485   3.684   3.016  16.310 -1.7237  1.5169 -0.3057
  568MPD2    N1 8486   3.968   2.605  16.364  0.1190  0.4286 -0.4661
  568MPD2    H7 8487   3.989   2.508  16.342  0.8310  0.9044 -1.8840
  569TMC3    C1 8488   3.547   3.173  16.170 -0.2826 -0.0733 -0.1961
  569TMC3    C2 8489   3.507   3.175  16.299 -0.0505 -0.1202  0.3899
  569TMC3    C3 8490   3.454   3.296  16.340  0.2962  0.0887  0.8273
  569TMC3    C4 8491   3.528   3.272  16.078 -0.1663  0.1880  0.4671
  569TMC3    C5 8492   3.475   3.386  16.131  0.0937  0.2492  0.1227
  569TMC3    C6 8493   3.434   3.405  16.255  0.6458  0.5045  0.7855
  569TMC3     C 8494   3.617   3.048  16.118 -0.6831  0.5365 -0.0168
  569TMC3     O 8495   3.618   3.040  15.995  0.6046 -0.0773 -0.5725
  569TMC3     H 8496   3.526   3.095  16.369  0.8927 -0.7354 -0.5655
  569TMC3    H1 8497   3.564   3.260  15.976  1.2125 -0.1424  0.9958
  569TMC3    H2 8498   3.376   3.493  16.281  1.8315  1.7858 -0.8835
  569TMC3    C7 8499   3.466   3.494  16.031  0.0945  0.8390 -0.6436
  569TMC3    C8 8500   3.431   3.313  16.476 -0.2510 -0.2794 -0.3547
  569TMC3    O1 8501   3.454   3.460  15.916 -0.0612 -0.0995 -0.4480
  569TMC3    O2 8502   3.418   3.205  16.536 -0.3387  0.0945 -0.2756
  570TMC3    C1 8503   3.127   1.780  16.032 -0.0948  0.3543  0.0515
  570TMC3    C2 8504   3.139   1.794  15.895  0.0366 -0.2574 -0.6191
  570TMC3    C3 8505   3.237   1.881  15.854  0.2730 -0.3237  0.3102
  570TMC3    C4 8506   3.206   1.850  16.123 -0.0143 -0.4428 -0.1867
  570TMC3    C5 8507   3.298   1.935  16.076 -0.4424  0.7776  0.7300
  570TMC3    C6 8508   3.314   1.950  15.940  0.2024 -0.5339 -0.4347
  570TMC3     C 8509   3.033   1.686  16.086  0.0706 -0.6674 -0.1008
  570TMC3     O 8510   3.015   1.581  16.022 -0.0985  0.1219 -0.7337
  570TMC3     H 8511   3.070   1.748  15.826 -0.8055  0.2074 -0.0805
  570TMC3    H1 8512   3.205   1.823  16.228  2.0919  1.3202  0.2895
  570TMC3    H2 8513   3.387   2.021  15.903  0.8474 -1.6796 -1.3282
  570TMC3    C7 8514   3.386   2.004  16.168 -0.1659  0.2859  0.0533
  570TMC3    C8 8515   3.286   1.882  15.718  0.3550 -0.7302 -0.6052
  570TMC3    O1 8516   3.409   1.958  16.282 -0.0642  0.2210  0.2152
  570TMC3    O2 8517   3.349   1.980  15.681 -0.4359 -0.1706 -0.1705
  571MPD2     C 8518   1.534   3.472  17.581  0.3547  0.2342  0.4155
  571MPD2    C1 8519   1.431   3.451  17.667  0.2546  0.3217 -0.3219
  571MPD2    C2 8520   1.419   3.527   0.029  0.3718  0.4653  0.1101
  571MPD2    C3 8521   1.503   3.636   0.050 -0.6502 -0.6585 -1.2101
  571MPD2    C4 8522   1.599   3.669  17.709 -0.2341  0.2162  0.1464
  571MPD2    C5 8523   1.617   3.580  17.600  0.4396 -0.7190  0.0190
  571MPD2     H 8524   1.332   3.511   0.093  1.0212  0.9223  1.1110
  571MPD2    H1 8525   1.648   3.765  17.717 -1.8922  0.9844  1.3424
  571MPD2    H2 8526   1.543   3.424  17.484 -1.4862 -1.7312  1.2014
  571MPD2    H3 8527   1.694   3.611  17.531  0.3943  1.0311  0.7566
  571MPD2     N 8528   1.492   3.725   0.163 -0.9001 -0.0632  0.5161
  571MPD2    H5 8529   1.536   3.816   0.160 -1.1156  0.0710  1.3496
  571MPD2    N1 8530   1.327   3.363  17.625 -0.0735  0.7638  0.6134
  571MPD2    H7 8531   1.342   3.320  17.534  1.0781  0.8724  0.7503
  572TMC3    C1 8532   1.426   3.821   0.362  0.1162 -0.2018  0.6763
  572TMC3    C2 8533   1.373   3.804   0.484 -0.0120 -0.0374 -0.8141
  572TMC3    C3 8534   1.313   3.906   0.552  0.7637 -0.5125 -0.3108
  572TMC3    C4 8535   1.391   3.931   0.290  0.4401  0.8218  0.0635
  572TMC3    C5 8536   1.334   4.037   0.360 -0.3147 -0.5712 -0.1235
  572TMC3    C6 8537   1.305   4.032   0.499  1.1171 -0.1183  0.2023
  572TMC3     C 8538   1.431   3.701   0.288 -0.1467 -0.0758  0.2910
  572TMC3     O 8539   1.390   3.591   0.333  0.3493 -0.1722  0.1765
  572TMC3     H 8540   1.401   3.721   0.548 -0.5743  0.1747 -0.2964
  572TMC3    H1 8541   1.418   3.946   0.186 -1.3180  0.2762 -0.4770
  572TMC3    H2 8542   1.276   4.122   0.552 -0.8115 -0.2435 -0.6549
  572TMC3    C7 8543   1.321   4.161   0.285 -0.1176 -0.3836  0.4817
  572TMC3    C8 8544   1.276   3.888   0.684 -0.4494  0.2383 -0.0589
  572TMC3    O1 8545   1.373   4.163   0.172 -0.5152  0.1291 -0.3098
  572TMC3    O2 8546   1.319   3.788   0.742 -0.6394 -0.3301 -0.4851
  573MPD2     C 8547   2.541   3.846  17.453  0.0081  0.4212 -0.7718
  573MPD2    C1 8548   2.583   3.973  17.472 -0.7091  0.1591 -0.2620
  573MPD2    C2 8549   2.561   4.063  17.366  0.8112 -0.9593  0.0457
  573MPD2    C3 8550   2.516   4.025  17.245 -0.3565 -0.7471  0.2585
  573MPD2    C4 8551   2.478   3.893  17.233 -0.0637  0.2759 -0.1143
  573MPD2    C5 8552   2.488   3.802  17.336 -0.5979 -0.5847 -0.6470
  573MPD2     H 8553   2.585   4.168  17.380 -1.5801 -0.3251 -0.7180
  573MPD2    H1 8554   2.428   3.863  17.141 -0.3313  0.9898 -0.1995
  573MPD2    H2 8555   2.552   3.770  17.530  0.0962  1.4472  0.2191
  573MPD2    H3 8556   2.463   3.698  17.319 -0.6245 -0.5430 -0.8686
  573MPD2     N 8557   2.475   4.110  17.141 -0.4611  0.5296 -0.2816
  573MPD2    H5 8558   2.429   4.066  17.062  2.0183  0.1212 -1.5097
  573MPD2    N1 8559   2.637   4.007  17.595  0.5404  0.1846  0.2342
  573MPD2    H7 8560   2.642   3.931  17.662  0.3052 -0.2103 -0.2014
  574TMC3    C1 8561   2.432   4.317  17.034 -0.0426  0.5310  0.1115
  574TMC3    C2 8562   2.319   4.270  16.973  0.5092  0.6300 -0.1638
  574TMC3    C3 8563   2.261   4.357  16.882 -0.1789  0.0720 -0.4630
  574TMC3    C4 8564   2.495   4.434  16.997 -0.1773  0.0762 -0.3512
  574TMC3    C5 8565   2.438   4.509  16.894  0.0906  0.7778 -0.0973
  574TMC3    C6 8566   2.319   4.474  16.837  0.8735  0.5992  0.4146
  574TMC3     C 8567   2.501   4.240  17.143 -0.1960  0.1105 -1.1380
  574TMC3     O 8568   2.575   4.308  17.217  0.6825  0.1611  0.3406
  574TMC3     H 8569   2.267   4.187  17.020 -1.2543  1.5167 -0.5342
  574TMC3    H1 8570   2.589   4.455  17.046  0.5375 -0.6447 -1.3957
  574TMC3    H2 8571   2.274   4.526  16.754 -0.2010  1.2436  1.3915
  574TMC3    C7 8572   2.519   4.621  16.842  0.6439 -1.0956  0.0049
  574TMC3    C8 8573   2.123   4.325  16.845 -0.5936 -0.2557  0.1459
  574TMC3    O1 8574   2.637   4.623  16.875 -0.2990 -0.1937  0.2006
  574TMC3    O2 8575   2.080   4.207  16.841 -0.2219  0.2303 -0.6773
  575TMC3    C1 8576   4.714   0.517  11.395 -0.0738 -1.1691 -0.2072
  575TMC3    C2 8577   4.713   0.387  11.357  0.6403 -0.7684  0.5033
  575TMC3    C3 8578   0.021   0.350  11.236  0.6762  0.4300 -0.1016
  575TMC3    C4 8579   0.015   0.617  11.309  0.7872 -0.1156  0.5010
  575TMC3    C5 8580   0.057   0.570  11.190 -0.0738  0.2489 -0.3790
  575TMC3    C6 8581   0.064   0.442  11.142  0.3608 -0.0300 -0.1116
  575TMC3     C 8582   4.679   0.553  11.532  0.6827 -0.1363  0.2812
  575TMC3     O 8583   4.688   0.466  11.617  0.5942  0.3470  0.5719
  575TMC3     H 8584   4.684   0.307  11.424  0.3966 -1.7483 -0.7713
  575TMC3    H1 8585   0.008   0.723  11.328  1.2148  0.0932 -0.5359
  575TMC3    H2 8586   0.113   0.410  11.050 -0.1570  2.4549 -1.2656
  575TMC3    C7 8587   0.084   0.673  11.092  0.4885 -1.1368 -0.2474
  575TMC3    C8 8588   0.024   0.208  11.197 -0.0567 -0.3318 -0.0587
  575TMC3    O1 8589   0.008   0.769  11.087 -0.2677 -0.1207 -0.1223
  575TMC3    O2 8590   0.015   0.124  11.286  0.1887 -0.3927  0.0676
  576MPD2     C 8591   4.237   2.055  12.808  0.5857 -0.1316  0.5632
  576MPD2    C1 8592   4.251   2.139  12.694  0.1630 -0.1639 -0.3745
  576MPD2    C2 8593   4.168   2.252  12.686  0.5333  0.3941  0.4298
  576MPD2    C3 8594   4.064   2.280  12.774 -0.6954  0.8497  0.0145
  576MPD2    C4 8595   4.055   2.185  12.878 -0.1641 -0.6934  0.0798
  576MPD2    C5 8596   4.142   2.084  12.902 -0.2879  0.3930 -0.3172
  576MPD2     H 8597   4.199   2.317  12.605 -1.3537  2.2906  1.2268
  576MPD2    H1 8598   3.980   2.198  12.956 -0.4028 -0.4134 -0.1965
  576MPD2    H2 8599   4.305   1.974  12.828 -0.4843 -1.8091 -2.6463
  576MPD2    H3 8600   4.142   2.033  12.998  0.2173 -1.5252 -1.3350
  576MPD2     N 8601   3.976   2.391  12.752  0.1920 -0.5540  0.2878
  576MPD2    H5 8602   3.998   2.458  12.679 -2.7307  1.0045  0.8157
  576MPD2    N1 8603   4.356   2.122  12.602 -0.4591  0.0756  0.2642
  576MPD2    H7 8604   4.371   2.195  12.533  1.4383 -0.5530  0.0210
  577TMC3    C1 8605   4.530   2.025  12.473 -0.1894 -0.6622  0.8304
  577TMC3    C2 8606   4.561   1.923  12.387 -0.1991  0.3320  0.6258
  577TMC3    C3 8607   4.641   1.947  12.278 -0.2128 -0.4788 -0.1354
  577TMC3    C4 8608   4.592   2.150  12.461  0.0427  0.1815 -0.6619
  577TMC3    C5 8609   4.664   2.174  12.347 -0.1023  0.1995 -1.0803
  577TMC3    C6 8610   4.682   2.076  12.252 -0.3139  0.0971  0.2821
  577TMC3     C 8611   4.433   2.011  12.588 -0.1327 -0.0507 -0.2421
  577TMC3     O 8612   4.444   1.902  12.647 -0.0979 -0.5388  0.7456
  577TMC3     H 8613   4.518   1.828  12.415 -0.0363  0.1259  0.1698
  577TMC3    H1 8614   4.574   2.228  12.533  2.2876 -0.2321  0.3434
  577TMC3    H2 8615   0.021   2.091  12.178 -0.5749 -0.7030 -0.1506
  577TMC3    C7 8616   4.691   2.314  12.323  0.4115  0.2759  0.0392
  577TMC3    C8 8617   4.697   1.830  12.206 -0.2378 -0.5215 -0.1139
  577TMC3    O1 8618   4.662   2.390  12.408 -0.3064 -0.1877  1.0372
  577TMC3    O2 8619   4.675   1.724  12.263 -0.3251 -0.0063  0.2586
  578MPD2     C 8620   3.148   2.665   1.237 -0.3149 -0.1148 -0.4131
  578MPD2    C1 8621   3.201   2.614   1.118 -0.2852  0.4382  0.0498
  578MPD2    C2 8622   3.289   2.507   1.118 -0.4443  0.5697  0.0771
  578MPD2    C3 8623   3.315   2.441   1.239 -0.2518  0.2414  0.0402
  578MPD2    C4 8624   3.254   2.477   1.353  0.1731 -0.3978 -0.0144
  578MPD2    C5 8625   3.172   2.589   1.358  0.0050 -0.1979  0.3501
  578MPD2     H 8626   3.326   2.459   1.028 -0.1214 -1.3227  1.2244
  578MPD2    H1 8627   3.255   2.421   1.446  0.3228 -1.2822 -0.5484
  578MPD2    H2 8628   3.088   2.755   1.245  1.4375  0.8567  1.6782
  578MPD2    H3 8629   3.133   2.618   1.454 -1.3447 -0.0392 -0.2419
  578MPD2     N 8630   3.400   2.332   1.238  0.1270 -0.3147  0.3056
  578MPD2    H5 8631   3.438   2.311   1.147 -0.1443 -0.1494  0.1549
  578MPD2    N1 8632   3.162   2.678   0.994 -0.2309 -0.4450 -0.5283
  578MPD2    H7 8633   3.109   2.762   1.011  1.3573  0.1304  1.5764
  579TMC3    C1 8634   3.563   2.185   1.303  0.1326  0.1920  0.2214
  579TMC3    C2 8635   3.674   2.177   1.389 -0.4117 -0.1708  0.5487
  579TMC3    C3 8636   3.773   2.097   1.356  0.1720 -0.3352 -0.2321
  579TMC3    C4 8637   3.558   2.120   1.189 -0.3259  0.0019  0.2853
  579TMC3    C5 8638   3.671   2.041   1.153  0.1485 -0.0484  0.3780
  579TMC3    C6 8639   3.776   2.039   1.239 -0.5677 -0.3958  0.3816
  579TMC3     C 8640   3.460   2.278   1.346 -0.2256  0.9844  0.5745
  579TMC3     O 8641   3.470   2.317   1.461  0.3468 -0.4578 -0.3484
  579TMC3     H 8642   3.683   2.234   1.481 -3.6164  2.1242 -0.5590
  579TMC3    H1 8643   3.472   2.134   1.124  0.1018  0.7859 -0.1196
  579TMC3    H2 8644   3.867   1.988   1.209  0.5709  1.7058  0.2770
  579TMC3    C7 8645   3.664   1.952   1.042 -0.2494 -0.0322  0.5083
  579TMC3    C8 8646   3.895   2.134   1.424 -0.0325 -0.2370 -0.4799
  579TMC3    O1 8647   3.767   1.927   0.979  0.0276  1.2413  0.0533
  579TMC3    O2 8648   3.894   2.171   1.537  0.1612 -0.1764  0.0891
  580TMC3    C1 8649   2.083   1.413  12.656 -0.2842 -0.2456 -0.1865
  580TMC3    C2 8650   2.191   1.460  12.720  0.0088  0.2531 -0.3504
  580TMC3    C3 8651   2.281   1.374  12.768 -0.9080  0.5789 -0.3018
  580TMC3    C4 8652   2.060   1.278  12.641 -1.2142 -0.1472  0.5051
  580TMC3    C5 8653   2.156   1.193  12.683 -0.0977 -0.0897 -0.2682
  580TMC3    C6 8654   2.271   1.242  12.736 -0.7398 -0.3975 -0.5834
  580TMC3     C 8655   2.023   1.498  12.552 -0.2642 -0.4748 -0.2041
  580TMC3     O 8656   2.082   1.603  12.525  0.3815  0.4751 -0.2018
  580TMC3     H 8657   2.214   1.566  12.721  0.0489  0.2367  1.0986
  580TMC3    H1 8658   1.971   1.251  12.585 -0.0849  0.3995 -1.5901
  580TMC3    H2 8659   2.339   1.166  12.775  0.3799 -0.2407 -2.2354
  580TMC3    C7 8660   2.156   1.053  12.644  0.8623 -0.7012 -0.3638
  580TMC3    C8 8661   2.416   1.426  12.747  0.1720  0.5657  0.8873
  580TMC3    O1 8662   2.205   0.969  12.716  0.6183 -0.1800  0.1949
  580TMC3    O2 8663   2.438   1.528  12.806  0.1213  0.3691  0.1340
  581MPD2     C 8664   4.408   0.662  14.935  0.1526 -0.1111 -1.1845
  581MPD2    C1 8665   4.457   0.680  14.806  0.6949 -0.1848 -0.1521
  581MPD2    C2 8666   4.362   0.717  14.711 -0.1897 -0.3929 -0.2821
  581MPD2    C3 8667   4.226   0.734  14.739 -0.2451 -0.6355  0.6866
  581MPD2    C4 8668   4.188   0.696  14.866 -0.4704  0.1099  0.8102
  581MPD2    C5 8669   4.278   0.670  14.961 -0.1877  0.3117 -0.5269
  581MPD2     H 8670   4.390   0.748  14.611  0.0530  0.6140  0.0976
  581MPD2    H1 8671   4.086   0.710  14.899 -0.5531 -1.5580  1.2624
  581MPD2    H2 8672   4.476   0.626  15.012  0.8043  3.3219 -0.1963
  581MPD2    H3 8673   4.240   0.649  15.060  0.5374  3.1165  0.3587
  581MPD2     N 8674   4.138   0.789  14.648 -0.0938  0.1338 -0.7004
  581MPD2    H5 8675   4.181   0.852  14.581 -0.3554 -0.6679 -1.6267
  581MPD2    N1 8676   4.598   0.669  14.775 -0.5089  0.3749  0.0580
  581MPD2    H7 8677   4.627   0.664  14.678 -2.7987  2.3423 -0.7398
  582TMC3    C1 8678   0.096   0.635  14.809  0.3285  0.3543  0.2291
  582TMC3    C2 8679   0.193   0.694  14.893  1.1967  0.2978 -0.5515
  582TMC3    C3 8680   0.299   0.619  14.932 -0.2190  0.1917  0.6841
  582TMC3    C4 8681   0.106   0.506  14.785 -0.2018 -0.2878  0.3490
  582TMC3    C5 8682   0.196   0.424  14.846  0.6623 -0.2849  0.2291
  582TMC3    C6 8683   0.298   0.485  14.912  0.1432 -0.1635  0.3048
  582TMC3     C 8684   4.706   0.678  14.863  0.0888 -0.1928 -0.2091
  582TMC3     O 8685   4.706   0.693  14.985 -0.1203  0.2401 -0.2266
  582TMC3     H 8686   0.181   0.795  14.931  1.5414 -0.2277  0.9468
  582TMC3    H1 8687   0.018   0.459  14.742 -1.6210  1.7863  1.0097
  582TMC3    H2 8688   0.374   0.430  14.967  1.1957 -0.3989 -1.3894
  582TMC3    C7 8689   0.138   0.323  14.924  0.2886 -0.4779  0.0458
  582TMC3    C8 8690   0.324   0.649  15.069  0.3067  0.7332  1.1830
  582TMC3    O1 8691   0.100   0.220  14.869  0.0264 -0.0946  0.1429
  582TMC3    O2 8692   0.225   0.657  15.141  0.5741 -0.8492 -0.7475
  583MPD2     C 8693   0.114   2.113  16.724  1.0129  0.4449 -0.7796
  583MPD2    C1 8694   0.110   2.221  16.635  0.0225  0.0044  0.3775
  583MPD2    C2 8695   0.019   2.326  16.659 -0.5801  0.0499  0.3960
  583MPD2    C3 8696   4.660   2.313  16.755 -0.6979  0.0264 -0.1288
  583MPD2    C4 8697   4.661   2.200  16.840  0.1771 -0.2547  0.3443
  583MPD2    C5 8698   0.014   2.100  16.817  0.1808 -0.0919  0.1124
  583MPD2     H 8699   0.008   2.413  16.596  1.3816  0.4126  0.5603
  583MPD2    H1 8700   4.595   2.195  16.926  1.3003  0.4949  1.2465
  583MPD2    H2 8701   0.194   2.041  16.708  0.4473 -0.7478  1.7389
  583MPD2    H3 8702   0.011   2.009  16.876  0.6432 -0.9635 -1.2015
  583MPD2     N 8703   4.571   2.422  16.772 -0.1742  0.0192 -0.2959
  583MPD2    H5 8704   4.614   2.512  16.752  1.3243 -0.6184  0.0787
  583MPD2    N1 8705   0.200   2.225  16.518 -0.3191 -0.1213  0.3412
  583MPD2    H7 8706   0.203   2.317  16.476  0.0598  0.4966  1.7484
  584TMC3    C1 8707   4.391   2.536  16.851 -0.5388  0.3424 -0.5911
  584TMC3    C2 8708   4.424   2.645  16.779  0.0352 -0.6464 -0.3146
  584TMC3    C3 8709   4.407   2.768  16.833 -0.2358  0.2346  0.4099
  584TMC3    C4 8710   4.327   2.548  16.975 -0.0841 -0.1211 -0.6610
  584TMC3    C5 8711   4.298   2.676  17.015  0.0265  0.1312  0.6848
  584TMC3    C6 8712   4.342   2.785  16.954 -0.0507  0.4603  0.4614
  584TMC3     C 8713   4.444   2.410  16.825  0.0185  0.3423  0.0228
  584TMC3     O 8714   4.383   2.310  16.864 -0.3421 -0.2613 -0.3608
  584TMC3     H 8715   4.473   2.641  16.683  2.2975 -0.4774  0.8402
  584TMC3    H1 8716   4.316   2.465  17.045  0.1682 -0.4861 -1.0517
  584TMC3    H2 8717   4.311   2.884  16.985  0.7503  0.8099  0.1398
  584TMC3    C7 8718   4.272   2.696  17.158 -0.0421  0.1534 -0.3551
  584TMC3    C8 8719   4.452   2.874  16.751  0.1415 -1.3624 -0.1232
  584TMC3    O1 8720   4.286   2.598  17.235 -0.3452 -0.1378 -0.2803
  584TMC3    O2 8721   4.468   2.860  16.628 -0.4605 -0.0615 -0.0593
  585MPD2     C 8722   4.484   1.142   0.477  0.5185 -0.1410  0.4013
  585MPD2    C1 8723   4.511   1.125   0.342 -0.7981 -0.1994 -0.5441
  585MPD2    C2 8724   4.457   1.010   0.281 -0.2362 -0.2253  0.0163
  585MPD2    C3 8725   4.377   0.918   0.350  0.5597  0.5493 -0.0115
  585MPD2    C4 8726   4.366   0.938   0.488 -0.2509 -0.5858 -0.5157
  585MPD2    C5 8727   4.416   1.047   0.551 -0.0958  0.1738 -0.5580
  585MPD2     H 8728   4.461   0.994   0.174 -1.3521 -2.6169  0.3268
  585MPD2    H1 8729   4.314   0.868   0.553  2.4992 -1.2789  0.9250
  585MPD2    H2 8730   4.528   1.222   0.535 -1.1349  2.0979 -1.4824
  585MPD2    H3 8731   4.404   1.054   0.659 -0.4876  1.2149 -0.6702
  585MPD2     N 8732   4.309   0.803   0.293  0.0966  0.6908 -0.1575
  585MPD2    H5 8733   4.250   0.750   0.357 -0.4073  0.1246 -1.0839
  585MPD2    N1 8734   4.564   1.233   0.271 -0.4790  0.0325 -0.6336
  585MPD2    H7 8735   4.589   1.314   0.328  1.0034 -0.9236  0.0831
  586TMC3    C1 8736   4.244   0.647   0.148  0.0072 -0.2162  0.5149
  586TMC3    C2 8737   4.322   0.559   0.072 -0.0648 -0.1987  0.1064
  586TMC3    C3 8738   4.257   0.460  17.752 -0.5834  0.2416  0.1117
  586TMC3    C4 8739   4.110   0.650   0.114  0.0209  0.6519  0.0339
  586TMC3    C5 8740   4.050   0.550   0.044 -0.2945  0.0186  0.0085
  586TMC3    C6 8741   4.128   0.452  17.745  0.0575  0.7853  0.7047
  586TMC3     C 8742   4.316   0.767   0.164  0.2109  0.2193 -0.1078
  586TMC3     O 8743   4.365   0.818   0.066  0.5179 -0.3747 -0.1831
  586TMC3     H 8744   4.430   0.566   0.063  0.0472 -2.0861  0.0116
  586TMC3    H1 8745   4.043   0.729   0.148 -0.3550 -0.2646  1.4089
  586TMC3    H2 8746   4.085   0.380  17.676  0.1566  0.2135  1.2321
  586TMC3    C7 8747   3.933   0.567  17.715 -0.6309  0.0775  0.2687
  586TMC3    C8 8748   4.300   0.459  17.618  0.8805 -0.1720 -0.4285
  586TMC3    O1 8749   3.893   0.462  17.670 -0.3243  0.3151 -0.5327
  586TMC3    O2 8750   4.375   0.363  17.583 -0.0952  0.2512 -0.2915
  587TMC3    C1 8751   1.220   0.164  15.857  0.3538  0.5142 -0.2083
  587TMC3    C2 8752   1.280   0.173  15.981 -0.4815  0.3921  0.0412
  587TMC3    C3 8753   1.381   0.087  15.996  0.2007 -0.6883 -0.0498
  587TMC3    C4 8754   1.260   0.084  15.758  0.4400 -0.8496  0.4304
  587TMC3    C5 8755   1.353   4.726  15.789  0.4365 -0.5690  0.1638
  587TMC3    C6 8756   1.422   4.736  15.902 -0.4483  0.4332 -0.7937
  587TMC3     C 8757   1.089   0.223  15.838  0.9994  0.4833  0.4907
  587TMC3     O 8758   1.057   0.243  15.721 -0.8490 -0.5818  0.1377
  587TMC3     H 8759   1.237   0.246  16.048  0.2673  0.7083  0.1717
  587TMC3    H1 8760   1.199   0.071  15.670  2.3221  0.8189 -1.1025
  587TMC3    H2 8761   1.508   4.673  15.923  0.5891  2.6601  1.6523
  587TMC3    C7 8762   1.348   4.594  15.743 -0.4509 -0.0966 -0.6991
  587TMC3    C8 8763   1.457   0.094  16.120 -0.7199 -0.3803 -0.2021
  587TMC3    O1 8764   1.450   4.530  15.761 -0.1253 -0.3506 -0.0952
  587TMC3    O2 8765   1.534   0.002  16.140 -0.1484 -1.0703 -0.1247
  588TMC3    C1 8766   3.921   3.156  10.087 -0.5822  0.6080 -0.1125
  588TMC3    C2 8767   3.841   3.053  10.099 -0.3115  0.0137  0.3832
  588TMC3    C3 8768   3.881   2.929  10.145 -1.1432  0.4523 -0.1472
  588TMC3    C4 8769   4.050   3.147  10.124  0.6126  0.9289 -0.0917
  588TMC3    C5 8770   4.092   3.019  10.165 -0.5316 -0.8737  0.1423
  588TMC3    C6 8771   4.007   2.910  10.181 -0.6233 -0.3021 -0.9418
  588TMC3     C 8772   3.861   3.283  10.093  0.6399  0.1663  0.2274
  588TMC3     O 8773   3.752   3.297  10.145  0.1569  0.5511  0.1008
  588TMC3     H 8774   3.735   3.075  10.101  0.0696  1.8918 -0.5507
  588TMC3    H1 8775   4.118   3.232  10.119  3.8257 -1.6599 -0.9286
  588TMC3    H2 8776   4.046   2.816  10.220  1.8506  1.4071  0.7603
  588TMC3    C7 8777   4.221   3.026  10.228  1.0559 -0.7065 -0.3443
  588TMC3    C8 8778   3.781   2.828  10.141 -0.2244  0.4056 -0.7920
  588TMC3    O1 8779   4.294   2.933  10.196  0.1460 -0.4206  0.0514
  588TMC3    O2 8780   3.665   2.865  10.132  0.4243 -0.3559  0.1346
  589TMC3    C1 8781   3.611   4.534   0.917 -0.5613 -0.1598  0.9669
  589TMC3    C2 8782   3.711   4.553   1.004  0.5334  0.3091  0.0033
  589TMC3    C3 8783   3.805   4.459   1.016  0.9026  0.9645  0.0113
  589TMC3    C4 8784   3.586   4.415   0.852 -0.8679 -0.7268  0.6116
  589TMC3    C5 8785   3.683   4.321   0.874 -0.2605 -0.0182  0.0235
  589TMC3    C6 8786   3.796   4.341   0.950  0.8252  0.1629 -0.3162
  589TMC3     C 8787   3.501   4.636   0.914 -0.7925 -0.4546 -0.5753
  589TMC3     O 8788   3.385   4.597   0.914  0.0767 -0.4589 -0.2076
  589TMC3     H 8789   3.711   4.638   1.071  3.6459  0.8813 -0.6962
  589TMC3    H1 8790   3.508   4.393   0.779 -2.4379  0.3097  1.9964
  589TMC3    H2 8791   3.864   4.262   0.977  1.1192  1.1596  1.8953
  589TMC3    C7 8792   3.664   4.196   0.803 -0.3003 -0.4189 -0.3477
  589TMC3    C8 8793   3.905   4.480   1.120  0.5951  0.4148 -1.1300
  589TMC3    O1 8794   3.548   4.171   0.762 -0.0479  0.0803 -0.0683
  589TMC3    O2 8795   3.872   4.552   1.210 -0.7184 -0.3762 -0.0941
  590MPD2     C 8796   2.502   2.698  16.386 -0.2620  0.1114 -0.1200
  590MPD2    C1 8797   2.505   2.836  16.420  0.2044  0.1936 -0.1227
  590MPD2    C2 8798   2.625   2.902  16.411 -0.2127  0.7097  0.7962
  590MPD2    C3 8799   2.742   2.836  16.368  0.8363  0.4027 -0.7501
  590MPD2    C4 8800   2.725   2.711  16.323 -0.8814 -0.4154 -0.8840
  590MPD2    C5 8801   2.613   2.638  16.339 -0.1154 -0.1209  0.1476
  590MPD2     H 8802   2.631   3.008  16.433 -0.9121  0.7575  0.7565
  590MPD2    H1 8803   2.807   2.660  16.274 -0.7550  0.1072 -1.2262
  590MPD2    H2 8804   2.418   2.638  16.417  0.2475 -0.9100 -0.7124
  590MPD2    H3 8805   2.605   2.535  16.304  3.4472 -0.7921  1.2878
  590MPD2     N 8806   2.865   2.906  16.352 -0.3913  0.0385 -0.1821
  590MPD2    H5 8807   2.869   3.002  16.386  0.2028 -0.5581  1.4305
  590MPD2    N1 8808   2.385   2.908  16.460 -0.8546  0.4360 -0.1251
  590MPD2    H7 8809   2.398   3.007  16.477 -0.2470  0.4258 -0.5141
  591TMC3    C1 8810   3.083   2.953  16.250  0.2133 -0.9618  0.7034
  591TMC3    C2 8811   3.138   2.940  16.123  0.2512  0.4319  0.2653
  591TMC3    C3 8812   3.197   3.049  16.072 -0.1337 -0.1721 -0.0146
  591TMC3    C4 8813   3.073   3.075  16.312  0.7485  0.1249 -0.1016
  591TMC3    C5 8814   3.129   3.184  16.252 -0.5291 -0.1151  0.9488
  591TMC3    C6 8815   3.196   3.171  16.134  0.4220  0.9171 -0.4222
  591TMC3     C 8816   2.976   2.856  16.281 -0.3942  0.2194  0.3054
  591TMC3     O 8817   2.986   2.757  16.210  0.7538 -0.1158 -0.1484
  591TMC3     H 8818   3.151   2.843  16.077  1.8174  0.8481 -0.1629
  591TMC3    H1 8819   3.033   3.082  16.413  2.0378  1.2007  0.3326
  591TMC3    H2 8820   3.245   3.256  16.088  1.5156  1.3707  1.6092
  591TMC3    C7 8821   3.107   3.313  16.314 -0.3260 -0.5468  0.1630
  591TMC3    C8 8822   3.277   3.039  15.949  0.2031 -0.5323 -0.5955
  591TMC3    O1 8823   3.096   3.322  16.437 -0.3814 -0.1952 -0.4875
  591TMC3    O2 8824   3.324   2.932  15.918  0.1225  0.1815  0.2720
  592MPD2     C 8825   3.143   0.750  11.669 -0.0027  0.5950 -0.2971
  592MPD2    C1 8826   3.149   0.745  11.805 -0.4806 -0.5738 -0.6343
  592MPD2    C2 8827   3.064   0.656  11.876  0.3540  0.3684 -0.3757
  592MPD2    C3 8828   2.974   0.579  11.809  0.2704  0.7109 -0.8955
  592MPD2    C4 8829   2.966   0.592  11.674 -0.2616  0.2973 -0.2571
  592MPD2    C5 8830   3.042   0.683  11.605 -0.1000  0.1236 -0.0386
  592MPD2     H 8831   3.067   0.647  11.984  0.5935  1.2968 -0.3021
  592MPD2    H1 8832   2.890   0.544  11.613  1.4408 -1.3680 -1.0842
  592MPD2    H2 8833   3.197   0.829  11.618 -0.2302  1.5447  0.9254
  592MPD2    H3 8834   3.036   0.680  11.497  1.0405  2.6846 -0.1874
  592MPD2     N 8835   2.888   0.499  11.888 -0.8047  0.3062  0.0512
  592MPD2    H5 8836   2.894   0.515  11.989 -0.2118 -1.3761  0.2764
  592MPD2    N1 8837   3.248   0.830  11.860 -0.1641 -0.4134 -0.0899
  592MPD2    H7 8838   3.317   0.867  11.795 -1.4026  0.0066 -1.1521
  593TMC3    C1 8839   3.392   0.926  12.032  0.1468 -0.1137  0.4239
  593TMC3    C2 8840   3.378   1.014  12.129 -0.4027 -0.0913  0.3157
  593TMC3    C3 8841   3.487   1.075  12.178  0.2364  0.3267 -0.2533
  593TMC3    C4 8842   3.510   0.904  11.968  0.1945  0.2969  0.4248
  593TMC3    C5 8843   3.619   0.977  12.018  0.1205  0.6123  0.2480
  593TMC3    C6 8844   3.615   1.047  12.129 -0.5754 -0.4582 -0.3673
  593TMC3     C 8845   3.276   0.848  11.995 -0.1532  0.4978  0.7801
  593TMC3     O 8846   3.203   0.820  12.093 -0.0888 -0.8497  0.6799
  593TMC3     H 8847   3.282   1.023  12.180 -1.0958  0.3577 -1.0623
  593TMC3    H1 8848   3.514   0.865  11.867 -1.2289  1.8728 -0.2153
  593TMC3    H2 8849   3.701   1.099  12.168 -1.3851  1.6839 -1.4522
  593TMC3    C7 8850   3.736   0.996  11.939 -0.3658  0.4774 -0.2830
  593TMC3    C8 8851   3.458   1.213  12.208 -0.3259 -0.4098  0.2244
  593TMC3    O1 8852   3.728   1.019  11.819 -0.5081 -0.1957 -0.2373
  593TMC3    O2 8853   3.351   1.248  12.169  0.0939 -0.0054  0.0027
  594MPD2     C 8854   1.856   3.999  14.272  0.2579 -0.3035 -0.6210
  594MPD2    C1 8855   1.839   4.032  14.404 -0.1010 -0.3963 -0.1716
  594MPD2    C2 8856   1.917   4.138  14.461  0.4185  0.1036  0.2582
  594MPD2    C3 8857   2.011   4.208  14.385  0.1174  0.2059  0.0146
  594MPD2    C4 8858   2.028   4.169  14.251 -0.0272 -0.1709  0.7499
  594MPD2    C5 8859   1.956   4.062  14.203  0.5301  0.1983  0.7810
  594MPD2     H 8860   1.907   4.184  14.559  0.1387 -0.2467  0.3925
  594MPD2    H1 8861   2.102   4.210  14.183 -0.7327 -1.7104 -0.9695
  594MPD2    H2 8862   1.803   3.916  14.228 -1.9864 -0.0121  1.5909
  594MPD2    H3 8863   1.973   4.021  14.103  1.9734  3.9262 -0.4988
  594MPD2     N 8864   2.089   4.311  14.447  0.0764 -0.6066 -0.1841
  594MPD2    H5 8865   2.074   4.324  14.546  1.2236 -2.6843  0.2637
  594MPD2    N1 8866   1.738   3.962  14.467  0.5025 -0.1656 -0.1914
  594MPD2    H7 8867   1.696   3.890  14.409 -2.9170  0.4729  1.4949
  595TMC3    C1 8868   2.489   4.490  14.560 -0.5475 -0.4875  0.7442
  595TMC3    C2 8869   2.403   4.466  14.452  0.0754 -1.0026  0.2205
  595TMC3    C3 8870   2.272   4.460  14.480  0.6485 -0.4105  0.5311
  595TMC3    C4 8871   2.443   4.514  14.688 -0.4117  0.2242 -0.4163
  595TMC3    C5 8872   2.307   4.509  14.710  0.0679 -0.1299 -1.0342
  595TMC3    C6 8873   2.226   4.483  14.606  0.1252  0.3426  0.1800
  595TMC3     C 8874   2.627   4.494  14.543  0.2767 -0.2073 -0.1122
  595TMC3     O 8875   2.692   4.484  14.646  0.1665  0.0025 -0.2436
  595TMC3     H 8876   2.438   4.451  14.350 -0.5302  1.0706 -0.3084
  595TMC3    H1 8877   2.514   4.523  14.769 -1.5963 -0.5074  0.6814
  595TMC3    H2 8878   2.118   4.488  14.611 -0.0296 -0.4906 -2.4252
  595TMC3    C7 8879   2.252   4.543  14.842 -0.0534  0.7399  0.0575
  595TMC3    C8 8880   2.195   4.380  14.387  0.1282  0.0060  0.2071
  595TMC3    O1 8881   2.130   4.560  14.843 -0.4369  0.1119 -0.1664
  595TMC3    O2 8882   2.226   4.370  14.268 -0.0819  0.0465 -0.3538
  596MPD2     C 8883   1.057   2.213  16.562  0.4680 -0.2874 -0.4268
  596MPD2    C1 8884   1.050   2.329  16.492  0.1999  0.0275  0.4845
  596MPD2    C2 8885   1.100   2.329  16.365 -0.7766 -0.1278 -0.0590
  596MPD2    C3 8886   1.133   2.207  16.301 -1.0641  0.2080 -0.4147
  596MPD2    C4 8887   1.130   2.092  16.378  0.7074  0.4087 -0.4132
  596MPD2    C5 8888   1.091   2.097  16.511  0.8979 -0.1827 -0.2051
  596MPD2     H 8889   1.073   2.413  16.303  0.2258  0.1207 -0.1676
  596MPD2    H1 8890   1.138   1.993  16.335 -1.4244  0.7436 -1.5786
  596MPD2    H2 8891   1.027   2.213  16.666  2.0940 -0.7494  0.0497
  596MPD2    H3 8892   1.087   2.001  16.561  1.6220  0.2495  0.6961
  596MPD2     N 8893   1.160   2.191  16.162 -0.0521  0.4537  0.2948
  596MPD2    H5 8894   1.168   2.096  16.128 -0.6937  0.2044  0.8351
  596MPD2    N1 8895   0.972   2.440  16.535 -0.0815  0.3122  0.3540
  596MPD2    H7 8896   0.974   2.517  16.469  0.0940 -1.0604 -1.2412
  597TMC3    C1 8897   0.814   2.576  16.656 -0.1371 -0.6339  0.3320
  597TMC3    C2 8898   0.843   2.688  16.582 -0.5008 -0.5193  0.2006
  597TMC3    C3 8899   0.763   2.803  16.600  0.3696 -0.2070  0.2814
  597TMC3    C4 8900   0.718   2.585  16.756 -0.7583 -0.0469 -0.6738
  597TMC3    C5 8901   0.657   2.709  16.778 -0.7811 -0.2575 -0.4047
  597TMC3    C6 8902   0.663   2.812  16.691  0.6281  0.1289  0.3688
  597TMC3     C 8903   0.896   2.448  16.650 -0.3417  0.5606 -0.5386
  597TMC3     O 8904   0.874   2.363  16.730  0.2850  0.1286 -0.5957
  597TMC3     H 8905   0.931   2.687  16.518  0.3235  0.8776  1.3103
  597TMC3    H1 8906   0.707   2.506  16.829  0.5443 -0.8666 -1.3668
  597TMC3    H2 8907   0.601   2.899  16.708 -0.1623 -0.0597 -1.4982
  597TMC3    C7 8908   0.580   2.711  16.902  0.0397 -0.3511 -0.2352
  597TMC3    C8 8909   0.813   2.927  16.534 -0.3547 -0.4011  0.4907
  597TMC3    O1 8910   0.527   2.602  16.938  0.2531 -0.2965  0.7092
  597TMC3    O2 8911   0.770   3.035  16.567 -0.1998  0.0787  0.1695
  598TMC3    C1 8912   0.052   3.905  15.088  0.1273  0.9740  0.2666
  598TMC3    C2 8913   0.014   3.790  15.147 -0.3027 -0.3002  0.0229
  598TMC3    C3 8914   4.626   3.742  15.129 -0.6573 -0.2112 -0.4596
  598TMC3    C4 8915   4.705   3.991  15.023 -0.5544  0.7024 -0.1332
  598TMC3    C5 8916   4.574   3.950  15.017 -0.6979  0.8136  0.1344
  598TMC3    C6 8917   4.536   3.826  15.069  0.0839  0.3509  0.0435
  598TMC3     C 8918   0.175   3.967  15.128 -0.3729 -0.5722 -0.1319
  598TMC3     O 8919   0.200   4.068  15.065  0.6658  0.6147 -0.2220
  598TMC3     H 8920   0.096   3.725  15.175 -0.6115 -1.0548 -0.8139
  598TMC3    H1 8921   0.006   4.073  14.963  1.2211  0.8113  1.1750
  598TMC3    H2 8922   4.428   3.813  15.071 -0.1264  2.2318  0.9518
  598TMC3    C7 8923   4.474   4.048  14.992 -0.0232 -0.5056 -0.0216
  598TMC3    C8 8924   4.580   3.635  15.216 -0.6860 -0.0297 -0.4731
  598TMC3    O1 8925   4.518   4.159  15.009  0.4336 -0.0172 -0.3384
  598TMC3    O2 8926   4.659   3.602  15.305 -0.5112 -0.7328  0.2430
  599MPD2     C 8927   3.988   1.007  15.655  0.0210  0.2491 -0.5244
  599MPD2    C1 8928   4.036   1.045  15.780 -0.2274 -0.8036  0.3788
  599MPD2    C2 8929   3.971   1.133  15.860 -0.6651 -0.0321 -0.2703
  599MPD2    C3 8930   3.858   1.196  15.813  0.2253 -0.6010  0.1703
  599MPD2    C4 8931   3.816   1.166  15.686  0.6023 -0.4524 -0.2802
  599MPD2    C5 8932   3.880   1.076  15.601  0.6947  0.4270  0.1081
  599MPD2     H 8933   4.006   1.146  15.962 -1.1296  0.3663 -0.1602
  599MPD2    H1 8934   3.730   1.214  15.641  0.3078  0.3580  1.1123
  599MPD2    H2 8935   4.030   0.927  15.595  0.6030 -1.9695  2.8533
  599MPD2    H3 8936   3.841   1.048  15.504  1.9512 -1.1097  0.0369
  599MPD2     N 8937   3.781   1.289  15.884 -0.3533  0.2633 -0.1649
  599MPD2    H5 8938   3.693   1.322  15.848  1.3176  1.4071 -3.1366
  599MPD2    N1 8939   4.152   0.979  15.828  0.0602 -0.1892  0.2434
  599MPD2    H7 8940   4.197   1.020  15.909 -3.8998  0.2210  2.2446
  600TMC3    C1 8941   3.721   1.407  16.091  0.1430  0.0608  0.7911
  600TMC3    C2 8942   3.596   1.353  16.108 -0.0486  0.2076  0.1453
  600TMC3    C3 8943   3.555   1.325  16.235  0.4807  0.0516 -0.3865
  600TMC3    C4 8944   3.779   1.470  16.196 -0.1108 -0.6560  0.8028
  600TMC3    C5 8945   3.726   1.451  16.318  0.1988 -0.3873  0.3989
  600TMC3    C6 8946   3.618   1.375  16.341  0.7772 -0.1705  0.1569
  600TMC3     C 8947   3.822   1.337  16.012 -0.9934  0.2085 -0.1825
  600TMC3     O 8948   3.925   1.316  16.070 -0.1010  0.1954 -0.1013
  600TMC3     H 8949   3.548   1.308  16.022  1.3549 -0.6393 -0.1856
  600TMC3    H1 8950   3.865   1.535  16.183 -0.9283  0.4090  0.6620
  600TMC3    H2 8951   3.585   1.357  16.443 -2.9643 -0.9394 -1.1832
  600TMC3    C7 8952   3.759   1.546  16.419  0.2463  0.0162  0.0983
  600TMC3    C8 8953   3.494   1.202  16.246 -0.0172 -0.1572  0.1218
  600TMC3    O1 8954   3.804   1.653  16.381 -0.0984  0.3232 -0.1852
  600TMC3    O2 8955   3.524   1.136  16.346  0.0553  0.1846  0.5683
  601MPD2     C 8956   1.022   4.563   0.164  0.0923  0.0712  0.0923
  601MPD2    C1 8957   1.135   4.516   0.108  0.1325 -0.0920 -0.9170
  601MPD2    C2 8958   1.205   4.415   0.172 -0.2576 -0.5516  0.4905
  601MPD2    C3 8959   1.158   4.350   0.282 -0.0340  0.3937  0.1749
  601MPD2    C4 8960   1.039   4.398   0.336  0.2694  0.5299  0.0463
  601MPD2    C5 8961   0.975   4.504   0.277  0.0724 -0.8638  0.3975
  601MPD2     H 8962   1.303   4.379   0.142 -0.4538 -0.6170 -0.0886
  601MPD2    H1 8963   0.990   4.340   0.414  0.8157 -1.7249 -1.2635
  601MPD2    H2 8964   0.970   4.646   0.116  1.6261  0.6382 -0.5971
  601MPD2    H3 8965   0.888   4.545   0.326  0.3073  1.6783 -1.3163
  601MPD2     N 8966   1.218   4.237   0.340 -0.0360 -0.4203  0.5003
  601MPD2    H5 8967   1.170   4.209   0.425  4.2966 -2.9812  2.1411
  601MPD2    N1 8968   1.181   4.589  17.745 -0.1115  0.4349  0.7655
  601MPD2    H7 8969   1.111   4.653  17.708  0.2540  0.9599  0.9862
  602TMC3    C1 8970   1.246   4.592  17.526  0.4017  0.1525 -1.0002
  602TMC3    C2 8971   1.203   4.718  17.504 -0.2738  1.1882 -0.1668
  602TMC3    C3 8972   1.106   0.003  17.409 -0.1730 -0.0610 -0.7968
  602TMC3    C4 8973   1.192   4.483  17.456 -0.2199 -0.2367 -0.0408
  602TMC3    C5 8974   1.089   4.504  17.363  0.8218  0.5551 -0.3962
  602TMC3    C6 8975   1.045   4.634  17.343 -0.0962  0.0411  0.2935
  602TMC3     C 8976   1.287   4.559  17.663  0.0995  0.3267  0.2607
  602TMC3     O 8977   1.360   4.463  17.679  0.1562  0.2099 -0.1682
  602TMC3     H 8978   1.254   0.058  17.559 -1.6869 -0.4243  3.4400
  602TMC3    H1 8979   1.222   4.382  17.481  2.6114  0.3395 -1.1315
  602TMC3    H2 8980   0.964   4.662  17.277  0.4374  0.3722 -0.2200
  602TMC3    C7 8981   0.994   4.398  17.332  0.0832  0.1124 -0.5772
  602TMC3    C8 8982   1.025   0.130  17.429 -0.4168  0.0381 -0.5069
  602TMC3    O1 8983   1.027   4.289  17.379  0.3917 -0.2029 -0.0290
  602TMC3    O2 8984   1.078   0.242  17.423  0.4348 -0.4052 -0.1706
  603TMC3    C1 8985   4.468   0.554  10.943 -0.4563  0.5236 -0.1814
  603TMC3    C2 8986   4.452   0.526  11.072 -0.0151  0.3527 -0.5463
  603TMC3    C3 8987   4.389   0.612  11.148  0.4858 -0.1892 -0.3442
  603TMC3    C4 8988   4.432   0.669  10.895 -0.0286  0.1861 -0.8288
  603TMC3    C5 8989   4.364   0.755  10.973  0.0784  0.3048  0.0110
  603TMC3    C6 8990   4.341   0.730  11.102 -0.1830 -0.0810  0.1646
  603TMC3     C 8991   4.572   0.471  10.875  0.3882  0.1281 -0.4973
  603TMC3     O 8992   4.615   0.369  10.925  0.4630  0.4372  0.3092
  603TMC3     H 8993   4.479   0.430  11.113 -0.1533 -0.0137 -1.3147
  603TMC3    H1 8994   4.451   0.692  10.791  1.4997 -0.2228 -0.6381
  603TMC3    H2 8995   4.272   0.791  11.159  1.0561  0.7867  0.7261
  603TMC3    C7 8996   4.304   0.871  10.914 -0.5756  0.3750 -0.3718
  603TMC3    C8 8997   4.381   0.582  11.288  0.2620  0.1660  0.2867
  603TMC3    O1 8998   4.292   0.972  10.982 -0.1669  0.7053  0.0170
  603TMC3    O2 8999   4.411   0.467  11.319 -0.3367  0.4730  0.2134
  604MPD2     C 9000   0.014   3.634  16.372  0.6409 -0.2284 -0.1170
  604MPD2    C1 9001   4.676   3.520  16.380 -0.4782  0.0999 -0.1979
  604MPD2    C2 9002   4.680   3.428  16.277 -0.6946  0.2112  0.3997
  604MPD2    C3 9003   0.013   3.458  16.158  0.0958 -0.5406  0.9590
  604MPD2    C4 9004   0.075   3.582  16.148  0.1781 -0.4766  0.2471
  604MPD2    C5 9005   0.086   3.664  16.257 -0.1868  0.0032 -0.2704
  604MPD2     H 9006   4.633   3.331  16.283 -1.0147  0.3721  0.5007
  604MPD2    H1 9007   0.144   3.609  16.069 -1.0021  0.4090 -0.4832
  604MPD2    H2 9008   0.014   3.709  16.450 -3.7573 -0.8788  0.5302
  604MPD2    H3 9009   0.150   3.751  16.247 -1.2774  0.7020 -1.1888
  604MPD2     N 9010   0.017   3.361  16.061  0.0952 -0.5083  0.5304
  604MPD2    H5 9011   4.732   3.265  16.083  1.1028 -0.7212  0.7131
  604MPD2    N1 9012   4.605   3.492  16.497  0.0457  0.3101  0.3405
  604MPD2    H7 9013   4.626   3.548  16.580 -0.1284 -1.0460  1.2912
  605TMC3    C1 9014   4.441   3.420  16.639  0.1658 -0.2947  0.1665
  605TMC3    C2 9015   4.535   3.472  16.727 -0.0165 -0.3084  1.0144
  605TMC3    C3 9016   4.503   3.582  16.796 -0.1313 -0.4505  0.1284
  605TMC3    C4 9017   4.317   3.473  16.625 -0.0681  0.0523 -0.0700
  605TMC3    C5 9018   4.288   3.576  16.712 -0.0937  0.7355 -0.7124
  605TMC3    C6 9019   4.375   3.629  16.799  0.1121 -0.4662 -0.3402
  605TMC3     C 9020   4.499   3.405  16.510 -0.5505 -0.7272 -0.0495
  605TMC3     O 9021   4.431   3.341  16.429  0.1008  0.1576 -0.1969
  605TMC3     H 9022   4.624   3.415  16.755  0.8876  0.2271 -0.7776
  605TMC3    H1 9023   4.244   3.443  16.552 -0.9742 -1.6292  1.5434
  605TMC3    H2 9024   4.341   3.708  16.865  0.9386 -0.8393  0.5459
  605TMC3    C7 9025   4.194   3.678  16.669 -0.2061  0.6728 -0.3460
  605TMC3    C8 9026   4.604   3.677  16.776  0.4075  0.2525  0.5406
  605TMC3    O1 9027   4.224   3.793  16.693 -0.1518  0.0606 -0.4168
  605TMC3    O2 9028   4.709   3.641  16.732 -0.0599 -0.2149  0.2050
  606TMC3    C1 9029   0.633   2.234  17.615  0.0111  0.0011  0.8363
  606TMC3    C2 9030   0.712   2.288  17.712 -0.2940 -0.1376  0.4389
  606TMC3    C3 9031   0.814   2.213   0.015  0.0741  0.6831 -0.6088
  606TMC3    C4 9032   0.669   2.106  17.577  0.5150 -0.2244 -0.1473
  606TMC3    C5 9033   0.768   2.030  17.634  0.1585 -0.2318  0.6225
  606TMC3    C6 9034   0.843   2.085  17.730 -0.3545 -0.5695  0.0564
  606TMC3     C 9035   0.591   2.333  17.508 -0.1886 -0.1618  0.2137
  606TMC3     O 9036   0.563   2.292  17.393  0.6547 -0.2087  0.0434
  606TMC3     H 9037   0.697   2.387  17.752  0.4437  0.7024 -1.3665
  606TMC3    H1 9038   0.610   2.068  17.494 -0.2508  2.6278 -0.9414
  606TMC3    H2 9039   0.923   2.025   0.020  1.0130  0.9435 -0.3902
  606TMC3    C7 9040   0.833   1.927  17.544 -0.5582 -0.0260  0.2990
  606TMC3    C8 9041   0.921   2.279   0.079 -0.2686  0.4368  0.4005
  606TMC3    O1 9042   0.953   1.935  17.545  0.0656 -0.2831  0.0675
  606TMC3    O2 9043   1.005   2.214   0.143 -0.1020  0.2746  0.0904
  607MPD2     C 9044   3.302   4.600  11.452  0.0154  0.0445 -0.1697
  607MPD2    C1 9045   3.262   4.715  11.505  0.5025  1.1174 -0.6097
  607MPD2    C2 9046   3.216   4.725  11.638 -0.8235 -0.2065 -0.2998
  607MPD2    C3 9047   3.171   4.616  11.710  0.1382  0.1149  0.5978
  607MPD2    C4 9048   3.192   4.493  11.655 -0.5268  0.5160 -0.1153
  607MPD2    C5 9049   3.260   4.488  11.531  0.7067 -0.5754  0.2378
  607MPD2     H 9050   3.196   0.085  11.676  1.4060  0.4880 -0.9252
  607MPD2    H1 9051   3.154   4.402  11.701  2.2365 -0.8453 -0.5548
  607MPD2    H2 9052   3.321   4.584  11.346  0.0939  0.3432 -0.2027
  607MPD2    H3 9053   3.277   4.390  11.489  0.2752  0.2479 -1.8591
  607MPD2     N 9054   3.133   4.646  11.847  0.3338  0.3389  0.4019
  607MPD2    H5 9055   3.124   0.006  11.870  1.9055  0.2613  1.3746
  607MPD2    N1 9056   3.266   0.102  11.438 -0.3574 -1.0615  0.6644
  607MPD2    H7 9057   3.237   0.178  11.499  1.3063 -0.5219  0.7864
  608TMC3    C1 9058   3.337   0.268  11.287 -0.1238 -0.3249 -0.4592
  608TMC3    C2 9059   3.363   0.347  11.390 -0.6135  0.6522 -0.2417
  608TMC3    C3 9060   3.354   0.484  11.375 -0.1548  0.2916 -0.3219
  608TMC3    C4 9061   3.305   0.321  11.168  0.1857  0.1855 -0.1936
  608TMC3    C5 9062   3.302   0.457  11.153 -0.0246  0.0309  0.4608
  608TMC3    C6 9063   3.323   0.544  11.257  0.1364 -0.1839  0.7718
  608TMC3     C 9064   3.306   0.134  11.311 -0.1837  0.0956  0.1179
  608TMC3     O 9065   3.330   0.064  11.213 -0.3869 -0.0878  0.2032
  608TMC3     H 9066   3.400   0.300  11.480  0.5704 -1.8190 -2.0260
  608TMC3    H1 9067   3.285   0.250  11.089  1.0843  1.7412 -1.8015
  608TMC3    H2 9068   3.330   0.649  11.234  0.3738  0.0176  1.7583
  608TMC3    C7 9069   3.307   0.516  11.020 -0.2966  0.3795 -0.1221
  608TMC3    C8 9070   3.359   0.551  11.500  0.5618  0.5587 -0.2970
  608TMC3    O1 9071   3.342   0.631  11.014 -0.7664 -0.0803 -0.7669
  608TMC3    O2 9072   3.415   0.662  11.502 -0.2360  0.4083 -0.0362
  609TMC3    C1 9073   1.446   4.259   9.052 -0.3624 -0.5338 -0.1756
  609TMC3    C2 9074   1.355   4.254   8.949 -0.1309 -0.2997 -0.3556
  609TMC3    C3 9075   1.408   4.235   8.824 -0.0759 -0.3557  0.8512
  609TMC3    C4 9076   1.576   4.241   9.031 -0.1158  0.4140 -0.5387
  609TMC3    C5 9077   1.629   4.226   8.908  0.9639  0.0672  0.2987
  609TMC3    C6 9078   1.543   4.219   8.805  0.2294  0.6628 -0.1599
  609TMC3     C 9079   1.404   4.270   9.193  0.2499  0.7055 -0.4007
  609TMC3     O 9080   1.481   4.227   9.277  0.0590  0.0713  0.3603
  609TMC3     H 9081   1.249   4.247   8.970  0.1806 -1.4917  0.8255
  609TMC3    H1 9082   1.641   4.241   9.118 -1.6152 -3.7626  0.5368
  609TMC3    H2 9083   1.574   4.233   8.702  2.4884 -1.4270  0.2463
  609TMC3    C7 9084   1.773   4.195   8.894 -0.9548  0.6428 -0.9849
  609TMC3    C8 9085   1.342   4.268   8.700  0.3388 -0.0950 -0.0139
  609TMC3    O1 9086   1.846   4.223   8.989 -0.3374  0.3233  0.3771
  609TMC3    O2 9087   1.383   4.224   8.594 -0.0222  0.0987  0.5425
  610TMC3    C1 9088   3.499   4.581  12.545 -0.1312 -1.0801  0.0166
  610TMC3    C2 9089   3.601   4.673  12.517 -0.1118  0.2775  0.3282
  610TMC3    C3 9090   3.730   4.630  12.520 -0.0880 -0.0104  0.2457
  610TMC3    C4 9091   3.522   4.458  12.597 -0.0413  0.1612 -0.0919
  610TMC3    C5 9092   3.652   4.422  12.601  0.4405  0.7419 -0.2343
  610TMC3    C6 9093   3.755   4.507  12.560 -0.1143 -0.2120 -0.2173
  610TMC3     C 9094   3.367   4.626  12.532  0.3831  0.4771 -0.3615
  610TMC3     O 9095   3.283   4.543  12.548 -0.1555  0.0542  0.7298
  610TMC3     H 9096   3.593   0.033  12.474 -2.7418 -0.6881 -1.4086
  610TMC3    H1 9097   3.442   4.393  12.632 -0.2139  0.1426 -0.5106
  610TMC3    H2 9098   3.854   4.466  12.543 -0.1092 -0.6404  0.8370
  610TMC3    C7 9099   3.680   4.277  12.630  0.1137  0.6132 -0.3900
  610TMC3    C8 9100   3.844   4.705  12.474 -0.4934  0.6640  0.1455
  610TMC3    O1 9101   3.781   4.233  12.581 -0.1939  0.3977 -0.2439
  610TMC3    O2 9102   3.952   4.655  12.499  0.0690 -0.0070 -0.4515
  611MPD2     C 9103   3.490   0.414  10.484 -0.5571 -0.5683 -0.3593
  611MPD2    C1 9104   3.449   0.429  10.356 -0.0591  0.4800 -0.1572
  611MPD2    C2 9105   3.519   0.511  10.269  0.5586 -0.2815  0.5885
  611MPD2    C3 9106   3.635   0.569  10.305 -0.4697  0.1835  0.0010
  611MPD2    C4 9107   3.682   0.533  10.434  1.1007  0.3002 -0.1191
  611MPD2    C5 9108   3.601   0.473  10.525 -0.9054  0.3354 -0.1349
  611MPD2     H 9109   3.487   0.531  10.167  2.8749  3.5288  0.6194
  611MPD2    H1 9110   3.779   0.575  10.463  0.8098 -0.4854  1.9974
  611MPD2    H2 9111   3.441   0.350  10.556  2.0694 -1.2328  0.8319
  611MPD2    H3 9112   3.634   0.466  10.628  2.2391  1.8519 -1.0327
  611MPD2     N 9113   3.705   0.661  10.228  0.5321  0.2300 -0.2444
  611MPD2    H5 9114   3.805   0.660  10.247  0.7203 -4.5514 -1.4318
  611MPD2    N1 9115   3.337   0.361  10.326  0.0247  0.4803  0.3932
  611MPD2    H7 9116   3.309   0.292  10.395  2.0638 -2.8663 -2.1577
  612TMC3    C1 9117   3.750   0.843  10.109  0.3056  0.1638  0.2226
  612TMC3    C2 9118   3.848   0.875  10.205 -0.0360  0.0162 -0.2265
  612TMC3    C3 9119   3.943   0.967  10.169 -0.5788  0.2251  0.3127
  612TMC3    C4 9120   3.731   0.909   9.991 -0.3413  0.1859 -1.1923
  612TMC3    C5 9121   3.825   1.012   9.973 -0.6651 -0.2598 -0.1533
  612TMC3    C6 9122   3.923   1.043  10.063 -0.4832  0.2262 -0.3146
  612TMC3     C 9123   3.655   0.740  10.136  0.2831  1.2394 -0.0454
  612TMC3     O 9124   3.540   0.745  10.092 -0.1370 -0.3445  0.4273
  612TMC3     H 9125   3.850   0.830  10.303  1.9180  0.9918  0.1709
  612TMC3    H1 9126   3.677   0.853   9.916 -1.5422  0.1123 -0.2579
  612TMC3    H2 9127   3.976   1.136  10.049  0.8496 -0.4488  0.2481
  612TMC3    C7 9128   3.803   1.086   9.856  0.5788  0.0051 -0.0726
  612TMC3    C8 9129   4.002   1.038  10.276  0.4397 -0.1595  0.1048
  612TMC3    O1 9130   3.891   1.167   9.837 -0.8592 -0.5372  0.5373
  612TMC3    O2 9131   4.019   1.161  10.272 -0.2787 -0.0031 -0.0881
  613MPD2     C 9132   2.372   2.364  16.272 -0.0897 -0.4238 -0.3120
  613MPD2    C1 9133   2.395   2.259  16.190 -0.4457  0.3413 -0.3421
  613MPD2    C2 9134   2.382   2.125  16.239 -0.5108 -0.5229 -0.3985
  613MPD2    C3 9135   2.323   2.103  16.362  0.1685  0.8931 -0.2894
  613MPD2    C4 9136   2.306   2.210  16.445  0.1334 -0.0454 -0.3526
  613MPD2    C5 9137   2.343   2.336  16.407  0.0681 -0.2431  0.1779
  613MPD2     H 9138   2.396   2.044  16.168  2.1569 -1.2785  1.0141
  613MPD2    H1 9139   2.274   2.181  16.544  2.6802 -1.2818  0.1194
  613MPD2    H2 9140   2.385   2.465  16.233 -0.8832 -0.0864  0.3043
  613MPD2    H3 9141   2.321   2.419  16.473 -0.9430  0.2990 -0.8231
  613MPD2     N 9142   2.271   1.979  16.394 -0.4047  0.1000 -0.1022
  613MPD2    H5 9143   2.257   1.954  16.491  3.1973  1.4624  0.7915
  613MPD2    N1 9144   2.429   2.299  16.053 -0.1829  0.1871 -0.3215
  613MPD2    H7 9145   2.391   2.388  16.021  0.1944 -0.0648 -1.4976
  614TMC3    C1 9146   2.461   2.256  15.822  0.2754  0.3657  0.4530
  614TMC3    C2 9147   2.532   2.198  15.725 -0.1393  0.1471  0.1517
  614TMC3    C3 9148   2.490   2.217  15.595  0.9126 -0.7357  0.4146
  614TMC3    C4 9149   2.366   2.356  15.797 -0.0166  0.0641  0.0612
  614TMC3    C5 9150   2.336   2.383  15.664  0.0977 -0.3886  0.7174
  614TMC3    C6 9151   2.400   2.311  15.564 -0.3161 -0.5160 -0.7637
  614TMC3     C 9152   2.477   2.209  15.961  0.5292  0.6241 -0.5758
  614TMC3     O 9153   2.536   2.104  15.979  0.6895  0.9761  0.3226
  614TMC3     H 9154   2.593   2.112  15.751 -1.1369 -0.5411  0.2249
  614TMC3    H1 9155   2.298   2.398  15.870 -0.7944  2.1623 -1.8763
  614TMC3    H2 9156   2.372   2.330  15.461 -2.2370 -0.2814 -0.2007
  614TMC3    C7 9157   2.217   2.458  15.647  0.0468 -0.2062  0.0290
  614TMC3    C8 9158   2.561   2.153  15.494 -0.5830 -0.3837  0.0807
  614TMC3    O1 9159   2.167   2.524  15.740 -0.9469  0.8177 -0.8928
  614TMC3    O2 9160   2.665   2.211  15.478 -0.3835 -0.4030  0.6531
  615MPD2     C 9161   1.476   3.828  15.702  0.0241  0.3950  0.1711
  615MPD2    C1 9162   1.545   3.912  15.787 -0.0108  0.0143  0.0096
  615MPD2    C2 9163   1.482   4.026  15.838 -0.2599  0.4257  0.0584
  615MPD2    C3 9164   1.342   4.044  15.822 -0.6520 -0.2692  0.1322
  615MPD2    C4 9165   1.272   3.959  15.740 -0.1514  0.7530 -0.4749
  615MPD2    C5 9166   1.341   3.856  15.681 -0.6546  0.1886  0.4330
  615MPD2     H 9167   1.535   4.107  15.887  0.8312 -0.0970 -0.2459
  615MPD2    H1 9168   1.165   3.969  15.727 -0.5571 -1.0253  1.4273
  615MPD2    H2 9169   1.524   3.744  15.653  3.7699  0.9636  2.8785
  615MPD2    H3 9170   1.295   3.803  15.598 -1.3232  1.5466 -0.0606
  615MPD2     N 9171   1.267   4.153  15.868  0.4526 -0.3803  0.0498
  615MPD2    H5 9172   1.172   4.155  15.832  0.8161  1.0296 -0.8224
  615MPD2    N1 9173   1.680   3.889  15.817 -0.4834  0.3318  0.1555
  615MPD2    H7 9174   1.726   3.972  15.853  0.2255 -1.3759  3.1598
  616TMC3    C1 9175   1.868   3.769  15.881 -0.0538 -0.1666 -0.5165
  616TMC3    C2 9176   1.949   3.878  15.867  0.5724  0.1666  0.0207
  616TMC3    C3 9177   2.074   3.873  15.924 -0.0387 -0.0986 -0.2204
  616TMC3    C4 9178   1.916   3.646  15.920  0.1937 -0.3267 -0.6473
  616TMC3    C5 9179   2.053   3.638  15.957 -0.6478  0.0198 -0.6254
  616TMC3    C6 9180   2.131   3.754  15.965 -0.3903  0.0674  0.4586
  616TMC3     C 9181   1.744   3.769  15.811 -0.8875 -0.2137  0.4205
  616TMC3     O 9182   1.686   3.661  15.792 -0.3432  0.4944  0.2842
  616TMC3     H 9183   1.915   3.967  15.817 -0.9765 -0.5615 -0.2196
  616TMC3    H1 9184   1.850   3.561  15.927 -1.1885  0.8569  0.6744
  616TMC3    H2 9185   2.234   3.742  16.000 -0.5220 -1.3028  0.3633
  616TMC3    C7 9186   2.106   3.506  15.964 -0.3121  0.0016  0.4066
  616TMC3    C8 9187   2.175   3.967  15.881 -0.4135 -0.2862 -0.0164
  616TMC3    O1 9188   2.033   3.412  15.931 -0.6585 -0.5391  0.5761
  616TMC3    O2 9189   2.139   4.040  15.790 -0.0643 -0.1467  0.4131
  617MPD2     C 9190   4.479   2.306  14.195 -0.4082  0.4408 -0.5048
  617MPD2    C1 9191   4.516   2.214  14.098 -0.0389 -0.3162  0.4482
  617MPD2    C2 9192   4.418   2.164  14.012  0.3258  0.3405  1.1490
  617MPD2    C3 9193   4.281   2.194  14.027  0.8144 -0.2952 -0.1637
  617MPD2    C4 9194   4.253   2.284  14.127  0.3647 -0.1540  0.0004
  617MPD2    C5 9195   4.345   2.344  14.211 -0.7041 -0.8636 -0.2620
  617MPD2     H 9196   4.449   2.085  13.945 -1.1662 -1.7290  2.9149
  617MPD2    H1 9197   4.148   2.300  14.149  0.4249  1.6158 -0.9813
  617MPD2    H2 9198   4.546   2.343  14.272  0.4478  0.5772 -1.3208
  617MPD2    H3 9199   4.312   2.400  14.297 -2.4315 -1.4162 -0.5617
  617MPD2     N 9200   4.178   2.125  13.959  0.9905 -0.3714 -0.0802
  617MPD2    H5 9201   4.085   2.160  13.979  1.0480  0.2720 -0.9150
  617MPD2    N1 9202   4.651   2.190  14.088 -0.2387  0.2395  0.1873
  617MPD2    H7 9203   4.715   2.234  14.154  0.7521  0.6302 -1.0321
  618TMC3    C1 9204   0.112   2.101  13.991 -0.1499 -0.0518  0.1577
  618TMC3    C2 9205   0.178   2.122  14.107 -0.4060  0.2969 -0.4866
  618TMC3    C3 9206   0.294   2.057  14.136  0.1186  0.0581  0.5071
  618TMC3    C4 9207   0.178   2.028  13.894  0.2184 -0.2688 -0.5248
  618TMC3    C5 9208   0.280   1.950  13.928  0.1841 -0.1218  0.6915
  618TMC3    C6 9209   0.341   1.965  14.048  0.3204  0.1337 -0.2989
  618TMC3     C 9210   4.704   2.115  13.987  0.3519  0.3264 -0.3041
  618TMC3     O 9211   4.666   2.071  13.876  0.0319 -0.2984 -0.2207
  618TMC3     H 9212   0.143   2.191  14.182 -0.0300  0.3753 -0.3802
  618TMC3    H1 9213   0.142   2.034  13.792 -0.2248 -2.1690 -0.4879
  618TMC3    H2 9214   0.429   1.910  14.079  0.5164  0.2712 -0.6034
  618TMC3    C7 9215   0.303   1.834  13.849  0.3047 -0.0155 -0.5254
  618TMC3    C8 9216   0.371   2.108  14.247 -0.0600  0.5745 -0.4764
  618TMC3    O1 9217   0.211   1.818  13.770 -1.0908 -0.5247  0.2193
  618TMC3    O2 9218   0.327   2.207  14.311 -0.1618  0.5664 -0.3205
  619MPD2     C 9219   1.157   3.184  14.282  0.2804  0.5160 -0.2625
  619MPD2    C1 9220   1.131   3.235  14.154  0.5387 -0.6686 -0.0176
  619MPD2    C2 9221   1.006   3.220  14.098 -0.0852 -0.0283  0.6124
  619MPD2    C3 9222   0.911   3.142  14.163 -0.8167 -0.3977  0.2834
  619MPD2    C4 9223   0.936   3.082  14.285 -0.6135 -0.7358  0.4258
  619MPD2    C5 9224   1.058   3.107  14.341 -0.0513 -0.1882 -0.3909
  619MPD2     H 9225   0.988   3.264  14.001 -2.6750 -0.8231  0.7209
  619MPD2    H1 9226   0.864   3.022  14.341 -0.4475 -2.0886 -0.8341
  619MPD2    H2 9227   1.253   3.205  14.328 -0.4343  0.3127  1.3548
  619MPD2    H3 9228   1.088   3.055  14.430 -1.6706 -1.6002 -0.6760
  619MPD2     N 9229   0.782   3.131  14.111  0.6105  0.9491  0.2839
  619MPD2    H5 9230   0.718   3.079  14.170  1.4577 -2.2772 -1.6802
  619MPD2    N1 9231   1.223   3.308  14.075  0.5074 -0.0968  0.0638
  619MPD2    H7 9232   1.191   3.345  13.987 -1.4744 -0.5492  0.5935
  620TMC3    C1 9233   1.419   3.428  14.023  0.6875 -0.0320 -0.0281
  620TMC3    C2 9234   1.369   3.448  13.902 -0.1269 -0.3249  0.7250
  620TMC3    C3 9235   1.444   3.513  13.812  0.4601 -0.1851 -1.7101
  620TMC3    C4 9236   1.528   3.493  14.068 -0.1136  0.1029  0.1143
  620TMC3    C5 9237   1.579   3.588  13.987 -0.1757  0.3606 -0.4177
  620TMC3    C6 9238   1.548   3.593  13.855  0.1281 -0.1394  0.4824
  620TMC3     C 9239   1.353   3.340  14.112  0.2183  0.1948 -0.2209
  620TMC3     O 9240   1.414   3.321  14.216 -0.1033  0.2887 -0.6053
  620TMC3     H 9241   1.277   3.402  13.866  0.9690 -1.3166 -0.7870
  620TMC3    H1 9242   1.577   3.478  14.163  0.5883 -3.6035 -0.8140
  620TMC3    H2 9243   1.587   3.668  13.787 -2.2796  0.6105 -0.0635
  620TMC3    C7 9244   1.717   3.634  14.031 -0.2685  0.2250 -0.2432
  620TMC3    C8 9245   1.350   3.584  13.721 -0.5887  0.4189  0.3505
  620TMC3    O1 9246   1.778   3.545  14.090 -0.0301 -0.1920 -0.5172
  620TMC3    O2 9247   1.314   3.693  13.755  0.3417 -0.4060 -0.3026
  621MPD2     C 9248   1.391   3.398   9.188 -0.6211  0.2590 -0.4543
  621MPD2    C1 9249   1.497   3.372   9.275  0.2953  0.2046 -0.7056
  621MPD2    C2 9250   1.593   3.474   9.290 -0.0959 -0.0641  0.2158
  621MPD2    C3 9251   1.573   3.598   9.234 -0.0244  0.0366  0.0307
  621MPD2    C4 9252   1.457   3.620   9.164 -0.3782 -0.3901  0.1498
  621MPD2    C5 9253   1.364   3.525   9.144  0.3754  0.1489 -0.2461
  621MPD2     H 9254   1.680   3.465   9.355  0.9417  0.2511 -1.1363
  621MPD2    H1 9255   1.437   3.717   9.119  0.2553 -0.4948 -0.3527
  621MPD2    H2 9256   1.312   3.328   9.166  1.2852 -1.1079 -2.9131
  621MPD2    H3 9257   1.280   3.550   9.080  0.9966  0.3949 -0.9679
  621MPD2     N 9258   1.663   3.703   9.260  1.0795  0.7976  0.3578
  621MPD2    H5 9259   1.755   3.681   9.297  0.9248  1.7451  1.2926
  621MPD2    N1 9260   1.514   3.251   9.345 -0.5362 -0.0016 -0.9677
  621MPD2    H7 9261   1.600   3.251   9.398 -1.5709 -1.2405  0.7061
  622TMC3    C1 9262   1.490   3.030   9.403 -0.7267 -0.0091  0.0215
  622TMC3    C2 9263   1.549   3.062   9.517  0.2638 -0.0289  1.0491
  622TMC3    C3 9264   1.620   2.965   9.585 -0.0482 -0.4052 -0.0793
  622TMC3    C4 9265   1.507   2.902   9.352  0.3743 -0.4336 -0.0101
  622TMC3    C5 9266   1.561   2.796   9.427  0.0599  0.4787  0.3025
  622TMC3    C6 9267   1.625   2.834   9.541  0.5487  0.7633  0.1904
  622TMC3     C 9268   1.453   3.133   9.313 -0.4512 -0.2804 -0.4763
  622TMC3     O 9269   1.374   3.104   9.223  0.2484 -0.0860 -0.5777
  622TMC3     H 9270   1.534   3.157   9.567 -1.4053 -0.6563  1.7253
  622TMC3    H1 9271   1.463   2.884   9.255 -1.7842 -0.0232  0.8858
  622TMC3    H2 9272   1.666   2.759   9.609 -1.0823  1.3054  1.7761
  622TMC3    C7 9273   1.626   2.683   9.353  0.1556  0.2643  0.0319
  622TMC3    C8 9274   1.612   2.979   9.730  0.4693  0.6050  0.3068
  622TMC3    O1 9275   1.737   2.643   9.392  0.1164 -0.4668 -0.1810
  622TMC3    O2 9276   1.720   2.995   9.789 -0.7979 -0.1439 -0.0028
  623MPD2     C 9277   0.212   3.999  15.699  0.1907  0.1744  0.0195
  623MPD2    C1 9278   0.190   3.890  15.783  0.0857  0.3550  0.6747
  623MPD2    C2 9279   0.262   3.873  15.899  0.2446  0.0553 -0.3229
  623MPD2    C3 9280   0.339   3.977  15.943 -0.4263  0.9037 -0.8387
  623MPD2    C4 9281   0.362   4.087  15.863 -0.0383  0.9455  0.3163
  623MPD2    C5 9282   0.300   4.099  15.744 -0.1599  0.5799 -0.4797
  623MPD2     H 9283   0.261   3.780  15.953  0.4972  0.6581  0.7136
  623MPD2    H1 9284   0.431   4.166  15.886 -0.3648  1.9288 -2.0829
  623MPD2    H2 9285   0.185   3.999  15.594 -0.6375  0.6101  0.2305
  623MPD2    H3 9286   0.310   4.190  15.686  1.9873  0.8203  0.2807
  623MPD2     N 9287   0.404   3.964  16.065  0.3965 -0.1872 -0.0207
  623MPD2    H5 9288   0.389   3.875  16.113  2.6261  0.0112  1.0858
  623MPD2    N1 9289   0.091   3.794  15.744 -0.5896  0.1291  0.2693
  623MPD2    H7 9290   0.075   3.722  15.814 -2.5940  1.4387  1.1770
  624TMC3    C1 9291   0.612   4.093  16.469 -0.0380  0.6178  0.8621
  624TMC3    C2 9292   0.533   4.012  16.543 -0.3525 -0.0163  0.1727
  624TMC3    C3 9293   0.423   3.944  16.480 -0.8210  0.1862  0.3981
  624TMC3    C4 9294   0.602   4.103  16.334  0.2085  0.1903 -0.2356
  624TMC3    C5 9295   0.502   4.032  16.272 -0.0831 -1.1706  0.1192
  624TMC3    C6 9296   0.413   3.958  16.346 -0.2393  0.0741  0.5168
  624TMC3     C 9297   0.720   4.164  16.538 -0.2505 -0.2470  0.5249
  624TMC3     O 9298   0.747   4.277  16.498 -0.5891  0.0214  0.5483
  624TMC3     H 9299   0.523   4.013  16.651  0.4856  1.1968  0.2431
  624TMC3    H1 9300   0.667   4.172  16.283  1.3306 -0.6849  0.0103
  624TMC3    H2 9301   0.322   3.932  16.293  0.8590 -1.3465 -0.6880
  624TMC3    C7 9302   0.461   4.066  16.137  0.0956  0.3932  0.4312
  624TMC3    C8 9303   0.300   3.931  16.561 -0.5365 -0.5802 -0.3389
  624TMC3    O1 9304   0.482   4.184  16.118 -0.0580 -0.2603 -0.1125
  624TMC3    O2 9305   0.299   3.846  16.652 -0.2795 -0.4622  0.0330
  625MPD2     C 9306   1.628   0.618   0.396 -0.0916 -0.1609 -0.2727
  625MPD2    C1 9307   1.609   0.750   0.361 -0.3498 -0.2291  0.6850
  625MPD2    C2 9308   1.708   0.832   0.307  0.1774 -0.5293 -0.1340
  625MPD2    C3 9309   1.839   0.783   0.295 -0.2655 -0.1841  0.5613
  625MPD2    C4 9310   1.855   0.647   0.311  0.0547  0.5146 -0.4988
  625MPD2    C5 9311   1.762   0.569   0.374 -0.9870  0.1969 -0.4194
  625MPD2     H 9312   1.679   0.933   0.281 -1.9794 -1.4538 -1.3363
  625MPD2    H1 9313   1.941   0.593   0.274 -0.2086 -0.9005  0.9829
  625MPD2    H2 9314   1.556   0.552   0.443 -0.0312 -0.3471 -0.4459
  625MPD2    H3 9315   1.792   0.466   0.388  1.6064  0.7239 -2.1324
  625MPD2     N 9316   1.938   0.870   0.237  0.4510 -0.4216  0.7530
  625MPD2    H5 9317   1.903   0.962   0.212 -0.5910 -0.9732  0.1972
  625MPD2    N1 9318   1.488   0.816   0.393 -0.0450  0.4079 -0.0882
  625MPD2    H7 9319   1.478   0.916   0.380 -0.3334  0.5729  1.4636
  626TMC3    C1 9320   1.263   0.833   0.435  0.7256  0.8857 -0.0444
  626TMC3    C2 9321   1.155   0.786   0.359  0.8784  0.0063 -0.0330
  626TMC3    C3 9322   1.047   0.868   0.342 -0.1723  0.1012 -0.4704
  626TMC3    C4 9323   1.273   0.959   0.482 -0.5802  1.4912  0.3401
  626TMC3    C5 9324   1.161   1.038   0.470  0.2945 -0.4442 -0.2280
  626TMC3    C6 9325   1.041   0.995   0.401 -0.2178 -0.0579 -0.2221
  626TMC3     C 9326   1.376   0.749   0.431  0.4585  0.5316 -0.0503
  626TMC3     O 9327   1.350   0.626   0.427  0.4251 -0.5971  0.1647
  626TMC3     H 9328   1.136   0.681   0.340 -0.1161 -0.1746  1.9675
  626TMC3    H1 9329   1.361   0.990   0.537  0.7768 -1.4199 -0.1807
  626TMC3    H2 9330   0.969   1.071   0.372 -1.8917 -0.6956  2.2029
  626TMC3    C7 9331   1.153   1.172   0.535 -0.7283  0.5194  0.5667
  626TMC3    C8 9332   0.938   0.815   0.265 -0.5213  0.1205 -0.1786
  626TMC3    O1 9333   1.249   1.219   0.597 -0.2279 -0.3833  0.1670
  626TMC3    O2 9334   0.958   0.718   0.192  0.1010  0.1424  0.0647
  627MPD2     C 9335   3.458   0.764  14.145 -0.2077  0.2219  0.0593
  627MPD2    C1 9336   3.527   0.712  14.248 -0.5123  0.9698 -0.2358
  627MPD2    C2 9337   3.505   0.581  14.276  0.1056  0.5486 -0.1954
  627MPD2    C3 9338   3.412   0.501  14.207  0.1687 -0.1365  0.0835
  627MPD2    C4 9339   3.356   0.552  14.094 -0.3191  0.4018 -0.2009
  627MPD2    C5 9340   3.379   0.686  14.063  0.4517 -0.2928 -0.6447
  627MPD2     H 9341   3.559   0.537  14.359 -1.1027 -0.6793 -0.0391
  627MPD2    H1 9342   3.297   0.497  14.021 -0.0370  0.5675 -0.5537
  627MPD2    H2 9343   3.461   0.869  14.118 -0.2059 -0.0046 -0.8270
  627MPD2    H3 9344   3.337   0.730  13.973 -0.0947  0.3098 -0.0933
  627MPD2     N 9345   3.384   0.370  14.256 -0.3562  0.1096 -0.3537
  627MPD2    H5 9346   3.445   0.338  14.330  0.1177 -1.9683 -1.6362
  627MPD2    N1 9347   3.615   0.787  14.333 -0.3344 -0.2471  0.0882
  627MPD2    H7 9348   3.625   0.755  14.429 -1.0525 -1.1151 -0.1268
  628TMC3    C1 9349   3.773   0.947  14.410  0.0323  0.1919  0.1508
  628TMC3    C2 9350   3.830   0.855  14.497 -0.2540  0.5487  0.2329
  628TMC3    C3 9351   3.929   0.892  14.580 -0.4345 -0.1195  0.8105
  628TMC3    C4 9352   3.825   1.076  14.396  0.5025  0.3110 -0.8718
  628TMC3    C5 9353   3.933   1.112  14.476 -0.3206  0.2957 -0.7016
  628TMC3    C6 9354   3.987   1.016  14.565 -0.6986 -0.7006  0.7233
  628TMC3     C 9355   3.676   0.909  14.303  0.6356 -0.2546 -0.2139
  628TMC3     O 9356   3.679   0.971  14.197 -0.0961 -0.7143 -0.1349
  628TMC3     H 9357   3.801   0.751  14.491  0.4341  0.4430 -1.1068
  628TMC3    H1 9358   3.785   1.140  14.318  2.3208  0.7071 -1.4800
  628TMC3    H2 9359   4.055   1.042  14.646 -0.2209  1.4695 -0.3807
  628TMC3    C7 9360   4.027   1.224  14.452 -0.5306  0.2031 -0.5363
  628TMC3    C8 9361   3.997   0.791  14.665 -0.8570 -0.3186  0.1858
  628TMC3    O1 9362   4.131   1.218  14.513  0.1061 -0.1332  0.7366
  628TMC3    O2 9363   3.927   0.708  14.719 -0.0579 -0.2082 -0.0074
  629MPD2     C 9364   2.570   4.280  15.888 -0.0344  0.4517 -0.3040
  629MPD2    C1 9365   2.579   4.201  16.002  0.5220  0.5010  0.3725
  629MPD2    C2 9366   2.482   4.113  16.032  0.3887  0.5995 -1.0236
  629MPD2    C3 9367   2.382   4.088  15.937  0.4913  0.4587  0.3436
  629MPD2    C4 9368   2.385   4.156  15.814 -0.3690 -0.4592 -0.2979
  629MPD2    C5 9369   2.482   4.244  15.791  0.3291 -0.6329 -1.0951
  629MPD2     H 9370   2.467   4.069  16.130 -1.8572 -1.2479 -2.2245
  629MPD2    H1 9371   2.332   4.133  15.723 -1.6295  1.1097  0.0409
  629MPD2    H2 9372   2.635   4.360  15.855 -0.2406  0.7591  0.0312
  629MPD2    H3 9373   2.494   4.293  15.695 -0.6859  1.7587  0.0098
  629MPD2     N 9374   2.280   3.991  15.966 -0.5116  0.2264 -0.4709
  629MPD2    H5 9375   2.279   3.959  16.062  1.1760  0.9866 -0.1999
  629MPD2    N1 9376   2.685   4.234  16.089  0.1616 -0.1941 -0.0932
  629MPD2    H7 9377   2.746   4.309  16.057  1.1549 -0.2062  1.7522
  630TMC3    C1 9378   2.824   4.228  16.281 -0.0108  0.0033 -0.2996
  630TMC3    C2 9379   2.873   4.350  16.230  0.3476  0.4033  0.2297
  630TMC3    C3 9380   3.003   4.378  16.260 -0.5947  0.2272  0.4659
  630TMC3    C4 9381   2.905   4.142  16.347 -0.4919 -0.6128  0.7753
  630TMC3    C5 9382   3.035   4.180  16.366 -0.6062  0.4353  0.1604
  630TMC3    C6 9383   3.090   4.292  16.315 -0.4126  0.2832 -0.0541
  630TMC3     C 9384   2.713   4.174  16.213 -0.2374 -0.2479 -0.2141
  630TMC3     O 9385   2.667   4.077  16.266  0.0260  0.0978  0.1430
  630TMC3     H 9386   2.801   4.419  16.188  1.6703  0.9903 -1.0750
  630TMC3    H1 9387   2.857   4.063  16.405  0.2664 -1.6859 -0.0494
  630TMC3    H2 9388   3.196   4.314  16.318 -0.7295  1.7561  0.1381
  630TMC3    C7 9389   3.075   4.173  16.504 -0.1694  1.1462 -0.2872
  630TMC3    C8 9390   3.051   4.513  16.270  0.8716 -0.0249 -0.0416
  630TMC3    O1 9391   3.024   4.085  16.572  0.0610  0.4930  0.7662
  630TMC3    O2 9392   3.147   4.536  16.344  0.1317  0.4570 -0.0411
  631MPD2     C 9393   0.397   4.553  15.775  0.4301 -0.5647  0.4420
  631MPD2    C1 9394   0.482   4.652  15.739  0.1304 -0.6517 -0.3566
  631MPD2    C2 9395   0.614   4.643  15.769 -0.4603 -0.3678 -0.4527
  631MPD2    C3 9396   0.657   4.534  15.840 -0.1520  0.6935  0.8803
  631MPD2    C4 9397   0.568   4.441  15.886 -0.0682  1.0036  0.6315
  631MPD2    C5 9398   0.439   4.446  15.843  0.6907  0.8833  0.5067
  631MPD2     H 9399   0.682   4.722  15.741 -2.4694  1.0306 -1.4305
  631MPD2    H1 9400   0.598   4.356  15.946 -0.2080 -0.2883 -1.1454
  631MPD2    H2 9401   0.292   4.570  15.754  0.9601  0.3433 -1.5454
  631MPD2    H3 9402   0.366   4.375  15.880 -0.1403  0.7850 -1.3111
  631MPD2     N 9403   0.801   4.521  15.856  0.1114 -0.3272  0.1085
  631MPD2    H5 9404   0.864   4.601  15.850 -1.4914  1.0039  1.0997
  631MPD2    N1 9405   0.435   0.026  15.669 -0.0503  0.4528 -0.3695
  631MPD2    H7 9406   0.334   0.026  15.660 -0.2455  0.5577  1.7789
  632TMC3    C1 9407   0.429   0.220  15.526 -0.0965 -0.3514 -0.2308
  632TMC3    C2 9408   0.313   0.160  15.483  0.1592 -0.7727  0.0313
  632TMC3    C3 9409   0.267   0.166  15.350  0.4320  1.5683 -0.3900
  632TMC3    C4 9410   0.501   0.277  15.423 -0.2208  0.2469 -0.7728
  632TMC3    C5 9411   0.466   0.273  15.294  0.3800 -0.2971  0.4036
  632TMC3    C6 9412   0.346   0.225  15.254  1.1834  0.2701 -0.1984
  632TMC3     C 9413   0.511   0.117  15.597 -0.4535  0.6259 -0.3475
  632TMC3     O 9414   0.624   0.111  15.553  0.5079  0.2880  0.0805
  632TMC3     H 9415   0.247   0.107  15.552  0.3798  1.3099  1.8502
  632TMC3    H1 9416   0.594   0.326  15.449 -0.2692 -0.8678  1.4956
  632TMC3    H2 9417   0.318   0.215  15.150 -2.9485 -1.8175  1.1275
  632TMC3    C7 9418   0.566   0.231  15.207  0.0643  0.3544  0.3715
  632TMC3    C8 9419   0.172   0.053  15.306 -0.2574  0.1757 -0.0396
  632TMC3    O1 9420   0.541   0.257  15.091 -0.0431 -0.0716  0.2993
  632TMC3    O2 9421   0.122   4.735  15.404 -0.5488  0.1465 -0.7441
  633MPD2     C 9422   0.364   2.029  17.189 -0.1613  0.1264 -0.1460
  633MPD2    C1 9423   0.344   1.981  17.064 -0.1025  0.3712 -0.5736
  633MPD2    C2 9424   0.300   1.854  17.050 -0.3904  0.5969  0.3732
  633MPD2    C3 9425   0.302   1.764  17.158 -1.0197 -0.0396  0.4547
  633MPD2    C4 9426   0.321   1.823  17.279 -0.1113  0.9740 -0.3423
  633MPD2    C5 9427   0.341   1.954  17.301  0.1679  0.1027  0.1448
  633MPD2     H 9428   0.287   1.812  16.951  0.2601  2.3644 -0.4671
  633MPD2    H1 9429   0.326   1.764  17.370 -1.8169  0.1595 -0.7712
  633MPD2    H2 9430   0.394   2.132  17.197 -0.7743  0.4630 -2.1969
  633MPD2    H3 9431   0.351   2.001  17.398  4.4960  0.1432 -0.3024
  633MPD2     N 9432   0.281   1.627  17.148 -0.2036 -0.0246  0.1311
  633MPD2    H5 9433   0.297   1.567  17.228 -0.7736 -0.5445 -0.1441
  633MPD2    N1 9434   0.376   2.053  16.949  1.3868  0.2300 -0.5682
  633MPD2    H7 9435   0.383   1.998  16.865 -1.3787  0.1195 -0.7104
  634TMC3    C1 9436   0.413   2.230  16.808  0.1529  0.3297  0.2347
  634TMC3    C2 9437   0.517   2.171  16.756 -0.5942  0.3903  0.0327
  634TMC3    C3 9438   0.581   2.238  16.655 -0.6691  0.0856  0.0707
  634TMC3    C4 9439   0.370   2.354  16.773 -0.5442 -0.0085 -0.1615
  634TMC3    C5 9440   0.443   2.420  16.681  0.6847  0.1515 -0.2197
  634TMC3    C6 9441   0.541   2.363  16.613  1.4000 -1.2490  0.0301
  634TMC3     C 9442   0.376   2.193  16.938  0.2244 -0.1740  0.0863
  634TMC3     O 9443   0.338   2.282  17.007 -0.5786  0.6236 -0.0552
  634TMC3     H 9444   0.534   2.065  16.775  0.0703  0.5765  0.4771
  634TMC3    H1 9445   0.283   2.396  16.821 -0.3998 -2.0802  1.8808
  634TMC3    H2 9446   0.594   2.419  16.537 -2.8066 -0.4861 -2.3664
  634TMC3    C7 9447   0.375   2.527  16.607 -0.1747  0.3126  0.1935
  634TMC3    C8 9448   0.636   2.151  16.558  0.0836 -0.4522 -0.0677
  634TMC3    O1 9449   0.400   2.527  16.489 -0.5470  0.2413  0.8929
  634TMC3    O2 9450   0.636   2.029  16.572 -0.3450 -0.1380 -0.0511
  635TMC3    C1 9451   1.115   3.255  17.615  0.4332  0.7065  0.2638
  635TMC3    C2 9452   1.105   3.277  17.477 -0.4134 -0.2412 -0.0363
  635TMC3    C3 9453   0.988   3.244  17.410  0.7375 -0.5548  0.1109
  635TMC3    C4 9454   1.005   3.214  17.685 -0.0634 -0.1432  0.1746
  635TMC3    C5 9455   0.879   3.199  17.622 -0.8292 -0.4856  0.8789
  635TMC3    C6 9456   0.879   3.205  17.482  0.0424 -0.4590 -0.6955
  635TMC3     C 9457   1.209   3.334  17.693 -0.3092  0.6304  0.5563
  635TMC3     O 9458   1.163   3.371   0.047  1.0259  0.0958  0.0032
  635TMC3     H 9459   1.186   3.327  17.424  0.5968  0.7916  2.5050
  635TMC3    H1 9460   1.013   3.200   0.039 -1.0476 -0.0095  0.2639
  635TMC3    H2 9461   0.784   3.197  17.430  0.6840  0.4706 -1.9955
  635TMC3    C7 9462   0.766   3.270  17.682  0.2835  0.6004  0.7466
  635TMC3    C8 9463   0.971   3.280  17.272 -0.4191 -0.1544  0.3262
  635TMC3    O1 9464   0.662   3.264  17.622  0.3615  0.2665 -0.3026
  635TMC3    O2 9465   0.863   3.258  17.225  0.4189 -0.4855  0.1394
  636MPD2     C 9466   1.497   2.403  16.145  0.1636  0.4467  0.4339
  636MPD2    C1 9467   1.600   2.444  16.222  0.1957 -0.0736  0.3501
  636MPD2    C2 9468   1.713   2.363  16.224  0.2829 -0.1589 -0.4412
  636MPD2    C3 9469   1.721   2.241  16.141 -0.2803  0.4434  0.1715
  636MPD2    C4 9470   1.611   2.206  16.067 -0.1932  0.7823  0.4859
  636MPD2    C5 9471   1.502   2.288  16.070  0.0983 -0.4377  0.0864
  636MPD2     H 9472   1.797   2.377  16.291 -0.3897  1.1274  0.1470
  636MPD2    H1 9473   1.607   2.116  16.008 -0.5575  0.3877  1.1106
  636MPD2    H2 9474   1.409   2.466  16.138 -0.2823 -0.4610 -2.0545
  636MPD2    H3 9475   1.417   2.263  16.008  0.6236  1.0918 -1.2426
  636MPD2     N 9476   1.836   2.162  16.150 -0.1463  0.0869  0.3996
  636MPD2    H5 9477   1.911   2.198  16.208  0.3258 -2.2934  1.2843
  636MPD2    N1 9478   1.606   2.571  16.287  0.6147 -0.0276  0.1307
  636MPD2    H7 9479   1.693   2.584  16.337  2.1693  0.9145 -2.7798
  637TMC3    C1 9480   1.997   1.997  16.068  0.1347  0.0787 -0.0074
  637TMC3    C2 9481   2.067   1.992  16.184  1.2375  0.2214  0.4785
  637TMC3    C3 9482   2.184   1.927  16.175 -0.0985  0.3450 -0.4415
  637TMC3    C4 9483   2.033   1.934  15.946 -0.2093  0.1082  0.1006
  637TMC3    C5 9484   2.159   1.871  15.944 -0.2499  0.5576 -0.0441
  637TMC3    C6 9485   2.223   1.858  16.067  0.2310 -0.0380 -0.5603
  637TMC3     C 9486   1.859   2.041  16.079  0.6019 -0.3211  0.4210
  637TMC3     O 9487   1.787   1.980  15.999  0.1526 -0.3826  0.0193
  637TMC3     H 9488   2.028   2.052  16.266 -0.4246 -0.7835  0.4180
  637TMC3    H1 9489   1.982   1.966  15.856 -1.2776 -1.2928  0.1984
  637TMC3    H2 9490   2.324   1.819  16.076 -0.5913 -1.9285  0.4984
  637TMC3    C7 9491   2.245   1.871  15.824 -0.7625  1.0736 -0.9202
  637TMC3    C8 9492   2.244   1.882  16.297 -0.1636  0.9057  0.4060
  637TMC3    O1 9493   2.364   1.864  15.844  0.3133  0.0205  0.3800
  637TMC3    O2 9494   2.234   1.761  16.308  0.4798 -0.1302  0.7601
  638MPD2     C 9495   1.458   1.157  14.705 -0.2058 -0.0104  0.4995
  638MPD2    C1 9496   1.575   1.097  14.736 -0.0806  0.4201 -0.3589
  638MPD2    C2 9497   1.599   1.055  14.864 -0.6793  0.0087  0.0311
  638MPD2    C3 9498   1.501   1.065  14.958 -0.5759 -0.0795 -0.4689
  638MPD2    C4 9499   1.392   1.152  14.930  0.1245 -0.9707  0.0618
  638MPD2    C5 9500   1.370   1.191  14.805  0.2317 -0.1528  0.3077
  638MPD2     H 9501   1.685   0.989  14.870  0.7656  1.9409  0.5021
  638MPD2    H1 9502   1.307   1.164  14.996  0.2655 -1.4181  0.3208
  638MPD2    H2 9503   1.436   1.184  14.602  1.3732 -1.5879 -0.2570
  638MPD2    H3 9504   1.279   1.244  14.781  0.8998  1.3281  1.0486
  638MPD2     N 9505   1.526   0.980  15.063 -0.1053 -0.3660 -0.7784
  638MPD2    H5 9506   1.598   0.910  15.050  0.3454 -0.4417  2.1140
  638MPD2    N1 9507   1.666   1.058  14.640 -0.1651 -0.2387  0.3140
  638MPD2    H7 9508   1.758   1.032  14.676  1.1530  0.8967 -2.2240
  639TMC3    C1 9509   1.468   0.837  15.246  0.3655 -0.5105  0.2281
  639TMC3    C2 9510   1.357   0.762  15.282  0.7862 -0.1710  0.0648
  639TMC3    C3 9511   1.375   0.636  15.312  0.0468 -0.0801 -0.0535
  639TMC3    C4 9512   1.604   0.797  15.254 -1.8251  0.1174 -0.0238
  639TMC3    C5 9513   1.619   0.665  15.293 -0.8394 -0.3612 -0.2216
  639TMC3    C6 9514   1.503   0.595  15.331  0.5456 -0.0534 -0.3085
  639TMC3     C 9515   1.436   0.954  15.159  0.3480  0.4329  0.4248
  639TMC3     O 9516   1.323   1.000  15.179 -0.3703  0.0429 -0.6092
  639TMC3     H 9517   1.257   0.799  15.265 -0.0497 -2.0381  0.8376
  639TMC3    H1 9518   1.690   0.856  15.225  1.8798 -4.6509  1.4179
  639TMC3    H2 9519   1.510   0.499  15.379  0.0683 -0.3846 -0.9031
  639TMC3    C7 9520   1.749   0.595  15.294  0.6599 -0.5323 -0.0979
  639TMC3    C8 9521   1.319   0.556  15.206 -0.0973 -0.4370 -0.4085
  639TMC3    O1 9522   1.765   0.522  15.389 -0.2397  0.5305  0.2596
  639TMC3    O2 9523   1.389   0.500  15.122  0.5251 -0.3178 -0.3949
  640MPD2     C 9524   2.116   0.340   9.795 -0.4303 -0.4696  0.2717
  640MPD2    C1 9525   1.978   0.326   9.786 -0.1654 -0.3499 -0.1936
  640MPD2    C2 9526   1.899   0.415   9.858 -0.7932 -0.4429  0.5055
  640MPD2    C3 9527   1.961   0.527   9.921 -0.0750  0.2764  0.0894
  640MPD2    C4 9528   2.095   0.545   9.908 -0.1277  0.0076  0.7393
  640MPD2    C5 9529   2.173   0.442   9.867  0.4459  0.9472 -0.3634
  640MPD2     H 9530   1.791   0.408   9.857 -0.7415 -1.2560  0.8381
  640MPD2    H1 9531   2.135   0.625   9.970  0.4079 -0.3962  0.9131
  640MPD2    H2 9532   2.174   0.266   9.740 -0.2696  0.0158 -0.2145
  640MPD2    H3 9533   2.281   0.456   9.870  0.4093  1.5180 -1.9659
  640MPD2     N 9534   1.886   0.616  10.000  0.1891  1.2494  0.1121
  640MPD2    H5 9535   1.939   0.690  10.045 -0.1191  0.7168  1.3472
  640MPD2    N1 9536   1.929   0.223   9.707  0.2759 -0.0145 -0.2036
  640MPD2    H7 9537   1.994   0.159   9.663 -0.5081 -0.6314 -0.4567
  641TMC3    C1 9538   1.779   0.077   9.610 -1.2575 -0.3539  0.0256
  641TMC3    C2 9539   1.862   4.715   9.621  0.0607 -0.2671  0.2950
  641TMC3    C3 9540   1.848   4.607   9.537  0.0620 -0.3023 -0.4197
  641TMC3    C4 9541   1.668   0.069   9.525 -0.3827  0.3330  0.0249
  641TMC3    C5 9542   1.662   4.704   9.436 -1.0456  0.4725 -0.1541
  641TMC3    C6 9543   1.753   4.601   9.440 -0.3049  0.2306 -0.4716
  641TMC3     C 9544   1.795   0.205   9.678  0.3265 -0.9558  0.1113
  641TMC3     O 9545   1.699   0.282   9.681  0.0390 -0.6535 -0.4707
  641TMC3     H 9546   1.950   4.705   9.684  0.7064 -0.2931 -0.6103
  641TMC3    H1 9547   1.597   0.150   9.513 -0.0999  0.2659 -2.2120
  641TMC3    H2 9548   1.745   4.516   9.373  0.1648  0.3249 -0.6510
  641TMC3    C7 9549   1.561   4.721   9.335 -0.7121 -0.6052 -0.2380
  641TMC3    C8 9550   1.953   4.512   9.522 -0.5683  0.4803 -0.1131
  641TMC3    O1 9551   1.477   0.069   9.356 -0.5167 -0.2022 -0.0402
  641TMC3    O2 9552   1.966   4.462   9.410 -0.2829 -0.2821 -0.6774
  642TMC3    C1 9553   3.092   1.144  12.726 -0.6864  0.3905 -0.0479
  642TMC3    C2 9554   3.223   1.145  12.684  0.8258 -0.5037 -0.6618
  642TMC3    C3 9555   3.270   1.059  12.592  0.5737  0.8399  0.2157
  642TMC3    C4 9556   3.000   1.052  12.669 -1.0683  0.3323  0.5497
  642TMC3    C5 9557   3.052   0.978  12.567  0.1577  0.2059  0.6288
  642TMC3    C6 9558   3.183   0.977  12.530 -0.3365  0.0099  0.2028
  642TMC3     C 9559   3.049   1.235  12.828 -0.3848  0.1998  0.7238
  642TMC3     O 9560   3.137   1.313  12.869 -0.2400  0.2257  0.4435
  642TMC3     H 9561   3.288   1.207  12.744  0.7699 -2.8879  1.8750
  642TMC3    H1 9562   2.893   1.064  12.679 -1.1852 -0.3886  0.1655
  642TMC3    H2 9563   3.230   0.907  12.462 -0.2933  1.1492 -0.9436
  642TMC3    C7 9564   2.970   0.870  12.508  0.5828 -0.2069  0.3259
  642TMC3    C8 9565   3.408   1.046  12.553 -0.3763  0.8683  0.2604
  642TMC3    O1 9566   3.006   0.818  12.402  0.0069  0.0236  0.3842
  642TMC3    O2 9567   3.444   0.959  12.472 -0.3008  0.0488 -0.1201
  643TMC3    C1 9568   2.365   0.404   0.094 -0.1441  0.1038  0.0376
  643TMC3    C2 9569   2.232   0.427   0.124 -0.1473 -0.0961  0.0533
  643TMC3    C3 9570   2.142   0.342   0.074 -0.4488 -0.2338 -0.7309
  643TMC3    C4 9571   2.404   0.312   0.001 -0.0619  0.4688 -0.0756
  643TMC3    C5 9572   2.313   0.232  17.691  0.2005  0.3419  0.1559
  643TMC3    C6 9573   2.183   0.253  17.730 -0.6361  0.3463  0.7931
  643TMC3     C 9574   2.432   0.529   0.079  0.2444 -0.7754 -0.4784
  643TMC3     O 9575   2.382   0.605  17.752 -0.1695 -0.3754 -0.0809
  643TMC3     H 9576   2.211   0.513   0.187 -0.0245 -0.8794  1.1736
  643TMC3    H1 9577   2.511   0.308  17.737 -0.4557  2.0411 -3.0303
  643TMC3    H2 9578   2.114   0.171  17.711  0.5713  0.0256 -2.3119
  643TMC3    C7 9579   2.336   0.240  17.548  0.3665 -0.3082  0.0696
  643TMC3    C8 9580   2.034   0.415   0.004 -0.0093 -0.6193 -0.4569
  643TMC3    O1 9581   2.441   0.285  17.516  0.2648  0.2849 -0.1318
  643TMC3    O2 9582   1.951   0.336  17.716 -0.4731  0.4658 -0.3057
  644MPD2     C 9583   1.928   0.067   9.208  1.0480  0.1137  0.2154
  644MPD2    C1 9584   2.012   0.105   9.302  0.2777 -0.1814 -0.7219
  644MPD2    C2 9585   2.001   0.235   9.357 -0.0340 -0.5704  1.3932
  644MPD2    C3 9586   1.891   0.315   9.323 -0.0419  0.5953 -0.6131
  644MPD2    C4 9587   1.799   0.268   9.224  0.2109  0.6714  0.8651
  644MPD2    C5 9588   1.822   0.143   9.177  0.3660  0.5487  0.1026
  644MPD2     H 9589   2.065   0.265   9.439  2.6226 -3.6721  0.4692
  644MPD2    H1 9590   1.714   0.326   9.190 -1.1802 -2.6993 -1.3938
  644MPD2    H2 9591   1.941   4.714   9.152 -0.8039  1.3109 -2.2046
  644MPD2    H3 9592   1.767   0.106   9.091 -1.4933  1.4742  0.9062
  644MPD2     N 9593   1.865   0.425   9.406  0.3916 -0.1464 -0.1864
  644MPD2    H5 9594   1.945   0.475   9.444  0.8912  0.9378 -2.7036
  644MPD2    N1 9595   2.111   0.013   9.346  0.0875  0.7950  0.2263
  644MPD2    H7 9596   2.130   4.664   9.299 -1.0911  0.1873  0.8602
  645TMC3    C1 9597   1.743   0.594   9.511  1.0189  0.4979  0.1274
  645TMC3    C2 9598   1.622   0.632   9.575  1.0395  0.0944  0.5575
  645TMC3    C3 9599   1.642   0.740   9.654  0.1722  0.2933 -0.0462
  645TMC3    C4 9600   1.865   0.663   9.526 -0.0917 -0.7385 -0.7776
  645TMC3    C5 9601   1.872   0.766   9.617 -1.1257  0.1002  0.6416
  645TMC3    C6 9602   1.760   0.796   9.687 -0.3563  0.5439 -0.1619
  645TMC3     C 9603   1.742   0.473   9.435 -0.5290  0.6638  0.5594
  645TMC3     O 9604   1.632   0.438   9.394  0.1437  0.2097  0.0489
  645TMC3     H 9605   1.530   0.575   9.566  0.3622  0.8849  2.4747
  645TMC3    H1 9606   1.953   0.647   9.466  0.3392  1.1249 -0.6366
  645TMC3    H2 9607   1.760   0.869   9.767  0.2510 -0.9743  1.2453
  645TMC3    C7 9608   2.001   0.824   9.638 -0.8356 -0.4009 -0.3187
  645TMC3    C8 9609   1.535   0.786   9.744  0.0852  0.5005 -0.2911
  645TMC3    O1 9610   2.102   0.766   9.609 -0.5073 -0.5335 -0.0136
  645TMC3    O2 9611   1.542   0.905   9.781  0.1667  0.0687  0.6655
  646MPD2     C 9612   1.854   4.610  14.677  0.0562 -0.1243 -0.3062
  646MPD2    C1 9613   1.771   4.621  14.788 -0.6876 -0.5856 -0.6891
  646MPD2    C2 9614   1.644   4.675  14.779 -1.0049  0.2736  0.2783
  646MPD2    C3 9615   1.587   4.705  14.654 -1.0418  0.1442  0.1281
  646MPD2    C4 9616   1.676   4.698  14.548  0.1696 -0.2776  0.5416
  646MPD2    C5 9617   1.800   4.655  14.559 -0.5607  0.8888  0.4471
  646MPD2     H 9618   1.577   4.685  14.863 -0.0643  1.8099  0.8369
  646MPD2    H1 9619   1.639   4.714  14.447  0.1852 -0.8022  0.4518
  646MPD2    H2 9620   1.951   4.561  14.677  0.6778  1.1081  0.3496
  646MPD2    H3 9621   1.860   4.656  14.469  0.4417 -1.8350  1.0854
  646MPD2     N 9622   1.454   0.012  14.642 -0.0384 -0.8938 -0.1210
  646MPD2    H5 9623   1.392   4.732  14.720 -1.6245  2.3029 -0.6284
  646MPD2    N1 9624   1.829   4.571  14.911  0.2669 -0.6427  0.5996
  646MPD2    H7 9625   1.917   4.521  14.900 -0.0419 -0.9987 -0.2275
  647TMC3    C1 9626   1.841   4.503  15.137  0.6142 -0.5976 -0.6979
  647TMC3    C2 9627   1.779   4.506  15.259  0.1868  0.3795 -0.5229
  647TMC3    C3 9628   1.834   4.443  15.365  0.0353  0.5246  0.2138
  647TMC3    C4 9629   1.944   4.425  15.110  0.3568 -0.1512 -0.1279
  647TMC3    C5 9630   1.999   4.367  15.217  0.0849 -0.8352  0.1128
  647TMC3    C6 9631   1.950   4.377  15.346  0.1226 -0.3097 -0.2174
  647TMC3     C 9632   1.767   4.572  15.033 -0.3246  0.0974  0.0225
  647TMC3     O 9633   1.657   4.620  15.066 -0.7601  0.1984 -0.0262
  647TMC3     H 9634   1.689   4.565  15.270 -0.3839 -0.9040  1.7454
  647TMC3    H1 9635   1.985   4.404  15.012 -1.1946  1.1032 -1.0503
  647TMC3    H2 9636   2.007   4.340  15.430 -1.4997 -0.2984  0.8776
  647TMC3    C7 9637   2.055   4.237  15.182  0.1982 -0.2242 -0.4524
  647TMC3    C8 9638   1.747   4.340  15.420  0.0717 -0.5023  0.0135
  647TMC3    O1 9639   2.150   4.207  15.253  0.2116  0.3609 -0.5339
  647TMC3    O2 9640   1.787   4.285  15.526  0.7463 -0.1016  0.3276
  648TMC3    C1 9641   1.164   2.237  15.931  0.1982  0.5971  0.5468
  648TMC3    C2 9642   1.211   2.105  15.916  0.2421 -0.6504 -0.7008
  648TMC3    C3 9643   1.159   2.033  15.813  0.4418 -0.7593  0.3471
  648TMC3    C4 9644   1.066   2.292  15.853  0.4890  0.0362 -0.2362
  648TMC3    C5 9645   1.021   2.209  15.755  0.1307  0.0677 -0.4336
  648TMC3    C6 9646   1.063   2.078  15.730 -0.9067  0.1426 -0.1079
  648TMC3     C 9647   1.147   2.290  16.060 -0.4640 -0.5463  0.0836
  648TMC3     O 9648   1.117   2.406  16.084  0.2559 -0.6352 -0.9577
  648TMC3     H 9649   1.289   2.070  15.982 -0.1164 -0.2762 -0.0780
  648TMC3    H1 9650   1.046   2.398  15.863 -0.3140 -0.0167 -1.2334
  648TMC3    H2 9651   1.038   2.026  15.639  0.3655 -1.4652  0.4526
  648TMC3    C7 9652   0.908   2.253  15.676 -0.5498 -0.6813 -0.2674
  648TMC3    C8 9653   1.224   1.907  15.767  0.1289 -0.0401 -0.1246
  648TMC3    O1 9654   0.891   2.200  15.567 -0.0847  0.2347  0.3407
  648TMC3    O2 9655   1.345   1.904  15.772  0.5248  0.6329  0.2903
  649TMC3    C1 9656   0.548   3.417  12.905  0.1003  0.4355  0.7272
  649TMC3    C2 9657   0.678   3.422  12.950 -0.4812  0.1295 -0.0911
  649TMC3    C3 9658   0.704   3.394  13.085  0.6356  0.3461 -0.3351
  649TMC3    C4 9659   0.449   3.356  12.982 -0.9894  0.7399 -0.2803
  649TMC3    C5 9660   0.472   3.330  13.114  0.0103 -0.4426 -0.2000
  649TMC3    C6 9661   0.596   3.356  13.167  0.3330 -0.9789 -0.1925
  649TMC3     C 9662   0.528   3.410  12.762 -0.7571  0.4167  0.3967
  649TMC3     O 9663   0.426   3.426  12.696 -0.4462 -0.6312 -0.3448
  649TMC3     H 9664   0.759   3.465  12.893 -1.0416 -0.4956 -1.3564
  649TMC3    H1 9665   0.355   3.337  12.930 -0.2994 -0.6312 -1.0255
  649TMC3    H2 9666   0.625   3.318  13.264 -0.0838  1.0446  0.7004
  649TMC3    C7 9667   0.377   3.227  13.176  0.4660 -0.0824 -0.6543
  649TMC3    C8 9668   0.840   3.368  13.132  0.4526 -1.1519 -0.4147
  649TMC3    O1 9669   0.266   3.207  13.126 -0.1106 -0.1901  0.3376
  649TMC3    O2 9670   0.851   3.291  13.230  0.2131  0.3590 -0.4227
  650TMC3    C1 9671   2.347   0.213  12.642  0.4141 -0.2975 -0.0082
  650TMC3    C2 9672   2.303   0.252  12.767  0.1939 -0.4574 -0.0977
  650TMC3    C3 9673   2.188   0.316  12.779 -0.1841 -0.0282 -0.6579
  650TMC3    C4 9674   2.290   0.262  12.525 -0.2219 -0.5479 -0.6478
  650TMC3    C5 9675   2.185   0.351  12.536  0.1583 -0.6268  0.0098
  650TMC3    C6 9676   2.136   0.380  12.664  0.0520 -0.5499 -0.0949
  650TMC3     C 9677   2.430   0.092  12.645 -0.5802  0.0754  0.2948
  650TMC3     O 9678   2.410   0.025  12.747  0.1343  0.0416 -0.2847
  650TMC3     H 9679   2.357   0.222  12.855 -0.2780  3.1793  1.4230
  650TMC3    H1 9680   2.333   0.232  12.430 -1.8413  1.9182 -2.1656
  650TMC3    H2 9681   2.040   0.430  12.670 -0.5108 -1.6735  0.4219
  650TMC3    C7 9682   2.163   0.444  12.425  0.2611  0.0073 -0.6583
  650TMC3    C8 9683   2.159   0.374  12.906 -0.1608 -0.0736  1.0735
  650TMC3    O1 9684   2.151   0.400  12.310 -0.4910 -0.4538  0.5356
  650TMC3    O2 9685   2.252   0.410  12.979  0.0627 -0.0772  0.2541
  651MPD2     C 9686   1.689   2.675  11.356 -0.1388  0.5941 -0.8778
  651MPD2    C1 9687   1.668   2.806  11.328 -0.7476  0.2423 -0.2102
  651MPD2    C2 9688   1.768   2.879  11.256  0.6531 -0.0059  0.0244
  651MPD2    C3 9689   1.885   2.819  11.210 -0.3903  0.0010 -0.1025
  651MPD2    C4 9690   1.900   2.681  11.243  0.0355 -0.3485 -0.2542
  651MPD2    C5 9691   1.803   2.616  11.311 -0.0507  0.0681  0.5571
  651MPD2     H 9692   1.753   2.985  11.239  2.0911  0.2629  0.4709
  651MPD2    H1 9693   1.988   2.624  11.214  0.1845  1.6334 -3.7514
  651MPD2    H2 9694   1.622   2.616  11.417  0.9087  1.5295  1.1611
  651MPD2    H3 9695   1.831   2.517  11.346 -1.9179 -0.4005  0.7287
  651MPD2     N 9696   1.982   2.903  11.151  0.1319 -0.7243  0.3691
  651MPD2    H5 9697   1.951   2.995  11.122 -0.2846 -0.9815 -0.0036
  651MPD2    N1 9698   1.552   2.875  11.368  0.3262 -0.2214  0.2492
  651MPD2    H7 9699   1.530   2.968  11.336  0.5112  0.0137  0.8069
  652TMC3    C1 9700   2.367   3.029  10.909  0.1017 -0.2142  0.2016
  652TMC3    C2 9701   2.299   2.937  10.994  0.3197 -0.1546 -0.2676
  652TMC3    C3 9702   2.161   2.939  11.001 -0.0043 -0.4409 -1.0610
  652TMC3    C4 9703   2.299   3.126  10.837  0.5764 -0.6379 -0.1383
  652TMC3    C5 9704   2.163   3.110  10.845  0.0707  0.2414  0.5263
  652TMC3    C6 9705   2.090   3.030  10.933  0.0107 -0.3717  0.0613
  652TMC3     C 9706   2.515   3.029  10.909 -0.5210 -0.6008 -0.3183
  652TMC3     O 9707   2.569   2.970  11.000 -0.1278 -0.2086 -0.5369
  652TMC3     H 9708   2.357   2.870  11.056  0.1053 -0.1375 -0.0491
  652TMC3    H1 9709   2.351   3.205  10.783  1.0859  0.7547  2.3720
  652TMC3    H2 9710   1.983   3.018  10.920 -0.1453  1.0108  0.1023
  652TMC3    C7 9711   2.079   3.201  10.762  0.1150  0.0314 -1.6544
  652TMC3    C8 9712   2.098   2.847  11.098  0.5853  0.0225  0.6712
  652TMC3    O1 9713   1.970   3.232  10.801  0.3195  0.4785  0.1936
  652TMC3    O2 9714   2.158   2.741  11.128 -0.7719 -0.2152 -0.2742
  653MPD2     C 9715   0.204   2.048  17.661  0.4865  0.3477  0.4770
  653MPD2    C1 9716   0.147   2.110  17.561 -0.1420  0.1765  0.4853
  653MPD2    C2 9717   0.078   2.037  17.473  0.3800 -0.3469 -0.0175
  653MPD2    C3 9718   0.065   1.897  17.481  0.1822  0.1589  0.2156
  653MPD2    C4 9719   0.137   1.828  17.575  0.7226 -0.1264  0.1158
  653MPD2    C5 9720   0.201   1.908  17.674 -0.5490  0.0325  0.3066
  653MPD2     H 9721   0.020   2.088  17.396  0.6592  1.4583  0.9974
  653MPD2    H1 9722   0.138   1.720  17.586 -1.0231 -0.1679 -0.1072
  653MPD2    H2 9723   0.261   2.097  17.740  0.6127  2.8886 -1.2134
  653MPD2    H3 9724   0.246   1.863   0.009  1.2704 -0.1609 -0.7361
  653MPD2     N 9725   4.727   1.834  17.375  0.2929 -0.0153  0.4815
  653MPD2    H5 9726   4.678   1.893  17.308  1.7574 -1.9698 -2.3183
  653MPD2    N1 9727   0.163   2.253  17.547 -0.4264 -0.0761 -0.1151
  653MPD2    H7 9728   0.120   2.297  17.466 -0.9463  0.1581  0.2914
  654TMC3    C1 9729   4.638   1.662  17.244 -0.2785  0.3776  0.0809
  654TMC3    C2 9730   4.574   1.756  17.168  0.1349  0.1041  0.0118
  654TMC3    C3 9731   4.543   1.728  17.033 -0.2965 -0.7115  0.1795
  654TMC3    C4 9732   4.662   1.541  17.189  0.4937  0.3577  0.0763
  654TMC3    C5 9733   4.629   1.520  17.060  0.2216 -0.4326  0.5515
  654TMC3    C6 9734   4.571   1.606  16.976  0.1114  0.1681  0.0754
  654TMC3     C 9735   4.719   1.692  17.362  0.0691 -0.1338 -0.5889
  654TMC3     O 9736   0.038   1.604  17.419 -0.2503 -0.7728  0.2491
  654TMC3     H 9737   4.554   1.855  17.208  0.2625  0.0430  0.2244
  654TMC3    H1 9738   4.712   1.473  17.256 -0.6662 -0.8458 -0.2723
  654TMC3    H2 9739   4.555   1.581  16.872  2.8574  0.6640 -0.4484
  654TMC3    C7 9740   4.654   1.390  17.001 -0.1145 -0.3581 -0.5993
  654TMC3    C8 9741   4.531   1.839  16.943  0.9573 -0.0200  0.8495
  654TMC3    O1 9742   4.653   1.372  16.878  0.3997 -0.0230  0.1026
  654TMC3    O2 9743   4.503   1.944  16.997 -0.3829  0.3220  0.1987
  655MPD2     C 9744   1.313   2.282  15.564  0.4189 -0.4065  0.7233
  655MPD2    C1 9745   1.209   2.328  15.487 -0.4687 -0.7713 -0.3560
  655MPD2    C2 9746   1.157   2.250  15.387  0.5861  0.0887 -0.5604
  655MPD2    C3 9747   1.212   2.134  15.359  0.3724 -0.4711  0.2502
  655MPD2    C4 9748   1.318   2.083  15.435 -0.2330 -0.0606 -0.0468
  655MPD2    C5 9749   1.369   2.156  15.538  0.2312  0.3090 -0.6033
  655MPD2     H 9750   1.072   2.286  15.329 -0.4857 -1.8996 -0.2058
  655MPD2    H1 9751   1.372   1.992  15.411  1.0735  1.0452 -1.3179
  655MPD2    H2 9752   1.351   2.330  15.653  1.8180  1.0528 -0.6826
  655MPD2    H3 9753   1.448   2.108  15.594 -0.3763  1.3426  1.1275
  655MPD2     N 9754   1.172   2.049  15.252  0.0870  0.5607 -0.1507
  655MPD2    H5 9755   1.223   1.964  15.228 -2.9724 -0.6255 -2.4447
  655MPD2    N1 9756   1.145   2.460  15.511  0.1641 -0.0220 -0.0524
  655MPD2    H7 9757   1.063   2.480  15.455 -0.0212 -1.7234 -0.3653
  656TMC3    C1 9758   1.090   2.648  15.643 -1.0988  0.3618  0.8109
  656TMC3    C2 9759   1.075   2.674  15.774  0.2567 -0.5960  0.2931
  656TMC3    C3 9760   0.979   2.760  15.812 -1.5174 -0.0202  0.0549
  656TMC3    C4 9761   1.010   2.701  15.544  0.8717  0.3047 -0.1900
  656TMC3    C5 9762   0.907   2.780  15.584 -0.1355  0.3005 -0.4413
  656TMC3    C6 9763   0.889   2.804  15.721 -0.2078  0.3833 -0.5666
  656TMC3     C 9764   1.181   2.543  15.610 -0.3823  0.1824  0.3784
  656TMC3     O 9765   1.277   2.543  15.688  0.0123  0.4775  0.2675
  656TMC3     H 9766   1.143   2.627  15.844 -1.2124  1.0831  2.8512
  656TMC3    H1 9767   1.013   2.661  15.443 -1.3180  0.7698 -0.4274
  656TMC3    H2 9768   0.816   2.884  15.728  0.3618  0.7484  1.1013
  656TMC3    C7 9769   0.814   2.815  15.482  0.4185 -0.4368  0.0354
  656TMC3    C8 9770   0.902   2.719  15.926  0.1026 -1.1159  0.4837
  656TMC3    O1 9771   0.857   2.809  15.370 -0.6022  0.1893  0.2365
  656TMC3    O2 9772   0.913   2.600  15.952  0.4571 -0.2483  0.6252
  657TMC3    C1 9773   0.282   1.362  14.540 -0.1019 -0.0397 -0.8805
  657TMC3    C2 9774   0.277   1.441  14.654  0.2441 -0.0427  0.6141
  657TMC3    C3 9775   0.197   1.542  14.654  0.1184  0.1200  0.1408
  657TMC3    C4 9776   0.213   1.392  14.427  0.1360 -0.1868 -0.1526
  657TMC3    C5 9777   0.129   1.496  14.437  0.2402  0.9387  0.4202
  657TMC3    C6 9778   0.125   1.577  14.544 -0.1136  0.6880 -0.2917
  657TMC3     C 9779   0.399   1.276  14.515 -0.4670  0.2721 -0.0773
  657TMC3     O 9780   0.390   1.198  14.419 -0.6430 -0.7687  0.1268
  657TMC3     H 9781   0.353   1.433  14.731 -0.1435 -2.9083  0.6833
  657TMC3    H1 9782   0.199   1.311  14.357  1.8954 -0.4908 -0.1615
  657TMC3    H2 9783   0.063   1.666  14.543  0.9251  1.4331  0.1684
  657TMC3    C7 9784   0.014   1.507  14.348 -0.1150  0.1229 -0.7547
  657TMC3    C8 9785   0.174   1.620  14.780  0.3246 -0.4309 -0.3598
  657TMC3    O1 9786   4.652   1.559  14.392  0.3338  0.2577 -0.3405
  657TMC3    O2 9787   0.101   1.723  14.760 -0.1058  0.6345  0.4500
  658MPD2     C 9788   1.670   1.854  14.810 -0.5814  0.2143  0.1430
  658MPD2    C1 9789   1.550   1.916  14.773 -0.5683 -0.6485  0.1673
  658MPD2    C2 9790   1.557   2.002  14.664 -0.3629  0.7193  0.1716
  658MPD2    C3 9791   1.680   2.036  14.603 -1.0332  0.3295 -0.2270
  658MPD2    C4 9792   1.799   1.983  14.651 -0.1955  0.3048  0.5142
  658MPD2    C5 9793   1.791   1.894  14.751 -0.0512  0.4959 -0.7894
  658MPD2     H 9794   1.469   2.063  14.645  0.6391  1.7133 -1.2887
  658MPD2    H1 9795   1.897   2.015  14.615 -0.3816  0.9029  0.5301
  658MPD2    H2 9796   1.673   1.773  14.883 -2.8282  1.4494  1.6212
  658MPD2    H3 9797   1.882   1.844  14.782  0.2396  1.6847  0.2705
  658MPD2     N 9798   1.676   2.142  14.507  0.2321  0.0691 -0.4090
  658MPD2    H5 9799   1.587   2.190  14.511 -0.5642 -1.5138  0.7646
  658MPD2    N1 9800   1.434   1.891  14.845  0.1676 -0.2681 -0.1054
  658MPD2    H7 9801   1.439   1.841  14.933 -0.7585  0.6290  0.4586
  659TMC3    C1 9802   1.200   1.872  14.877 -0.1640  0.3328  0.3418
  659TMC3    C2 9803   1.210   1.948  14.997 -0.2448 -0.3513 -0.3087
  659TMC3    C3 9804   1.091   2.000  15.039 -0.1470  0.2524  0.2926
  659TMC3    C4 9805   1.082   1.858  14.805  0.3079  0.6352  0.3137
  659TMC3    C5 9806   0.967   1.910  14.863 -0.8255  0.0737 -0.1663
  659TMC3    C6 9807   0.974   1.986  14.973  0.0266  0.2142  0.2238
  659TMC3     C 9808   1.309   1.904  14.792  0.2119  0.4386  0.0807
  659TMC3     O 9809   1.278   1.926  14.676 -0.0899  0.2686  0.5968
  659TMC3     H 9810   1.300   1.960  15.056  0.0842  0.3449 -0.9707
  659TMC3    H1 9811   1.080   1.806  14.709 -1.1211 -1.4301  1.4668
  659TMC3    H2 9812   0.880   2.012  15.022 -1.6197 -3.6762 -0.9059
  659TMC3    C7 9813   0.834   1.902  14.806 -0.4125 -0.5851  0.7747
  659TMC3    C8 9814   1.090   2.091  15.151  0.0704 -0.4556  0.0394
  659TMC3    O1 9815   0.753   1.987  14.835  0.0583  0.0750  0.1128
  659TMC3    O2 9816   1.015   2.189  15.133 -0.4398 -0.2762  0.4804
  660MPD2     C 9817   4.427   1.556  12.787  0.5634 -0.1631  0.4279
  660MPD2    C1 9818   4.288   1.562  12.753 -0.4506  0.9211 -0.5008
  660MPD2    C2 9819   4.204   1.453  12.778 -0.6199 -0.4623 -0.1109
  660MPD2    C3 9820   4.258   1.342  12.845 -0.6075 -0.7786  0.8980
  660MPD2    C4 9821   4.387   1.344  12.887 -0.1054  0.3759  0.4699
  660MPD2    C5 9822   4.472   1.444  12.855  0.6353  0.0125  0.1286
  660MPD2     H 9823   4.115   1.449  12.718 -1.7688 -2.7067  1.7522
  660MPD2    H1 9824   4.435   1.255  12.925  0.6008  0.5244 -0.0662
  660MPD2    H2 9825   4.502   1.629  12.759 -0.5414  1.4370  1.6513
  660MPD2    H3 9826   4.577   1.443  12.881  0.8090 -1.3282 -0.6082
  660MPD2     N 9827   4.169   1.228  12.874  0.4412  0.0640 -0.5670
  660MPD2    H5 9828   4.210   1.150  12.924 -0.8628  0.2760  0.8424
  660MPD2    N1 9829   4.250   1.674  12.679  0.0107 -0.1934 -0.2419
  660MPD2    H7 9830   4.320   1.739  12.643 -0.1907  0.5373  0.6898
  661TMC3    C1 9831   4.113   1.781  12.534 -0.2880  0.2132 -0.3976
  661TMC3    C2 9832   4.205   1.761  12.429  0.9520 -0.0946 -0.0882
  661TMC3    C3 9833   4.161   1.780  12.307 -0.2305  0.7076 -0.5329
  661TMC3    C4 9834   3.985   1.819  12.514 -0.1537 -0.1730  0.3307
  661TMC3    C5 9835   3.950   1.839  12.390 -0.2807 -0.0245  0.6347
  661TMC3    C6 9836   4.032   1.819  12.286  0.5979 -0.0341 -0.2206
  661TMC3     C 9837   4.125   1.698  12.642 -0.5543  0.1341 -0.2682
  661TMC3     O 9838   4.020   1.648  12.674  0.3158  0.1291 -0.0417
  661TMC3     H 9839   4.301   1.713  12.448 -0.5700 -3.4119 -0.6830
  661TMC3    H1 9840   3.907   1.813  12.589 -1.5823  2.6500 -0.9357
  661TMC3    H2 9841   3.989   1.822  12.186  0.8032  1.7836 -0.2598
  661TMC3    C7 9842   3.813   1.803  12.362  0.5892  0.1003 -0.1988
  661TMC3    C8 9843   4.263   1.800  12.198  0.3833 -0.5756 -0.2404
  661TMC3    O1 9844   3.743   1.889  12.305  0.2470 -0.3059  0.5261
  661TMC3    O2 9845   4.373   1.744  12.209  0.0409  0.5153  0.1518
  662MPD2     C 9846   4.294   0.710  17.156 -0.6181 -0.2260 -0.0370
  662MPD2    C1 9847   4.378   0.609  17.208 -0.0400 -0.5828  0.1834
  662MPD2    C2 9848   4.360   0.550  17.338 -0.2757 -0.0665 -0.5496
  662MPD2    C3 9849   4.257   0.596  17.419  0.3030  0.1640  0.1949
  662MPD2    C4 9850   4.185   0.710  17.370 -0.3827 -0.1786 -0.5946
  662MPD2    C5 9851   4.203   0.765  17.243  0.4950  0.0081 -0.1279
  662MPD2     H 9852   4.433   0.479  17.375  1.6988  1.1742 -2.0914
  662MPD2    H1 9853   4.110   0.758  17.433  1.5311  1.0782  0.7393
  662MPD2    H2 9854   4.323   0.751  17.060 -1.2942 -0.3854 -0.3121
  662MPD2    H3 9855   4.143   0.853  17.222  1.3461  0.5087 -0.4589
  662MPD2     N 9856   4.243   0.566  17.554  0.1491  0.2466 -0.1361
  662MPD2    H5 9857   4.176   0.623  17.604  1.3367  1.2016  0.3657
  662MPD2    N1 9858   4.488   0.559  17.132 -0.1311  0.0783 -0.5297
  662MPD2    H7 9859   4.557   0.513  17.190 -0.6086  0.3733  0.2648
  663TMC3    C1 9860   4.622   0.503  16.937  0.1969  0.1328  0.4798
  663TMC3    C2 9861   4.697   0.431  17.026 -0.1223  0.5830 -0.2613
  663TMC3    C3 9862   0.048   0.337  16.984 -0.9089 -0.0768 -1.2437
  663TMC3    C4 9863   4.612   0.461  16.809 -0.1162  0.1531 -0.4960
  663TMC3    C5 9864   4.686   0.354  16.764 -0.1793 -0.2985  0.4543
  663TMC3    C6 9865   0.046   0.308  16.848  0.0241 -0.1593 -0.4452
  663TMC3     C 9866   4.498   0.567  16.994  0.3104  0.1213 -0.2987
  663TMC3     O 9867   4.425   0.621  16.913  0.0790  0.1582  0.1434
  663TMC3     H 9868   4.717   0.481  17.120  1.3087  0.7768 -0.6678
  663TMC3    H1 9869   4.537   0.504  16.745  0.3884  1.9261  0.1094
  663TMC3    H2 9870   0.108   0.223  16.820  0.2770  0.2564 -1.1501
  663TMC3    C7 9871   4.600   0.262  16.689  0.3560 -0.6685 -0.2194
  663TMC3    C8 9872   0.014   0.212  17.049 -1.0111  0.5372 -0.1736
  663TMC3    O1 9873   4.499   0.308  16.632 -0.3923 -0.1840 -0.3047
  663TMC3    O2 9874   4.732   0.119  16.970 -0.3370  0.6601 -0.0279
  664MPD2     C 9875   2.673   3.532  17.167  0.2470 -0.7366  0.2624
  664MPD2    C1 9876   2.755   3.622  17.232  0.7916  0.1758  0.2385
  664MPD2    C2 9877   2.762   3.609  17.368 -0.2887  0.2724  0.0130
  664MPD2    C3 9878   2.694   3.524  17.451 -0.2324 -0.7773  0.9888
  664MPD2    C4 9879   2.608   3.439  17.380  0.1751  0.2300  0.1609
  664MPD2    C5 9880   2.598   3.445  17.243  0.9666 -0.8002  0.5102
  664MPD2     H 9881   2.823   3.686  17.412  1.4437 -1.1008  0.0081
  664MPD2    H1 9882   2.553   3.366  17.439  0.0871  1.1976  1.2949
  664MPD2    H2 9883   2.659   3.527  17.059  1.0793  0.6499  0.0953
  664MPD2    H3 9884   2.525   3.382  17.194  0.7171  1.2471 -1.7181
  664MPD2     N 9885   2.706   3.541  17.591  0.9481  0.4701  0.3579
  664MPD2    H5 9886   2.773   3.614  17.614 -0.0385  1.5997 -0.4146
  664MPD2    N1 9887   2.811   3.738  17.173  0.1073 -0.4713 -0.4046
  664MPD2    H7 9888   2.833   3.810  17.240 -0.3158 -0.6485 -0.0792
  665TMC3    C1 9889   2.693   3.486   0.064 -0.1697  0.5665 -1.0975
  665TMC3    C2 9890   2.601   3.455   0.167  0.0018 -0.2458 -0.1977
  665TMC3    C3 9891   2.639   3.474   0.296  0.4203 -0.8411 -0.7144
  665TMC3    C4 9892   2.814   3.549   0.085 -0.1057 -0.6383  0.3421
  665TMC3    C5 9893   2.838   3.593   0.211  0.2589  0.6342  0.0627
  665TMC3    C6 9894   2.746   3.565   0.318 -0.8517 -0.2301 -0.3076
  665TMC3     C 9895   2.652   3.453  17.683  0.0046  0.7027 -0.5921
  665TMC3     O 9896   2.570   3.363  17.673  0.1048  0.2481 -0.3423
  665TMC3     H 9897   2.512   3.398   0.142  0.5337 -1.9948  1.9018
  665TMC3    H1 9898   2.894   3.559   0.012  0.4235 -0.7336  0.9107
  665TMC3    H2 9899   2.784   3.586   0.417  1.9332 -0.4576 -1.3369
  665TMC3    C7 9900   2.964   3.665   0.243 -0.3756  0.4192  0.6981
  665TMC3    C8 9901   2.556   3.440   0.399  0.2626 -0.4553  0.4401
  665TMC3    O1 9902   3.064   3.642   0.178 -0.1283 -0.2760  0.1117
  665TMC3    O2 9903   2.441   3.417   0.373 -0.0546  0.6282 -0.0955
  666TMC3    C1 9904   1.753   3.916   9.272  0.0050  0.0700  0.3668
  666TMC3    C2 9905   1.883   3.875   9.251  0.1369 -0.3016 -0.5803
  666TMC3    C3 9906   1.982   3.956   9.303  0.4662  0.1491  0.0973
  666TMC3    C4 9907   1.723   4.030   9.337  0.2129  0.0675 -0.4125
  666TMC3    C5 9908   1.826   4.119   9.370 -0.0439 -0.0589  0.2104
  666TMC3    C6 9909   1.953   4.082   9.357 -0.1460 -0.5871 -1.0660
  666TMC3     C 9910   1.640   3.833   9.229 -0.0791  0.4686 -0.0992
  666TMC3     O 9911   1.532   3.894   9.220 -0.1825 -0.7769  0.2301
  666TMC3     H 9912   1.899   3.772   9.223  0.1630 -0.6879  0.8594
  666TMC3    H1 9913   1.622   4.067   9.353  0.5062 -0.0482  1.7719
  666TMC3    H2 9914   2.042   4.132   9.396 -2.1260  0.9744  1.4616
  666TMC3    C7 9915   1.792   4.191   9.489 -0.1322  0.2579  0.5995
  666TMC3    C8 9916   2.101   3.892   9.346  0.3899 -0.2138  0.0194
  666TMC3    O1 9917   1.867   4.182   9.584 -0.0497  0.0834  0.1481
  666TMC3    O2 9918   2.145   3.928   9.453  0.4924  0.0919  0.4220
  667MPD2     C 9919   3.337   3.266  14.609  0.1601  0.5022  0.0275
  667MPD2    C1 9920   3.224   3.288  14.688  0.6675 -0.5752 -0.0831
  667MPD2    C2 9921   3.118   3.204  14.673  0.3711 -0.4095  0.1667
  667MPD2    C3 9922   3.120   3.089  14.589  0.4105 -0.7851 -0.2044
  667MPD2    C4 9923   3.239   3.059  14.530 -0.2278  0.1844  0.3158
  667MPD2    C5 9924   3.344   3.144  14.533  0.3281  0.3841 -0.0940
  667MPD2     H 9925   3.029   3.234  14.727  0.6082 -0.5886  0.6609
  667MPD2    H1 9926   3.248   2.966  14.476  3.4865  0.0958  1.0949
  667MPD2    H2 9927   3.416   3.340  14.600  1.3237 -0.8345 -0.7779
  667MPD2    H3 9928   3.435   3.111  14.484  0.2375 -0.4496  0.2929
  667MPD2     N 9929   3.011   3.002  14.576 -0.5163 -0.8927 -0.0369
  667MPD2    H5 9930   3.023   2.911  14.533 -1.7086 -0.8633 -0.4589
  667MPD2    N1 9931   3.202   3.403  14.770 -0.1591 -0.2369  0.5074
  667MPD2    H7 9932   3.121   3.407  14.830 -2.4490  1.1271 -2.6497
  668TMC3    C1 9933   3.242   3.581  14.911  0.2678 -1.1040  0.0194
  668TMC3    C2 9934   3.329   3.689  14.926  0.4576 -0.2678 -0.2695
  668TMC3    C3 9935   3.369   3.727  15.056 -0.3661 -0.6192  0.8915
  668TMC3    C4 9936   3.189   3.519  15.017  0.6940 -0.5365 -0.3005
  668TMC3    C5 9937   3.215   3.572  15.140  0.7484 -1.0118  0.5626
  668TMC3    C6 9938   3.306   3.671  15.166 -0.1458 -0.3353  0.5332
  668TMC3     C 9939   3.295   3.494  14.807  1.0523  0.4019 -0.1917
  668TMC3     O 9940   3.407   3.517  14.763 -0.0126  0.5888 -0.1274
  668TMC3     H 9941   3.361   3.735  14.834 -1.7420 -1.6114 -1.7234
  668TMC3    H1 9942   3.137   3.425  15.002  0.6349 -0.8628  1.9449
  668TMC3    H2 9943   3.336   3.701  15.265 -0.5959 -1.0313  0.8765
  668TMC3    C7 9944   3.153   3.500  15.252  0.2298 -0.1843  0.2736
  668TMC3    C8 9945   3.427   3.853  15.085  0.1329 -0.9293 -0.3462
  668TMC3    O1 9946   3.204   3.519  15.358  0.4426 -0.2725 -0.3623
  668TMC3    O2 9947   3.401   3.904  15.196 -0.4108 -0.0347  0.0419
  669TMC3    C1 9948   1.479   3.755  14.784  0.0744  0.3928 -0.5823
  669TMC3    C2 9949   1.371   3.771  14.703  0.1485 -0.0374  0.5219
  669TMC3    C3 9950   1.375   3.857  14.597  0.2860  0.3471  0.4251
  669TMC3    C4 9951   1.601   3.818  14.757 -0.1907 -0.3634 -0.4802
  669TMC3    C5 9952   1.597   3.895  14.644  0.5101  0.1256 -0.6905
  669TMC3    C6 9953   1.490   3.921  14.562  0.3434  0.3302 -0.0921
  669TMC3     C 9954   1.473   3.657  14.894  0.0853 -0.1204 -0.9864
  669TMC3     O 9955   1.364   3.661  14.956 -0.0584 -0.1391  0.1764
  669TMC3     H 9956   1.283   3.712  14.725  1.4383 -0.4938  4.3701
  669TMC3    H1 9957   1.685   3.811  14.825 -0.8002 -0.0782  0.3129
  669TMC3    H2 9958   1.494   3.987  14.477  3.4783  1.1351  0.6740
  669TMC3    C7 9959   1.712   3.962  14.600 -0.5145 -0.4048 -0.7590
  669TMC3    C8 9960   1.259   3.870  14.517 -0.0603  0.0861 -0.0827
  669TMC3    O1 9961   1.773   4.015  14.692  0.4316 -0.6846  0.1912
  669TMC3    O2 9962   1.173   3.785  14.536 -0.4048 -0.0383  0.1401
  670MPD2     C 9963   4.260   1.395  13.655 -0.0885 -0.5119 -0.4662
  670MPD2    C1 9964   4.349   1.297  13.685 -0.1424  0.8258 -0.8655
  670MPD2    C2 9965   4.330   1.230  13.802 -0.0016 -0.1538 -0.6437
  670MPD2    C3 9966   4.212   1.248  13.881 -0.2107 -0.1170 -0.0707
  670MPD2    C4 9967   4.130   1.357  13.845  0.3849 -0.2021 -0.8749
  670MPD2    C5 9968   4.173   1.445  13.750 -0.2928 -0.1698 -0.2128
  670MPD2     H 9969   4.406   1.160  13.836 -0.4471 -1.3213 -2.0239
  670MPD2    H1 9970   4.053   1.401  13.908  1.4819  1.2350 -0.5441
  670MPD2    H2 9971   4.274   1.462  13.571 -0.0806  1.5057  1.1263
  670MPD2    H3 9972   4.124   1.539  13.727  0.8566  0.3070 -0.7181
  670MPD2     N 9973   4.195   1.172  13.995 -0.3985  0.8923  0.9727
  670MPD2    H5 9974   4.259   1.094  14.009 -1.1037  0.5287  2.2049
  670MPD2    N1 9975   4.467   1.270  13.611  0.3820  0.0861  0.0976
  670MPD2    H7 9976   4.546   1.213  13.638  0.8136  0.7773  0.2977
  671TMC3    C1 9977   4.072   1.055  14.154 -0.1661  0.1010 -0.4093
  671TMC3    C2 9978   4.189   0.996  14.209 -0.4896 -0.1175  0.0686
  671TMC3    C3 9979   4.181   0.862  14.230 -0.1183  0.9383 -0.7946
  671TMC3    C4 9980   3.957   0.987  14.134  0.1494 -0.4623  0.0124
  671TMC3    C5 9981   3.957   0.853  14.154 -0.2936  0.7639  0.0889
  671TMC3    C6 9982   4.068   0.789  14.203  0.7667  0.8141 -0.1571
  671TMC3     C 9983   4.086   1.171  14.073 -0.0253 -0.3181  0.6754
  671TMC3     O 9984   3.983   1.236  14.048  0.3645  0.6071  0.2342
  671TMC3     H 9985   4.288   1.040  14.204  0.1706 -1.2695  2.6294
  671TMC3    H1 9986   3.874   1.031  14.079  0.0172  0.5906  1.0667
  671TMC3    H2 9987   4.057   0.682  14.220 -0.9218  1.0059 -0.0400
  671TMC3    C7 9988   3.908   0.778  14.046  0.1052 -0.0258  0.0416
  671TMC3    C8 9989   4.305   0.783  14.237 -0.3961 -0.2032 -0.0092
  671TMC3    O1 9990   3.984   0.703  13.982 -0.1682  0.0727 -0.0001
  671TMC3    O2 9991   4.302   0.671  14.189 -0.7302 -0.0361  0.7029
  672MPD2     C 9992   0.515   2.363   0.449  0.2312  0.4860 -0.3708
  672MPD2    C1 9993   0.587   2.249   0.469  0.1771  0.6240  0.6801
  672MPD2    C2 9994   0.724   2.253   0.494 -0.2194  0.3022  0.3212
  672MPD2    C3 9995   0.784   2.378   0.519  0.3097  0.2802 -0.1170
  672MPD2    C4 9996   0.703   2.493   0.518  0.2205  0.6246 -0.2347
  672MPD2    C5 9997   0.570   2.487   0.477 -0.4059  0.0763  0.5632
  672MPD2     H 9998   0.785   2.164   0.505  2.3753  2.0369  0.1481
  672MPD2    H1 9999   0.744   2.589   0.546 -2.0166  1.4654  0.1615
  672MPD2    H210000   0.413   2.360   0.413 -0.1954  0.8951  0.7979
  672MPD2    H310001   0.517   2.581   0.460  1.0125  0.6218 -0.8312
  672MPD2     N10002   0.921   2.397   0.545  0.1080 -0.2835 -0.2141
  672MPD2    H510003   0.951   2.490   0.574  1.1880 -1.2363  1.7021
  672MPD2    N110004   0.531   2.120   0.465 -0.1090 -0.1054  0.2361
  672MPD2    H710005   0.585   2.040   0.496 -0.2142  0.2682  1.3839
  673TMC3    C110006   0.371   1.942   0.450 -0.1777 -0.4797  0.1115
  673TMC3    C210007   0.462   1.846   0.416 -0.3664  0.0141  0.0053
  673TMC3    C310008   0.420   1.723   0.372 -0.2713 -1.0785 -0.1953
  673TMC3    C410009   0.237   1.911   0.448  0.7587 -0.1790 -0.1522
  673TMC3    C510010   0.198   1.787   0.406 -0.2534 -0.3498 -0.2327
  673TMC3    C610011   0.289   1.690   0.376  0.2022 -0.2345  0.3778
  673TMC3     C10012   0.399   2.084   0.435  0.4995  0.0626  0.3001
  673TMC3     O10013   0.308   2.161   0.405  0.2470  0.0980 -0.2539
  673TMC3     H10014   0.564   1.881   0.409 -0.8722  0.8182 -3.4032
  673TMC3    H110015   0.161   1.981   0.484 -0.9514 -2.1504  0.0622
  673TMC3    H210016   0.260   1.587   0.361 -0.8894  0.0098  0.8318
  673TMC3    C710017   0.084   1.778   0.307  0.4782 -0.1768  0.0617
  673TMC3    C810018   0.496   1.613   0.306 -0.1649  0.5280 -0.5540
  673TMC3    O110019   0.079   1.680   0.237  0.5877 -0.2338 -0.1628
  673TMC3    O210020   0.429   1.520   0.259  0.0424 -0.1740  0.2634
  674MPD2     C10021   4.455   1.015  17.216 -0.2336 -0.1309 -0.5552
  674MPD2    C110022   4.487   0.971  17.345 -1.0460 -0.4215 -0.2162
  674MPD2    C210023   4.485   1.066  17.449 -0.7243 -0.5548 -0.3273
  674MPD2    C310024   4.475   1.202  17.421  0.3561 -0.0182 -0.1464
  674MPD2    C410025   4.434   1.242  17.300  0.1446 -0.0158 -0.2557
  674MPD2    C510026   4.424   1.147  17.197  0.2192 -0.0835  0.0876
  674MPD2     H10027   4.513   1.033  17.549 -0.9529  0.6816  0.1537
  674MPD2    H110028   4.419   1.346  17.275  0.2183 -0.6995 -3.1311
  674MPD2    H210029   4.454   0.956  17.125 -1.1757 -0.2607 -0.4599
  674MPD2    H310030   4.405   1.194  17.101 -1.5632 -2.9708 -0.9520
  674MPD2     N10031   4.503   1.295  17.525  0.1526  0.8723  0.1269
  674MPD2    H510032   4.536   1.255  17.613 -0.6641  0.9140  0.4484
  674MPD2    N110033   4.519   0.835  17.364 -0.3033 -0.3416  0.4743
  674MPD2    H710034   4.481   0.779  17.288  1.7148 -1.4242  0.2592
  675TMC3    C110035   4.685   0.843  17.545 -0.2355 -0.1985  1.0496
  675TMC3    C210036   4.679   0.816  17.679  0.0107  0.3851 -0.1324
  675TMC3    C310037   0.008   0.896   0.012 -0.3739  0.1237  0.4716
  675TMC3    C410038   0.026   0.941  17.494  0.6218 -1.2917 -0.3708
  675TMC3    C510039   0.109   1.004  17.581  0.3390  0.1020 -0.0711
  675TMC3    C610040   0.101   0.989  17.717 -0.1576  0.9890  0.0696
  675TMC3     C10041   4.593   0.774  17.466  0.0024 -0.2716 -0.2330
  675TMC3     O10042   4.614   0.653  17.483 -0.1168 -0.3815  0.0539
  675TMC3     H10043   4.617   0.735  17.716  2.3687 -1.2238  0.2698
  675TMC3    H110044   0.030   0.958  17.387  0.5479  2.2210  0.1702
  675TMC3    H210045   0.167   1.034   0.037 -0.5356  2.0468 -0.2355
  675TMC3    C710046   0.216   1.085  17.519 -0.2906  0.1679 -0.3017
  675TMC3    C810047   0.023   0.853   0.153 -0.0565 -0.6721 -0.2965
  675TMC3    O110048   0.238   1.061  17.400  0.5390 -0.5046 -0.4106
  675TMC3    O210049   4.720   0.744   0.179  0.3249  0.0099  0.0872
  676MPD2     C10050   2.613   0.316  11.179  0.6636 -0.1670 -0.5106
  676MPD2    C110051   2.566   0.220  11.271  0.5494 -0.2694  0.0402
  676MPD2    C210052   2.595   0.088  11.251  0.9348  0.1191  0.1074
  676MPD2    C310053   2.655   0.048  11.129 -0.1031 -0.2441 -0.0587
  676MPD2    C410054   2.686   0.141  11.034  0.3972 -0.1400 -0.5005
  676MPD2    C510055   2.666   0.273  11.066 -0.1393  0.5487 -0.2905
  676MPD2     H10056   2.576   0.015  11.329 -0.1756  0.5230  0.2169
  676MPD2    H110057   2.726   0.123  10.935  0.8802 -1.3032 -0.0987
  676MPD2    H210058   2.588   0.421  11.192  0.6722 -0.2126 -0.1245
  676MPD2    H310059   2.704   0.346  10.995  1.3388  0.0783  0.0117
  676MPD2     N10060   2.686   4.657  11.100  0.4487 -0.0278  0.5635
  676MPD2    H510061   2.728   4.641  11.010 -2.6454  1.8509 -1.2088
  676MPD2    N110062   2.476   0.254  11.376  0.5279  0.4700  0.0799
  676MPD2    H710063   2.430   0.170  11.412 -1.2832  1.5264  0.2200
  677TMC3    C110064   2.372   0.391  11.534  0.4189 -0.0522  0.3787
  677TMC3    C210065   2.259   0.328  11.511  0.7733  0.2320 -0.0773
  677TMC3    C310066   2.146   0.362  11.580  0.4250 -0.7740  0.7914
  677TMC3    C410067   2.384   0.472  11.641  0.0018  0.4205  1.0507
  677TMC3    C510068   2.273   0.493  11.715 -0.3042  0.1110 -0.2340
  677TMC3    C610069   2.148   0.458  11.677 -0.0481  0.7493  0.3922
  677TMC3     C10070   2.475   0.381  11.435  0.5935  0.4100 -0.1036
  677TMC3     O10071   2.556   0.471  11.421 -0.2203  0.4831  0.3076
  677TMC3     H10072   2.246   0.252  11.434 -0.5202  1.2696 -0.8749
  677TMC3    H110073   2.484   0.503  11.672  0.2148 -0.1913  0.9624
  677TMC3    H210074   2.057   0.494  11.724 -1.1810  0.2746 -1.4343
  677TMC3    C710075   2.281   0.540  11.853  0.0072 -0.1608 -0.1315
  677TMC3    C810076   2.012   0.305  11.545 -0.4096  0.3668  0.1456
  677TMC3    O110077   2.177   0.542  11.915  0.0946 -0.3113  0.0477
  677TMC3    O210078   1.977   0.328  11.429  0.3449  0.1734  0.5813
  678MPD2     C10079   4.364   4.456   1.336  0.2184  0.5086  0.4391
  678MPD2    C110080   4.376   4.417   1.199  0.7716  0.8430 -0.4357
  678MPD2    C210081   4.260   4.418   1.123  0.1479  0.0204 -0.1915
  678MPD2    C310082   4.139   4.436   1.182 -0.0380 -0.5078 -0.7363
  678MPD2    C410083   4.128   4.477   1.314 -0.2836 -0.7946  0.7222
  678MPD2    C510084   4.239   4.485   1.389 -0.2013 -0.3627 -0.1344
  678MPD2     H10085   4.267   4.395   1.017  1.1064  0.8502 -0.3128
  678MPD2    H110086   4.031   4.487   1.362 -0.5945 -0.7667  0.0932
  678MPD2    H210087   4.456   4.461   1.393 -0.7466  2.4617  1.7842
  678MPD2    H310088   4.231   4.505   1.495 -1.4346  1.4064 -0.5416
  678MPD2     N10089   4.027   4.426   1.089 -0.9758  0.6690  0.0304
  678MPD2    H510090   4.041   4.383   0.999 -2.0566 -2.0244  1.1582
  678MPD2    N110091   4.503   4.384   1.146  0.8231  0.5108 -0.5636
  678MPD2    H710092   4.490   4.373   1.046 -1.3600 -1.3432 -0.0825
  679TMC3    C110093   0.147   4.284   0.998  0.4754 -0.1867 -0.2943
  679TMC3    C210094   0.075   4.309   1.112  0.4544 -0.5129 -0.0021
  679TMC3    C310095   4.719   4.407   1.107  0.2069  0.6360  0.5139
  679TMC3    C410096   0.140   4.356   0.884 -0.1233 -0.5667  0.0130
  679TMC3    C510097   0.048   4.456   0.889 -1.4864  0.2907  0.1311
  679TMC3    C610098   4.696   4.474   0.990  0.4801 -0.1965 -0.5652
  679TMC3     C10099   0.233   4.169   1.001  0.7037  0.1619  0.4631
  679TMC3     O10100   0.272   4.137   0.889  0.3224  0.3712 -0.8067
  679TMC3     H10101   0.086   4.254   1.205 -1.7544 -0.5872  0.2178
  679TMC3    H110102   0.197   4.341   0.792 -1.0126 -0.6423 -0.5225
  679TMC3    H210103   4.620   4.551   0.991  0.0348 -0.6377  0.3928
  679TMC3    C710104   0.044   4.545   0.775 -0.8240 -0.2193  0.0744
  679TMC3    C810105   4.620   4.400   1.208 -0.4139 -0.1516 -0.2183
  679TMC3    O110106   4.676   4.602   0.772  0.2495  0.0024  0.0010
  679TMC3    O210107   4.655   4.402   1.327 -0.4321  0.5467 -0.1266
  680MPD2     C10108   4.210   3.207  13.541  0.4013  1.3368 -0.0145
  680MPD2    C110109   4.341   3.175  13.519 -0.3499 -0.0978  0.9439
  680MPD2    C210110   4.433   3.268  13.562  0.0409  0.2318 -0.3899
  680MPD2    C310111   4.401   3.397  13.600  0.0114  0.2917  0.1721
  680MPD2    C410112   4.266   3.424  13.608  1.0516  0.1734  0.1432
  680MPD2    C510113   4.171   3.329  13.594 -0.8550 -0.9191 -0.5885
  680MPD2     H10114   4.538   3.251  13.541  0.6663  1.4326  1.7461
  680MPD2    H110115   4.236   3.527  13.623 -0.4535 -0.4600  1.5411
  680MPD2    H210116   4.138   3.131  13.514 -0.1511  1.9397 -0.2541
  680MPD2    H310117   4.069   3.359  13.615 -0.6348 -1.3496  1.1009
  680MPD2     N10118   4.497   3.499  13.615 -0.2123  0.3573 -0.1985
  680MPD2    H510119   4.463   3.591  13.641 -0.2517  0.7428 -1.5883
  680MPD2    N110120   4.392   3.057  13.454 -0.3308 -0.4312 -0.3240
  680MPD2    H710121   4.489   3.035  13.471 -0.6350 -1.3203  0.2850
  681TMC3    C110122   4.390   2.848  13.332  0.0301 -0.6674 -0.3998
  681TMC3    C210123   4.321   2.735  13.358  0.6251  0.3185  0.0276
  681TMC3    C310124   4.390   2.625  13.412  0.5512 -0.4040 -0.3809
  681TMC3    C410125   4.528   2.849  13.355  0.5559 -0.4017  0.2522
  681TMC3    C510126   4.597   2.737  13.383  0.1737 -0.7976  0.1042
  681TMC3    C610127   4.526   2.629  13.430  0.0102  0.0361  0.0058
  681TMC3     C10128   4.323   2.967  13.378  0.3596  0.4933 -0.0357
  681TMC3     O10129   4.213   2.982  13.329  0.1742 -0.2651 -0.3736
  681TMC3     H10130   4.212   2.732  13.357  0.6614 -1.2401  0.6029
  681TMC3    H110131   4.575   2.940  13.320 -0.4100  0.3486  0.8928
  681TMC3    H210132   4.569   2.559  13.501 -1.6336  0.7240  1.6773
  681TMC3    C710133   0.002   2.739  13.404 -0.3742 -0.5450 -0.4031
  681TMC3    C810134   4.303   2.585  13.522 -0.3162  0.1321  0.5092
  681TMC3    O110135   0.053   2.657  13.481  0.9412 -0.2976  0.4126
  681TMC3    O210136   4.218   2.498  13.493  0.1854 -0.4306 -0.2948
  682MPD2     C10137   1.666   0.271  10.641  0.2493  0.2781  0.1240
  682MPD2    C110138   1.682   0.133  10.674 -0.5694  0.3295 -0.3187
  682MPD2    C210139   1.686   0.091  10.806  0.6123 -1.1004  0.1571
  682MPD2    C310140   1.673   0.187  10.907 -0.0405  0.7285  0.1974
  682MPD2    C410141   1.684   0.323  10.873  0.8564 -0.0184 -0.0277
  682MPD2    C510142   1.671   0.361  10.743 -0.4912 -0.4766 -0.6765
  682MPD2     H10143   1.697   4.724  10.826 -1.4014 -0.3997  4.8972
  682MPD2    H110144   1.677   0.390  10.957 -2.3398 -0.6354  0.2285
  682MPD2    H210145   1.665   0.308  10.539 -0.1864  2.2580  0.8423
  682MPD2    H310146   1.687   0.466  10.724 -0.0514 -0.6992 -1.5411
  682MPD2     N10147   1.675   0.131  11.040  0.8214  0.0391 -0.2477
  682MPD2    H510148   1.653   0.033  11.052 -0.0389 -0.1777 -3.4994
  682MPD2    N110149   1.699   0.029  10.583  0.2531  1.1259  0.1321
  682MPD2    H710150   1.727   4.680  10.626 -0.2678  0.5278 -0.7576
  683TMC3    C110151   1.567   0.166  11.494  0.2079 -0.2975 -0.3496
  683TMC3    C210152   1.520   0.036  11.488 -1.0171  0.4155 -0.4220
  683TMC3    C310153   1.561   4.693  11.381 -0.1022  0.7418  0.1528
  683TMC3    C410154   1.635   0.216  11.386  0.2880 -0.4616 -0.7097
  683TMC3    C510155   1.641   0.140  11.270  1.0110 -0.3218  0.7265
  683TMC3    C610156   1.624   0.004  11.273  0.7561 -0.2983  0.0675
  683TMC3     C10157   1.558   0.261  11.603  1.1793 -0.8592  0.0026
  683TMC3     O10158   1.648   0.346  11.623 -0.0256 -0.1491  0.0706
  683TMC3     H10159   1.459   4.732  11.566 -1.1427  2.7493  0.7573
  683TMC3    H110160   1.681   0.313  11.393 -0.0096 -0.2746 -1.3493
  683TMC3    H210161   1.659   4.685  11.189 -0.1510  0.9438 -1.1602
  683TMC3    C710162   1.679   0.213  11.154 -0.2247 -0.2951  0.8318
  683TMC3    C810163   1.573   4.546  11.395  0.4457  0.2331  0.8908
  683TMC3    O110164   1.695   0.330  11.171 -0.1855 -0.5763 -0.4159
  683TMC3    O210165   1.578   4.487  11.286 -0.1260 -0.3831  0.5307
  684MPD2     C10166   4.409   3.740  16.225 -0.2388 -0.2114  0.4594
  684MPD2    C110167   4.410   3.819  16.112  0.0881  0.1166 -0.2840
  684MPD2    C210168   4.410   3.955  16.120 -0.1721 -0.1809  0.8498
  684MPD2    C310169   4.391   4.026  16.242  0.0531 -0.3389 -0.3368
  684MPD2    C410170   4.394   3.945  16.353 -0.3039 -0.3543 -0.1824
  684MPD2    C510171   4.412   3.810  16.342  0.1329  0.4572 -0.1655
  684MPD2     H10172   4.428   4.018  16.033  0.3613  0.7692  1.6375
  684MPD2    H110173   4.399   3.986  16.453  2.1591  0.1353 -0.4998
  684MPD2    H210174   4.422   3.632  16.219 -0.8712 -0.3930  2.2434
  684MPD2    H310175   4.430   3.758  16.435 -1.1266  0.7963  0.2625
  684MPD2     N10176   4.385   4.167  16.251 -0.1249 -0.2564  0.2226
  684MPD2    H510177   4.392   4.205  16.345  2.8463 -1.1316  0.3465
  684MPD2    N110178   4.432   3.765  15.984  0.1752  0.7133  0.4845
  684MPD2    H710179   4.453   3.834  15.913 -1.2031 -0.1395 -0.7465
  685TMC3    C110180   4.483   3.616  15.813 -0.0990  0.2971 -0.6465
  685TMC3    C210181   4.382   3.620  15.717 -0.5720  0.7450  0.2897
  685TMC3    C310182   4.405   3.668  15.591  0.3115  0.2388  0.4897
  685TMC3    C410183   4.597   3.687  15.797  0.2386  0.2134 -0.1986
  685TMC3    C510184   4.613   3.736  15.671 -0.4808 -0.0248 -0.1699
  685TMC3    C610185   4.532   3.721  15.567  0.0633  0.3226  0.0694
  685TMC3     C10186   4.431   3.632  15.948 -0.0423 -0.4953 -0.0599
  685TMC3     O10187   4.418   3.533  16.016 -0.5501 -0.1719 -0.0744
  685TMC3     H10188   4.283   3.584  15.745 -0.2123  1.0726  1.9261
  685TMC3    H110189   4.659   3.708  15.883  0.2086  0.0283 -0.1315
  685TMC3    H210190   4.554   3.775  15.475 -1.1770  1.0814  0.2147
  685TMC3    C710191   4.736   3.811  15.644  0.2448  0.1294  0.5395
  685TMC3    C810192   4.309   3.757  15.540 -0.0604  0.7369  0.2729
  685TMC3    O110193   0.011   3.869  15.534  0.4900  0.0550 -0.1739
  685TMC3    O210194   4.298   3.777  15.419 -0.2559  0.1813  0.2774
  686MPD2     C10195   1.361   4.221  16.409  0.2462 -0.2601 -0.2381
  686MPD2    C110196   1.239   4.234  16.347  0.1923  0.0645  0.4778
  686MPD2    C210197   1.191   4.359  16.305  0.1749  0.2725  0.0813
  686MPD2    C310198   1.273   4.466  16.316  0.4070  0.9134 -0.2436
  686MPD2    C410199   1.388   4.456  16.391 -0.1522  0.3950  0.3285
  686MPD2    C510200   1.431   4.333  16.439  0.5435  0.1969  0.9421
  686MPD2     H10201   1.086   4.368  16.279  0.8973  2.7099 -1.9480
  686MPD2    H110202   1.456   4.540  16.404  0.3612  0.1870 -1.0034
  686MPD2    H210203   1.410   4.132  16.447 -0.7322  0.0408  1.7292
  686MPD2    H310204   1.534   4.326  16.474  0.8707  0.0730 -0.0420
  686MPD2     N10205   1.238   4.597  16.266 -1.0860 -0.0859  0.2307
  686MPD2    H510206   1.279   4.669  16.325  1.1433 -0.2805 -1.0957
  686MPD2    N110207   1.166   4.115  16.340 -0.1691  0.0164 -0.4388
  686MPD2    H710208   1.201   4.035  16.392 -1.1619  0.3371  0.7176
  687TMC3    C110209   1.139   4.541  16.054  0.0392 -0.1104 -0.2853
  687TMC3    C210210   1.014   4.526  16.010 -0.3389 -0.2565  0.7272
  687TMC3    C310211   0.993   4.421  15.935 -0.3481 -0.4094  0.2394
  687TMC3    C410212   1.241   4.462  16.019 -0.4027 -0.7296  1.0949
  687TMC3    C510213   1.207   4.348  15.959 -0.2357 -0.4624 -0.3163
  687TMC3    C610214   1.084   4.323  15.908 -0.3482 -0.3957  0.1583
  687TMC3     C10215   1.154   4.638  16.164 -0.2924 -0.1310  0.1071
  687TMC3     O10216   1.097   0.003  16.135 -0.1689 -0.1338  0.4319
  687TMC3     H10217   0.937   4.593  16.047  1.5189  2.3752 -0.1719
  687TMC3    H110218   1.343   4.482  16.049 -0.6917 -0.7288  2.0764
  687TMC3    H210219   1.047   4.232  15.861  0.8631  0.7983 -3.1028
  687TMC3    C710220   1.308   4.246  15.958 -0.7781  0.1536  0.0571
  687TMC3    C810221   0.858   4.402  15.890  0.0348 -0.1081 -0.8320
  687TMC3    O110222   1.415   4.263  16.014 -0.3980 -0.0403  0.0419
  687TMC3    O210223   0.816   4.290  15.871 -0.1643 -0.5012  0.0886
  688MPD2     C10224   0.254   2.956  17.204  0.0513  1.4872  0.7299
  688MPD2    C110225   0.295   2.826  17.216  0.5580 -0.3824  0.1629
  688MPD2    C210226   0.386   2.778  17.120  0.1689  0.1236 -0.3606
  688MPD2    C310227   0.450   2.870  17.040 -0.3236  0.2669  0.0741
  688MPD2    C410228   0.411   2.998  17.036  0.1261  0.2818  0.3900
  688MPD2    C510229   0.302   3.040  17.114 -0.8061 -0.4348 -0.4185
  688MPD2     H10230   0.429   2.679  17.128 -1.2206 -0.6019 -1.8346
  688MPD2    H110231   0.456   3.073  16.972 -0.2285  0.3232  0.1869
  688MPD2    H210232   0.167   2.994  17.255 -0.4944  1.9740 -0.5516
  688MPD2    H310233   0.275   3.145  17.113 -1.4201 -0.5516  2.2833
  688MPD2     N10234   0.551   2.840  16.940  0.0642  0.7018  0.6333
  688MPD2    H510235   0.590   2.924  16.899 -1.2028  0.6627 -0.6324
  688MPD2    N110236   0.244   2.730  17.310  0.5431 -0.0812 -0.5908
  688MPD2    H710237   0.253   2.629  17.301  2.7272  0.1450 -1.0018
  689TMC3    C110238   0.160   2.679  17.534 -0.1404  0.4903 -0.2735
  689TMC3    C210239   0.167   2.743  17.657  0.0495  0.7613  0.3626
  689TMC3    C310240   0.208   2.668   0.010  0.6570  0.0285 -0.7318
  689TMC3    C410241   0.184   2.548  17.513 -0.3376  0.2740 -0.1459
  689TMC3    C510242   0.215   2.476  17.625  0.8196  0.5229  0.3615
  689TMC3    C610243   0.229   2.536  17.748 -0.2240 -0.0041 -0.4325
  689TMC3     C10244   0.183   2.777  17.426  0.3781 -0.0874 -0.3776
  689TMC3     O10245   0.167   2.893  17.459  0.7829 -0.6256  0.2196
  689TMC3     H10246   0.152   2.850  17.669 -1.1990  0.8604 -2.1107
  689TMC3    H110247   0.174   2.498  17.417 -0.5148 -1.5314  0.8116
  689TMC3    H210248   0.254   2.465   0.073  1.5726  1.9372  0.7598
  689TMC3    C710249   0.247   2.336  17.625  0.2889 -0.7406 -0.2187
  689TMC3    C810250   0.254   2.737   0.128 -0.5055 -0.2339  0.0122
  689TMC3    O110251   0.335   2.306  17.707 -0.0478  0.1530 -0.1594
  689TMC3    O210252   0.304   2.846   0.108 -0.2260  0.1343  0.2217
  690MPD2     C10253   2.960   0.000  15.585 -0.0495  0.2687  0.3963
  690MPD2    C110254   2.907   4.699  15.469 -0.2375 -0.3376  0.2636
  690MPD2    C210255   2.986   4.711  15.361 -0.0415  0.9426  0.1977
  690MPD2    C310256   3.115   0.027  15.366 -0.2634  0.3004 -0.2654
  690MPD2    C410257   3.164   0.070  15.486 -0.0732 -0.0202 -0.0654
  690MPD2    C510258   3.086   0.052  15.597  0.4076 -0.1391  0.5821
  690MPD2     H10259   2.948   4.696  15.260  0.2087 -0.6451  0.3512
  690MPD2    H110260   3.260   0.118  15.503  0.0784 -0.3657  0.0700
  690MPD2    H210261   2.908   4.728  15.679  1.3781  3.1165  1.5277
  690MPD2    H310262   3.122   0.084  15.694 -0.9780  1.5560  0.5347
  690MPD2     N10263   3.186   0.037  15.250 -0.3696 -0.4617 -0.2534
  690MPD2    H510264   3.142   4.734  15.169 -2.3090  0.9041  0.0734
  690MPD2    N110265   2.778   4.642  15.458  0.4134  0.2851 -0.2124
  690MPD2    H710266   2.750   4.614  15.365  0.5507  1.0879 -0.4922
  691TMC3    C110267   2.570   4.563  15.522 -0.8272  0.8627  0.2787
  691TMC3    C210268   2.457   4.603  15.592 -0.0269 -0.5720 -0.1027
  691TMC3    C310269   2.342   4.533  15.565 -0.1161  0.1763  0.4798
  691TMC3    C410270   2.576   4.455  15.439  0.1751  0.0798 -0.2336
  691TMC3    C510271   2.463   4.383  15.429 -0.2991  0.0563  0.2229
  691TMC3    C610272   2.348   4.421  15.493 -0.5521  0.3474 -0.5371
  691TMC3     C10273   2.689   4.628  15.561 -0.3434 -0.7149  0.2301
  691TMC3     O10274   2.689   4.671  15.674 -0.2306 -0.2323  0.3314
  691TMC3     H10275   2.449   4.688  15.658 -0.6065 -0.2838 -0.5417
  691TMC3    H110276   2.665   4.422  15.388  1.1717  3.0385 -0.3879
  691TMC3    H210277   2.257   4.367  15.471 -0.9903  1.4817 -1.4913
  691TMC3    C710278   2.494   4.237  15.440  0.0369  0.2709  0.5717
  691TMC3    C810279   2.209   4.560  15.625  0.1053 -0.0204 -0.1252
  691TMC3    O110280   2.610   4.207  15.472  0.2879 -0.3770 -0.1523
  691TMC3    O210281   2.141   4.459  15.639 -0.4035 -0.0563  0.0879
  692TMC3    C110282   4.313   0.820  15.826  0.1080  0.1028 -0.6466
  692TMC3    C210283   4.393   0.915  15.884  0.2541  0.1802 -0.6329
  692TMC3    C310284   4.523   0.877  15.897 -0.2102 -0.0383 -1.2469
  692TMC3    C410285   4.351   0.686  15.804 -0.3482  0.0455  0.2232
  692TMC3    C510286   4.478   0.657  15.838  0.6459 -0.4826 -0.1384
  692TMC3    C610287   4.569   0.745  15.888  0.4543  0.3907  0.3449
  692TMC3     C10288   4.191   0.857  15.776  0.2246  0.0958  0.3242
  692TMC3     O10289   4.138   0.774  15.708 -0.7496  0.2724  0.4811
  692TMC3     H10290   4.378   1.023  15.878 -0.3489  0.1539  0.3334
  692TMC3    H110291   4.296   0.604  15.761 -0.4067  0.1562  0.0862
  692TMC3    H210292   4.673   0.721  15.871  0.3417 -0.6336  1.1413
  692TMC3    C710293   4.530   0.535  15.775  0.3217  0.4587  0.1445
  692TMC3    C810294   4.579   0.925  16.020 -0.1279  0.2648 -1.1548
  692TMC3    O110295   4.631   0.542  15.709  0.0964  0.0418  0.1349
  692TMC3    O210296   4.654   0.839  16.067 -0.4817  0.0160  0.3955
  693MPD2     C10297   3.949   4.567  10.762 -0.5675  0.4956  0.8933
  693MPD2    C110298   3.909   4.435  10.780 -0.5127  0.0746  0.3406
  693MPD2    C210299   3.992   4.343  10.837 -0.2551 -1.0256  0.0253
  693MPD2    C310300   4.110   4.384  10.897  0.0096  0.4178 -0.2110
  693MPD2    C410301   4.145   4.512  10.886 -0.6691  0.2750  0.4364
  693MPD2    C510302   4.062   4.606  10.828 -0.0306  0.4010 -0.0867
  693MPD2     H10303   3.961   4.239  10.831 -0.8869 -0.8287 -0.2061
  693MPD2    H110304   4.226   4.558  10.941  0.1581 -0.1993 -0.3850
  693MPD2    H210305   3.886   4.642  10.716 -0.8708  0.7073  1.6577
  693MPD2    H310306   4.080   4.713  10.830 -2.0057  0.6940  1.3347
  693MPD2     N10307   4.196   4.293  10.971 -0.2482  0.4473  0.2841
  693MPD2    H510308   4.294   4.313  10.987  0.4140 -1.8833 -0.9043
  693MPD2    N110309   3.783   4.402  10.731 -0.2381 -0.0054 -0.3240
  693MPD2    H710310   3.731   4.487  10.711 -1.4605 -0.3290  1.4601
  694TMC3    C110311   3.577   4.296  10.725  0.2047  0.2347  0.8312
  694TMC3    C210312   3.525   4.187  10.665  0.0484  0.7067 -0.3624
  694TMC3    C310313   3.422   4.118  10.727  0.3466 -0.3368 -0.3021
  694TMC3    C410314   3.528   4.334  10.846 -0.1020 -0.1621  0.0378
  694TMC3    C510315   3.421   4.272  10.910 -0.9334  0.0657 -0.1816
  694TMC3    C610316   3.362   4.156  10.856 -0.2022 -0.0813 -0.0578
  694TMC3     C10317   3.717   4.280  10.737  0.2165  0.3799 -0.4973
  694TMC3     O10318   3.766   4.169  10.754  0.3482  0.5111  0.1180
  694TMC3     H10319   3.584   4.131  10.592 -2.7980 -2.8440  0.0286
  694TMC3    H110320   3.572   4.414  10.904  1.6129 -1.8750  1.0594
  694TMC3    H210321   3.274   4.101  10.887  0.0028 -0.0263  0.6219
  694TMC3    C710322   3.427   4.283  11.051 -0.7780  0.0272 -0.4348
  694TMC3    C810323   3.362   4.004  10.660 -0.4084 -0.0488 -0.0426
  694TMC3    O110324   3.457   4.389  11.099  0.1875  0.3525 -0.4377
  694TMC3    O210325   3.278   3.937  10.722 -0.8567  0.2962 -0.0870
  695MPD2     C10326   0.142   0.818  13.424 -0.5289  0.0938 -0.2555
  695MPD2    C110327   0.055   0.799  13.527 -0.0679  1.0700  0.6753
  695MPD2    C210328   4.667   0.842  13.514  0.1325  0.6100 -0.2399
  695MPD2    C310329   4.623   0.905  13.399 -0.2716  0.1649 -0.0433
  695MPD2    C410330   4.711   0.938  13.301 -1.0348 -0.3878 -0.7130
  695MPD2    C510331   0.099   0.891  13.314  0.0149 -0.0842 -0.3333
  695MPD2     H10332   4.586   0.819  13.582 -0.0887 -2.4811 -1.5437
  695MPD2    H110333   4.683   0.983  13.207 -1.7483  0.6212 -0.0199
  695MPD2    H210334   0.244   0.779  13.429 -1.1982 -1.6189  0.0924
  695MPD2    H310335   0.172   0.908  13.236 -0.0713 -3.0052 -1.0235
  695MPD2     N10336   4.483   0.946  13.393  0.6262  0.1648 -0.5371
  695MPD2    H510337   4.426   0.914  13.471  2.6487 -0.9139  0.5119
  695MPD2    N110338   0.090   0.715  13.636  0.1220  0.4773 -0.2106
  695MPD2    H710339   0.008   0.683  13.687 -1.5167  0.2170 -3.0141
  696TMC3    C110340   4.281   1.036  13.316  0.6687  0.8659  0.1235
  696TMC3    C210341   4.221   0.944  13.393  0.0026 -0.3466  0.0993
  696TMC3    C310342   4.086   0.967  13.423 -0.4502  0.5319  0.1085
  696TMC3    C410343   4.218   1.146  13.260  1.4227  0.2087 -0.1110
  696TMC3    C510344   4.090   1.172  13.302  0.0605 -0.1142 -0.1210
  696TMC3    C610345   4.024   1.083  13.382  0.2900  0.1010 -0.1711
  696TMC3     C10346   4.425   1.019  13.290 -0.1450  0.0698  0.5690
  696TMC3     O10347   4.479   1.054  13.185 -0.4821 -0.0555 -0.2460
  696TMC3     H10348   4.270   0.855  13.430 -1.1540 -0.8668  0.3804
  696TMC3    H110349   4.284   1.214  13.207  0.2063  0.3018 -1.5003
  696TMC3    H210350   3.923   1.108  13.412  0.0319 -1.1057 -0.0290
  696TMC3    C710351   4.056   1.315  13.311  0.1652  0.3007  0.9050
  696TMC3    C810352   4.021   0.889  13.536 -0.0288 -0.0636 -0.4498
  696TMC3    O110353   3.980   1.337  13.404 -0.0395 -0.5225  0.6092
  696TMC3    O210354   4.104   0.843  13.612  0.0388 -0.2424 -0.8053
  697MPD2     C10355   4.182   2.513  15.526  0.1392 -0.3418  0.0297
  697MPD2    C110356   4.096   2.513  15.422  0.3904  0.2685  0.5430
  697MPD2    C210357   4.093   2.621  15.337 -0.0455 -0.6772 -0.1823
  697MPD2    C310358   4.188   2.723  15.341 -0.0686  0.2019  0.4680
  697MPD2    C410359   4.284   2.714  15.442 -0.3184 -0.9739 -0.1568
  697MPD2    C510360   4.275   2.616  15.540 -0.2067  0.0063  0.1464
  697MPD2     H10361   4.012   2.629  15.266 -0.1230  1.1423  0.1159
  697MPD2    H110362   4.366   2.785  15.443 -1.8484  0.8151 -1.6674
  697MPD2    H210363   4.190   2.429  15.594 -0.0821  0.2234  0.7628
  697MPD2    H310364   4.338   2.625  15.628  0.6225 -2.3476 -0.1943
  697MPD2     N10365   4.180   2.815  15.236 -0.6947 -0.0257  0.0837
  697MPD2    H510366   4.113   2.808  15.161  0.5015  0.0003 -0.9988
  697MPD2    N110367   4.015   2.400  15.392 -0.4693  0.0608 -0.4041
  697MPD2    H710368   3.955   2.407  15.311 -0.5517 -1.6423 -0.5003
  698TMC3    C110369   4.255   3.000  15.097  0.1944 -0.0408  1.2888
  698TMC3    C210370   4.340   3.108  15.093  0.6350 -0.5438  0.1220
  698TMC3    C310371   4.363   3.168  14.969  0.9548  0.5029 -0.1375
  698TMC3    C410372   4.200   2.940  14.992  0.6136 -1.2370 -0.3043
  698TMC3    C510373   4.245   2.995  14.868  0.5665  1.0002 -0.5734
  698TMC3    C610374   4.314   3.116  14.856 -0.0644 -0.3373 -0.4093
  698TMC3     C10375   4.261   2.924  15.221 -1.3162  0.7677 -0.1589
  698TMC3     O10376   4.344   2.967  15.302  0.1424  0.2507  0.4366
  698TMC3     H10377   4.373   3.158  15.184  0.6496  1.3574 -0.9141
  698TMC3    H110378   4.139   2.850  14.999 -0.8339 -0.1754  0.6650
  698TMC3    H210379   4.324   3.159  14.757 -0.1370  2.0370  0.6011
  698TMC3    C710380   4.198   2.933  14.744  0.2313 -0.2619 -0.8047
  698TMC3    C810381   4.471   3.263  14.951 -0.0947  0.0723  0.1380
  698TMC3    O110382   4.167   3.006  14.649  0.6807  0.0294 -0.1520
  698TMC3    O210383   4.471   3.317  14.838 -0.1839  0.3837  0.1048
  699TMC3    C110384   3.969   1.106  12.880  0.0256  0.4837 -0.2058
  699TMC3    C210385   4.027   0.991  12.922 -0.0006 -0.6644  0.1955
  699TMC3    C310386   3.949   0.884  12.931  0.2857 -0.1562  0.0295
  699TMC3    C410387   3.833   1.119  12.853  0.2359  0.4294  0.5988
  699TMC3    C510388   3.764   1.005  12.867  0.5704  0.3603  0.3207
  699TMC3    C610389   3.818   0.886  12.899  0.5982  0.1774 -0.3151
  699TMC3     C10390   4.031   1.233  12.856  0.2597 -0.6052  0.6613
  699TMC3     O10391   3.961   1.335  12.851 -0.0133 -0.2515  0.1735
  699TMC3     H10392   4.134   0.978  12.912  0.0846  2.3330 -2.6627
  699TMC3    H110393   3.796   1.213  12.814 -1.0891  0.5422  2.1368
  699TMC3    H210394   3.758   0.797  12.908 -2.0734  1.9947 -0.3951
  699TMC3    C710395   3.624   1.018  12.892  0.2553  0.0376 -0.0580
  699TMC3    C810396   3.997   0.778  13.023 -0.0640  0.4416 -0.4816
  699TMC3    O110397   3.586   1.135  12.906  0.0304  0.0603  0.7262
  699TMC3    O210398   3.910   0.705  13.071  0.0972 -0.0999 -0.4112
  700TMC3    C110399   3.434   3.159  17.260  0.5846 -0.1686  0.4932
  700TMC3    C210400   3.468   3.036  17.213  0.4959 -0.0030 -0.9772
  700TMC3    C310401   3.584   2.980  17.256  0.2394  0.1250 -1.0018
  700TMC3    C410402   3.512   3.227  17.349 -0.2778 -0.1950 -1.0347
  700TMC3    C510403   3.632   3.169  17.380  0.1227 -0.0825 -0.3804
  700TMC3    C610404   3.674   3.042  17.339  0.3074 -0.7961 -0.1334
  700TMC3     C10405   3.316   3.226  17.207 -0.2054  0.0212 -0.0736
  700TMC3     O10406   3.236   3.161  17.144  0.1044 -0.1374  0.9981
  700TMC3     H10407   3.389   2.982  17.162 -1.3425  1.9738 -0.2583
  700TMC3    H110408   3.471   3.302  17.415 -0.9260 -0.7549 -0.8005
  700TMC3    H210409   3.776   3.008  17.358  0.0840  0.2479  3.0062
  700TMC3    C710410   3.688   3.196  17.510 -0.6455 -0.1238  0.0836
  700TMC3    C810411   3.638   2.856  17.204 -1.0098  0.5129 -0.0003
  700TMC3    O110412   3.733   3.097  17.565  0.5297 -0.5491  0.2394
  700TMC3    O210413   3.571   2.808  17.115  0.2329 -0.0397  0.0908
  701TMC3    C110414   3.152   2.009  15.404 -0.1848 -0.1699 -0.2940
  701TMC3    C210415   3.170   1.940  15.287 -1.3631 -0.4035  0.3662
  701TMC3    C310416   3.291   1.973  15.223 -0.4956  0.1535  0.1116
  701TMC3    C410417   3.245   2.101  15.455  0.6387 -0.2763 -0.3658
  701TMC3    C510418   3.361   2.118  15.387 -0.1323  0.8949  1.0477
  701TMC3    C610419   3.383   2.055  15.271  0.6819  0.4186  0.5514
  701TMC3     C10420   3.036   1.983  15.483 -0.3898 -0.2574  0.5665
  701TMC3     O10421   3.025   2.053  15.585  0.2671 -0.2033  0.4357
  701TMC3     H10422   3.101   1.878  15.231 -1.3484  0.1580 -0.2759
  701TMC3    H110423   3.223   2.140  15.553  1.8397 -1.0724  0.2116
  701TMC3    H210424   3.480   2.065  15.223  1.7343 -0.5839  2.4498
  701TMC3    C710425   3.457   2.208  15.438 -1.1755  0.3040 -1.1776
  701TMC3    C810426   3.336   1.898  15.103  1.0777  0.0362  0.3248
  701TMC3    O110427   3.513   2.272  15.352  0.8198  0.1402 -0.1717
  701TMC3    O210428   3.423   1.954  15.038  0.0400  0.0099  0.0125
  702MPD2     C10429   3.140   4.329  10.622 -0.2277 -0.0189 -0.3891
  702MPD2    C110430   3.045   4.418  10.673 -0.4582  0.0952 -0.3448
  702MPD2    C210431   3.026   4.538  10.601 -0.1290  0.3059 -0.1619
  702MPD2    C310432   3.106   4.561  10.494  0.6957  0.0190  0.2789
  702MPD2    C410433   3.206   4.474  10.452 -0.7042 -0.2569 -0.9563
  702MPD2    C510434   3.206   4.347  10.502 -0.5012 -0.3048  0.0648
  702MPD2     H10435   2.946   4.604  10.632 -0.4122 -0.5079  0.8431
  702MPD2    H110436   3.269   4.494  10.366  1.2081 -0.1017  0.4771
  702MPD2    H210437   3.160   4.248  10.691 -0.3716  0.9822  0.8268
  702MPD2    H310438   3.270   4.269  10.462 -0.9354 -1.1389  1.0214
  702MPD2     N10439   3.096   4.684  10.426 -0.6926 -0.3904 -0.1812
  702MPD2    H510440   3.159   4.705  10.350 -0.3969  1.0930  0.4837
  702MPD2    N110441   2.971   4.402  10.788  0.5838  0.5763  1.0229
  702MPD2    H710442   2.917   4.485  10.813 -3.4162 -1.2572 -1.6018
  703TMC3    C110443   3.005   0.157  10.367  0.0321 -0.5038  0.5796
  703TMC3    C210444   2.892   0.239  10.374  0.0458  0.4167  0.6125
  703TMC3    C310445   2.902   0.366  10.315  1.0480  0.6859  0.3750
  703TMC3    C410446   3.124   0.205  10.315  0.1945  0.0651 -0.5294
  703TMC3    C510447   3.127   0.323  10.249  0.1911 -0.2693 -0.2925
  703TMC3    C610448   3.019   0.412  10.250 -0.3858  0.3754  0.4054
  703TMC3     C10449   2.996   0.038  10.447  0.0720  0.5273  0.6805
  703TMC3     O10450   2.908   0.043  10.528 -0.5185 -0.4283 -0.3230
  703TMC3     H10451   2.795   0.200  10.402 -0.5213  0.8688 -0.7127
  703TMC3    H110452   3.214   0.146  10.325 -0.6767 -1.8811 -4.2100
  703TMC3    H210453   3.041   0.514  10.223  2.6893 -0.6285 -0.8710
  703TMC3    C710454   3.245   0.391  10.232 -0.3021  0.0723 -0.6450
  703TMC3    C810455   2.776   0.425  10.287 -0.0804  0.0569 -0.0944
  703TMC3    O110456   3.243   0.478  10.146  0.2391 -0.0794 -0.1039
  703TMC3    O210457   2.778   0.516  10.205  0.4185  0.0318  0.0925
  704TMC3    C110458   0.685   2.543  12.877  0.2179 -0.1048 -0.8871
  704TMC3    C210459   0.810   2.607  12.844  0.4896  0.1747  0.3579
  704TMC3    C310460   0.918   2.574  12.910  0.0007  0.3684 -0.3161
  704TMC3    C410461   0.669   2.453  12.976  0.3275 -0.0465  0.3405
  704TMC3    C510462   0.781   2.441  13.054  0.2228  0.4529  0.7855
  704TMC3    C610463   0.907   2.481  13.014  1.0993  0.4715 -0.1262
  704TMC3     C10464   0.567   2.576  12.806  0.3459  0.6496 -0.1078
  704TMC3     O10465   0.464   2.559  12.866  0.6349 -0.0800 -0.1990
  704TMC3     H10466   0.819   2.673  12.759  0.3852 -2.5865 -1.7876
  704TMC3    H110467   0.574   2.403  12.994  1.4493 -1.9953  0.8118
  704TMC3    H210468   0.990   2.454  13.078 -1.2282  0.1725  2.8231
  704TMC3    C710469   0.784   2.325  13.134 -0.5757 -0.2829  0.5438
  704TMC3    C810470   1.022   2.551  12.810  0.1419 -0.2729 -0.4854
  704TMC3    O110471   0.888   2.262  13.120  0.0345  0.1278 -0.0592
  704TMC3    O210472   0.980   2.543  12.695  0.1141 -0.2256 -0.4694
  705MPD2     C10473   4.721   0.346  16.200 -0.1696 -0.0932 -0.8039
  705MPD2    C110474   0.005   0.482  16.230  1.1200  0.3166 -0.0270
  705MPD2    C210475   4.655   0.551  16.308 -0.9290  0.2610  0.4448
  705MPD2    C310476   4.537   0.491  16.343  0.7467 -0.6687  0.2357
  705MPD2    C410477   4.521   0.356  16.307 -0.1624 -0.1101 -0.3879
  705MPD2    C510478   4.606   0.289  16.235 -1.2178  0.1289  0.0188
  705MPD2     H10479   4.663   0.655  16.338  0.2894  0.1902  0.3623
  705MPD2    H110480   4.432   0.302  16.338 -0.1889 -1.3524 -2.6566
  705MPD2    H210481   0.057   0.288  16.147  0.6764  1.4967 -1.3549
  705MPD2    H310482   4.585   0.191  16.193  1.4494  0.5949 -2.3984
  705MPD2     N10483   4.435   0.553  16.417 -0.0981  0.3179 -0.6355
  705MPD2    H510484   4.344   0.508  16.410 -0.4251  0.8284  0.3303
  705MPD2    N110485   0.126   0.546  16.194  0.0842 -0.4292 -0.9840
  705MPD2    H710486   0.144   0.641  16.224 -0.3150 -0.1705 -1.5741
  706TMC3    C110487   0.369   0.637  15.820  0.5813  0.0683  0.0673
  706TMC3    C210488   0.294   0.750  15.807  0.6372  0.3865 -0.3033
  706TMC3    C310489   0.225   0.800  15.916  0.5510 -0.9924 -0.3538
  706TMC3    C410490   0.377   0.573  15.945 -0.0523 -0.1548  0.1059
  706TMC3    C510491   0.284   0.611  16.043 -0.0059  0.3962  0.2069
  706TMC3    C610492   0.210   0.720  16.027 -1.1002 -0.5570 -0.4515
  706TMC3     C10493   0.471   0.613  15.716 -0.0150  0.1068 -0.3073
  706TMC3     O10494   0.588   0.621  15.746 -0.1532 -0.4020  0.5182
  706TMC3     H10495   0.292   0.800  15.711 -0.9223 -2.5519 -1.7945
  706TMC3    H110496   0.439   0.484  15.948 -0.2368 -0.2093  2.2545
  706TMC3    H210497   0.133   0.754  16.095  0.8463 -0.1278  1.5670
  706TMC3    C710498   0.215   0.499  16.108  0.3544  0.3132  0.5329
  706TMC3    C810499   0.199   0.941  15.918 -0.5546 -0.1174 -0.1156
  706TMC3    O110500   0.226   0.393  16.052 -0.1933 -0.2642  0.7130
  706TMC3    O210501   0.192   0.995  15.809 -0.6585  0.4115 -0.2202
  707TMC3    C110502   1.866   4.397   0.205 -0.2629 -0.4130 -0.0877
  707TMC3    C210503   1.822   4.270   0.226 -1.1317 -0.1602  0.4238
  707TMC3    C310504   1.725   4.212   0.146 -1.0772  0.6235  0.2837
  707TMC3    C410505   1.827   4.468   0.102  0.1579 -1.0577 -0.1032
  707TMC3    C510506   1.739   4.406   0.017  0.0171  0.5047  0.5977
  707TMC3    C610507   1.690   4.283   0.033 -0.7070  0.0848  0.6349
  707TMC3     C10508   2.000   4.413   0.264 -0.6479 -0.0854  0.2968
  707TMC3     O10509   2.067   4.315   0.293  0.0696 -0.1062  0.3008
  707TMC3     H10510   1.873   4.213   0.303 -1.2080 -2.0320 -0.9239
  707TMC3    H110511   1.875   4.564   0.081 -1.0381 -0.4825 -0.1830
  707TMC3    H210512   1.612   4.242  17.722  0.3222 -0.4478 -0.2785
  707TMC3    C710513   1.725   4.471  17.644  0.5241  0.0764  0.4279
  707TMC3    C810514   1.722   4.063   0.139 -0.2294  0.6094 -0.4862
  707TMC3    O110515   1.808   4.558  17.623 -0.0420  0.2996 -0.6368
  707TMC3    O210516   1.689   4.005   0.037 -0.0776  0.1335  0.1705
  708MPD2     C10517   2.656   3.531  13.777  0.1181  0.1341 -0.7407
  708MPD2    C110518   2.751   3.540  13.878 -0.7639 -0.1730  0.0075
  708MPD2    C210519   2.721   3.487  14.001  0.5182  1.1934  0.1021
  708MPD2    C310520   2.591   3.453  14.036 -0.1011  0.5814  0.3979
  708MPD2    C410521   2.492   3.452  13.941  0.2567 -0.0888  0.2182
  708MPD2    C510522   2.528   3.493  13.812 -0.7565  0.7109  0.2976
  708MPD2     H10523   2.785   3.492  14.088 -2.1278  1.8577  2.0345
  708MPD2    H110524   2.389   3.422  13.952  0.4751 -0.7854  0.3950
  708MPD2    H210525   2.668   3.570  13.677  1.0621 -0.5319 -0.8819
  708MPD2    H310526   2.456   3.505  13.732  0.4476  2.3179 -0.5322
  708MPD2     N10527   2.554   3.409  14.172  0.1366 -0.3824 -0.3616
  708MPD2    H510528   2.456   3.404  14.197  0.0880 -0.5307 -0.5855
  708MPD2    N110529   2.868   3.617  13.849  0.5657  0.7587  0.0918
  708MPD2    H710530   2.874   3.672  13.764  0.8927  0.0990 -0.3059
  709TMC3    C110531   3.006   3.797  13.933 -0.0883  0.0775 -0.7828
  709TMC3    C210532   2.931   3.886  13.855 -0.5961 -0.0111 -0.2313
  709TMC3    C310533   2.953   4.022  13.877  0.5074  0.0661  0.2802
  709TMC3    C410534   3.088   3.840  14.034 -0.2436 -0.4333 -0.2096
  709TMC3    C510535   3.099   3.977  14.064  0.9185  0.2757 -0.5221
  709TMC3    C610536   3.035   4.064  13.983  0.3907 -0.0042 -0.0211
  709TMC3     C10537   2.946   3.669  13.951 -0.0669  0.3725 -0.0250
  709TMC3     O10538   2.947   3.633  14.067 -0.1281  0.2838 -0.5342
  709TMC3     H10539   2.866   3.849  13.777  1.7626  0.2845 -2.3427
  709TMC3    H110540   3.126   3.771  14.108 -1.0883  0.8883  1.4624
  709TMC3    H210541   3.032   4.169  14.007  1.9505  0.4710 -1.9881
  709TMC3    C710542   3.076   4.011  14.195 -0.7663 -0.8016 -0.6610
  709TMC3    C810543   2.867   4.119  13.820  0.6511  0.1464 -0.5107
  709TMC3    O110544   3.150   4.091  14.249  0.1374 -0.7444  0.2844
  709TMC3    O210545   2.822   4.204  13.905 -0.3490 -0.0134  0.4702
  710TMC3    C110546   4.250   0.094   0.225 -0.2636  0.2216 -0.3906
  710TMC3    C210547   4.265   0.054   0.098  0.3653  0.6610  0.0342
  710TMC3    C310548   4.392   0.061   0.048 -0.5304  0.2829  0.3578
  710TMC3    C410549   4.352   0.138   0.307 -0.1780 -0.6680  0.8753
  710TMC3    C510550   4.474   0.129   0.257  0.8464 -0.1247  0.1997
  710TMC3    C610551   4.494   0.097   0.126 -0.6254  0.1586  0.6040
  710TMC3     C10552   4.114   0.129   0.260 -0.0149 -0.2937 -1.0432
  710TMC3     O10553   4.025   0.054   0.223 -0.6486 -0.6690  0.1067
  710TMC3     H10554   4.184   0.014   0.038  0.6408  1.3426 -0.8025
  710TMC3    H110555   4.346   0.166   0.412  1.3055  4.4629 -0.4430
  710TMC3    H210556   4.586   0.050   0.092 -1.7813 -0.7447 -1.2035
  710TMC3    C710557   4.572   0.072   0.355  0.5199 -0.7925  0.3138
  710TMC3    C810558   4.421   0.006  17.674 -0.5242 -0.2409  0.2801
  710TMC3    O110559   4.519   0.048   0.462 -0.1525  0.4757  0.2253
  710TMC3    O210560   4.393   4.626  17.659 -0.4376  0.0970 -0.1459
  711TMC3    C110561   3.888   1.545  14.731  0.3070  0.1268 -0.0125
  711TMC3    C210562   3.848   1.616  14.838  0.0213 -0.3073 -0.8930
  711TMC3    C310563   3.925   1.596  14.953 -0.1187 -0.3870  0.0292
  711TMC3    C410564   4.006   1.470  14.720  0.2518  0.1119  0.3993
  711TMC3    C510565   4.075   1.460  14.834 -0.1402 -0.4280 -0.5451
  711TMC3    C610566   4.041   1.522  14.949 -0.0410  1.1146  0.0805
  711TMC3     C10567   3.799   1.469  14.647  0.1739  0.4682  0.3282
  711TMC3     O10568   3.783   1.349  14.664 -0.7661  0.5078  0.1064
  711TMC3     H10569   3.745   1.643  14.860  0.0652  0.8466 -2.0983
  711TMC3    H110570   4.027   1.417  14.628  3.5025  2.8407 -0.4312
  711TMC3    H210571   4.090   1.468  15.029  1.8115  1.2970 -0.9293
  711TMC3    C710572   4.113   1.321  14.857  0.8304 -0.3578  0.7366
  711TMC3    C810573   3.881   1.622  15.092 -0.7434 -0.4848 -0.7521
  711TMC3    O110574   4.220   1.297  14.910  0.1542  0.4116 -0.3448
  711TMC3    O210575   3.761   1.651  15.119 -0.1185 -0.5252 -0.2471
  712MPD2     C10576   0.525   2.409  13.673 -0.4996  0.1151 -0.1559
  712MPD2    C110577   0.407   2.483  13.656  0.2564 -0.4622 -0.2905
  712MPD2    C210578   0.399   2.619  13.698  0.5674  0.7571  0.0067
  712MPD2    C310579   0.503   2.669  13.773 -0.2372  0.3376 -0.9148
  712MPD2    C410580   0.599   2.578  13.819 -0.8701  0.2252 -0.1180
  712MPD2    C510581   0.615   2.451  13.760  0.8393 -0.9485  0.0138
  712MPD2     H10582   0.316   2.685  13.676  0.4319 -0.0304 -1.8378
  712MPD2    H110583   0.677   2.603  13.891 -2.9116 -1.9905  2.8600
  712MPD2    H210584   0.539   2.311  13.629 -1.3650  1.1236 -2.6631
  712MPD2    H310585   0.694   2.383  13.789  2.0404  0.4832  0.0795
  712MPD2     N10586   0.514   2.808  13.814 -0.0211 -0.3438 -0.3189
  712MPD2    H510587   0.597   2.836  13.867 -1.5883 -1.6205  2.8236
  712MPD2    N110588   0.309   2.430  13.568 -0.6503  0.3190 -0.2086
  712MPD2    H710589   0.241   2.494  13.530  0.9375  2.0223 -0.1780
  713TMC3    C110590   0.466   3.040  13.839  0.1717 -0.4740  0.8239
  713TMC3    C210591   0.550   3.064  13.947  0.3255  0.1803 -0.6809
  713TMC3    C310592   0.596   3.190  13.968  0.4950 -0.2078  0.7820
  713TMC3    C410593   0.423   3.130  13.755  0.1453 -0.4550  0.0242
  713TMC3    C510594   0.466   3.262  13.775  0.3033 -0.7729 -0.0048
  713TMC3    C610595   0.553   3.291  13.886  0.4717  0.0277  0.0780
  713TMC3     C10596   0.417   2.907  13.810  0.1469  0.0254 -0.1474
  713TMC3     O10597   0.304   2.901  13.766  0.2218  0.1865 -0.1089
  713TMC3     H10598   0.583   2.987  14.015 -0.3505  0.6003  0.1207
  713TMC3    H110599   0.367   3.100  13.667 -0.6147  0.1980  0.2933
  713TMC3    H210600   0.611   3.383  13.886 -0.5630  0.6942 -0.6969
  713TMC3    C710601   0.489   3.347  13.660 -0.4522  0.2774 -0.0335
  713TMC3    C810602   0.738   3.194  13.992 -0.5975 -0.6922 -0.2164
  713TMC3    O110603   0.592   3.411  13.656 -0.2538  0.2522  0.7683
  713TMC3    O210604   0.801   3.247  13.900  0.2441  0.0508  0.3074
  714MPD2     C10605   2.896   1.755   0.975 -0.0727 -0.2741 -0.2161
  714MPD2    C110606   2.907   1.641   0.898 -0.2530  0.3272 -0.5832
  714MPD2    C210607   2.792   1.593   0.829 -0.7764  0.2081  0.1204
  714MPD2    C310608   2.675   1.664   0.816 -0.2499  0.1479 -0.2445
  714MPD2    C410609   2.658   1.775   0.900  0.0215 -0.6358 -1.0412
  714MPD2    C510610   2.766   1.808   0.977 -0.6055 -0.1268  0.1437
  714MPD2     H10611   2.796   1.502   0.770 -1.3906  1.5698 -2.0397
  714MPD2    H110612   2.561   1.822   0.900 -0.3052 -1.3032  0.5382
  714MPD2    H210613   2.973   1.787   1.043  1.3588 -1.9514 -1.0353
  714MPD2    H310614   2.742   1.886   1.049 -1.9465 -0.9253  0.5639
  714MPD2     N10615   2.572   1.616   0.733 -0.2933 -0.5736 -0.1385
  714MPD2    H510616   2.584   1.520   0.702  0.8520  0.1570 -1.9651
  714MPD2    N110617   3.037   1.581   0.889  0.5100  0.1355 -0.2651
  714MPD2    H710618   3.109   1.624   0.946  1.9829 -1.1727 -1.1794
  715TMC3    C110619   3.205   1.440   0.794 -0.0976 -0.4716  0.7000
  715TMC3    C210620   3.243   1.353   0.699 -0.4371 -0.5961  0.3520
  715TMC3    C310621   3.380   1.323   0.676 -0.2452 -0.6482  0.1843
  715TMC3    C410622   3.299   1.488   0.891 -0.7369 -0.2372 -0.2132
  715TMC3    C510623   3.431   1.440   0.877  0.4093  0.2052 -0.2869
  715TMC3    C610624   3.474   1.368   0.764  0.3655 -0.0946  0.6194
  715TMC3     C10625   3.065   1.483   0.796 -0.5611 -0.4859  0.3100
  715TMC3     O10626   2.989   1.431   0.712 -0.0094  0.1927 -0.0417
  715TMC3     H10627   3.169   1.313   0.630 -0.7784 -0.8889  0.8780
  715TMC3    H110628   3.270   1.538   0.983  1.8799 -0.2242  0.6110
  715TMC3    H210629   3.578   1.345   0.749  0.1646 -0.0578 -0.8422
  715TMC3    C710630   3.539   1.494   0.966 -0.0946 -0.1500  0.1426
  715TMC3    C810631   3.407   1.220   0.585  0.4428  0.5941  0.3897
  715TMC3    O110632   3.654   1.453   0.949 -0.1601 -0.2137 -0.1016
  715TMC3    O210633   3.309   1.164   0.540  0.2510  0.0619 -0.2430
  716MPD2     C10634   2.227   4.422   9.757  0.1189 -0.1748 -0.6419
  716MPD2    C110635   2.150   4.410   9.641  0.9393 -0.4696 -0.7141
  716MPD2    C210636   2.199   4.341   9.533 -0.2850  0.0631  0.2078
  716MPD2    C310637   2.319   4.276   9.545  0.2357  0.6052 -0.3174
  716MPD2    C410638   2.394   4.288   9.662  0.0876  0.2075  0.3633
  716MPD2    C510639   2.350   4.367   9.763  0.0725  0.5147  0.7821
  716MPD2     H10640   2.128   4.318   9.454 -0.1937 -0.1866  0.2006
  716MPD2    H110641   2.479   4.225   9.684  1.3419  1.2913 -1.4000
  716MPD2    H210642   2.185   4.465   9.847 -0.6355 -0.5552 -0.8098
  716MPD2    H310643   2.411   4.364   9.853 -1.5718  1.3507  1.9113
  716MPD2     N10644   2.354   4.188   9.441  0.0964  0.1097 -0.0497
  716MPD2    H510645   2.283   4.173   9.369  1.7650 -0.9427 -1.4939
  716MPD2    N110646   2.028   4.487   9.636  0.5084 -0.0349  0.3384
  716MPD2    H710647   1.998   4.531   9.722  0.1733  0.1464  0.1253
  717TMC3    C110648   2.473   4.027   9.319  0.7311  0.6171 -0.0634
  717TMC3    C210649   2.403   4.076   9.205 -0.5159  0.1193 -0.0913
  717TMC3    C310650   2.393   3.996   9.100 -0.2746  0.4518 -0.5392
  717TMC3    C410651   2.537   3.909   9.323  0.4128  0.2263 -0.1099
  717TMC3    C510652   2.522   3.833   9.217 -0.4565 -0.1404 -0.0053
  717TMC3    C610653   2.451   3.872   9.108  0.5412 -0.2564  0.1333
  717TMC3     C10654   2.460   4.096   9.443 -0.2673  0.1289  0.0710
  717TMC3     O10655   2.546   4.077   9.526 -0.1985 -0.6180 -0.1417
  717TMC3     H10656   2.364   4.177   9.193  0.3873  0.5570  0.7303
  717TMC3    H110657   2.578   3.884   9.420  0.5344 -1.4586 -0.6049
  717TMC3    H210658   2.447   3.807   9.021  4.2992 -1.1331  0.6024
  717TMC3    C710659   2.569   3.692   9.237 -0.1282  0.6182  0.1377
  717TMC3    C810660   2.264   4.016   9.037  0.4036 -0.1190 -0.0082
  717TMC3    O110661   2.520   3.607   9.164 -0.1582  0.1470 -0.6641
  717TMC3    O210662   2.182   4.071   9.113  0.4595  0.2780 -0.1875
  718MPD2     C10663   2.419   2.727  13.381 -0.2046 -0.6400  0.2612
  718MPD2    C110664   2.377   2.801  13.275  0.5118 -0.9013 -0.5988
  718MPD2    C210665   2.249   2.786  13.233  0.0119 -0.7623 -1.2023
  718MPD2    C310666   2.164   2.687  13.291 -0.1464  0.5271  0.3313
  718MPD2    C410667   2.209   2.615  13.395  0.8816  0.4442 -0.1286
  718MPD2    C510668   2.340   2.628  13.439 -0.0804  0.1940 -0.6244
  718MPD2     H10669   2.213   2.855  13.158  0.6156  2.1499  1.2017
  718MPD2    H110670   2.146   2.544  13.447  1.1596  1.2219  1.2663
  718MPD2    H210671   2.519   2.738  13.422  0.2406  0.0437 -0.9937
  718MPD2    H310672   2.371   2.578  13.530 -1.6313  1.5632  0.6406
  718MPD2     N10673   2.038   2.669  13.234 -0.4320  0.1195  0.1486
  718MPD2    H510674   2.012   2.723  13.153  3.2217 -1.1463 -1.8653
  718MPD2    N110675   2.467   2.892  13.211  0.2617 -0.2908  0.0375
  718MPD2    H710676   2.563   2.895  13.244  0.1006  2.6746  0.2092
  719TMC3    C110677   2.563   3.009  13.021 -0.6998 -0.1349 -0.1405
  719TMC3    C210678   2.560   2.936  12.902 -0.5259  0.6947 -0.0691
  719TMC3    C310679   2.566   2.998  12.782  0.2352  0.1135 -0.5113
  719TMC3    C410680   2.590   3.141  13.018  0.2069  0.0145  0.2606
  719TMC3    C510681   2.610   3.203  12.897 -0.1985 -0.0918  0.5024
  719TMC3    C610682   2.590   3.133  12.783 -0.2168 -0.1768 -0.9581
  719TMC3     C10683   2.443   2.965  13.088 -0.0014 -0.3941 -0.1154
  719TMC3     O10684   2.341   2.965  13.017  0.0678  0.0646  0.7125
  719TMC3     H10685   2.552   2.828  12.913 -2.0207  0.6473 -1.6220
  719TMC3    H110686   2.573   3.200  13.107  1.9368 -0.1391  0.6839
  719TMC3    H210687   2.565   3.183  12.691  2.0537  1.5531 -0.6251
  719TMC3    C710688   2.723   3.289  12.898  0.2071 -0.3020 -0.6755
  719TMC3    C810689   2.460   2.963  12.687  0.5974 -0.4802 -0.2260
  719TMC3    O110690   2.758   3.336  13.003 -0.2094 -0.3820  0.4036
  719TMC3    O210691   2.477   3.005  12.573 -0.5676 -0.1737  0.5125
  720MPD2     C10692   0.376   4.353  14.038 -0.1071 -0.2131  0.4410
  720MPD2    C110693   0.377   4.481  14.088 -0.8533  0.4542 -0.2642
  720MPD2    C210694   0.466   4.517  14.185 -0.2785 -0.2320 -0.1791
  720MPD2    C310695   0.554   4.422  14.231  0.1087  0.4946 -0.2435
  720MPD2    C410696   0.560   4.303  14.170 -0.0031 -0.4056 -0.2115
  720MPD2    C510697   0.477   4.268  14.071 -0.0628 -0.1297 -0.9283
  720MPD2     H10698   0.481   4.618  14.222  0.5341 -0.4707  0.1436
  720MPD2    H110699   0.637   4.228  14.184  1.2572  0.6036 -1.6441
  720MPD2    H210700   0.303   4.325  13.963  1.2636 -1.0302 -0.5948
  720MPD2    H310701   0.489   4.175  14.018 -0.7741 -0.9365  0.3362
  720MPD2     N10702   0.658   4.457  14.321 -0.3354  0.1569  0.7017
  720MPD2    H510703   0.721   4.380  14.341  1.7148  2.2421  2.3179
  720MPD2    N110704   0.293   4.565  14.016  0.5879  0.0229  0.1123
  720MPD2    H710705   0.247   4.523  13.936  0.0865 -0.0967  0.4678
  721TMC3    C110706   0.789   4.579  14.462  0.5966 -0.0137 -1.0937
  721TMC3    C210707   0.798   4.629  14.589  0.4733  0.0663  0.0985
  721TMC3    C310708   0.914   4.630  14.651  0.7759 -0.0373  0.0858
  721TMC3    C410709   0.901   4.533  14.395 -0.1940  0.4815 -0.0881
  721TMC3    C510710   1.018   4.537  14.457 -0.8041 -0.3177  0.5481
  721TMC3    C610711   1.025   4.572  14.593  0.5041 -0.4423  1.5240
  721TMC3     C10712   0.660   4.566  14.404 -0.0655 -1.1534 -0.4950
  721TMC3     O10713   0.566   4.637  14.440  0.1090  0.9231 -0.2788
  721TMC3     H10714   0.715   4.650  14.656  0.1518  0.0286 -0.2865
  721TMC3    H110715   0.887   4.511  14.290  0.3227 -0.8920  0.1318
  721TMC3    H210716   1.124   4.574  14.638  0.3905 -1.5019  1.8326
  721TMC3    C710717   1.147   4.512  14.385 -0.0630  0.4495  0.1329
  721TMC3    C810718   0.933   4.626  14.801 -0.8399 -0.0933  0.1373
  721TMC3    O110719   1.141   4.506  14.261 -0.3008  0.2546 -0.1597
  721TMC3    O210720   1.025   4.556  14.841 -0.2542  0.4698 -0.2203
  722MPD2     C10721   4.083   3.508  13.225  0.0399 -0.0180 -0.1544
  722MPD2    C110722   4.121   3.525  13.091 -0.0933 -0.2431  0.2848
  722MPD2    C210723   4.027   3.530  12.989 -0.3981  0.2315 -0.1603
  722MPD2    C310724   3.891   3.530  13.014 -0.4381  0.5406  0.7013
  722MPD2    C410725   3.856   3.541  13.147  0.0370  0.2379  0.4219
  722MPD2    C510726   3.945   3.521  13.248  0.8195 -0.1433 -0.3054
  722MPD2     H10727   4.070   3.519  12.890  0.2358 -0.5506  0.2101
  722MPD2    H110728   3.755   3.567  13.176  0.0042 -0.3127  0.7853
  722MPD2    H210729   4.140   3.468  13.307  0.9084  0.3749 -0.5714
  722MPD2    H310730   3.904   3.511  13.348  1.0518  2.3002  0.0410
  722MPD2     N10731   3.802   3.518  12.908  0.0683  0.3244  0.3292
  722MPD2    H510732   3.848   3.518  12.818 -1.6198  3.0099 -0.5555
  722MPD2    N110733   4.251   3.510  13.044  0.1902 -0.0267 -0.2284
  722MPD2    H710734   4.259   3.537  12.946  0.3028  1.8272  0.2788
  723TMC3    C110735   3.610   3.562  12.794  0.3008 -0.8949  1.0948
  723TMC3    C210736   3.687   3.535  12.684 -0.5171  0.1768  1.0138
  723TMC3    C310737   3.673   3.620  12.581 -0.0984  0.4935  0.1436
  723TMC3    C410738   3.517   3.661  12.796  0.0585  0.4686  0.7402
  723TMC3    C510739   3.500   3.732  12.683 -0.4164 -0.7868 -0.0999
  723TMC3    C610740   3.585   3.723  12.582 -0.2083  0.1471 -0.2050
  723TMC3     C10741   3.665   3.508  12.918  1.2860  0.5024 -0.1274
  723TMC3     O10742   3.586   3.496  13.012  0.7366 -0.2133  1.0465
  723TMC3     H10743   3.743   3.443  12.669 -1.4860 -0.3303  0.4594
  723TMC3    H110744   3.451   3.669  12.881 -3.1191  1.4716 -1.8175
  723TMC3    H210745   3.575   3.774  12.487  1.2500  0.0367 -0.4150
  723TMC3    C710746   3.384   3.827  12.662 -0.1945 -0.5799  0.0176
  723TMC3    C810747   3.703   3.569  12.455 -0.1876  0.9767  0.0639
  723TMC3    O110748   3.372   3.880  12.554  0.7368 -0.5692 -0.6415
  723TMC3    O210749   3.725   3.649  12.368 -0.6232 -0.4148 -0.3367
  724TMC3    C110750   0.128   2.164  10.869  0.0548 -0.0377  0.9487
  724TMC3    C210751   0.062   2.048  10.846 -0.2449 -0.8089 -0.0371
  724TMC3    C310752   0.038   2.023  10.711  0.1429 -0.3013  0.2275
  724TMC3    C410753   0.182   2.244  10.771 -0.6401 -0.1363 -0.0156
  724TMC3    C510754   0.151   2.218  10.640 -0.3142 -0.4838  0.1319
  724TMC3    C610755   0.085   2.099  10.609  0.1382  0.6414 -0.4595
  724TMC3     C10756   0.102   2.244  10.981  0.0981  0.1689 -0.0513
  724TMC3     O10757   0.049   2.351  10.955 -0.5384 -0.1067  0.2635
  724TMC3     H10758   4.728   2.016  10.920 -2.7846  1.6300 -1.4887
  724TMC3    H110759   0.253   2.323  10.793 -0.1435  0.0274 -2.1693
  724TMC3    H210760   0.052   2.094  10.505  0.7183 -1.7198 -0.5319
  724TMC3    C710761   0.206   2.296  10.533 -0.1052 -0.4235  0.2536
  724TMC3    C810762   4.703   1.905  10.693  0.9049 -0.0190 -0.3561
  724TMC3    O110763   0.224   2.236  10.428  0.3402 -0.0289  0.2770
  724TMC3    O210764   4.669   1.849  10.795  0.1008  0.1811  0.0641
  725TMC3    C110765   0.997   0.483  12.860  0.0072  0.1675  0.2690
  725TMC3    C210766   0.905   0.478  12.762 -0.0094  0.5617  0.0034
  725TMC3    C310767   0.829   0.373  12.730 -0.5182 -0.5290  0.2595
  725TMC3    C410768   1.017   0.371  12.930  0.0242 -0.0468  0.4093
  725TMC3    C510769   0.942   0.260  12.907 -0.3657  0.0768 -0.2126
  725TMC3    C610770   0.848   0.262  12.807  0.0452 -0.0993 -0.4338
  725TMC3     C10771   1.037   0.604  12.927  0.6800  0.2087 -0.3555
  725TMC3     O10772   1.140   0.601  12.988  0.0532  0.1710  0.0495
  725TMC3     H10773   0.899   0.565  12.698  0.2645  1.3202  1.0083
  725TMC3    H110774   1.089   0.380  13.011  0.3659 -0.4622  0.1480
  725TMC3    H210775   0.773   0.185  12.794  0.9445 -0.8133 -1.3054
  725TMC3    C710776   0.960   0.151  12.998 -0.3024  0.1188 -0.7436
  725TMC3    C810777   0.790   0.357  12.591 -0.3452  0.9227 -0.7714
  725TMC3    O110778   0.860   0.078  13.013 -0.5417  0.3481 -0.1320
  725TMC3    O210779   0.704   0.273  12.563  0.2221  0.1787 -0.0491
  726MPD2     C10780   3.709   2.141  11.058  0.4540  0.2493 -0.0503
  726MPD2    C110781   3.622   2.090  10.961 -0.6946  0.0704  0.0132
  726MPD2    C210782   3.556   1.975  10.990  0.5928 -0.0659  0.1180
  726MPD2    C310783   3.574   1.903  11.105  0.3060  0.2757  0.3853
  726MPD2    C410784   3.674   1.944  11.189  0.0640 -0.1730 -0.5003
  726MPD2    C510785   3.747   2.057  11.164  0.0883 -0.3847  0.5688
  726MPD2     H10786   3.491   1.939  10.911 -1.6333 -0.3523  2.1146
  726MPD2    H110787   3.681   1.888  11.282  2.2224 -0.5583 -0.8960
  726MPD2    H210788   3.754   2.239  11.048  0.2272  0.3033 -0.5715
  726MPD2    H310789   3.812   2.099  11.240 -0.8015  1.4995  0.2842
  726MPD2     N10790   3.513   1.772  11.125 -0.3777  0.2339 -0.3776
  726MPD2    H510791   3.532   1.728  11.215  0.0976  0.2361 -0.4766
  726MPD2    N110792   3.594   2.158  10.842  0.0757  0.3821 -0.3947
  726MPD2    H710793   3.521   2.119  10.783 -1.4368 -0.0871  1.7830
  727TMC3    C110794   3.655   2.286  10.654  0.3993  0.6492 -0.7896
  727TMC3    C210795   3.770   2.346  10.607  0.1702  0.6144 -0.0752
  727TMC3    C310796   3.765   2.461  10.531 -0.3473  0.3402  0.3588
  727TMC3    C410797   3.531   2.340  10.622 -0.2123  0.6298 -0.8647
  727TMC3    C510798   3.528   2.457  10.553  1.2450  0.0414  0.7435
  727TMC3    C610799   3.644   2.521  10.507  0.3779 -0.6614 -0.1136
  727TMC3     C10800   3.666   2.266  10.794 -0.5223  0.5004 -0.1786
  727TMC3     O10801   3.755   2.333  10.843 -0.3307 -0.8277 -0.3003
  727TMC3     H10802   3.862   2.303  10.644  0.7074  0.9770 -0.9758
  727TMC3    H110803   3.444   2.295  10.669 -0.4270  0.5850 -1.2980
  727TMC3    H210804   3.631   2.593  10.427  1.2673 -0.5937 -0.2010
  727TMC3    C710805   3.405   2.526  10.512  0.0820 -0.7026 -0.1806
  727TMC3    C810806   3.889   2.535  10.515 -0.7072  0.0236  0.0158
  727TMC3    O110807   3.406   2.647  10.492  0.3645  0.1572 -0.6931
  727TMC3    O210808   3.992   2.473  10.534  0.2142 -0.4803 -0.0511
  728TMC3    C110809   3.355   0.101  15.092  0.7375 -0.3734  0.3829
  728TMC3    C210810   3.476   0.160  15.071  0.0826 -0.0473 -0.5539
  728TMC3    C310811   3.516   0.183  14.938  0.6238 -0.3181  0.3469
  728TMC3    C410812   3.256   0.100  14.985  0.2668 -0.3601 -0.5571
  728TMC3    C510813   3.297   0.136  14.863 -0.3273  0.2714 -0.3002
  728TMC3    C610814   3.428   0.171  14.834  0.2304  0.3672 -1.1488
  728TMC3     C10815   3.310   0.092  15.234 -0.2989 -0.3627 -0.5475
  728TMC3     O10816   3.383   0.148  15.313 -0.0021 -0.3487  0.3247
  728TMC3     H10817   3.547   0.168  15.153  0.4661  0.6451 -0.9555
  728TMC3    H110818   3.156   0.059  14.994  0.2238  0.1711  1.5519
  728TMC3    H210819   3.457   0.205  14.735  0.2486 -0.5880 -1.4707
  728TMC3    C710820   3.187   0.158  14.778  0.6225 -0.7902 -1.5430
  728TMC3    C810821   3.657   0.208  14.905  0.0938  0.5792  0.2338
  728TMC3    O110822   3.100   0.074  14.770 -0.4307 -0.1136  0.5361
  728TMC3    O210823   3.711   0.287  14.979 -0.4678 -0.6048  0.3723
  729MPD2     C10824   0.289   1.673  16.287 -0.3584  0.1422  0.8736
  729MPD2    C110825   0.388   1.596  16.325 -0.7726 -1.7948 -0.4722
  729MPD2    C210826   0.377   1.531  16.443 -0.6737  0.0954  0.3901
  729MPD2    C310827   0.268   1.551  16.523  0.0793 -0.1512  0.1766
  729MPD2    C410828   0.171   1.638  16.479 -0.0569  0.6969 -0.3296
  729MPD2    C510829   0.180   1.697  16.358  0.2695 -0.3631 -0.2637
  729MPD2     H10830   0.451   1.460  16.479 -0.3709 -0.4934 -1.3874
  729MPD2    H110831   0.094   1.675  16.544 -0.2015 -0.0203 -0.0867
  729MPD2    H210832   0.302   1.723  16.191  2.1518 -2.2028 -0.0228
  729MPD2    H310833   0.101   1.762  16.322  0.1243  0.0272  0.7653
  729MPD2     N10834   0.259   1.477  16.651 -0.2131  0.0314  0.2223
  729MPD2    H510835   0.229   1.531  16.732  0.8166 -0.7662  1.1230
  729MPD2    N110836   0.499   1.580  16.240 -0.2334 -0.2069 -0.3867
  729MPD2    H710837   0.503   1.646  16.163  0.2644  0.0699 -0.1194
  730TMC3    C110838   0.365   1.338  16.818 -0.1379 -0.7351 -0.1804
  730TMC3    C210839   0.500   1.351  16.850 -0.4549  0.1064  0.2009
  730TMC3    C310840   0.523   1.395  16.980  0.0748 -0.7056 -0.3493
  730TMC3    C410841   0.260   1.368  16.903 -0.7275 -0.6512  0.6917
  730TMC3    C510842   0.295   1.418  17.027 -0.2344  0.6408  0.8967
  730TMC3    C610843   0.423   1.418  17.070 -0.1716  0.5231 -0.2188
  730TMC3     C10844   0.331   1.361  16.678  0.5208 -0.2171 -0.3880
  730TMC3     O10845   0.373   1.277  16.603  0.0136 -0.1536  0.0338
  730TMC3     H10846   0.583   1.323  16.786 -1.2447  0.3491 -0.9296
  730TMC3    H110847   0.158   1.376  16.867 -0.5021 -0.0899  0.1760
  730TMC3    H210848   0.450   1.440  17.173  1.4615 -1.1249 -0.2914
  730TMC3    C710849   0.247   1.558  17.029  0.3919  0.4247 -0.1629
  730TMC3    C810850   0.634   1.486  16.986  0.0622 -0.1495 -0.3313
  730TMC3    O110851   0.198   1.593  16.925 -0.5698 -0.0944 -0.5311
  730TMC3    O210852   0.727   1.466  16.910 -0.0415 -0.1297 -0.0582
  731MPD2     C10853   0.477   4.708  12.677 -0.5096  0.1924  0.0604
  731MPD2    C110854   0.602   4.649  12.693  0.0347 -1.0112 -0.7607
  731MPD2    C210855   0.604   4.537  12.773  0.2267 -0.2879 -0.9226
  731MPD2    C310856   0.489   4.486  12.835  0.1820 -0.0140 -0.1049
  731MPD2    C410857   0.370   4.548  12.818  0.1612  0.6309  0.7737
  731MPD2    C510858   0.369   4.654  12.735  1.0469  0.9368 -0.0346
  731MPD2     H10859   0.697   4.483  12.786  0.3616  0.0711 -0.3620
  731MPD2    H110860   0.276   4.523  12.865  1.9734 -1.5824  3.2202
  731MPD2    H210861   0.472   0.069  12.634  2.1929  0.5212  0.4941
  731MPD2    H310862   0.275   4.708  12.731  2.8688  3.9363 -1.8403
  731MPD2     N10863   0.491   4.364  12.909 -0.0064 -0.6068 -0.3088
  731MPD2    H510864   0.581   4.317  12.908  1.1662  1.6385 -0.1517
  731MPD2    N110865   0.710   4.692  12.621 -0.2980  0.6815 -0.3555
  731MPD2    H710866   0.708   0.042  12.572  3.9632  0.4591 -0.9365
  732TMC3    C110867   0.915   4.728  12.528  0.3807  0.7268 -0.5263
  732TMC3    C210868   0.873   0.006  12.406  0.1793 -0.7668  0.0822
  732TMC3    C310869   0.939   0.087  12.323  0.0708  0.3291  0.3253
  732TMC3    C410870   1.031   0.035  12.579 -0.3902 -0.2370  0.5523
  732TMC3    C510871   1.090   0.123  12.496  0.0447  0.4474  0.5475
  732TMC3    C610872   1.050   0.152  12.366 -0.5794 -0.6356 -0.3886
  732TMC3     C10873   0.841   4.657  12.626 -0.1228 -0.0861  0.1881
  732TMC3     O10874   0.897   4.583  12.705  0.4388 -1.1434  0.0484
  732TMC3     H10875   0.772   4.712  12.387 -0.9093  3.2959 -1.1553
  732TMC3    H110876   1.040   0.039  12.687  1.0634 -0.9801  0.4538
  732TMC3    H210877   1.092   0.223  12.296 -2.4007 -1.1090 -1.9692
  732TMC3    C710878   1.180   0.217  12.545 -0.2868 -0.0577  0.9559
  732TMC3    C810879   0.907   0.080  12.178 -0.2155  0.2192 -0.2905
  732TMC3    O110880   1.192   0.332  12.498 -0.5115  0.1438 -0.4135
  732TMC3    O210881   0.992   0.113  12.096  0.4707 -0.3947 -0.7247
  733TMC3    C110882   1.611   2.601  13.130  0.2247 -0.3067 -0.4620
  733TMC3    C210883   1.709   2.570  13.219  0.3263  0.4724 -0.3944
  733TMC3    C310884   1.841   2.563  13.183 -0.2320 -0.0887  0.4896
  733TMC3    C410885   1.648   2.629  13.003  0.2832 -0.7435 -0.6418
  733TMC3    C510886   1.775   2.606  12.968  1.0763  0.7193 -0.3412
  733TMC3    C610887   1.877   2.573  13.051  0.1676 -0.6590  0.2729
  733TMC3     C10888   1.472   2.627  13.167 -0.9961 -0.1069 -0.6758
  733TMC3     O10889   1.401   2.690  13.086  0.0304  0.1056 -0.9625
  733TMC3     H10890   1.687   2.573  13.325  0.3644  0.8777 -0.3983
  733TMC3    H110891   1.579   2.662  12.926  0.2953 -2.0540 -1.2061
  733TMC3    H210892   1.959   2.509  13.019 -0.3975 -1.0751 -0.3391
  733TMC3    C710893   1.805   2.667  12.841 -0.6660 -0.4121 -0.1377
  733TMC3    C810894   1.941   2.585  13.282  0.1426  0.0147  0.9967
  733TMC3    O110895   1.727   2.672  12.749  0.2830  0.5425  0.1014
  733TMC3    O210896   1.941   2.517  13.385  0.5108  0.7325 -0.1086
  734MPD2     C10897   3.388   0.475  12.010  0.2590 -0.6608  0.0878
  734MPD2    C110898   3.285   0.403  11.960 -0.6164 -0.5333  0.6982
  734MPD2    C210899   3.268   0.395  11.820 -0.4649  0.7554 -0.2787
  734MPD2    C310900   3.337   0.475  11.730  0.7631  0.5389  0.0227
  734MPD2    C410901   3.443   0.547  11.787  0.0415 -0.1018 -0.3193
  734MPD2    C510902   3.470   0.544  11.919  0.6293  0.6400 -0.1291
  734MPD2     H10903   3.186   0.334  11.785  0.8045 -0.6603 -0.7941
  734MPD2    H110904   3.508   0.598  11.716  1.1702  0.3043  0.9995
  734MPD2    H210905   3.406   0.483  12.116 -1.0210  0.6991  0.2126
  734MPD2    H310906   3.561   0.592  11.954 -1.3028  3.4337  1.0120
  734MPD2     N10907   3.308   0.471  11.593 -0.0857 -0.4326 -0.6993
  734MPD2    H510908   3.240   0.404  11.558 -1.1233  0.1576  0.1775
  734MPD2    N110909   3.212   0.316  12.053 -0.5156 -0.2187  0.0520
  734MPD2    H710910   3.234   0.330  12.151 -1.8811  1.2622  0.1429
  735TMC3    C110911   3.146   0.093  12.116  0.0902 -0.3248 -0.6433
  735TMC3    C210912   3.055   4.729  12.078  0.6601 -0.6815 -0.2380
  735TMC3    C310913   3.105   4.603  12.075  0.0418  0.1425  0.0162
  735TMC3    C410914   3.267   0.068  12.165 -0.5784 -0.0325  0.1447
  735TMC3    C510915   3.309   4.676  12.170  0.0216  0.1100  0.0340
  735TMC3    C610916   3.226   4.571  12.132 -0.2313 -0.2631 -0.4817
  735TMC3     C10917   3.142   0.202  12.017 -0.0741  0.3028 -0.3910
  735TMC3     O10918   3.081   0.177  11.913 -0.4343 -0.5149  0.7633
  735TMC3     H10919   2.955   0.003  12.040  0.4935 -0.7987  0.1699
  735TMC3    H110920   3.331   0.149  12.197 -1.4975  0.7313  0.0194
  735TMC3    H210921   3.254   4.466  12.124 -0.6910 -0.5582  1.8137
  735TMC3    C710922   3.442   4.655  12.210  0.7115  0.6336  0.3049
  735TMC3    C810923   3.100   4.552  11.939  0.0745 -0.1834 -0.4028
  735TMC3    O110924   3.502   0.012  12.256 -0.3085  0.2850 -0.3328
  735TMC3    O210925   3.103   4.428  11.937  0.1699  0.4222  0.1664
  736MPD2     C10926   3.659   4.358  12.246  0.7775  0.1766  0.4189
  736MPD2    C110927   3.613   4.479  12.205  0.2832 -0.2223 -0.2108
  736MPD2    C210928   3.713   4.563  12.156  0.0241  0.5098 -0.4684
  736MPD2    C310929   3.849   4.540  12.161 -0.0034 -0.6466 -0.4813
  736MPD2    C410930   3.897   4.414  12.195 -0.7022  0.5514  0.0043
  736MPD2    C510931   3.790   4.326  12.234 -0.0574 -0.2818 -0.2437
  736MPD2     H10932   3.693   4.665  12.125 -0.4710  1.7637  4.0807
  736MPD2    H110933   4.002   4.388  12.203 -0.9185 -0.2752  0.1205
  736MPD2    H210934   3.593   4.275  12.270  1.1434  0.3385  2.0107
  736MPD2    H310935   3.832   4.233  12.271 -1.4196 -0.6949  0.2500
  736MPD2     N10936   3.948   4.640  12.138 -0.5352 -0.2890  0.0936
  736MPD2    H510937   4.045   4.616  12.156 -0.4939  0.8017  1.2800
  736MPD2    N110938   3.481   4.524  12.225  0.7422  0.1383 -0.4455
  736MPD2    H710939   3.419   4.447  12.250  0.4124  0.8339  0.8889
  737TMC3    C110940   4.063   0.075  12.039  0.5243  0.1635  0.3044
  737TMC3    C210941   4.068   0.210  12.007 -0.2121 -0.0443 -0.2131
  737TMC3    C310942   4.158   0.248  11.915  0.1671  0.3814  0.3577
  737TMC3    C410943   4.176   4.736  12.016 -0.2667 -0.2489 -0.0732
  737TMC3    C510944   4.268   0.042  11.924  0.7514  0.5242  0.0144
  737TMC3    C610945   4.253   0.165  11.865  0.6526 -0.1628  0.0584
  737TMC3     C10946   3.937   0.020  12.077  0.5226  0.0665 -0.9605
  737TMC3     O10947   3.842   0.084  12.057  0.5351  0.4685 -0.0909
  737TMC3     H10948   3.982   0.272  12.029 -0.4894 -1.3464  2.3495
  737TMC3    H110949   4.175   4.632  12.047 -1.3490 -0.6817 -1.5782
  737TMC3    H210950   4.312   0.204  11.782 -0.4721  0.1129 -0.6063
  737TMC3    C710951   4.355   4.675  11.875  0.1307 -0.1338  0.0250
  737TMC3    C810952   4.138   0.387  11.859  0.0434  0.4833  0.1921
  737TMC3    O110953   4.350   4.563  11.920 -0.0187  0.8416 -0.2356
  737TMC3    O210954   4.087   0.465  11.937  1.1009 -0.0136  0.5930
  738MPD2     C10955   0.039   3.304  15.137  0.5369 -0.6967  0.3190
  738MPD2    C110956   4.691   3.333  15.039 -0.0384  0.6470  0.9795
  738MPD2    C210957   4.721   3.437  14.954  0.6104 -0.8239 -1.2607
  738MPD2    C310958   0.105   3.504  14.962 -0.2353  0.1822 -0.0004
  738MPD2    C410959   0.189   3.479  15.068 -0.5216  0.2347 -0.0838
  738MPD2    C510960   0.154   3.378  15.149 -0.4171  0.1676  0.0711
  738MPD2     H10961   4.648   3.469  14.881 -2.3598  0.4887  2.2572
  738MPD2    H110962   0.281   3.529  15.096 -1.0476  1.0859  0.1181
  738MPD2    H210963   0.016   3.224  15.206 -0.4977 -0.6084  0.0777
  738MPD2    H310964   0.216   3.359  15.235 -0.7553 -1.8782 -0.1442
  738MPD2     N10965   0.149   3.609  14.884 -0.5856 -0.1162  0.6451
  738MPD2    H510966   0.248   3.630  14.895 -0.5532 -0.1935  0.5029
  738MPD2    N110967   4.571   3.257  15.043 -0.0372  0.5287 -0.2708
  738MPD2    H710968   4.566   3.186  15.115  0.7715 -1.0146 -1.7365
  739TMC3    C110969   0.133   3.776  14.708  1.1793 -0.2303  0.3945
  739TMC3    C210970   0.051   3.825  14.615  0.1590 -0.7179 -0.1056
  739TMC3    C310971   0.090   3.938  14.549 -0.2829 -0.6088 -0.2517
  739TMC3    C410972   0.242   3.841  14.759 -1.2024  0.3705 -0.6313
  739TMC3    C510973   0.278   3.954  14.690  0.7216 -0.8788  0.7456
  739TMC3    C610974   0.207   3.999  14.587  0.0956  0.1931  0.2865
  739TMC3     C10975   0.070   3.665  14.778  0.1201  0.2306 -0.8789
  739TMC3     O10976   4.704   3.622  14.735  0.2976 -0.1631 -0.3974
  739TMC3     H10977   4.695   3.786  14.581 -0.2788  0.9674 -0.8168
  739TMC3    H110978   0.297   3.810  14.848 -4.5863  0.4496  1.4723
  739TMC3    H210979   0.252   4.083  14.535 -0.4384  0.8509  0.8847
  739TMC3    C710980   0.390   4.039  14.730  0.2166 -0.1257 -0.4392
  739TMC3    C810981   0.058   3.946  14.409  0.4070  1.0107 -0.2284
  739TMC3    O110982   0.393   4.156  14.696  0.7143  0.1121 -0.2042
  739TMC3    O210983   4.738   3.848  14.361  0.0604 -0.5111 -0.4760
  740TMC3    C110984   0.284   0.201  14.481 -0.5502  0.1436  0.6427
  740TMC3    C210985   0.310   0.155  14.607 -0.2489 -0.5135  0.2728
  740TMC3    C310986   0.448   0.142  14.633  0.4367  0.5262 -0.0107
  740TMC3    C410987   0.384   0.224  14.394  0.0970 -0.6315 -0.3428
  740TMC3    C510988   0.514   0.211  14.423  1.0006  0.5435  0.0999
  740TMC3    C610989   0.543   0.182  14.549  0.0932  0.2825  0.5203
  740TMC3     C10990   0.149   0.238  14.444  0.2898  0.1637  0.8579
  740TMC3     O10991   0.129   0.286  14.331 -0.5007 -0.2728  0.3635
  740TMC3     H10992   0.238   0.131  14.685 -1.5167 -0.5198 -0.9198
  740TMC3    H110993   0.363   0.255  14.293  1.0039  2.6220  0.4796
  740TMC3    H210994   0.649   0.190  14.574  0.2344  2.3621 -0.7737
  740TMC3    C710995   0.618   0.168  14.329 -0.7109  0.0925 -1.0877
  740TMC3    C810996   0.482   0.061  14.751  0.4020 -0.0359  0.1173
  740TMC3    O110997   0.734   0.151  14.362 -0.3608  0.9992  0.2476
  740TMC3    O210998   0.586   0.077  14.809  0.4953  0.3675  0.0092
  741TMC3    C110999   4.174   4.618  13.512 -0.5203  0.6772  0.2966
  741TMC3    C211000   4.144   4.492  13.532  0.0511 -0.3515 -0.6417
  741TMC3    C311001   4.190   4.436  13.648  0.5637 -0.3244 -0.4887
  741TMC3    C411002   4.244   4.690  13.606 -0.2163 -0.0578 -0.2535
  741TMC3    C511003   4.270   4.633  13.727 -0.2641 -0.6565 -0.5546
  741TMC3    C611004   4.245   4.499  13.756  0.2064 -0.3185 -0.4139
  741TMC3     C11005   4.085   4.700  13.425 -0.3401 -0.1021 -0.1104
  741TMC3     O11006   4.107   0.081  13.420 -0.1846  0.2134 -0.4566
  741TMC3     H11007   4.095   4.435  13.453 -1.6108 -0.7054  0.6365
  741TMC3    H111008   4.268   0.054  13.580 -1.5470 -0.2761 -2.3195
  741TMC3    H211009   4.268   4.456  13.852 -1.7133  0.7078  0.5179
  741TMC3    C711010   4.353   4.711  13.816 -0.5137 -0.7857  0.7141
  741TMC3    C811011   4.134   4.313  13.669  0.0643  0.1217 -0.4441
  741TMC3    O111012   4.353   0.093  13.804 -0.7103 -0.0439 -0.0469
  741TMC3    O211013   4.036   4.283  13.599 -0.2229  0.7842 -0.3591
  742TMC3    C111014   4.471   2.417  15.353  0.0489  0.5196 -0.0938
  742TMC3    C211015   4.388   2.422  15.244 -0.0373 -0.1180  0.1183
  742TMC3    C311016   4.417   2.510  15.148 -0.3187  0.3129 -0.0594
  742TMC3    C411017   4.588   2.491  15.349 -0.1437  0.0896 -0.3166
  742TMC3    C511018   4.608   2.586  15.252 -0.3297 -0.1664 -1.4393
  742TMC3    C611019   4.523   2.598  15.154 -0.8324  0.1334 -0.7129
  742TMC3     C11020   4.473   2.315  15.449  0.7884 -1.2820 -0.3718
  742TMC3     O11021   4.533   2.329  15.555 -0.7112  0.5390  0.0336
  742TMC3     H11022   4.288   2.381  15.248  0.5311 -1.3451  1.6849
  742TMC3    H111023   4.656   2.479  15.433 -1.5376  0.9306  0.9093
  742TMC3    H211024   4.522   2.682  15.086 -1.8882  0.4204 -0.3367
  742TMC3    C711025   0.011   2.596  15.211  0.1481  0.2183  0.2433
  742TMC3    C811026   4.309   2.540  15.055  0.5262  0.0785  0.7763
  742TMC3    O111027   0.042   2.578  15.091 -0.2287 -0.5351 -0.3394
  742TMC3    O211028   4.316   2.640  14.986  0.2449 -0.2430 -0.0619
  743MPD2     C11029   1.808   4.169   0.949  0.2594 -0.2134  0.3597
  743MPD2    C111030   1.904   4.077   0.984 -0.4100 -1.2831  0.1215
  743MPD2    C211031   2.028   4.126   1.014  1.3630 -0.1081  0.0421
  743MPD2    C311032   2.057   4.260   0.999  0.2299 -0.4717 -0.4073
  743MPD2    C411033   1.962   4.354   0.970 -0.0211 -0.5749  0.4319
  743MPD2    C511034   1.837   4.301   0.942 -0.2551  0.4167  0.1167
  743MPD2     H11035   2.109   4.060   1.040 -0.6621 -2.1845  1.1042
  743MPD2    H111036   1.978   4.457   0.942 -2.5021 -0.3195 -0.0427
  743MPD2    H211037   1.712   4.132   0.914 -0.3974  1.5511  0.3023
  743MPD2    H311038   1.762   4.365   0.898  0.7578  0.9542 -0.8360
  743MPD2     N11039   2.192   4.294   1.016 -0.1715 -0.0751  0.1457
  743MPD2    H511040   2.253   4.218   1.044  0.4093 -0.0784 -1.1183
  743MPD2    N111041   1.876   3.941   0.979 -0.1905 -0.2409  0.3944
  743MPD2    H711042   1.783   3.919   0.943  0.1399  0.2193 -0.7343
  744TMC3    C111043   1.922   3.702   0.958  1.2632  0.5535  0.4173
  744TMC3    C211044   1.801   3.698   0.891 -0.1857 -0.2916 -0.6243
  744TMC3    C311045   1.782   3.610   0.796  0.3170  0.1693  0.1883
  744TMC3    C411046   2.024   3.624   0.926  0.8473  0.4054  0.2854
  744TMC3    C511047   2.006   3.542   0.816  0.2436  0.2387 -0.1666
  744TMC3    C611048   1.886   3.530   0.753 -0.2957 -0.2338 -0.1812
  744TMC3     C11049   1.961   3.834   1.006  0.7574  0.3102 -0.1935
  744TMC3     O11050   2.067   3.843   1.067 -0.0606 -0.2992  0.2302
  744TMC3     H11051   1.716   3.758   0.923  1.6224  1.7889  0.2464
  744TMC3    H111052   2.116   3.629   0.983  1.1350 -0.9192 -0.0535
  744TMC3    H211053   1.876   3.458   0.672  1.7036 -0.5549 -0.1254
  744TMC3    C711054   2.116   3.495   0.740  0.2008  0.2165 -0.1781
  744TMC3    C811055   1.708   3.684   0.686  0.1565 -0.1297  0.0547
  744TMC3    O111056   2.108   3.469   0.622  0.5391 -0.1392  0.1595
  744TMC3    O211057   1.677   3.800   0.711 -0.1408 -0.6224  0.0213
  745TMC3    C111058   0.168   2.272  13.460  0.3021  0.0031 -1.5772
  745TMC3    C211059   0.062   2.217  13.525  0.4979  0.4078 -0.2136
  745TMC3    C311060   4.672   2.244  13.476 -0.4677 -0.1410  0.5434
  745TMC3    C411061   0.151   2.362  13.361  0.2618  0.2329  0.3699
  745TMC3    C511062   0.022   2.377  13.311  0.0586 -0.2827  0.0762
  745TMC3    C611063   4.654   2.318  13.366 -0.2209 -0.1465  0.0139
  745TMC3     C11064   0.284   2.295  13.547 -0.0625  0.4420  0.0927
  745TMC3     O11065   0.339   2.196  13.599 -0.2828  0.1794 -0.4919
  745TMC3     H11066   0.083   2.138  13.596 -0.4664  1.1162  0.8688
  745TMC3    H111067   0.234   2.405  13.307 -2.0122  1.8118 -1.8547
  745TMC3    H211068   4.555   2.329  13.324 -0.6950  1.7643  1.6130
  745TMC3    C711069   4.738   2.460  13.195  0.1733  0.5116  0.7672
  745TMC3    C811070   4.575   2.271  13.580  0.6392 -0.3952  0.2224
  745TMC3    O111071   4.626   2.465  13.142  0.1008 -0.1801  0.0419
  745TMC3    O211072   4.459   2.288  13.544  0.2473 -0.1175  0.1161
  746TMC3    C111073   2.702   4.416  11.106  0.3582 -0.3216  0.0504
  746TMC3    C211074   2.810   4.419  11.022 -0.3439  0.1390  0.3037
  746TMC3    C311075   2.856   4.304  10.972 -0.0281  0.1029  0.2193
  746TMC3    C411076   2.648   4.295  11.152 -0.5313  0.4759  0.1941
  746TMC3    C511077   2.699   4.177  11.100 -0.2245 -0.0124 -0.3485
  746TMC3    C611078   2.804   4.179  11.014 -0.4498 -0.4485 -0.8866
  746TMC3     C11079   2.654   4.541  11.173  0.4106  0.0111  0.4023
  746TMC3     O11080   2.585   4.523  11.271 -0.3730  0.8855 -0.4818
  746TMC3     H11081   2.876   4.504  11.005 -1.2935  0.6197 -0.9537
  746TMC3    H111082   2.564   4.290  11.220 -1.7305  0.4399 -1.2688
  746TMC3    H211083   2.840   4.087  10.968  0.4777 -0.5457  0.0393
  746TMC3    C711084   2.614   4.056  11.092  0.1477  0.2937  0.0070
  746TMC3    C811085   2.952   4.290  10.858  0.7535  0.5417  0.3278
  746TMC3    O111086   2.615   3.992  10.991 -0.0073  0.0684 -0.1862
  746TMC3    O211087   2.988   4.180  10.819 -0.3812 -0.3004 -0.9241
  747TMC3    C111088   0.358   0.284  11.302 -0.3729 -0.0338  0.0737
  747TMC3    C211089   0.324   0.161  11.348  0.2415  0.6051  0.1376
  747TMC3    C311090   0.301   0.144  11.477  0.1240  0.3147  0.1765
  747TMC3    C411091   0.355   0.396  11.386 -0.8966 -0.0930 -0.2705
  747TMC3    C511092   0.337   0.371  11.520  0.0324  0.0432 -1.0114
  747TMC3    C611093   0.308   0.246  11.573 -0.5248  0.2441 -0.2071
  747TMC3     C11094   0.372   0.323  11.161  0.0802  0.4813  0.0965
  747TMC3     O11095   0.366   0.437  11.130 -0.0516 -0.0480 -0.3489
  747TMC3     H11096   0.339   0.075  11.284  0.4767  0.4618  0.3822
  747TMC3    H111097   0.376   0.495  11.350  2.8622 -0.7462  0.1287
  747TMC3    H211098   0.303   0.222  11.679 -0.1251  2.3357  0.2820
  747TMC3    C711099   0.381   0.474  11.613 -0.1181 -0.5475  0.3589
  747TMC3    C811100   0.243   0.014  11.519 -0.0164 -0.2507 -0.2756
  747TMC3    O111101   0.321   0.480  11.720  0.7176 -0.1101  0.4321
  747TMC3    O211102   0.259   4.644  11.466 -0.0558 -0.6619  0.4469
  748MPD2     C11103   2.160   0.347   0.854  0.4075  0.1417  0.6714
  748MPD2    C111104   2.251   0.291   0.766 -0.3398  0.2398 -0.5179
  748MPD2    C211105   2.355   0.367   0.728  0.1531 -0.0562  0.0576
  748MPD2    C311106   2.378   0.493   0.777 -0.0020 -0.7257 -0.3797
  748MPD2    C411107   2.293   0.541   0.873 -0.9272 -0.9249  0.7352
  748MPD2    C511108   2.180   0.473   0.907 -0.3795  0.9161 -0.3721
  748MPD2     H11109   2.423   0.329   0.653  2.0254  2.1587  0.6402
  748MPD2    H111110   2.304   0.642   0.910  1.7972 -1.2558  0.8323
  748MPD2    H211111   2.071   0.291   0.878  1.7528 -1.1715  2.6033
  748MPD2    H311112   2.110   0.533   0.965 -0.1640 -0.8592  1.7367
  748MPD2     N11113   2.492   0.556   0.737  0.6818  0.0389  0.0073
  748MPD2    H511114   2.559   0.498   0.687  1.0549  0.9879 -0.5842
  748MPD2    N111115   2.230   0.156   0.729  0.2553 -0.5683  0.0480
  748MPD2    H711116   2.142   0.119   0.764 -0.6764  0.2200 -1.4355
  749TMC3    C111117   2.649   0.725   0.694  0.0792 -0.0064 -0.0035
  749TMC3    C211118   2.738   0.627   0.657 -0.0005  0.3856  0.1203
  749TMC3    C311119   2.855   0.663   0.593  0.0464 -0.6741  0.0443
  749TMC3    C411120   2.683   0.860   0.680  0.8534  0.1320  0.1309
  749TMC3    C511121   2.790   0.886   0.600 -0.3057 -0.0830 -0.1686
  749TMC3    C611122   2.875   0.792   0.550 -0.6641  0.3340 -0.5500
  749TMC3     C11123   2.516   0.694   0.748  0.0054  0.3354  0.6755
  749TMC3     O11124   2.438   0.782   0.781  0.6095  0.0345 -0.0743
  749TMC3     H11125   2.730   0.528   0.702  1.8506  0.9983  1.8143
  749TMC3    H111126   2.620   0.940   0.719 -1.1433 -2.3734  2.0850
  749TMC3    H211127   2.971   0.818   0.510  0.5189 -0.8728  1.4651
  749TMC3    C711128   2.809   1.028   0.576 -0.0512  0.4662  0.8710
  749TMC3    C811129   2.972   0.578   0.603 -0.0840 -0.1892 -0.1773
  749TMC3    O111130   2.768   1.112   0.650  0.3083  0.1928  0.0937
  749TMC3    O211131   3.071   0.640   0.620 -0.0619 -0.0844  0.2173
  750MPD2     C11132   2.489   1.662  11.575 -0.2280 -0.2530 -0.2102
  750MPD2    C111133   2.354   1.658  11.553  0.3398 -0.0136  0.0674
  750MPD2    C211134   2.299   1.591  11.443 -0.7056 -0.7261  0.4262
  750MPD2    C311135   2.382   1.516  11.357  0.2303 -0.1008 -0.1322
  750MPD2    C411136   2.517   1.523  11.376 -0.7599 -0.4818  0.7345
  750MPD2    C511137   2.573   1.594  11.485 -0.2888  0.0484  0.0259
  750MPD2     H11138   2.193   1.601  11.419 -0.6653 -1.1902  0.0496
  750MPD2    H111139   2.587   1.488  11.301  0.5100 -0.0922  1.7331
  750MPD2    H211140   2.528   1.728  11.651  0.9582  0.0725 -1.0966
  750MPD2    H311141   2.681   1.599  11.487 -0.2228 -1.5589  0.4716
  750MPD2     N11142   2.346   1.441  11.244  0.0082 -0.2519 -0.1612
  750MPD2    H511143   2.418   1.405  11.182  1.2410  1.8033  0.0798
  750MPD2    N111144   2.275   1.727  11.642 -0.0050  0.0335  0.0056
  750MPD2    H711145   2.319   1.793  11.705 -1.1313  1.8982 -1.1514
  751TMC3    C111146   2.211   1.318  11.086 -0.2550  0.3648 -0.3072
  751TMC3    C211147   2.124   1.215  11.094 -0.1283 -0.8981 -0.3269
  751TMC3    C311148   2.093   1.144  10.983 -0.0884 -0.0475  0.4918
  751TMC3    C411149   2.276   1.347  10.974  0.5481 -0.3512  0.7598
  751TMC3    C511150   2.232   1.289  10.862 -0.3627 -0.0967 -0.2315
  751TMC3    C611151   2.142   1.184  10.861  0.0200  0.2292 -0.1407
  751TMC3     C11152   2.222   1.404  11.209 -0.5178 -0.3749  0.0463
  751TMC3     O11153   2.115   1.451  11.257  0.3039 -0.4600  0.1279
  751TMC3     H11154   2.087   1.189  11.192  1.4627 -2.5743 -0.1798
  751TMC3    H111155   2.335   1.438  10.968  1.2719 -0.7658  1.6421
  751TMC3    H211156   2.102   1.136  10.771 -1.7095 -0.3047  0.9021
  751TMC3    C711157   2.282   1.345  10.732 -0.0489 -0.1135 -0.0305
  751TMC3    C811158   2.008   1.023  10.988  0.2976 -0.0202 -0.4720
  751TMC3    O111159   2.376   1.427  10.727  0.3034  0.0618  0.9672
  751TMC3    O211160   1.963   0.979  10.879 -0.0645  0.1219  0.2365
  752TMC3    C111161   1.187   1.194  16.977  0.2881  0.4416 -0.2970
  752TMC3    C211162   1.270   1.207  17.081 -0.1310 -0.2531  0.5473
  752TMC3    C311163   1.212   1.240  17.203 -1.0774  0.7768  0.0529
  752TMC3    C411164   1.055   1.191  16.990 -0.2827 -0.3797  0.2711
  752TMC3    C511165   1.006   1.206  17.114 -0.5854  0.3322 -0.2023
  752TMC3    C611166   1.075   1.231  17.232 -0.6774  0.0994 -0.0989
  752TMC3     C11167   1.255   1.181  16.847  0.2940 -0.0484 -0.2669
  752TMC3     O11168   1.371   1.135  16.842 -0.5653  0.0496  0.0545
  752TMC3     H11169   1.378   1.207  17.069 -0.2954  1.1128 -0.8293
  752TMC3    H111170   0.993   1.167  16.905  1.1684 -0.0157 -0.8792
  752TMC3    H211171   1.029   1.245  17.329 -1.8034 -1.7194 -0.3735
  752TMC3    C711172   0.861   1.199  17.129  0.1274 -0.3970 -0.6695
  752TMC3    C811173   1.306   1.248  17.323 -0.0003  0.7248 -0.7687
  752TMC3    O111174   0.830   1.210  17.248  0.0535  0.3148 -0.0571
  752TMC3    O211175   1.264   1.200  17.427 -0.6592  0.3377 -0.0245
  753TMC3    C111176   3.150   2.687  13.193  0.0193 -0.4141  0.1632
  753TMC3    C211177   3.148   2.616  13.310 -0.1436 -0.1812 -0.7023
  753TMC3    C311178   3.115   2.481  13.309 -0.4357  0.1976  1.1288
  753TMC3    C411179   3.103   2.637  13.079  0.2234  0.2205  0.0921
  753TMC3    C511180   3.053   2.509  13.083 -0.7159 -0.1330 -0.4448
  753TMC3    C611181   3.057   2.432  13.198 -0.3172  0.8179 -0.1121
  753TMC3     C11182   3.215   2.813  13.187 -0.4493  0.1431 -0.2879
  753TMC3     O11183   3.205   2.878  13.291 -0.2242  0.6090 -0.1174
  753TMC3     H11184   3.180   2.665  13.401  0.0779 -2.2597  0.3381
  753TMC3    H111185   3.092   2.693  12.986  0.9174  0.1557 -0.0284
  753TMC3    H211186   3.012   2.334  13.189  0.4119  0.6044 -1.4127
  753TMC3    C711187   3.000   2.452  12.955 -0.4013  0.2207 -0.6025
  753TMC3    C811188   3.132   2.399  13.424 -0.5645 -0.9197  0.5997
  753TMC3    O111189   3.040   2.502  12.850  0.1632  0.4951 -0.0371
  753TMC3    O211190   3.051   2.306  13.437 -0.0299  0.1745 -0.3465
  754MPD2     C11191   2.205   1.118  13.462  0.3599  0.2187 -0.3414
  754MPD2    C111192   2.126   1.005  13.457 -0.6975  0.2288  0.7655
  754MPD2    C211193   1.992   1.015  13.433  0.5619 -0.1037 -0.0784
  754MPD2    C311194   1.928   1.139  13.425 -0.4202 -0.6912  0.3996
  754MPD2    C411195   2.005   1.252  13.440 -0.4854  0.4658  0.1198
  754MPD2    C511196   2.144   1.240  13.448 -0.1774 -0.1474  0.4671
  754MPD2     H11197   1.931   0.927  13.414 -1.3048  0.9914  0.8663
  754MPD2    H111198   1.959   1.349  13.431 -0.3469  0.3705 -1.6220
  754MPD2    H211199   2.312   1.110  13.478  0.2128 -1.3469 -0.1777
  754MPD2    H311200   2.202   1.331  13.447  2.3739 -1.7980 -3.0121
  754MPD2     N11201   1.791   1.153  13.413 -0.1682  0.2139 -0.3656
  754MPD2    H511202   1.751   1.245  13.398  0.2088  0.3833 -0.3358
  754MPD2    N111203   2.195   0.882  13.480 -0.1068 -0.2746  0.2926
  754MPD2    H711204   2.296   0.897  13.476 -0.2900  0.0502 -2.8095
  755MPD2     C11205   1.480   1.817  13.706 -0.2430 -0.4129 -0.1510
  755MPD2    C111206   1.410   1.726  13.776 -0.3538  0.1271 -0.1947
  755MPD2    C211207   1.403   1.595  13.720  0.3548 -0.2134  0.0860
  755MPD2    C311208   1.461   1.570  13.602 -0.5525 -0.6251  0.1524
  755MPD2    C411209   1.543   1.667  13.534  0.5975 -0.5643  0.0691
  755MPD2    C511210   1.536   1.788  13.587 -0.6694  0.4052 -1.1290
  755MPD2     H11211   1.365   1.507  13.769 -1.1808  1.2416  1.5177
  755MPD2    H111212   1.601   1.652  13.443  1.2637  1.5653  0.1277
  755MPD2    H211213   1.487   1.916  13.749  1.1107 -1.0622  1.1331
  755MPD2    H311214   1.575   1.865  13.522  1.6838  2.0295  2.2057
  755MPD2     N11215   1.463   1.440  13.544 -0.4052 -0.6269 -0.6408
  755MPD2    H511216   1.526   1.428  13.466  1.2231 -0.6957  0.6871
  755MPD2    N111217   1.354   1.765  13.899  0.5921  0.3720 -0.5156
  755MPD2    H711218   1.357   1.862  13.929  1.3162 -0.1716  1.1266
  756MPD2     C11219   2.846   2.172  10.162  0.2874  0.8165  0.2029
  756MPD2    C111220   2.719   2.126  10.180 -0.1241 -0.1475 -0.4914
  756MPD2    C211221   2.627   2.158  10.074  0.7019  0.6063 -0.1229
  756MPD2    C311222   2.669   2.224   9.959  0.1930 -0.3413  0.4623
  756MPD2    C411223   2.804   2.256   9.941 -0.1033 -0.3895 -0.7123
  756MPD2    C511224   2.883   2.237  10.052  0.3149 -0.4421 -0.1967
  756MPD2     H11225   2.522   2.133  10.084  0.9258 -0.6877 -0.9897
  756MPD2    H111226   2.848   2.297   9.851  0.6221 -0.3231 -0.3235
  756MPD2    H211227   2.923   2.147  10.235 -0.1217  2.9358  1.3274
  756MPD2    H311228   2.986   2.267  10.037 -0.0573  1.3989  0.9623
  756MPD2     N11229   2.579   2.268   9.858 -0.0035 -0.1017  0.6580
  756MPD2    H511230   2.483   2.237   9.869 -0.4919  1.3146  0.3801
  756MPD2    N111231   2.672   2.072  10.303  0.2812 -0.1412  0.9693
  756MPD2    H711232   2.573   2.057  10.313  0.5158 -2.0855  0.2850
  757MPD2     C11233   1.836   1.920   9.683  0.0756  0.1432 -0.0879
  757MPD2    C111234   1.889   1.968   9.798  0.5080  1.2851  1.1265
  757MPD2    C211235   1.989   2.066   9.793  1.2294 -0.4580  0.3202
  757MPD2    C311236   2.037   2.109   9.665 -0.1319  0.1730 -0.4623
  757MPD2    C411237   1.979   2.058   9.546 -0.1711 -0.2949 -0.4341
  757MPD2    C511238   1.872   1.982   9.563  0.0499 -0.4649 -0.1368
  757MPD2     H11239   2.048   2.097   9.878  1.2299  1.2618 -0.2870
  757MPD2    H111240   1.998   2.086   9.444  2.6177 -1.7151 -0.3005
  757MPD2    H211241   1.764   1.838   9.687 -1.7483  1.7246 -0.6261
  757MPD2    H311242   1.823   1.948   9.473 -0.0362  1.5265 -0.8500
  757MPD2     N11243   2.143   2.207   9.663  0.2747  0.1586  0.2351
  757MPD2    H511244   2.190   2.223   9.752 -0.9330  0.7561  0.7583
  757MPD2    N111245   1.853   1.903   9.911  0.2456 -0.2153 -0.4086
  757MPD2    H711246   1.813   1.810   9.903  2.8125 -1.4198  0.7856
  758MPD2     C11247   2.478   1.061  15.212  0.1123  1.2292 -0.0879
  758MPD2    C111248   2.515   0.965  15.308 -0.6673  0.0552 -0.0746
  758MPD2    C211249   2.436   0.956  15.418  0.8275  0.0710 -0.1224
  758MPD2    C311250   2.331   1.040  15.445  0.2269 -0.1467 -0.1507
  758MPD2    C411251   2.311   1.142  15.355  0.3005 -0.1716 -0.1986
  758MPD2    C511252   2.374   1.145  15.236 -0.3009 -0.8275 -0.5385
  758MPD2     H11253   2.467   0.884  15.493  0.4962  0.1623  0.1047
  758MPD2    H111254   2.239   1.220  15.374 -0.2235 -0.4361 -1.0435
  758MPD2    H211255   2.520   1.070  15.113  0.9289  1.1448  0.2512
  758MPD2    H311256   2.363   1.232  15.173  1.3696 -0.7644 -0.7326
  758MPD2     N11257   2.258   1.027  15.569  0.3102 -0.2126  0.6116
  758MPD2    H511258   2.183   1.095  15.581  0.7579  0.1040  1.6115
  758MPD2    N111259   2.613   0.867  15.274  0.2043 -0.1165 -0.1467
  758MPD2    H711260   2.645   0.853  15.178 -1.0454  1.8034 -0.8429
  759MPD2     C11261   0.830   3.564  10.395  0.0414 -0.4274 -0.3866
  759MPD2    C111262   0.882   3.544  10.268  0.4910 -0.2530  0.7054
  759MPD2    C211263   0.962   3.634  10.204  0.0299  0.8464 -0.4207
  759MPD2    C311264   0.993   3.752  10.271 -0.1698 -0.2458  0.1674
  759MPD2    C411265   0.934   3.779  10.395 -0.6498  0.5535  0.5963
  759MPD2    C511266   0.859   3.681  10.458 -0.5156 -0.7804 -0.5340
  759MPD2     H11267   1.004   3.604  10.109 -0.4408 -0.9809 -0.0634
  759MPD2    H111268   0.949   3.872  10.448  1.6607 -2.1669  4.6819
  759MPD2    H211269   0.778   3.487  10.452 -2.1418  0.8443 -0.6418
  759MPD2    H311270   0.830   3.711  10.558 -1.8188 -0.4907 -1.0016
  759MPD2     N11271   1.063   3.850  10.197  0.2602 -0.5849 -0.5732
  759MPD2    H511272   1.085   3.826  10.101 -0.7132  2.6902 -1.6063
  759MPD2    N111273   0.863   3.416  10.210  0.3685 -0.0374 -0.2011
  759MPD2    H711274   0.930   3.400  10.136  2.1993 -1.7131  1.8235
  760MPD2     C11275   0.647   1.427  11.976  0.2524 -0.3653  0.4832
  760MPD2    C111276   0.762   1.440  11.908  0.3969  0.4042  0.8117
  760MPD2    C211277   0.854   1.340  11.899  0.3213 -0.6700 -0.6759
  760MPD2    C311278   0.818   1.216  11.949 -0.0284  0.8066  0.3018
  760MPD2    C411279   0.696   1.194  12.006  0.9470 -0.1536 -0.1124
  760MPD2    C511280   0.607   1.302  12.016  0.4908  0.1644  0.2992
  760MPD2     H11281   0.949   1.360  11.851  0.9658  0.1305  0.9344
  760MPD2    H111282   0.660   1.103  12.054  2.7104 -0.9674 -0.3469
  760MPD2    H211283   0.575   1.508  11.979  1.2040  0.4447  0.9698
  760MPD2    H311284   0.515   1.304  12.073 -0.6525  1.5291 -1.5831
  760MPD2     N11285   0.904   1.108  11.935 -0.0011 -0.0205 -0.0274
  760MPD2    H511286   0.887   1.030  11.997  2.1039 -1.8169 -1.7188
  760MPD2    N111287   0.804   1.570  11.878  0.4480  0.3291  0.9227
  760MPD2    H711288   0.765   1.651  11.926 -0.7983 -0.0343  0.5323
  761MPD2     C11289   1.883   0.591  11.225 -0.5751 -0.7832  0.2384
  761MPD2    C111290   1.925   0.612  11.099  0.2111  0.1319  0.1622
  761MPD2    C211291   1.944   0.744  11.058 -0.5745  0.5419 -0.3441
  761MPD2    C311292   1.935   0.847  11.145  0.8169 -0.1483  0.3660
  761MPD2    C411293   1.899   0.821  11.275 -0.2574 -0.2462 -0.2458
  761MPD2    C511294   1.865   0.690  11.311 -0.4089  0.1701 -0.1860
  761MPD2     H11295   1.984   0.764  10.959 -1.0778  1.6284 -0.3326
  761MPD2    H111296   1.884   0.900  11.349 -0.3134 -1.9025  1.5139
  761MPD2    H211297   1.854   0.493  11.262  0.8643 -1.0333  0.7175
  761MPD2    H311298   1.828   0.680  11.413  2.9347 -0.0397  1.0134
  761MPD2     N11299   1.976   0.984  11.113 -0.4953 -0.1050  0.2840
  761MPD2    H511300   2.006   1.039  11.193  1.6486 -1.8829  0.7004
  761MPD2    N111301   1.959   0.496  11.023  0.4812 -0.8288 -0.0959
  761MPD2    H711302   1.946   0.410  11.075 -0.7200 -0.3768  0.3648
  762MPD2     C11303   2.254   0.436  10.283  0.4286 -0.0484  0.2956
  762MPD2    C111304   2.297   0.366  10.395 -0.2665  1.0880  0.6883
  762MPD2    C211305   2.435   0.367  10.418  0.3501  0.8348  0.2614
  762MPD2    C311306   2.529   0.417  10.341 -0.2757 -0.2217  0.1231
  762MPD2    C411307   2.485   0.481  10.220 -0.2264 -0.6875  0.5500
  762MPD2    C511308   2.350   0.482  10.192  0.1769  0.0538  0.0775
  762MPD2     H11309   2.475   0.324  10.509  0.7104 -1.8197 -1.1740
  762MPD2    H111310   2.555   0.527  10.151  0.5343 -0.6266  1.3683
  762MPD2    H211311   2.149   0.430  10.258  0.7762 -0.1561 -1.0944
  762MPD2    H311312   2.314   0.525  10.099  1.9446  1.1448 -0.1006
  762MPD2     N11313   2.669   0.390  10.368  0.7042 -0.0092 -0.2843
  762MPD2    H511314   2.699   0.341  10.451  1.6654 -0.2755 -0.7843
  762MPD2    N111315   2.202   0.316  10.479  0.4586 -0.2966 -0.0394
  762MPD2    H711316   2.105   0.338  10.460  0.5252  0.5126  0.5633
  763MPD2     C11317   4.165   0.788  16.162 -0.4732  0.6272  0.9117
  763MPD2    C111318   4.043   0.855  16.164  0.5594 -0.3006  0.1702
  763MPD2    C211319   4.031   0.980  16.221 -0.7532  0.3284 -0.0925
  763MPD2    C311320   4.145   1.050  16.264  0.7577 -0.6557  0.4910
  763MPD2    C411321   4.262   0.983  16.261  0.0757  0.0253 -0.5735
  763MPD2    C511322   4.275   0.852  16.215  0.4469  0.1482  0.3596
  763MPD2     H11323   3.942   1.040  16.205  0.3178  1.4835 -1.7389
  763MPD2    H111324   4.345   1.025  16.317  0.4525 -2.6661  0.9167
  763MPD2    H211325   4.177   0.693  16.112 -2.2739  0.8774 -0.0043
  763MPD2    H311326   4.373   0.806  16.219  0.1585 -0.6228 -1.4501
  763MPD2     N11327   4.142   1.184  16.305 -0.2486 -0.1473  0.1954
  763MPD2    H511328   4.231   1.233  16.309 -0.4461  0.4041 -1.8732
  763MPD2    N111329   3.934   0.821  16.085  0.0418  0.2592  0.0100
  763MPD2    H711330   3.866   0.895  16.076 -0.8515 -0.4501  0.9136
  764MPD2     C11331   1.994   2.386  17.379 -0.5055  0.8270  0.5576
  764MPD2    C111332   1.858   2.392  17.392 -0.0777  0.3965 -0.0989
  764MPD2    C211333   1.804   2.422  17.516 -0.5494 -0.2875  0.0178
  764MPD2    C311334   1.880   2.434  17.632  0.0199 -0.4513 -0.1487
  764MPD2    C411335   2.022   2.423  17.616  0.5442  0.0567 -1.0765
  764MPD2    C511336   2.071   2.399  17.489 -0.4486  0.2679  0.9320
  764MPD2     H11337   1.695   2.421  17.519 -0.5548 -1.3231 -0.5575
  764MPD2    H111338   2.088   2.446  17.699 -0.9530 -1.5131  0.5559
  764MPD2    H211339   2.055   2.357  17.294  0.8585  0.0398  1.7877
  764MPD2    H311340   2.177   2.385  17.473 -0.5697  2.5433 -1.7982
  764MPD2     N11341   1.813   2.455   0.002  0.1269  0.6653 -0.0832
  764MPD2    H511342   1.712   2.450   0.001  0.1883  0.1810 -2.2441
  764MPD2    N111343   1.773   2.368  17.287 -0.3428  0.3852 -0.0361
  764MPD2    H711344   1.672   2.374  17.297 -0.2974  1.5429 -0.2339
  765MPD2     C11345   1.818   0.047  15.865  0.5384  0.1931 -0.7474
  765MPD2    C111346   1.924   0.127  15.885 -0.4717 -0.3584 -0.3576
  765MPD2    C211347   2.050   0.088  15.839  0.5763 -0.9943  0.0937
  765MPD2    C311348   2.065   4.708  15.763 -0.1317  0.3084 -0.2378
  765MPD2    C411349   1.948   4.636  15.741  0.2316  0.1226 -0.2434
  765MPD2    C511350   1.831   4.662  15.802 -1.0652  0.7658 -0.0320
  765MPD2     H11351   2.130   0.159  15.856 -0.3953  0.6913 -2.4544
  765MPD2    H111352   1.945   4.546  15.679 -0.6701 -0.4275  0.6065
  765MPD2    H211353   1.719   0.073  15.901  0.1636 -0.1377 -1.5251
  765MPD2    H311354   1.750   4.592  15.792 -0.1411 -0.1262 -1.1883
  765MPD2     N11355   2.187   4.674  15.703 -0.4875  0.2775  0.0830
  765MPD2    H511356   2.262   0.003  15.711  1.0162 -1.1112 -2.2714
  765MPD2    N111357   1.899   0.241  15.956  0.1641 -0.5701 -0.1171
  765MPD2    H711358   1.802   0.255  15.978 -0.0033 -1.3132 -0.3839
  766MPD2     C11359   1.306   0.548  15.801  0.1241 -0.5855  0.5178
  766MPD2    C111360   1.417   0.468  15.841 -0.5097  0.1505 -1.0208
  766MPD2    C211361   1.463   0.374  15.755 -0.4989  0.2447  0.2090
  766MPD2    C311362   1.405   0.356  15.631  0.2417  0.2275  0.3032
  766MPD2    C411363   1.288   0.429  15.599  0.0078  0.4716  0.1325
  766MPD2    C511364   1.243   0.517  15.686 -0.0500  0.5917 -0.0429
  766MPD2     H11365   1.539   0.303  15.787 -0.2488 -0.2353 -1.4208
  766MPD2    H111366   1.230   0.412  15.509  0.2134 -1.1526  0.2909
  766MPD2    H211367   1.259   0.617  15.870  0.2614  0.4439 -0.4183
  766MPD2    H311368   1.149   0.568  15.668  0.7020  1.3979 -1.6619
  766MPD2     N11369   1.458   0.278  15.525  0.6144  0.4727 -0.3949
  766MPD2    H511370   1.405   0.269  15.439 -0.8398  3.8509  0.1479
  766MPD2    N111371   1.490   0.507  15.952 -0.0269 -0.1047 -0.4348
  766MPD2    H711372   1.465   0.595  15.996  0.9304  0.2773 -0.6530
  767MPD2     C11373   0.961   0.503  15.173  0.3295 -0.1585  0.2782
  767MPD2    C111374   1.095   0.491  15.138  0.1679 -0.1986  0.4285
  767MPD2    C211375   1.122   0.423  15.022 -0.2307 -0.5708  0.1558
  767MPD2    C311376   1.027   0.362  14.946 -0.7517  0.3849  0.5601
  767MPD2    C411377   0.893   0.371  14.987  0.6223  0.1549 -0.1865
  767MPD2    C511378   0.857   0.442  15.095 -0.3345  0.2613 -0.2392
  767MPD2     H11379   1.225   0.403  14.994  0.8743  2.0917  2.3069
  767MPD2    H111380   0.813   0.320  14.934 -0.1773 -0.4590  1.6054
  767MPD2    H211381   0.924   0.565  15.254 -1.9436  0.2038 -1.0377
  767MPD2    H311382   0.754   0.441  15.127 -0.3896  0.6727 -0.4029
  767MPD2     N11383   1.075   0.293  14.829  0.0561 -0.0382 -0.4494
  767MPD2    H511384   1.169   0.310  14.796 -0.6233  0.4925 -2.0877
  767MPD2    N111385   1.182   0.550  15.222  1.0142 -0.6290  0.4890
  767MPD2    H711386   1.144   0.606  15.298 -0.1572 -0.3735 -0.2769
  768MPD2     C11387   2.692   3.835  10.488 -0.2002  0.3069 -0.6699
  768MPD2    C111388   2.640   3.794  10.607  0.6562 -0.1066 -0.7272
  768MPD2    C211389   2.716   3.804  10.722  0.4558  0.5176 -0.7996
  768MPD2    C311390   2.849   3.852  10.720  0.3741 -0.7152 -0.3367
  768MPD2    C411391   2.890   3.909  10.601 -0.2789  0.0799 -0.3209
  768MPD2    C511392   2.814   3.904  10.486 -0.5210  0.6893  0.1314
  768MPD2     H11393   2.676   3.781  10.820  0.5255  1.7363 -0.4876
  768MPD2    H111394   2.989   3.951  10.593 -0.2425 -0.2127 -1.2964
  768MPD2    H211395   2.632   3.825  10.398 -0.8880  1.8257 -0.3723
  768MPD2    H311396   2.866   3.941  10.399 -0.0695 -0.2342  0.0030
  768MPD2     N11397   2.943   3.867  10.823 -0.7039  0.0226  0.3132
  768MPD2    H511398   3.020   3.932  10.806 -1.0607 -0.1151 -1.7932
  768MPD2    N111399   2.521   3.730  10.617 -0.6236  0.5384  0.7446
  768MPD2    H711400   2.499   3.716  10.715  2.0495  0.8656  1.3978
  769MPD2     C11401   3.344   1.541  14.744  0.0452  0.4807 -0.2692
  769MPD2    C111402   3.231   1.529  14.812  0.5036 -0.6778 -0.3718
  769MPD2    C211403   3.210   1.607  14.927 -0.9540  0.4982 -0.3752
  769MPD2    C311404   3.298   1.706  14.966 -0.0776 -0.3105  0.3307
  769MPD2    C411405   3.419   1.712  14.891  0.0854  0.8885  0.4365
  769MPD2    C511406   3.440   1.631  14.782  0.1888 -1.1154  0.0646
  769MPD2     H11407   3.119   1.595  14.985 -0.4849 -0.3739  0.1723
  769MPD2    H111408   3.501   1.780  14.911  0.8600 -0.1664  0.8820
  769MPD2    H211409   3.353   1.490  14.649  0.6940 -0.8823  0.5259
  769MPD2    H311410   3.529   1.632  14.721  0.2893 -1.1542  0.2112
  769MPD2     N11411   3.260   1.794  15.068  0.0758  0.6728  0.4121
  769MPD2    H511412   3.177   1.769  15.121 -0.1907 -1.0329 -0.8170
  769MPD2    N111413   3.132   1.436  14.773 -0.6472  0.1667  0.1110
  769MPD2    H711414   3.039   1.434  14.814 -0.6703  3.5193  0.2034
  770MPD2     C11415   2.697   0.441  14.685 -0.5146 -0.4191  0.5044
  770MPD2    C111416   2.622   0.524  14.605  0.0128  0.1907 -0.3773
  770MPD2    C211417   2.652   0.659  14.584 -0.4936 -0.1517  0.0914
  770MPD2    C311418   2.765   0.711  14.640 -0.1335  0.1753 -0.0058
  770MPD2    C411419   2.855   0.628  14.710  0.5505 -0.4757  0.2687
  770MPD2    C511420   2.813   0.494  14.737  0.3267  0.3944  0.1964
  770MPD2     H11421   2.598   0.727  14.520  1.4091  2.3258  1.1031
  770MPD2    H111422   2.955   0.642  14.750  0.3174  1.5837  0.1426
  770MPD2    H211423   2.667   0.341  14.713  0.1043 -0.1533  2.1331
  770MPD2    H311424   2.885   0.430  14.787 -0.3805  0.5957  1.4991
  770MPD2     N11425   2.796   0.847  14.603  0.1692 -0.3461  0.5083
  770MPD2    H511426   2.742   0.901  14.537 -0.5186 -0.6418  0.8243
  770MPD2    N111427   2.509   0.469  14.546  0.2840 -0.2422  0.6807
  770MPD2    H711428   2.509   0.367  14.551  0.1806 -0.3873 -2.3145
  771MPD2     C11429   3.844   4.514  13.756  0.0146  0.1002  0.4107
  771MPD2    C111430   3.768   4.617  13.707 -0.0561  0.7872 -1.0039
  771MPD2    C211431   3.648   4.599  13.637 -0.2127 -0.6786 -0.2869
  771MPD2    C311432   3.598   4.478  13.617  0.2711 -0.1152 -0.2561
  771MPD2    C411433   3.662   4.371  13.678 -0.5375  0.2649 -0.6414
  771MPD2    C511434   3.785   4.389  13.758 -0.0120 -0.4213  0.4551
  771MPD2     H11435   3.600   4.682  13.586 -0.4318 -1.7635 -1.8518
  771MPD2    H111436   3.614   4.274  13.678  1.3625 -0.6793 -0.6729
  771MPD2    H211437   3.938   4.537  13.804  0.8026  0.3560 -1.2483
  771MPD2    H311438   3.843   4.304  13.791  0.1041  0.4723  2.6184
  771MPD2     N11439   3.478   4.466  13.541  0.5171 -0.0633 -0.3107
  771MPD2    H511440   3.429   4.549  13.510 -0.3123 -0.3590  0.2177
  771MPD2    N111441   3.805   0.013  13.718 -0.0975  0.1083  0.2577
  771MPD2    H711442   3.749   0.084  13.673 -0.7585 -0.9426 -0.5763
  772MPD2     C11443   3.439   0.614  13.686  0.7093  0.1552 -0.4417
  772MPD2    C111444   3.451   0.480  13.709 -0.4665 -0.0293 -0.8173
  772MPD2    C211445   3.341   0.408  13.747 -0.0913 -0.0546 -0.5755
  772MPD2    C311446   3.218   0.475  13.756 -0.6079 -0.1541 -0.4683
  772MPD2    C411447   3.207   0.609  13.742  0.0290 -0.0748 -0.6253
  772MPD2    C511448   3.317   0.678  13.708  0.3043  0.1662 -0.0093
  772MPD2     H11449   3.341   0.301  13.769 -0.1054  0.4328  1.8227
  772MPD2    H111450   3.112   0.660  13.747  0.0755 -0.2321  1.9022
  772MPD2    H211451   3.527   0.674  13.667 -0.2935  1.3762 -1.2771
  772MPD2    H311452   3.325   0.784  13.691 -1.4093  0.3276  0.2566
  772MPD2     N11453   3.099   0.411  13.793 -0.1482 -0.5758  0.3394
  772MPD2    H511454   3.019   0.471  13.810  1.4426  1.7842 -0.5255
  772MPD2    N111455   3.576   0.420  13.719  0.6016  1.1017 -0.7576
  772MPD2    H711456   3.589   0.321  13.740 -1.8626  0.9482  0.0393
  773MPD2     C11457   2.976   0.694  17.448  0.2646 -0.3719  0.2006
  773MPD2    C111458   2.855   0.639  17.438 -0.1562  0.7908 -0.3605
  773MPD2    C211459   2.830   0.519  17.496 -0.1188  0.5463  0.4019
  773MPD2    C311460   2.924   0.449  17.569  0.5118 -0.4210  0.4974
  773MPD2    C411461   3.046   0.506  17.580  0.0877  0.3570 -0.8944
  773MPD2    C511462   3.074   0.624  17.511  0.1528 -0.2444 -0.3690
  773MPD2     H11463   2.732   0.475  17.483  0.9847 -1.9351  0.4994
  773MPD2    H111464   3.127   0.464  17.638  0.8613  2.6740 -0.3030
  773MPD2    H211465   2.994   0.797  17.421 -1.5658  0.4720  2.1598
  773MPD2    H311466   3.170   0.667  17.533 -0.4298 -0.8031  3.3328
  773MPD2     N11467   2.893   0.318  17.623 -0.3876 -1.3223 -0.1400
  773MPD2    H511468   2.801   0.277  17.608 -1.4178  0.7113  0.7278
  773MPD2    N111469   2.742   0.695  17.366 -0.5694  0.4169 -0.0812
  773MPD2    H711470   2.652   0.649  17.367  0.4933 -1.7134 -1.1260
  774MPD2     C11471   1.415   0.110  13.584  0.8638  0.1432 -1.0285
  774MPD2    C111472   1.548   0.091  13.608 -0.0861  0.4286  0.4029
  774MPD2    C211473   1.630   0.207  13.589  0.7621 -0.4472 -0.5055
  774MPD2    C311474   1.594   0.330  13.536 -0.7069  0.0474  0.7863
  774MPD2    C411475   1.461   0.341  13.516  0.3154  0.0383 -0.0991
  774MPD2    C511476   1.376   0.233  13.532 -0.7226  0.5432 -0.7838
  774MPD2     H11477   1.736   0.190  13.604  1.0351 -0.7752 -2.8211
  774MPD2    H111478   1.412   0.427  13.473 -1.0718  0.5739  2.5573
  774MPD2    H211479   1.335   0.038  13.597 -1.3678  2.6303 -0.7771
  774MPD2    H311480   1.273   0.245  13.500 -0.6125  0.1325 -1.2783
  774MPD2     N11481   1.672   0.439  13.524  0.3922  0.0897 -0.3936
  774MPD2    H511482   1.632   0.532  13.517 -0.4575 -0.2188  0.4848
  774MPD2    N111483   1.595   4.708  13.653 -0.6672  0.2189 -0.0099
  774MPD2    H711484   1.526   4.634  13.645  1.5277 -1.4987 -2.8193
  775MPD2     C11485   3.284   1.631  15.448 -0.2884 -0.0096  0.0491
  775MPD2    C111486   3.337   1.732  15.532  0.3092  0.0231  0.8919
  775MPD2    C211487   3.458   1.790  15.498  0.1031 -0.3303 -0.3294
  775MPD2    C311488   3.537   1.748  15.389  0.3943 -0.8083 -0.2371
  775MPD2    C411489   3.487   1.650  15.309  0.8686  0.0618  0.5505
  775MPD2    C511490   3.357   1.599  15.339  0.8987 -0.1384  1.0647
  775MPD2     H11491   3.491   1.871  15.562 -0.5488 -1.7542  1.7858
  775MPD2    H111492   3.526   1.610  15.216  1.2520 -3.6401  2.3124
  775MPD2    H211493   3.187   1.590  15.475  0.4330 -1.3672  0.5885
  775MPD2    H311494   3.312   1.532  15.266  1.2373  0.2568  0.4881
  775MPD2     N11495   3.662   1.801  15.354 -0.0428 -0.0194 -0.0730
  775MPD2    H511496   3.712   1.770  15.271 -0.0691 -0.0367 -0.0824
  775MPD2    N111497   3.256   1.774  15.644 -0.0629  0.0962 -0.6190
  775MPD2    H711498   3.174   1.719  15.668 -1.2783  1.1795 -2.3090
  776MPD2     C11499   1.604   2.328  11.700  0.4863  0.3410 -0.2262
  776MPD2    C111500   1.743   2.316  11.696  0.5520  0.5330  0.4457
  776MPD2    C211501   1.821   2.427  11.676 -0.9179 -0.0268 -0.1085
  776MPD2    C311502   1.758   2.553  11.681 -0.0486  0.7148 -0.1140
  776MPD2    C411503   1.618   2.565  11.701 -0.2800 -0.3677  0.5655
  776MPD2    C511504   1.543   2.451  11.702 -0.1814  0.2950  0.2981
  776MPD2     H11505   1.924   2.414  11.643 -1.0465 -0.3821 -0.3711
  776MPD2    H111506   1.558   2.656  11.702  0.0559 -0.1750  2.4000
  776MPD2    H211507   1.537   2.244  11.709  1.1854  0.0319  2.2400
  776MPD2    H311508   1.436   2.468  11.716 -0.1379  1.2846 -0.5499
  776MPD2     N11509   1.822   2.680  11.649 -0.2678 -0.3454 -0.4176
  776MPD2    H511510   1.764   2.762  11.634  0.5223  0.4278  0.6769
  776MPD2    N111511   1.790   2.184  11.705 -0.1630  0.5184  0.8688
  776MPD2    H711512   1.716   2.115  11.717 -1.4395  1.5492 -1.0565
  777MPD2     C11513   3.227   3.947   0.568 -0.4491  0.1110  0.1823
  777MPD2    C111514   3.101   4.000   0.554  0.5139 -0.0180 -0.1031
  777MPD2    C211515   3.009   3.944   0.469 -0.7200  0.4137 -0.1144
  777MPD2    C311516   3.044   3.842   0.391 -0.2480  0.3582 -0.1041
  777MPD2    C411517   3.175   3.795   0.401  0.1309  0.4414  0.2557
  777MPD2    C511518   3.267   3.849   0.487 -0.7301 -0.1922  0.1832
  777MPD2     H11519   2.910   3.987   0.460 -0.1773  1.9055  0.9387
  777MPD2    H111520   3.214   3.709   0.348 -0.9972 -0.3455  0.7127
  777MPD2    H211521   3.301   3.977   0.641  2.4185 -0.2544 -2.5713
  777MPD2    H311522   3.362   3.802   0.511  0.8064  2.8961  0.1797
  777MPD2     N11523   2.944   3.762   0.335 -0.3462 -0.0274  0.2160
  777MPD2    H511524   2.849   3.782   0.365 -0.1813 -2.8781  2.5883
  777MPD2    N111525   3.067   4.105   0.638  1.0526  0.4876 -0.3336
  777MPD2    H711526   3.131   4.135   0.711  0.7065 -0.1033  0.2077
  778MPD2     C11527   3.530   4.132  15.068  0.2431 -0.6748 -0.2809
  778MPD2    C111528   3.542   4.039  14.970 -0.3389 -0.6369  0.3067
  778MPD2    C211529   3.602   4.079  14.854 -0.0656 -0.3833  0.0171
  778MPD2    C311530   3.646   4.211  14.829  0.8691  0.1112  0.5608
  778MPD2    C411531   3.640   4.299  14.934 -0.2931  0.0109 -0.5995
  778MPD2    C511532   3.580   4.255  15.053 -0.3000  0.7900 -0.5208
  778MPD2     H11533   3.604   4.006  14.774  0.7270 -1.6217  1.1602
  778MPD2    H111534   3.670   4.403  14.929 -1.2540  0.4805  3.3558
  778MPD2    H211535   3.482   4.104  15.161 -2.2021  0.0143 -1.3412
  778MPD2    H311536   3.578   4.323  15.138 -0.1794 -0.2741  0.3368
  778MPD2     N11537   3.700   4.244  14.700 -0.7169 -0.0997 -0.3735
  778MPD2    H511538   3.718   4.171  14.632 -1.5128  0.5578 -1.2997
  778MPD2    N111539   3.486   3.908  14.976  0.3935  0.0515 -0.4305
  778MPD2    H711540   3.504   3.847  14.897  0.0545  2.1897 -2.1474
  779MPD2     C11541   3.478   3.232  14.222 -0.7076 -0.1816 -0.5417
  779MPD2    C111542   3.552   3.202  14.103  0.6673 -0.4441  0.1163
  779MPD2    C211543   3.568   3.302  14.009  0.1100  0.3010 -0.0073
  779MPD2    C311544   3.519   3.429  14.032  0.0215 -0.4917 -0.4070
  779MPD2    C411545   3.446   3.449  14.150 -0.6913 -0.1639  0.6423
  779MPD2    C511546   3.438   3.356  14.251  0.8550 -0.0323 -0.2858
  779MPD2     H11547   3.631   3.278  13.924  0.2051  1.2795 -0.2099
  779MPD2    H111548   3.428   3.549  14.190 -0.4249  0.3843 -0.6118
  779MPD2    H211549   3.476   3.158  14.300 -1.9269 -1.3885 -1.7086
  779MPD2    H311550   3.396   3.377  14.348  0.8521 -0.1623 -0.2590
  779MPD2     N11551   3.523   3.541  13.944 -0.6508  0.1092  0.1167
  779MPD2    H511552   3.590   3.536  13.868 -0.2681  1.9232  0.3157
  779MPD2    N111553   3.607   3.075  14.067 -0.4057 -0.1256  0.3350
  779MPD2    H711554   3.659   3.064  13.981  1.0670 -1.2400  1.3778
  780MPD2     C11555   3.755   3.097   1.025  0.0993  0.1636 -0.0906
  780MPD2    C111556   3.691   3.208   0.987 -0.9357 -0.0320  1.0206
  780MPD2    C211557   3.670   3.229   0.847  0.3032 -0.5469 -0.1652
  780MPD2    C311558   3.704   3.128   0.757  0.1481 -1.3122 -0.8894
  780MPD2    C411559   3.780   3.020   0.799  0.4269  0.4288 -0.6480
  780MPD2    C511560   3.801   3.003   0.932  0.6387 -0.3387 -0.2427
  780MPD2     H11561   3.611   3.312   0.810 -1.5096 -1.0536  1.6220
  780MPD2    H111562   3.813   2.944   0.729 -1.7469  0.7782 -2.0261
  780MPD2    H211563   3.778   3.081   1.130  1.8709 -1.4734 -0.7342
  780MPD2    H311564   3.855   2.913   0.963 -0.8782 -0.0633  3.2564
  780MPD2     N11565   3.661   3.146   0.625 -0.2624  0.6114 -0.4640
  780MPD2    H511566   3.627   3.238   0.600  0.7962  0.6112 -1.9403
  780MPD2    N111567   3.657   3.302   1.081 -0.0183  0.1624  0.4422
  780MPD2    H711568   3.699   3.283   1.172  1.8657  1.4539 -0.1637
  781MPD2     C11569   4.587   0.554  12.466  0.0622 -0.4655  0.1459
  781MPD2    C111570   4.689   0.502  12.548  0.3483 -0.0536  0.7925
  781MPD2    C211571   0.082   0.526  12.514 -0.1382 -0.0447  0.1450
  781MPD2    C311572   0.114   0.606  12.399  0.5409  0.2416  0.0668
  781MPD2    C411573   0.005   0.660  12.330 -0.0976  0.0961 -0.1415
  781MPD2    C511574   4.616   0.633  12.356 -0.1755  0.7315 -0.0101
  781MPD2     H11575   0.160   0.489  12.579  0.7270  4.3101  1.5952
  781MPD2    H111576   0.027   0.723  12.244 -0.7098 -1.2092 -1.2504
  781MPD2    H211577   4.481   0.534  12.478 -0.2817  1.3280  0.2087
  781MPD2    H311578   4.545   0.660  12.279  0.8595 -0.1166 -1.2660
  781MPD2     N11579   0.255   0.628  12.357  0.9727  0.2743  0.5407
  781MPD2    H511580   0.261   0.685  12.274 -0.1724  0.2042  0.4064
  781MPD2    N111581   4.663   0.419  12.663  0.3793 -0.2016  0.2472
  781MPD2    H711582   0.010   0.385  12.707 -1.2054 -0.8889  2.8035
  782MPD2     C11583   2.749   1.443  10.653 -0.2796 -0.0505  0.2382
  782MPD2    C111584   2.861   1.500  10.600 -0.2244 -0.0968 -0.2776
  782MPD2    C211585   2.980   1.487  10.666 -0.1603 -0.0591  0.0552
  782MPD2    C311586   2.990   1.412  10.781  0.2608 -0.4443  0.7895
  782MPD2    C411587   2.877   1.366  10.837  0.7811  0.0133 -0.1403
  782MPD2    C511588   2.758   1.382  10.774  0.2879  0.7628  0.0746
  782MPD2     H11589   3.072   1.525  10.623 -1.0652  2.0447  0.0071
  782MPD2    H111590   2.869   1.327  10.938 -0.3038 -1.8985 -0.9615
  782MPD2    H211591   2.648   1.452  10.614  0.6096  2.1939 -1.5553
  782MPD2    H311592   2.665   1.341  10.810  0.6954  0.6822  1.0284
  782MPD2     N11593   3.114   1.411  10.851  0.5775  0.2287  0.1075
  782MPD2    H511594   3.179   1.487  10.834 -1.0303  1.5734 -0.0078
  782MPD2    N111595   2.850   1.578  10.485  0.3712  1.2164  0.3658
  782MPD2    H711596   2.933   1.618  10.442  1.0155 -2.5982 -1.9691
  783MPD2     C11597   2.202   1.183  10.410  0.0573 -0.2372 -0.2272
  783MPD2    C111598   2.259   1.278  10.495  0.2291 -0.3886  0.0310
  783MPD2    C211599   2.342   1.378  10.445  0.0888  0.5555  0.3452
  783MPD2    C311600   2.363   1.387  10.313  0.3678 -0.3196  0.3350
  783MPD2    C411601   2.310   1.292  10.235 -0.2031  0.1148 -0.1892
  783MPD2    C511602   2.234   1.190  10.280 -0.6782 -0.4992  0.0282
  783MPD2     H11603   2.399   1.456  10.496  3.6757 -3.6496  2.8014
  783MPD2    H111604   2.317   1.298  10.127 -1.1397 -1.2975 -0.3364
  783MPD2    H211605   2.135   1.107  10.448 -0.5401 -0.6833 -2.1719
  783MPD2    H311606   2.186   1.118  10.216 -0.8772  0.3260 -0.7540
  783MPD2     N11607   2.445   1.490  10.260 -0.2428 -0.4456  0.5900
  783MPD2    H511608   2.492   1.554  10.323  0.8579 -0.5057 -0.1677
  783MPD2    N111609   2.225   1.272  10.633 -0.1277  0.2193 -0.1958
  783MPD2    H711610   2.160   1.198  10.656  0.3934  0.4634  2.0614
  784MPD2     C11611   0.922   1.340   0.230  0.2819  0.8814  0.0361
  784MPD2    C111612   0.963   1.462   0.276  0.1271  0.3415  0.7455
  784MPD2    C211613   0.861   1.548   0.304  0.0503  0.2351 -0.2952
  784MPD2    C311614   0.724   1.519   0.287 -0.0957 -1.0050 -0.2417
  784MPD2    C411615   0.684   1.395   0.221 -0.3750 -0.3986 -0.9646
  784MPD2    C511616   0.788   1.306   0.208 -1.0320  0.0584  0.3748
  784MPD2     H11617   0.888   1.648   0.337  1.5441 -0.7012  1.2664
  784MPD2    H111618   0.582   1.367   0.198 -0.9414  0.9006 -0.0044
  784MPD2    H211619   0.989   1.263   0.194 -1.3640 -0.8996  0.7670
  784MPD2    H311620   0.759   1.213   0.159  0.6473 -0.4417  0.3313
  784MPD2     N11621   0.633   1.624   0.316  0.5574 -0.3598 -0.0339
  784MPD2    H511622   0.670   1.702   0.370 -1.2091  0.0906  0.5150
  784MPD2    N111623   1.100   1.491   0.297  0.3965 -0.2693  0.0153
  784MPD2    H711624   1.117   1.582   0.339  1.9207 -0.9692  0.9358
  785MPD2     C11625   1.335   0.344  11.083  0.6180 -0.1899  0.2195
  785MPD2    C111626   1.279   0.298  11.205  0.3788  0.2733 -0.2223
  785MPD2    C211627   1.225   0.170  11.207  0.3699 -0.5983  0.8175
  785MPD2    C311628   1.207   0.102  11.088  0.0756 -0.4432  0.4920
  785MPD2    C411629   1.257   0.151  10.970  0.3903 -0.2837 -0.5446
  785MPD2    C511630   1.330   0.267  10.972 -0.4138  0.8259 -0.8038
  785MPD2     H11631   1.175   0.140  11.298  1.0634  0.8225  1.6723
  785MPD2    H111632   1.251   0.106  10.872 -1.4361 -2.0777  0.4083
  785MPD2    H211633   1.385   0.440  11.075 -2.6176  1.4762 -0.1242
  785MPD2    H311634   1.376   0.302  10.880  1.0166 -0.4573 -0.5841
  785MPD2     N11635   1.129   4.725  11.078  0.0760  0.0389 -0.1696
  785MPD2    H511636   1.109   4.702  10.981 -2.2017 -1.5813  0.6739
  785MPD2    N111637   1.292   0.386  11.309 -0.3772  0.0675  0.7455
  785MPD2    H711638   1.331   0.476  11.283  3.6685 -1.8951  0.0431
  786MPD2     C11639   3.855   2.514  14.851 -0.3718 -0.0829 -0.1271
  786MPD2    C111640   3.919   2.390  14.833 -0.2164 -0.6756 -0.0177
  786MPD2    C211641   4.033   2.362  14.902  0.2633 -0.0125  0.5672
  786MPD2    C311642   4.099   2.462  14.973  0.5296 -0.1096  0.0485
  786MPD2    C411643   4.035   2.585  14.985  1.0111  0.6397 -0.0248
  786MPD2    C511644   3.915   2.608  14.926 -0.2700  0.4202  0.5638
  786MPD2     H11645   4.076   2.263  14.891  0.6850  0.2219  0.0750
  786MPD2    H111646   4.088   2.662  15.040 -0.2880  0.4689  1.4737
  786MPD2    H211647   3.763   2.538  14.799  1.1451  1.2003 -2.1878
  786MPD2    H311648   3.876   2.708  14.942 -2.9539 -0.1538 -2.3933
  786MPD2     N11649   4.220   2.440  15.040 -0.1110  0.5844 -0.0868
  786MPD2    H511650   4.254   2.347  15.064  1.5130  0.6002 -2.2906
  786MPD2    N111651   3.868   2.310  14.725 -0.4131  0.3171  0.6594
  786MPD2    H711652   3.904   2.216  14.707  0.7949  0.6769  1.2155
  787MPD2     C11653   4.323   1.965  14.317 -0.0745  0.7357  0.3659
  787MPD2    C111654   4.260   1.964  14.444 -0.3274 -0.0716 -0.2409
  787MPD2    C211655   4.320   1.907  14.552 -0.5202  0.2659 -0.4186
  787MPD2    C311656   4.446   1.847  14.526  0.2110 -1.0054  0.1741
  787MPD2    C411657   4.511   1.868  14.410  0.4082 -0.0418  0.0651
  787MPD2    C511658   4.451   1.932  14.306  0.3248 -0.1857  0.5704
  787MPD2     H11659   4.271   1.886  14.647  1.7478 -1.8036  0.2916
  787MPD2    H111660   4.603   1.818  14.383  1.2304  1.4380  0.1241
  787MPD2    H211661   4.274   2.011  14.232 -2.0798 -1.2989  0.4310
  787MPD2    H311662   4.501   1.949  14.211 -3.6521 -0.4665 -1.5815
  787MPD2     N11663   4.500   1.746  14.616 -0.3274 -0.5175  0.5325
  787MPD2    H511664   4.580   1.702  14.572 -0.0199  0.1239  0.4426
  787MPD2    N111665   4.130   2.021  14.465  0.0877 -0.8211  0.5431
  787MPD2    H711666   4.117   2.052  14.560 -0.0393 -1.3365  0.6937
  788MPD2     C11667   2.025   1.586   0.149 -0.5267 -0.5499  0.6508
  788MPD2    C111668   1.947   1.476   0.119  0.1045 -0.0212 -0.6668
  788MPD2    C211669   1.808   1.483   0.094 -0.0595 -0.1114  0.5638
  788MPD2    C311670   1.757   1.609   0.073  0.1966 -0.3023  0.2775
  788MPD2    C411671   1.833   1.721   0.092 -0.0035  0.4284  0.2678
  788MPD2    C511672   1.967   1.711   0.132 -0.3140  0.1427  0.2406
  788MPD2     H11673   1.751   1.395   0.066  0.2006  0.0496 -0.4711
  788MPD2    H111674   1.799   1.820   0.065 -1.4335 -0.5829 -1.6759
  788MPD2    H211675   2.131   1.588   0.173 -0.6289  2.2992  0.7948
  788MPD2    H311676   2.021   1.799   0.166 -2.2253  0.5357  2.2399
  788MPD2     N11677   1.625   1.628   0.024 -0.0461  0.2864 -0.4428
  788MPD2    H511678   1.604   1.717  17.734 -0.0497  1.4043  1.8778
  788MPD2    N111679   1.998   1.343   0.124  0.3026 -0.0149  0.3136
  788MPD2    H711680   1.929   1.268   0.121  1.2922 -0.9143  0.0286
  789MPD2     C11681   1.624   0.191  16.357  0.1819 -0.5369  0.1208
  789MPD2    C111682   1.498   0.239  16.311  0.1573  0.3679 -0.1251
  789MPD2    C211683   1.438   0.353  16.363  0.3733 -0.5634 -0.1114
  789MPD2    C311684   1.505   0.427  16.460  0.0376  0.2030  0.5232
  789MPD2    C411685   1.621   0.371  16.517 -0.0011  0.1778 -0.5095
  789MPD2    C511686   1.674   0.257  16.464  0.2932  0.4653  0.2198
  789MPD2     H11687   1.337   0.384  16.341  1.6704  3.4680 -0.4790
  789MPD2    H111688   1.671   0.415  16.603 -1.4350  0.2764  0.2687
  789MPD2    H211689   1.670   0.105  16.311  2.4095  0.6097  0.2188
  789MPD2    H311690   1.767   0.225  16.510 -0.0156  0.4490  0.8306
  789MPD2     N11691   1.451   0.553  16.500 -0.1603 -0.2287 -0.4388
  789MPD2    H511692   1.495   0.604  16.576  1.0601  0.0367 -1.3324
  789MPD2    N111693   1.428   0.199  16.196  0.4751  0.4393  0.3909
  789MPD2    H711694   1.356   0.261  16.162  1.4710  0.2728 -2.0332
  790MPD2     C11695   2.759   2.480  13.658 -0.0871  0.0167 -0.0521
  790MPD2    C111696   2.637   2.431  13.628  0.2009 -0.4407  0.4641
  790MPD2    C211697   2.593   2.437  13.497 -1.3376 -0.1926  0.8845
  790MPD2    C311698   2.668   2.501  13.402 -0.4705  0.7021 -0.4160
  790MPD2    C411699   2.792   2.551  13.436  0.2038  0.3874  0.0556
  790MPD2    C511700   2.840   2.535  13.561 -0.0225 -0.0766 -0.2538
  790MPD2     H11701   2.492   2.409  13.470 -0.7719 -0.5141 -0.9488
  790MPD2    H111702   2.849   2.604  13.360  0.8875 -1.5869 -0.8065
  790MPD2    H211703   2.801   2.470  13.758  0.5665 -0.0708 -0.3366
  790MPD2    H311704   2.939   2.574  13.584 -0.5673 -0.0935  2.1920
  790MPD2     N11705   2.616   2.500  13.263  0.4038 -0.4394 -0.2953
  790MPD2    H511706   2.530   2.448  13.248  0.3030 -0.5976  0.8030
  790MPD2    N111707   2.568   2.374  13.738  0.2296  0.5932 -0.8910
  790MPD2    H711708   2.622   2.356  13.822 -2.4713  0.7738  0.8849
  791MPD2     C11709   2.029   2.461  12.649 -0.7550  0.0928  0.4995
  791MPD2    C111710   2.065   2.427  12.773 -0.8409 -0.3382  0.3761
  791MPD2    C211711   2.012   2.319  12.836  0.2589  0.3108  0.0525
  791MPD2    C311712   1.903   2.252  12.778 -0.3587 -0.1740  0.5829
  791MPD2    C411713   1.849   2.304  12.660 -0.9074 -0.3810 -0.4356
  791MPD2    C511714   1.924   2.401  12.588  0.0836 -0.0214 -0.7721
  791MPD2     H11715   2.056   2.284  12.928 -0.2975  0.5379  0.4067
  791MPD2    H111716   1.761   2.269  12.607 -0.9365  0.6833 -1.1017
  791MPD2    H211717   2.088   2.539  12.602  0.3206 -0.2596  1.2734
  791MPD2    H311718   1.894   2.437  12.490 -1.5060 -0.4659 -0.4533
  791MPD2     N11719   1.846   2.147  12.847  0.3300 -0.0950  0.4224
  791MPD2    H511720   1.879   2.130  12.942 -2.8279  1.5706  1.8269
  791MPD2    N111721   2.182   2.489  12.814  0.1142  0.6426 -0.0925
  791MPD2    H711722   2.231   2.541  12.741 -2.0098  1.1144 -1.1657
  792MPD2     C11723   3.007   2.349  11.453 -0.2515  0.1687 -1.0301
  792MPD2    C111724   2.967   2.449  11.372  0.2112  0.5009 -0.1764
  792MPD2    C211725   2.834   2.488  11.379  0.0478  0.2805 -0.8537
  792MPD2    C311726   2.745   2.409  11.451 -0.3897 -0.3879 -0.6478
  792MPD2    C411727   2.785   2.309  11.532 -0.2352  0.3137 -0.4563
  792MPD2    C511728   2.919   2.289  11.540  0.3977 -0.2804 -0.1539
  792MPD2     H11729   2.802   2.578  11.329 -1.3599  0.5963  0.6137
  792MPD2    H111730   2.716   2.249  11.589  0.6402  1.7376  2.1008
  792MPD2    H211731   3.108   2.312  11.444  0.0944  1.2687 -1.7525
  792MPD2    H311732   2.958   2.211  11.604  3.1749  0.5472 -0.8455
  792MPD2     N11733   2.610   2.438  11.471  0.2442  0.5644 -0.0654
  792MPD2    H511734   2.559   2.382  11.538 -0.5951 -0.2286 -1.3776
  792MPD2    N111735   3.063   2.523  11.295 -0.1013 -0.5578  0.0481
  792MPD2    H711736   3.162   2.510  11.312 -0.1104  1.0450  1.3206
  793MPD2     C11737   2.149   2.031  10.851 -0.2584 -0.5152 -0.2578
  793MPD2    C111738   2.277   2.069  10.890 -0.3185 -0.1562 -0.8554
  793MPD2    C211739   2.296   2.167  10.985  0.5801 -0.1878 -0.3641
  793MPD2    C311740   2.188   2.228  11.036  0.6828  0.4891 -0.7072
  793MPD2    C411741   2.057   2.192  11.003 -0.0845 -0.2423 -0.2945
  793MPD2    C511742   2.032   2.091  10.906 -0.0595 -0.1153  0.2701
  793MPD2     H11743   2.392   2.193  11.027  0.5297 -0.8396  0.1544
  793MPD2    H111744   1.975   2.241  11.054  0.6753  0.1696  0.5181
  793MPD2    H211745   2.136   1.959  10.771  0.7785  0.9467 -1.7409
  793MPD2    H311746   1.934   2.063  10.869  0.2074 -0.7903  0.0557
  793MPD2     N11747   2.221   2.309  11.146 -0.3096 -0.1624 -0.0493
  793MPD2    H511748   2.319   2.336  11.150  0.3125 -2.2588 -0.9442
  793MPD2    N111749   2.395   2.002  10.838  0.2877  0.0688 -0.4176
  793MPD2    H711750   2.485   2.008  10.884  0.8113  1.5979 -1.6404
  794MPD2     C11751   2.598   1.156  16.657  0.6218  0.0478  0.8052
  794MPD2    C111752   2.479   1.154  16.723 -0.4691  0.6663 -0.3083
  794MPD2    C211753   2.365   1.205  16.659  0.0604 -0.6016  0.2784
  794MPD2    C311754   2.373   1.279  16.538  0.7170  0.0850  0.0666
  794MPD2    C411755   2.497   1.282  16.481  0.7244 -0.1785  0.5647
  794MPD2    C511756   2.606   1.215  16.534  0.3736  0.1296 -0.2551
  794MPD2     H11757   2.272   1.194  16.712 -0.3888 -1.9394 -0.7794
  794MPD2    H111758   2.509   1.323  16.382  1.1245  2.2367  1.6125
  794MPD2    H211759   2.687   1.102  16.688  0.0682 -1.5408 -0.3665
  794MPD2    H311760   2.701   1.220  16.482 -1.0873  0.1765 -2.9310
  794MPD2     N11761   2.275   1.352  16.469 -0.0183  0.0717  0.9723
  794MPD2    H511762   2.294   1.401  16.382 -1.4761  0.4240  0.8582
  794MPD2    N111763   2.459   1.073  16.838 -0.5052  0.7390 -0.0019
  794MPD2    H711764   2.369   1.036  16.867 -0.4499  1.5982  1.2796
  795MPD2     C11765   0.347   3.606  13.243  0.5570 -0.1761 -0.1183
  795MPD2    C111766   0.248   3.511  13.270 -0.4782 -0.0463 -0.3114
  795MPD2    C211767   0.273   3.423  13.373 -0.1420 -0.0526  0.2593
  795MPD2    C311768   0.369   3.441  13.466 -0.4619 -0.2512 -0.2301
  795MPD2    C411769   0.471   3.536  13.433  0.1784  0.1704  0.9698
  795MPD2    C511770   0.458   3.618  13.325 -0.0014  0.6618  0.1271
  795MPD2     H11771   0.202   3.342  13.385  2.0651 -2.3650 -2.2419
  795MPD2    H111772   0.566   3.531  13.484 -1.2041  3.8067  3.9266
  795MPD2    H211773   0.337   3.674  13.160  0.1153 -0.0147  0.0673
  795MPD2    H311774   0.524   3.701  13.300  0.2763  0.0357 -1.1966
  795MPD2     N11775   0.381   3.345  13.574 -0.5707 -0.0654  0.4062
  795MPD2    H511776   0.308   3.275  13.585 -1.6248  0.8434 -0.7752
  795MPD2    N111777   0.122   3.505  13.197 -0.2240  0.3543  0.0763
  795MPD2    H711778   0.049   3.443  13.231  0.7501 -0.2882  1.0018
  796MPD2     C11779   4.502   0.033  15.709  0.2442  0.2660 -0.8274
  796MPD2    C111780   4.464   0.074  15.837 -0.6446  0.7317 -0.0162
  796MPD2    C211781   4.446   0.202  15.870  0.3551  0.3660  0.5196
  796MPD2    C311782   4.481   0.298  15.780 -0.2155 -0.1160  0.5534
  796MPD2    C411783   4.542   0.256  15.660 -0.0789  0.3112 -0.3262
  796MPD2    C511784   4.546   0.128  15.618 -0.5272 -0.1342  0.5108
  796MPD2     H11785   4.394   0.232  15.960 -0.4958  3.2404 -0.9232
  796MPD2    H111786   4.581   0.332  15.594  0.0301  0.7205  0.2027
  796MPD2    H211787   4.507   4.667  15.681 -0.7865  0.1748 -0.6887
  796MPD2    H311788   4.584   0.116  15.517  0.9393  1.6827  0.8496
  796MPD2     N11789   4.461   0.429  15.822  0.0397  0.0770 -0.2976
  796MPD2    H511790   4.420   0.442  15.914 -1.2082 -0.0734 -0.8340
  796MPD2    N111791   4.432   4.718  15.935  0.0236 -0.5524  0.0998
  796MPD2    H711792   4.458   4.628  15.897  2.1844  1.0976 -2.3593
  797MPD2     C11793   0.751   4.228  17.318  0.1131  0.8169 -0.2214
  797MPD2    C111794   0.755   4.360  17.265  1.0359  0.4244 -0.0350
  797MPD2    C211795   0.644   4.418  17.211 -0.0767  0.1803  0.1123
  797MPD2    C311796   0.523   4.350  17.214  0.3456 -0.2145  0.1833
  797MPD2    C411797   0.509   4.224  17.265  0.0993  0.0461  0.8507
  797MPD2    C511798   0.628   4.168  17.320 -0.3122  0.1834  0.1567
  797MPD2     H11799   0.653   4.515  17.163 -0.7995  0.1814 -0.0285
  797MPD2    H111800   0.417   4.167  17.271 -1.2214  1.9662 -1.0197
  797MPD2    H211801   0.829   4.169  17.364 -0.4851  1.6943  1.9228
  797MPD2    H311802   0.624   4.066  17.356 -0.1274  0.8194  1.9749
  797MPD2     N11803   0.418   4.426  17.164 -0.0162  0.6804 -0.1048
  797MPD2    H511804   0.445   4.508  17.110 -0.5738 -0.0850 -1.5304
  797MPD2    N111805   0.876   4.438  17.277 -0.0314 -0.3072 -0.3325
  797MPD2    H711806   0.869   4.535  17.250  0.2961 -0.8831 -2.4895
  798MPD2     C11807   0.580   0.366  17.390  0.2204 -0.1408 -0.2213
  798MPD2    C111808   0.555   0.229  17.389  1.0166  0.3721  0.7327
  798MPD2    C211809   0.661   0.147  17.421  0.6335  0.8146  0.6498
  798MPD2    C311810   0.796   0.190  17.428 -0.5256 -0.8148  0.5449
  798MPD2    C411811   0.808   0.328  17.426 -0.2613 -0.1829  0.3543
  798MPD2    C511812   0.705   0.417  17.412 -0.0411  0.6113 -0.0689
  798MPD2     H11813   0.642   0.040  17.424  1.7924  0.5861 -0.0713
  798MPD2    H111814   0.900   0.386  17.418  0.4969 -1.3824  0.4559
  798MPD2    H211815   0.506   0.435  17.350  2.2838  2.0854 -0.2169
  798MPD2    H311816   0.725   0.523  17.419 -1.0242  0.7579  0.5007
  798MPD2     N11817   0.896   0.096  17.435 -0.6553 -0.0636 -0.1408
  798MPD2    H511818   0.869   4.737  17.446 -2.3772  0.5842  1.3947
  798MPD2    N111819   0.431   0.183  17.341 -0.2110  0.1056 -0.3461
  798MPD2    H711820   0.363   0.251  17.308 -0.5589  1.5995  3.5269
  799MPD2     C11821   4.171   1.470  14.368  0.7723  0.2848 -0.4221
  799MPD2    C111822   4.048   1.434  14.317  0.1901 -0.6614  0.7318
  799MPD2    C211823   3.978   1.510  14.219 -0.2626  0.0184  0.5224
  799MPD2    C311824   4.031   1.636  14.194 -0.2198  0.5739 -0.3020
  799MPD2    C411825   4.153   1.674  14.244 -0.3237  0.3936 -0.1061
  799MPD2    C511826   4.219   1.593  14.335  0.0683 -0.0653 -0.1210
  799MPD2     H11827   3.882   1.488  14.175  0.5594 -2.3367 -0.1442
  799MPD2    H111828   4.200   1.765  14.210  1.9266 -0.6707  0.1563
  799MPD2    H211829   4.236   1.408  14.429 -0.2593 -0.6715 -0.2797
  799MPD2    H311830   4.315   1.623  14.376 -0.0024  0.5493 -0.4071
  799MPD2     N11831   3.975   1.739  14.121 -0.6594 -0.3440 -0.8274
  799MPD2    H511832   4.005   1.831  14.152  2.8915 -1.1814 -1.8195
  799MPD2    N111833   3.981   1.322  14.369 -0.2380 -0.4553 -0.0518
  799MPD2    H711834   3.894   1.300  14.320 -0.6980  2.0745 -0.3732
  800MPD2     C11835   4.533   2.606  13.950  1.1730 -0.3789 -0.1779
  800MPD2    C111836   4.670   2.573  13.950 -0.9126  0.3327 -0.4628
  800MPD2    C211837   4.710   2.477  13.864 -0.1330 -0.0044 -1.0988
  800MPD2    C311838   4.614   2.419  13.786 -0.0910 -0.8467 -0.4606
  800MPD2    C411839   4.481   2.440  13.792  0.5748 -0.2140  0.2962
  800MPD2    C511840   4.439   2.543  13.877 -0.2840  0.1938  0.0236
  800MPD2     H11841   0.072   2.436  13.860 -0.7249 -1.5652  0.2078
  800MPD2    H111842   4.401   2.388  13.740 -0.9409  1.4570  0.9627
  800MPD2    H211843   4.497   2.674  14.026  1.5129 -1.0954  0.6311
  800MPD2    H311844   4.332   2.558  13.887 -0.1819 -0.1023  1.5628
  800MPD2     N11845   4.656   2.325  13.686 -0.0919 -0.1018  0.0701
  800MPD2    H511846   0.010   2.283  13.694 -0.6913 -1.4600 -0.1312
  800MPD2    N111847   0.027   2.652  14.025  0.0094  0.4927 -0.3005
  800MPD2    H711848   4.738   2.730  14.084  1.1899  1.5383 -1.1146
  801MPD2     C11849   0.081   3.353  14.045 -0.3908  0.0693 -0.3354
  801MPD2    C111850   0.014   3.235  14.068  0.6406  0.0489  0.2905
  801MPD2    C211851   4.620   3.231  14.048  0.0208 -0.8801  0.5879
  801MPD2    C311852   4.552   3.344  14.015 -0.4989  0.0318  0.3503
  801MPD2    C411853   4.615   3.467  14.010 -0.2114  0.6467 -0.5024
  801MPD2    C511854   0.014   3.469  14.019 -0.0430  0.0664  0.3656
  801MPD2     H11855   4.570   3.135  14.048  2.1408 -1.9884  1.2486
  801MPD2    H111856   4.563   3.560  13.993 -1.6580  0.0223  0.5136
  801MPD2    H211857   0.188   3.363  14.059 -0.0113 -0.7495 -2.7350
  801MPD2    H311858   0.068   3.563  14.014 -0.5297  0.3860  1.1760
  801MPD2     N11859   4.410   3.332  13.990 -0.2074 -0.1431 -0.5025
  801MPD2    H511860   4.384   3.235  13.974 -0.4722  0.0228 -1.0787
  801MPD2    N111861   0.085   3.111  14.093 -0.3626  0.0507  0.3400
  801MPD2    H711862   0.024   3.031  14.099 -0.3043 -0.1591 -1.8154
  802MPD2     C11863   0.008   3.532   0.254  0.5402 -0.0911 -0.4540
  802MPD2    C111864   4.616   3.535   0.221 -0.2531  0.0372  0.7363
  802MPD2    C211865   4.569   3.455   0.116 -0.1178  0.5613 -0.7214
  802MPD2    C311866   4.657   3.370   0.048  0.3557 -0.4597  0.2026
  802MPD2    C411867   0.049   3.362   0.085  0.1254  0.1100  0.0383
  802MPD2    C511868   0.089   3.442   0.192  0.0116 -0.1800 -0.3996
  802MPD2     H11869   4.474   3.481   0.071  1.2315  3.4022 -1.9172
  802MPD2    H111870   0.121   3.297   0.036  0.5009 -1.1818  2.3067
  802MPD2    H211871   0.045   3.589   0.339  1.5423 -1.0645 -0.2285
  802MPD2    H311872   0.193   3.422   0.214 -0.1005 -0.0715  0.2466
  802MPD2     N11873   4.602   3.279  17.715 -0.3610 -0.8417  0.1611
  802MPD2    H511874   4.503   3.293  17.698  0.2448  1.4943 -1.5593
  802MPD2    N111875   4.516   3.609   0.295  0.0493 -0.6917  0.2112
  802MPD2    H711876   4.423   3.592   0.257 -0.7549  2.1603  0.8754
  803MPD2     C11877   0.762   2.268  12.318  0.2579 -0.1505  0.1720
  803MPD2    C111878   0.866   2.169  12.317  0.0763 -0.0521  0.0093
  803MPD2    C211879   0.847   2.054  12.398 -0.0449  0.5528 -0.0081
  803MPD2    C311880   0.720   2.020  12.444  0.5658 -0.3768  0.2611
  803MPD2    C411881   0.620   2.110  12.426  0.3391 -0.0000 -0.0282
  803MPD2    C511882   0.640   2.239  12.371 -0.2441 -0.0057  0.0330
  803MPD2     H11883   0.933   1.990  12.413 -0.4909  0.1694  0.9058
  803MPD2    H111884   0.524   2.079  12.467  0.6217 -1.4287 -0.4166
  803MPD2    H211885   0.769   2.364  12.268 -0.2627 -0.7823 -1.1338
  803MPD2    H311886   0.571   2.322  12.359 -1.9289 -1.0188  2.8998
  803MPD2     N11887   0.691   1.907  12.525 -0.4286  0.0354 -0.5150
  803MPD2    H511888   0.591   1.892  12.536 -0.5334  0.8295 -0.4036
  803MPD2    N111889   0.992   2.194  12.262 -0.8892  0.6868 -0.5216
  803MPD2    H711890   1.061   2.123  12.280  1.0481  2.6220 -0.2991
  804MPD2     C11891   4.652   3.084  16.666  0.2649 -0.1473  0.1820
  804MPD2    C111892   4.612   3.071  16.797  0.7850 -0.2939 -0.4088
  804MPD2    C211893   4.670   3.149  16.893 -0.1808  0.2670  0.2660
  804MPD2    C311894   0.035   3.239  16.867 -0.4249 -0.0583 -0.5217
  804MPD2    C411895   0.078   3.245  16.736 -0.4368 -0.1649  0.3122
  804MPD2    C511896   0.014   3.182  16.638  0.9387  0.4335  0.4409
  804MPD2     H11897   4.638   3.158  16.996 -0.1513 -2.4215  0.5277
  804MPD2    H111898   0.160   3.306  16.700  1.0091 -1.9845  0.5193
  804MPD2    H211899   4.602   3.033  16.586  0.1563 -0.1272  0.2378
  804MPD2    H311900   0.042   3.209  16.537 -1.7077 -0.3981 -0.5296
  804MPD2     N11901   0.092   3.321  16.970  0.3609 -0.6044 -0.6219
  804MPD2    H511902   0.068   3.302  17.067 -1.4052  2.8009 -0.3667
  804MPD2    N111903   4.512   2.969  16.836 -0.1359 -0.6205  0.7012
  804MPD2    H711904   4.504   2.947  16.935  1.5815 -0.7717  0.8124
  805MPD2     C11905   3.881   1.562  15.374  0.2140 -0.5470 -0.9163
  805MPD2    C111906   3.994   1.600  15.300 -0.2717 -0.4326  0.1216
  805MPD2    C211907   4.123   1.601  15.364  0.2194 -0.4606 -0.0046
  805MPD2    C311908   4.131   1.559  15.497 -0.3147 -0.7278 -0.3134
  805MPD2    C411909   4.021   1.504  15.562  0.3072 -0.4207  0.2011
  805MPD2    C511910   3.900   1.511  15.502  0.0869  0.2231 -0.3132
  805MPD2     H11911   4.212   1.637  15.314  0.3298 -1.0424 -0.2184
  805MPD2    H111912   4.032   1.473  15.665  1.4275 -0.1657  0.1620
  805MPD2    H211913   3.778   1.561  15.340  0.3330 -0.7887 -1.2741
  805MPD2    H311914   3.812   1.462  15.541  0.1400 -0.4760 -1.0782
  805MPD2     N11915   4.254   1.566  15.543  0.3846  0.0822  0.3703
  805MPD2    H511916   4.325   1.615  15.489  1.1209  0.5079  1.7336
  805MPD2    N111917   3.991   1.645  15.167 -0.0777  0.2899  0.1311
  805MPD2    H711918   4.079   1.663  15.119  0.4491 -1.0459  0.6148
  806MPD2     C11919   0.125   0.933   0.650 -0.4019  0.2213  0.0099
  806MPD2    C111920   0.149   1.049   0.578 -0.0877 -1.1671  0.3827
  806MPD2    C211921   0.123   1.055   0.439 -0.5805 -0.6112  0.5871
  806MPD2    C311922   0.090   0.941   0.371 -0.8466 -0.4361  0.2332
  806MPD2    C411923   0.066   0.828   0.445 -0.0914  0.1379 -0.1800
  806MPD2    C511924   0.080   0.823   0.583  0.1168 -0.0125  0.4349
  806MPD2     H11925   0.148   1.146   0.387 -2.6727  1.6216  3.4650
  806MPD2    H111926   0.036   0.735   0.399 -0.8474 -0.7629  2.1625
  806MPD2    H211927   0.142   0.923   0.757  2.1928  2.2277 -0.2248
  806MPD2    H311928   0.058   0.727   0.629  0.1913 -0.6472 -0.8670
  806MPD2     N11929   0.064   0.950   0.234 -0.3392  0.2150  0.3425
  806MPD2    H511930   0.062   1.045   0.198  0.0924  0.0545 -0.1057
  806MPD2    N111931   0.174   1.171   0.655 -0.2792 -0.1096 -0.1371
  806MPD2    H711932   0.190   1.161   0.754  1.4814 -0.3548 -0.4422
  807MPD2     C11933   0.050   1.564   1.282  0.2834 -0.3550 -0.3941
  807MPD2    C111934   0.013   1.479   1.174 -0.5944  0.0870 -0.5278
  807MPD2    C211935   4.634   1.412   1.185 -0.4647  0.2040 -0.0786
  807MPD2    C311936   4.555   1.415   1.298  0.0606  0.1596  0.3319
  807MPD2    C411937   4.593   1.500   1.398  0.0489 -0.4648 -0.7551
  807MPD2    C511938   4.711   1.575   1.391 -0.2650 -0.3586  0.3243
  807MPD2     H11939   4.596   1.352   1.104 -0.2623 -0.8865  0.6300
  807MPD2    H111940   4.553   1.496   1.499 -1.0166 -0.1457 -1.1729
  807MPD2    H211941   0.142   1.621   1.287 -0.3612  0.7288 -0.8743
  807MPD2    H311942   0.004   1.634   1.476  0.1273 -0.3581  0.1779
  807MPD2     N11943   4.434   1.345   1.294  0.2384 -0.6488 -0.6392
  807MPD2    H511944   4.429   1.273   1.224  1.6236  1.6547 -3.1074
  807MPD2    N111945   0.092   1.457   1.057  0.4624 -0.6439  0.4260
  807MPD2    H711946   0.041   1.413   0.982 -1.6890  0.8265  1.0267
  808MPD2     C11947   0.115   1.551   9.462  0.6349 -0.4748  0.3985
  808MPD2    C111948   0.118   1.627   9.575 -0.0444 -0.0831  0.0795
  808MPD2    C211949   0.194   1.747   9.576 -0.2401 -0.6302 -0.2570
  808MPD2    C311950   0.283   1.778   9.475  0.3518 -0.2914 -0.1754
  808MPD2    C411951   0.274   1.699   9.364 -0.6430 -0.0403  0.6758
  808MPD2    C511952   0.185   1.592   9.353  0.3940  0.5156  0.1546
  808MPD2     H11953   0.186   1.804   9.668  0.0211  0.5984 -0.9855
  808MPD2    H111954   0.332   1.712   9.274 -0.3978  1.0360  0.9902
  808MPD2    H211955   0.055   1.462   9.453  1.7969 -1.2052 -0.2939
  808MPD2    H311956   0.184   1.529   9.264  0.0862  1.8683 -0.7936
  808MPD2     N11957   0.351   1.898   9.464  0.5058  0.1126 -0.1187
  808MPD2    H511958   0.406   1.920   9.382 -2.5474 -0.4610 -2.3579
  808MPD2    N111959   0.046   1.592   9.692 -0.3537 -0.3288  0.6959
  808MPD2    H711960   0.039   1.667   9.760 -1.2404 -0.2793  0.5506
  809MPD2     C11961   0.622   2.212   8.725 -0.4674 -0.7589 -0.3712
  809MPD2    C111962   0.722   2.226   8.821 -0.6715  0.6419  0.3193
  809MPD2    C211963   0.695   2.235   8.952  0.1195  0.3527  0.4024
  809MPD2    C311964   0.562   2.217   8.995 -0.5804 -0.1452  0.3351
  809MPD2    C411965   0.469   2.186   8.906  0.3637 -0.1968  0.0603
  809MPD2    C511966   0.499   2.185   8.772  0.2664  0.4221  0.4671
  809MPD2     H11967   0.773   2.254   9.025 -0.0846  0.9766  0.4644
  809MPD2    H111968   0.370   2.148   8.930  0.0018  2.2240  2.4951
  809MPD2    H211969   0.631   2.208   8.617 -1.3529 -0.6746 -0.4469
  809MPD2    H311970   0.416   2.164   8.705  2.2835  2.2525 -2.5814
  809MPD2     N11971   0.512   2.226   9.132  0.3000 -0.4786 -0.0888
  809MPD2    H511972   0.421   2.186   9.155  0.6202 -0.7008  0.7912
  809MPD2    N111973   0.857   2.245   8.785  0.7855 -0.1077  0.2706
  809MPD2    H711974   0.927   2.228   8.857  0.2918 -2.7776  0.1246
  810MPD2     C11975   4.412   2.052  10.711 -0.1153  0.0409 -0.3530
  810MPD2    C111976   4.415   2.107  10.582 -0.0907 -0.1437 -0.5959
  810MPD2    C211977   4.481   2.222  10.551  0.1045 -0.0739 -0.7416
  810MPD2    C311978   4.520   2.299  10.658  0.1138  0.4717 -0.9537
  810MPD2    C411979   4.514   2.251  10.788  0.6904 -0.0167 -0.3805
  810MPD2    C511980   4.460   2.132  10.812  0.4298  0.3346 -0.1408
  810MPD2     H11981   4.477   2.267  10.453  2.0149 -0.8701 -1.1917
  810MPD2    H111982   4.536   2.316  10.871  0.6225  2.2619 -2.1335
  810MPD2    H211983   4.349   1.966  10.731  0.0785 -0.1152 -0.4168
  810MPD2    H311984   4.451   2.100  10.915 -0.8528  1.7159  0.1751
  810MPD2     N11985   4.579   2.426  10.651 -0.0741  0.0153 -0.9639
  810MPD2    H511986   4.601   2.477  10.736  3.6990 -0.9045 -1.3924
  810MPD2    N111987   4.346   2.028  10.483  0.3887 -0.2879 -0.1567
  810MPD2    H711988   4.281   1.960  10.522 -0.8868  0.3535 -1.1532
  811MPD2     C11989   3.627   2.333  10.108  0.3160 -0.0468  0.0860
  811MPD2    C111990   3.766   2.345  10.132 -0.3702  0.0183  0.3892
  811MPD2    C211991   3.827   2.467  10.154 -0.7706 -0.9375  0.2863
  811MPD2    C311992   3.753   2.584  10.145  0.2548 -0.4682 -0.4047
  811MPD2    C411993   3.613   2.574  10.129  0.3930 -0.4644 -0.9012
  811MPD2    C511994   3.554   2.448  10.104  0.3762  0.0717 -0.1511
  811MPD2     H11995   3.934   2.479  10.168 -0.3590 -1.5958 -2.1950
  811MPD2    H111996   3.555   2.666  10.123  2.9236  1.1562 -0.1347
  811MPD2    H211997   3.575   2.241  10.087  1.6325 -0.4097 -1.5945
  811MPD2    H311998   3.446   2.437  10.093  0.1579  0.2435  1.8107
  811MPD2     N11999   3.830   2.699  10.145  0.3204  0.2722 -1.0824
  811MPD2    H512000   3.931   2.691  10.140  0.1195 -1.5774 -2.1582
  811MPD2    N112001   3.841   2.222  10.135  0.0201 -0.1250  0.1880
  811MPD2    H712002   3.789   2.143  10.098 -1.3108  0.7001  0.2712
  812MPD2     C12003   2.589   2.219  12.167  0.0233  0.2010  0.6504
  812MPD2    C112004   2.726   2.214  12.143 -0.2322 -1.0143 -0.5865
  812MPD2    C212005   2.805   2.135  12.223 -0.4047  0.2125 -0.3673
  812MPD2    C312006   2.754   2.064  12.327 -0.2911 -0.3878  0.2041
  812MPD2    C412007   2.613   2.063  12.341 -0.1309  0.2032  0.7880
  812MPD2    C512008   2.532   2.145  12.265  0.0625  0.7445  0.4415
  812MPD2     H12009   2.912   2.136  12.206 -0.3631 -0.5376 -0.1714
  812MPD2    H112010   2.569   2.008  12.423  1.0364  0.9341  1.9141
  812MPD2    H212011   2.514   2.255  12.098  0.8763 -1.3264 -1.0686
  812MPD2    H312012   2.424   2.149  12.274  0.1872  1.0123  1.8121
  812MPD2     N12013   2.847   1.991  12.412  0.1031  0.2059  0.0822
  812MPD2    H512014   2.947   2.006  12.399  0.0266  1.0057  0.3835
  812MPD2    N112015   2.775   2.306  12.043 -0.3508 -0.3288 -0.1805
  812MPD2    H712016   2.709   2.365  11.992 -1.2645 -0.6988  0.5618
  813MPD2     C12017   2.264   3.748  12.835 -0.6250 -0.1816 -0.4342
  813MPD2    C112018   2.315   3.834  12.927  0.2936 -0.3113  0.0178
  813MPD2    C212019   2.267   3.834  13.059  0.2290 -0.3819  0.0455
  813MPD2    C312020   2.174   3.742  13.099  0.5735  0.4768  0.1137
  813MPD2    C412021   2.125   3.647  13.004 -0.1318 -0.6226  0.2178
  813MPD2    C512022   2.169   3.656  12.880 -0.3609 -0.3562 -0.3542
  813MPD2     H12023   2.300   3.912  13.127 -1.1734 -0.0020  0.2947
  813MPD2    H112024   2.045   3.577  13.025 -1.6082  0.4593 -1.8650
  813MPD2    H212025   2.285   3.747  12.729 -1.5923 -2.0643 -0.6044
  813MPD2    H312026   2.127   3.588  12.806 -0.8062  0.1089 -0.5329
  813MPD2     N12027   2.107   3.766  13.223 -0.0600 -0.1338  0.1633
  813MPD2    H512028   2.151   3.844  13.271  1.0242  0.3481 -1.6227
  813MPD2    N112029   2.429   3.913  12.908 -0.4512 -0.0759  0.6197
  813MPD2    H712030   2.453   3.966  12.990 -0.0441 -1.1534  1.1970
  814MPD2     C12031   2.667   0.470  12.566 -0.0448 -0.0939 -0.0503
  814MPD2    C112032   2.711   0.530  12.454 -0.2204 -0.3459  0.1078
  814MPD2    C212033   2.781   0.652  12.459  0.8582 -0.2793  0.5446
  814MPD2    C312034   2.805   0.703  12.590 -0.3157 -0.0818  0.0782
  814MPD2    C412035   2.747   0.651  12.698  0.0349 -0.2291  0.2916
  814MPD2    C512036   2.685   0.530  12.691  0.2105  0.7426  0.2520
  814MPD2     H12037   2.810   0.705  12.369  0.9728 -1.4302 -0.0931
  814MPD2    H112038   2.752   0.702  12.793  0.7982 -2.4254  1.4111
  814MPD2    H212039   2.619   0.373  12.564  3.1604 -1.6764 -0.0175
  814MPD2    H312040   2.648   0.472  12.775 -2.4240  0.3828 -1.1455
  814MPD2     N12041   2.877   0.828  12.602  0.3835 -0.2332 -0.5264
  814MPD2    H512042   2.881   0.876  12.691 -0.1374 -1.7507  0.3169
  814MPD2    N112043   2.696   0.476  12.322 -0.2351 -0.0140  0.3031
  814MPD2    H712044   2.728   0.537  12.247 -1.1738  0.7068  0.4877
  815MPD2     C12045   3.838   3.898  11.735 -0.1582  0.6985  0.3386
  815MPD2    C112046   3.815   3.766  11.702  0.2306  0.3029 -0.1963
  815MPD2    C212047   3.724   3.685  11.769 -0.2229 -1.0685 -0.2110
  815MPD2    C312048   3.665   3.737  11.885 -0.0632  0.2286 -0.2518
  815MPD2    C412049   3.693   3.869  11.923  0.0471 -0.3709  0.0073
  815MPD2    C512050   3.781   3.950  11.848  0.0050  0.3676  0.3937
  815MPD2     H12051   3.697   3.585  11.737  1.6767 -1.6729  0.0662
  815MPD2    H112052   3.643   3.917  12.006 -0.7620 -0.5604 -0.3699
  815MPD2    H212053   3.907   3.957  11.675 -2.9473  2.9555 -0.6390
  815MPD2    H312054   3.801   4.051  11.879 -0.9386  0.3287  1.1231
  815MPD2     N12055   3.563   3.656  11.954 -0.1990 -0.1933 -0.1708
  815MPD2    H512056   3.533   3.575  11.900  0.1281 -0.2564 -0.2578
  815MPD2    N112057   3.904   3.712  11.600 -0.0492 -0.0580  0.2433
  815MPD2    H712058   3.964   3.779  11.553  0.8776 -0.9942  0.0848
  816MPD2     C12059   3.876   2.626  17.346 -0.3593  0.1597 -0.6240
  816MPD2    C112060   3.805   2.689  17.248  0.8802  0.1087  0.5396
  816MPD2    C212061   3.830   2.652  17.120 -1.1881 -0.0053 -0.0271
  816MPD2    C312062   3.919   2.550  17.090 -0.0252  0.3425  0.1929
  816MPD2    C412063   3.987   2.482  17.188 -0.2189  0.0077 -0.4097
  816MPD2    C512064   3.973   2.534  17.315 -0.7070 -0.3068  0.1676
  816MPD2     H12065   3.783   2.719  17.049  1.3558  1.5866 -0.2090
  816MPD2    H112066   4.055   2.399  17.176  0.4277  0.4084  0.5326
  816MPD2    H212067   3.857   2.651  17.450  2.2787  0.3127 -0.1820
  816MPD2    H312068   4.035   2.495  17.394  0.2022  0.4770 -0.1595
  816MPD2     N12069   3.941   2.527  16.952  0.2190  0.5796  0.8548
  816MPD2    H512070   3.914   2.602  16.889  2.2955  1.0634  0.5373
  816MPD2    N112071   3.716   2.784  17.291 -0.4507  0.1764 -0.6265
  816MPD2    H712072   3.724   2.827  17.383  3.3302 -0.7784 -0.5170
  817MPD2     C12073   2.941   4.676  10.078 -0.6531  0.1686  0.2831
  817MPD2    C112074   2.991   4.674   9.952 -0.0394  0.4958 -0.5348
  817MPD2    C212075   2.899   4.671   9.844 -0.0116  0.8268 -0.0615
  817MPD2    C312076   2.760   4.665   9.862  0.0238 -0.4449  0.0834
  817MPD2    C412077   2.717   4.679   9.989  0.3113 -0.0620 -0.3152
  817MPD2    C512078   2.803   4.702  10.093  0.0175 -0.3603  0.7059
  817MPD2     H12079   2.941   4.651   9.746  1.0656  0.8670  0.3973
  817MPD2    H112080   2.611   4.663  10.005  0.9340 -3.4148  0.3295
  817MPD2    H212081   2.993   4.664  10.172 -2.1344  1.5113  1.2754
  817MPD2    H312082   2.763   4.703  10.193  1.1294  2.9119  1.1126
  817MPD2     N12083   2.674   4.644   9.750  0.3838  0.0826  0.3634
  817MPD2    H512084   2.719   4.636   9.659  0.2442  0.2203  0.2800
  817MPD2    N112085   3.133   4.648   9.937 -0.0980  0.2967 -0.2136
  817MPD2    H712086   3.162   4.632   9.840  0.5844 -2.3789  0.4219
  818MPD2     C12087   1.493   4.507   9.776 -0.0914  0.0790  0.0655
  818MPD2    C112088   1.614   4.439   9.810  0.5892 -0.6443 -0.5863
  818MPD2    C212089   1.667   4.359   9.712 -0.0831  0.1148  0.4537
  818MPD2    C312090   1.612   4.337   9.586  0.6350 -0.2684 -0.3104
  818MPD2    C412091   1.496   4.413   9.557  0.1729  0.2080 -0.0925
  818MPD2    C512092   1.440   4.495   9.650 -0.6000  0.8579 -0.3708
  818MPD2     H12093   1.754   4.307   9.750  0.3604 -0.6555 -1.6273
  818MPD2    H112094   1.458   4.405   9.456 -1.5219 -1.3666  0.6559
  818MPD2    H212095   1.442   4.573   9.846 -0.8231 -0.2487 -0.1640
  818MPD2    H312096   1.350   4.551   9.627 -1.1858 -0.3722 -1.0428
  818MPD2     N12097   1.669   4.254   9.483  0.1952 -0.0918 -0.0311
  818MPD2    H512098   1.612   4.238   9.401  0.2817 -0.8329  0.0550
  818MPD2    N112099   1.669   4.457   9.938  0.5074 -0.4389 -0.6028
  818MPD2    H712100   1.742   4.393   9.968  0.4668  0.7101  2.0133
  819MPD2     C12101   4.671   1.366  15.484  0.5941  0.0349 -0.0880
  819MPD2    C112102   4.683   1.233  15.524  0.0883  0.4921  0.1373
  819MPD2    C212103   0.055   1.198  15.597 -0.2761  0.0714  0.1956
  819MPD2    C312104   0.150   1.290  15.630 -0.5107 -0.0707  0.4170
  819MPD2    C412105   0.137   1.421  15.592 -0.3835 -0.4135 -0.0951
  819MPD2    C512106   0.025   1.459  15.518 -0.4119 -0.0214 -0.2914
  819MPD2     H12107   0.075   1.096  15.629  4.1514  1.2683  1.2207
  819MPD2    H112108   0.212   1.495  15.617 -1.3282  0.1588  1.0709
  819MPD2    H212109   4.587   1.401  15.426 -0.1313  2.0997  2.1919
  819MPD2    H312110   0.019   1.563  15.490 -1.1305 -0.6223 -2.4132
  819MPD2     N12111   0.265   1.243  15.692  0.3735 -0.8675  0.2154
  819MPD2    H512112   0.260   1.143  15.712  0.2445 -0.3393  2.9008
  819MPD2    N112113   4.593   1.143  15.476 -0.0481  0.2209 -0.0907
  819MPD2    H712114   4.526   1.171  15.404 -0.6322 -0.5279  0.1696
  820MPD2     C12115   3.834   1.065  14.920 -0.2790  0.2715 -0.7394
  820MPD2    C112116   3.960   1.123  14.926  0.6534  0.4427  0.0940
  820MPD2    C212117   4.056   1.066  15.006  0.7084 -0.2708 -0.0643
  820MPD2    C312118   4.023   0.965  15.093  0.3828 -0.1544  0.2957
  820MPD2    C412119   3.896   0.910  15.082 -0.0313 -0.0884 -0.0532
  820MPD2    C512120   3.798   0.961  15.001  0.6830  0.7588  0.1981
  820MPD2     H12121   4.157   1.106  15.004  0.5554  0.1571  0.6372
  820MPD2    H112122   3.864   0.821  15.136  1.7777  0.0765  1.2897
  820MPD2    H212123   3.761   1.112  14.854 -0.3675  1.6430  0.3273
  820MPD2    H312124   3.700   0.914  15.009  0.8438  0.5369  0.9161
  820MPD2     N12125   4.094   0.924  15.207 -0.3415  0.5940  0.5781
  820MPD2    H512126   4.047   0.872  15.280  0.7866 -1.1003  0.0992
  820MPD2    N112127   3.989   1.247  14.860 -0.7849  0.5420  0.3896
  820MPD2    H712128   3.908   1.281  14.808 -0.2847  0.4545 -0.4443
  821MPD2     C12129   0.037   2.694  13.006  0.5776  0.5349  0.3054
  821MPD2    C112130   0.139   2.632  13.083 -0.4771  0.1753  0.1165
  821MPD2    C212131   0.274   2.674  13.078  0.2939 -0.0255 -0.7154
  821MPD2    C312132   0.304   2.793  13.010  0.1240  0.7037  0.3002
  821MPD2    C412133   0.207   2.848  12.931  0.1336 -0.0562 -0.1261
  821MPD2    C512134   0.075   2.800  12.928 -0.1192  0.6458 -0.2130
  821MPD2     H12135   0.345   2.631  13.148  0.6412  0.4080 -0.7942
  821MPD2    H112136   0.226   2.931  12.865 -4.4123  2.0356  1.1563
  821MPD2    H212137   4.671   2.672  13.021  0.6246  1.9022  2.6145
  821MPD2    H312138   4.735   2.855  12.879  1.6796  1.8713 -1.7359
  821MPD2     N12139   0.435   2.849  13.016 -0.8325 -0.2826 -0.1033
  821MPD2    H512140   0.454   2.924  12.952 -0.0836 -0.4693 -0.1028
  821MPD2    N112141   0.114   2.526  13.166  0.1362 -0.0984  0.3171
  821MPD2    H712142   0.192   2.505  13.228 -0.2450 -2.4667  0.0033
  822MPD2     C12143   0.615   2.287  15.620 -0.2340  0.1541 -0.4768
  822MPD2    C112144   0.691   2.378  15.697  0.6189  0.1294 -0.9352
  822MPD2    C212145   0.631   2.489  15.751  0.0986  0.6848 -0.4520
  822MPD2    C312146   0.493   2.505  15.738 -0.5729 -0.8523 -0.1101
  822MPD2    C412147   0.418   2.405  15.684  0.2051 -0.1010 -0.0456
  822MPD2    C512148   0.477   2.293  15.623 -0.8201 -0.0427 -0.2729
  822MPD2     H12149   0.690   2.556  15.812  1.9154 -0.0106 -1.4117
  822MPD2    H112150   0.312   2.422  15.669  0.6107  1.4577 -1.0440
  822MPD2    H212151   0.653   2.193  15.582 -0.1394  0.4583 -1.1338
  822MPD2    H312152   0.420   2.220  15.566  1.8005 -2.5030  0.2351
  822MPD2     N12153   0.433   2.606  15.807 -0.1662 -0.4275 -0.1445
  822MPD2    H512154   0.334   2.607  15.826 -0.1138 -0.7840  0.1571
  822MPD2    N112155   0.822   2.343  15.741  0.7711  0.0166  0.2846
  822MPD2    H712156   0.852   2.402  15.818 -3.5432 -0.5420  2.3504
  823MPD2     C12157   0.275   3.003  16.538  0.5213  0.1681 -0.2941
  823MPD2    C112158   0.257   2.901  16.453  0.0797  0.2832  0.6696
  823MPD2    C212159   0.251   2.770  16.506  0.1091  0.3104 -0.2325
  823MPD2    C312160   0.275   2.749  16.641  0.5057  0.1648  0.0106
  823MPD2    C412161   0.275   2.856  16.729 -0.4040 -0.9243 -0.3771
  823MPD2    C512162   0.276   2.982  16.677  0.3183 -0.0589  0.2844
  823MPD2     H12163   0.238   2.681  16.445  0.7456 -0.2774  0.4876
  823MPD2    H112164   0.287   2.838  16.835  0.7312 -1.8161 -0.6498
  823MPD2    H212165   0.283   3.105  16.502 -1.3951  0.8067  1.0977
  823MPD2    H312166   0.286   3.064  16.747 -0.5154 -0.1467  0.5026
  823MPD2     N12167   0.312   2.621  16.688  0.0579  0.4138  0.5246
  823MPD2    H512168   0.332   2.604  16.786  2.4116 -1.1563 -0.2458
  823MPD2    N112169   0.256   2.933  16.318  0.4718 -0.7008  0.1285
  823MPD2    H712170   0.278   3.030  16.299  1.1674 -0.8038  0.4019
  824MPD2     C12171   1.042   1.597  15.694 -0.2278 -0.5785 -0.1242
  824MPD2    C112172   1.147   1.684  15.698  0.1133  0.5262 -0.0761
  824MPD2    C212173   1.268   1.643  15.652  0.0115 -0.9962  0.4593
  824MPD2    C312174   1.280   1.514  15.597 -0.3625 -0.0353 -0.4452
  824MPD2    C412175   1.172   1.429  15.597  0.2881 -1.3794  0.1208
  824MPD2    C512176   1.050   1.472  15.643 -0.7676 -0.0658  0.2372
  824MPD2     H12177   1.358   1.704  15.656 -1.3242  1.0855 -1.2001
  824MPD2    H112178   1.176   1.328  15.558 -4.6842 -0.7141 -2.0246
  824MPD2    H212179   0.947   1.624  15.740 -0.3225  0.9338 -1.2249
  824MPD2    H312180   0.963   1.407  15.642 -0.8519  0.0258  0.9973
  824MPD2     N12181   1.400   1.481  15.530 -0.9024  0.5698 -0.0958
  824MPD2    H512182   1.480   1.543  15.535  0.4079 -1.2541  1.4190
  824MPD2    N112183   1.126   1.810  15.750 -0.0636 -0.1997  0.3674
  824MPD2    H712184   1.034   1.833  15.785 -0.2586  0.7296 -0.7255
  825MPD2     C12185   2.091   1.672  15.093  0.7674  0.5487 -0.0656
  825MPD2    C112186   1.960   1.704  15.113 -0.5192  0.4077  0.1054
  825MPD2    C212187   1.916   1.831  15.078  0.4171  0.3305  0.8327
  825MPD2    C312188   2.005   1.924  15.020  0.3696  0.6802  0.0638
  825MPD2    C412189   2.123   1.873  14.982  0.3119  0.7204  0.0448
  825MPD2    C512190   2.169   1.749  15.018 -0.9145 -0.7904  0.4456
  825MPD2     H12191   1.813   1.857  15.101  0.1591  1.3921 -1.4655
  825MPD2    H112192   2.200   1.934  14.936 -0.1067  1.8390  0.8325
  825MPD2    H212193   2.132   1.577  15.124 -1.0719 -0.0815  0.4410
  825MPD2    H312194   2.263   1.711  14.980  0.4586  1.8446  1.2450
  825MPD2     N12195   1.962   2.048  14.979  0.1093 -0.2661  0.5506
  825MPD2    H512196   2.023   2.105  14.921  0.1093 -0.2504  0.5662
  825MPD2    N112197   1.892   1.602  15.173 -0.0226  0.1834  0.1979
  825MPD2    H712198   1.942   1.518  15.203 -1.0003 -1.0260 -1.5756
  826MPD2     C12199   1.738   2.028  14.011  0.2084 -0.1494  0.0607
  826MPD2    C112200   1.730   2.031  13.875 -0.5505 -0.4440  0.3622
  826MPD2    C212201   1.638   2.113  13.814 -0.0771  0.5436 -0.0007
  826MPD2    C312202   1.549   2.184  13.896  0.4473 -0.6952 -0.1497
  826MPD2    C412203   1.552   2.167  14.038 -0.0365 -1.1848  1.0831
  826MPD2    C512204   1.648   2.094  14.091 -0.1214 -0.9930  0.2879
  826MPD2     H12205   1.631   2.116  13.706 -0.4255 -1.0938 -0.0201
  826MPD2    H112206   1.477   2.207  14.106 -0.8342 -1.5753  0.4348
  826MPD2    H212207   1.804   1.956  14.059  0.5989  0.2771  0.1580
  826MPD2    H312208   1.664   2.095  14.198  1.6200  1.8960  0.0123
  826MPD2     N12209   1.452   2.270  13.862  0.2021  0.6954 -0.7610
  826MPD2    H512210   1.407   2.326  13.934  1.0860 -0.2985  0.5629
  826MPD2    N112211   1.816   1.941  13.813  0.7152 -0.2141  0.4985
  826MPD2    H712212   1.855   1.876  13.881 -0.3524 -1.4282 -0.0425
  827MPD2     C12213   2.793   3.316   9.975  0.1791  0.2962  0.2062
  827MPD2    C112214   2.705   3.306  10.076  0.0053 -0.6373  0.4798
  827MPD2    C212215   2.580   3.253  10.051  0.2568  0.4509  0.1203
  827MPD2    C312216   2.543   3.213   9.924 -0.2262  0.1162  0.0119
  827MPD2    C412217   2.637   3.226   9.819 -0.5371 -0.3626  0.0142
  827MPD2    C512218   2.761   3.277   9.849  0.5879  0.8746 -0.2313
  827MPD2     H12219   2.508   3.240  10.130 -1.0859  1.1541 -0.9697
  827MPD2    H112220   2.629   3.186   9.719 -0.3547  1.2684 -0.6550
  827MPD2    H212221   2.895   3.349   9.989  0.4055  0.5169 -1.9100
  827MPD2    H312222   2.834   3.286   9.770  1.7523 -0.9269  0.6379
  827MPD2     N12223   2.420   3.150   9.899  0.0655 -0.2452 -0.0650
  827MPD2    H512224   2.354   3.124   9.971  1.7258 -1.8259  0.8922
  827MPD2    N112225   2.749   3.362  10.195 -0.5376  0.0491 -0.6346
  827MPD2    H712226   2.843   3.401  10.190 -0.6215  0.2604 -0.5599
  828MPD2     C12227   1.060   2.842  12.542  0.5105 -0.9901  0.1049
  828MPD2    C112228   1.008   2.910  12.439  0.0510 -0.2484 -0.5209
  828MPD2    C212229   1.092   2.927  12.332  0.4476 -0.6490 -0.0774
  828MPD2    C312230   1.227   2.881  12.334 -0.3420  0.2020 -0.0409
  828MPD2    C412231   1.279   2.829  12.453  0.1500  0.3056  0.5492
  828MPD2    C512232   1.192   2.802  12.554  0.4563 -0.5656  0.5812
  828MPD2     H12233   1.049   2.980  12.248 -1.7054  1.2332  2.2225
  828MPD2    H112234   1.384   2.815  12.474 -0.6045  2.1197  5.5027
  828MPD2    H212235   1.008   2.813  12.633 -0.6040  0.6859 -0.0115
  828MPD2    H312236   1.230   2.763  12.648  0.9064  2.4847  1.6662
  828MPD2     N12237   1.323   2.903  12.235  0.1048  0.3351 -0.1386
  828MPD2    H512238   1.420   2.894  12.262 -0.2729  1.7153  1.6156
  828MPD2    N112239   0.876   2.948  12.437  0.1490  0.0610  0.9298
  828MPD2    H712240   0.840   2.999  12.358  2.7483  0.7994  0.2273
  829MPD2     C12241   0.517   3.236  11.727  0.5082  0.7289  0.6736
  829MPD2    C112242   0.408   3.182  11.795  0.5756  0.1714  0.4915
  829MPD2    C212243   0.424   3.143  11.930  0.2978 -0.1248  0.1406
  829MPD2    C312244   0.540   3.172  11.994 -0.8105  0.5107  0.0753
  829MPD2    C412245   0.651   3.225  11.923 -0.4379  0.1128 -0.3503
  829MPD2    C512246   0.633   3.254  11.794 -0.0422  0.2020 -0.2225
  829MPD2     H12247   0.344   3.092  11.982  0.0007 -1.4819 -1.6392
  829MPD2    H112248   0.749   3.230  11.970 -0.1685  2.2928 -1.1389
  829MPD2    H212249   0.496   3.255  11.623 -0.7996  0.2210  0.8405
  829MPD2    H312250   0.720   3.289  11.739  0.7196  2.7656  2.6381
  829MPD2     N12251   0.562   3.134  12.128  0.3285  0.3061  0.3212
  829MPD2    H512252   0.657   3.145  12.162  0.0733  0.8923  0.8462
  829MPD2    N112253   0.287   3.174  11.727  0.0410  0.1050 -0.0786
  829MPD2    H712254   0.279   3.222  11.638 -2.7078  0.1646  0.1974
  830MPD2     C12255   1.017   0.892  15.717 -0.5490 -0.4464  0.7143
  830MPD2    C112256   0.911   0.949  15.650 -0.2524 -0.1117 -0.4097
  830MPD2    C212257   0.933   1.010  15.530  0.2559  0.6719  0.0388
  830MPD2    C312258   1.065   1.016  15.478 -0.4651  0.6942 -0.0200
  830MPD2    C412259   1.176   0.961  15.545 -0.3789 -0.6617  0.4475
  830MPD2    C512260   1.150   0.899  15.667  1.2053 -0.8781 -0.3663
  830MPD2     H12261   0.851   1.039  15.464 -2.9486 -1.7598  2.9460
  830MPD2    H112262   1.281   0.971  15.519 -0.2368 -0.0434  1.2586
  830MPD2    H212263   0.990   0.838  15.807  1.1241 -1.7795  0.4121
  830MPD2    H312264   1.232   0.847  15.716  0.1572 -0.3202  1.9960
  830MPD2     N12265   1.096   1.101  15.366  0.5130  0.0748  0.4375
  830MPD2    H512266   1.193   1.096  15.339  0.8353 -0.4680  1.6799
  830MPD2    N112267   0.781   0.928  15.694  0.3339  0.1417  0.1700
  830MPD2    H712268   0.778   0.869  15.777 -0.0735  1.5065  1.1208
  831MPD2     C12269   0.679   2.898  16.171 -0.0098  0.4615 -0.3779
  831MPD2    C112270   0.730   2.791  16.091  0.9335  0.6850 -0.6705
  831MPD2    C212271   0.668   2.667  16.110  0.3223 -0.0002 -1.1446
  831MPD2    C312272   0.584   2.647  16.217 -0.9840  0.1252  1.0246
  831MPD2    C412273   0.546   2.749  16.302 -0.1710 -0.1585 -0.6725
  831MPD2    C512274   0.592   2.873  16.274 -0.7803  0.3089 -0.3180
  831MPD2     H12275   0.715   2.589  16.052 -0.0805 -1.4824  0.5226
  831MPD2    H112276   0.478   2.734  16.386  0.4493 -1.5547 -0.4299
  831MPD2    H212277   0.721   2.997  16.157 -0.1761  0.4949 -0.6375
  831MPD2    H312278   0.559   2.953  16.338  0.3578 -0.2954  1.0215
  831MPD2     N12279   0.513   2.523  16.237  0.5569  0.7882  0.1571
  831MPD2    H512280   0.445   2.519  16.311  2.0008  1.7223  1.5337
  831MPD2    N112281   0.826   2.819  15.993  0.0880 -0.1752  0.3260
  831MPD2    H712282   0.848   2.916  15.977 -0.3601 -0.5118 -2.3643
  832MPD2     C12283   4.142   3.901  17.358  0.0466 -0.2862 -0.4269
  832MPD2    C112284   4.138   4.030  17.311  0.2033 -0.1812  0.1024
  832MPD2    C212285   4.014   4.077  17.272 -0.6861  0.3944 -0.1530
  832MPD2    C312286   3.902   3.997  17.283  0.2858 -0.5671 -0.2684
  832MPD2    C412287   3.907   3.867  17.335  0.0735 -0.2434  0.4167
  832MPD2    C512288   4.030   3.822  17.372  0.0580  0.2047 -0.2233
  832MPD2     H12289   4.014   4.165  17.209 -1.4693 -0.7762 -1.8048
  832MPD2    H112290   3.820   3.801  17.330 -1.1797  1.3815  0.8916
  832MPD2    H212291   4.239   3.867  17.392  0.1374  0.4352  0.0439
  832MPD2    H312292   4.039   3.715  17.388 -1.4896 -0.1861 -1.8711
  832MPD2     N12293   3.782   4.035  17.218 -0.1449  0.5656 -0.1392
  832MPD2    H512294   3.701   3.977  17.233 -0.1754  0.0000 -2.5513
  832MPD2    N112295   4.254   4.112  17.307  0.3190  0.5421  0.1333
  832MPD2    H712296   4.341   4.072  17.341 -1.3687 -2.0571  1.4337
  833MPD2     C12297   1.193   0.895  12.743 -0.3511 -0.2530 -0.6169
  833MPD2    C112298   1.217   1.002  12.664  0.4000  0.6717 -0.3895
  833MPD2    C212299   1.337   1.004  12.599 -0.2019 -0.4366 -0.4472
  833MPD2    C312300   1.428   0.900  12.618  0.7273  0.4103  0.1629
  833MPD2    C412301   1.415   0.808  12.721  0.3190 -0.4114  0.6258
  833MPD2    C512302   1.295   0.807  12.778 -0.6140 -0.3603  0.7485
  833MPD2     H12303   1.356   1.090  12.535 -0.3030 -1.6112 -2.0419
  833MPD2    H112304   1.492   0.738  12.753 -0.8795 -1.5873  0.9729
  833MPD2    H212305   1.099   0.876  12.795  0.7801 -1.1905  1.0667
  833MPD2    H312306   1.286   0.742  12.864  0.3899 -2.0575 -0.4223
  833MPD2     N12307   1.544   0.893  12.536  0.2229 -0.1409  0.8412
  833MPD2    H512308   1.605   0.812  12.540 -0.6681 -0.8987 -0.9340
  833MPD2    N112309   1.120   1.100  12.654  0.3193  0.0710  0.2704
  833MPD2    H712310   1.026   1.074  12.683  0.9499 -1.6821  0.7202
  834MPD2     C12311   1.304   0.242  11.874  0.0812  1.1139  0.0613
  834MPD2    C112312   1.408   0.297  11.804 -0.7322  0.5054  0.2615
  834MPD2    C212313   1.470   0.410  11.849 -0.3158 -0.2732  0.1591
  834MPD2    C312314   1.433   0.466  11.970  0.2821 -0.4339  0.2999
  834MPD2    C412315   1.337   0.404  12.044  0.8054  0.0310  0.9681
  834MPD2    C512316   1.274   0.294  11.998 -0.7939 -0.8839  0.0437
  834MPD2     H12317   1.548   0.462  11.795  0.5974 -0.4498  1.3361
  834MPD2    H112318   1.301   0.448  12.137 -0.0396 -3.0112  2.0936
  834MPD2    H212319   1.253   0.155  11.834  0.8078  1.2891 -1.2623
  834MPD2    H312320   1.193   0.255  12.059 -1.1979 -0.9150 -0.5157
  834MPD2     N12321   1.506   0.575  12.019 -0.3578  0.3705 -0.2217
  834MPD2    H512322   1.586   0.601  11.962  0.3001  1.6303  1.2664
  834MPD2    N112323   1.447   0.232  11.685 -0.5503  0.0000 -0.0595
  834MPD2    H712324   1.379   0.162  11.657  0.6400 -1.7012  1.3110
  835MPD2     C12325   1.853   3.522  10.922 -0.3059  0.8813  0.4153
  835MPD2    C112326   1.739   3.585  10.975  0.2581 -0.1699  0.2258
  835MPD2    C212327   1.726   3.607  11.112 -0.5413 -0.2568  0.2599
  835MPD2    C312328   1.825   3.565  11.200  0.5938 -0.3691 -0.0129
  835MPD2    C412329   1.943   3.509  11.146  0.1693 -0.0597  0.2831
  835MPD2    C512330   1.954   3.492  11.008 -0.4837  0.4130  0.2605
  835MPD2     H12331   1.638   3.662  11.145 -0.5673 -1.1231  1.6286
  835MPD2    H112332   2.025   3.483  11.211 -1.4663  0.1010  2.4048
  835MPD2    H212333   1.867   3.503  10.816  1.8027  0.0374  0.8574
  835MPD2    H312334   2.046   3.450  10.968 -1.4373  0.5202 -2.0496
  835MPD2     N12335   1.812   3.579  11.340 -0.0692 -0.1103  0.5039
  835MPD2    H512336   1.888   3.539  11.395  0.9326  0.3992 -0.5139
  835MPD2    N112337   1.635   3.636  10.893  0.2484  0.2842  0.3358
  835MPD2    H712338   1.556   3.682  10.937  1.6803  1.4391  1.7238
  836MPD2     C12339   1.112   3.508  11.665 -0.0645  0.1635  0.0961
  836MPD2    C112340   1.208   3.516  11.763 -0.1587 -0.3684 -0.4608
  836MPD2    C212341   1.167   3.531  11.893  0.2786 -0.0364 -0.3400
  836MPD2    C312342   1.036   3.560  11.926  0.1865 -0.3209 -0.4394
  836MPD2    C412343   0.941   3.554  11.827 -0.1537 -0.2195  0.1004
  836MPD2    C512344   0.986   3.536  11.696 -0.1138  0.1764  0.0263
  836MPD2     H12345   1.247   3.538  11.966 -1.0125  0.2344  1.0290
  836MPD2    H112346   0.837   3.572  11.853 -0.0562  2.7027 -1.5186
  836MPD2    H212347   1.139   3.491  11.561  3.1858 -1.4570  1.1876
  836MPD2    H312348   0.913   3.537  11.616 -0.2419 -1.5432  0.1356
  836MPD2     N12349   0.988   3.590  12.054 -0.5609  0.3718 -0.1009
  836MPD2    H512350   0.889   3.598  12.071 -0.5773  1.1753 -0.5595
  836MPD2    N112351   1.342   3.507  11.728  0.1158  0.3045  0.9265
  836MPD2    H712352   1.350   3.510  11.627  2.2863  0.6069  1.1249
  837MPD2     C12353   4.477   3.144  10.316 -0.1203 -0.1115  0.0569
  837MPD2    C112354   4.359   3.200  10.339 -0.4994  0.2919  0.2127
  837MPD2    C212355   4.347   3.325  10.394  0.0261 -0.3610  1.1177
  837MPD2    C312356   4.459   3.396  10.433  0.2088 -0.0506 -0.1027
  837MPD2    C412357   4.582   3.337  10.418 -0.3430  0.1233 -0.4316
  837MPD2    C512358   4.591   3.212  10.357 -0.2468  0.0131  0.0782
  837MPD2     H12359   4.254   3.379  10.382  0.9187  0.6662 -1.2799
  837MPD2    H112360   4.677   3.388  10.428 -0.8979  0.7977  1.5208
  837MPD2    H212361   4.473   3.050  10.262  2.7918 -0.7032  0.8803
  837MPD2    H312362   4.687   3.168  10.332 -0.4858 -1.4970  1.8405
  837MPD2     N12363   4.442   3.532  10.470  0.2536  0.0801 -0.0418
  837MPD2    H512364   4.349   3.571  10.464 -0.2979 -1.0615  1.0001
  837MPD2    N112365   4.239   3.143  10.296  0.0432  0.2377 -0.1214
  837MPD2    H712366   4.159   3.206  10.300  1.1637  1.6321  0.3386
  838MPD2     C12367   2.889   1.425  12.542  0.4666  0.3338 -0.6105
  838MPD2    C112368   2.822   1.316  12.493  0.4688  0.6374 -0.2014
  838MPD2    C212369   2.688   1.303  12.530 -0.2456  0.4977  0.6191
  838MPD2    C312370   2.633   1.384  12.628  0.4920 -0.7674  0.1576
  838MPD2    C412371   2.711   1.486  12.684  0.2620 -0.2143  0.4808
  838MPD2    C512372   2.836   1.508  12.636 -0.5153 -0.9549 -0.2629
  838MPD2     H12373   2.622   1.238  12.474 -1.2563  1.8340  0.2738
  838MPD2    H112374   2.669   1.566  12.743  2.0835 -0.4461  2.1035
  838MPD2    H212375   2.989   1.452  12.513  2.3435 -2.6774  3.0945
  838MPD2    H312376   2.888   1.592  12.682  1.0065 -2.4309  0.7053
  838MPD2     N12377   2.497   1.355  12.661  0.3954 -0.2727 -0.2687
  838MPD2    H512378   2.450   1.283  12.607  1.9072 -0.2643 -1.5753
  838MPD2    N112379   2.868   1.226  12.391 -0.3315  0.2349  0.1800
  838MPD2    H712380   2.799   1.163  12.351 -0.9624  0.5070  0.8454
  839MPD2     C12381   2.375   0.622  12.118 -0.0241 -0.7916  0.4814
  839MPD2    C112382   2.456   0.641  12.008  1.2136 -0.2883 -0.1629
  839MPD2    C212383   2.575   0.711  12.011 -0.0593  0.0771  0.3698
  839MPD2    C312384   2.615   0.762  12.130  0.3350  0.6336  0.3454
  839MPD2    C412385   2.545   0.741  12.247 -0.1732  0.1499  0.0797
  839MPD2    C512386   2.427   0.680  12.239 -1.0237 -0.8306  0.0437
  839MPD2     H12387   2.638   0.727  11.924 -1.4445  2.0004 -0.2890
  839MPD2    H112388   2.585   0.774  12.342 -0.7036 -1.8735  1.0040
  839MPD2    H212389   2.279   0.572  12.123 -0.3623 -0.0766  1.2321
  839MPD2    H312390   2.374   0.661  12.332  1.3490  2.3117  2.0518
  839MPD2     N12391   2.732   0.842  12.139 -0.0734  0.2384 -0.5623
  839MPD2    H512392   2.751   0.876  12.233  0.2108 -0.5528 -0.3339
  839MPD2    N112393   2.406   0.606  11.878 -0.2396 -0.1235 -0.1834
  839MPD2    H712394   2.473   0.625  11.804 -1.5979  1.4705 -1.0144
  840MPD2     C12395   3.306   3.669  10.265 -0.5374  0.3422 -0.0225
  840MPD2    C112396   3.237   3.683  10.385 -0.0097  0.6526  0.4570
  840MPD2    C212397   3.263   3.794  10.471  0.4516  0.0139  0.1841
  840MPD2    C312398   3.360   3.888  10.439 -0.2104 -0.3505  0.1756
  840MPD2    C412399   3.427   3.875  10.315 -0.4146  0.7774 -0.3488
  840MPD2    C512400   3.398   3.764  10.233  0.3011  0.1129 -0.0280
  840MPD2     H12401   3.196   3.808  10.555 -0.2039 -0.8036 -0.1941
  840MPD2    H112402   3.494   3.953  10.279  0.8094  0.8856  2.1765
  840MPD2    H212403   3.298   3.589  10.193  0.8353  0.8481 -0.7453
  840MPD2    H312404   3.456   3.761  10.142  0.2421 -1.8826 -0.0030
  840MPD2     N12405   3.398   3.995  10.524  0.5230 -0.7688 -0.5686
  840MPD2    H512406   3.451   4.068  10.478 -1.1965  1.1354  0.4517
  840MPD2    N112407   3.127   3.596  10.413 -0.0631 -0.0401  0.3038
  840MPD2    H712408   3.101   3.525  10.346 -0.0761 -0.0524  0.3220
  841MPD2     C12409   2.126   3.182  15.063 -0.3647 -0.1727  0.2150
  841MPD2    C112410   2.199   3.079  15.114  0.5786 -0.0727 -0.1919
  841MPD2    C212411   2.298   3.018  15.034  0.3541 -0.0450  0.6234
  841MPD2    C312412   2.326   3.064  14.905  0.1105 -0.1422 -0.3294
  841MPD2    C412413   2.258   3.176  14.857  0.8079 -0.2052  0.1796
  841MPD2    C512414   2.158   3.230  14.936 -0.1491 -0.4938 -0.6780
  841MPD2     H12415   2.353   2.935  15.078 -0.9879 -1.1740  0.1692
  841MPD2    H112416   2.285   3.228  14.766  0.9638 -0.1474  0.2594
  841MPD2    H212417   2.046   3.236  15.112 -0.0659 -2.5178  3.2651
  841MPD2    H312418   2.106   3.321  14.909  0.7119 -0.1019 -1.0257
  841MPD2     N12419   2.426   3.000  14.829  0.0413  0.3609  0.4257
  841MPD2    H512420   2.484   2.932  14.877  1.3534  1.9315  1.0645
  841MPD2    N112421   2.154   3.008  15.224 -0.0643  0.1312 -0.1817
  841MPD2    H712422   2.204   2.925  15.256  1.3170  0.9662 -0.1942
  842MPD2     C12423   3.215   4.454  16.692  0.5059  1.0091 -0.3925
  842MPD2    C112424   3.160   4.335  16.672  0.8406  0.2946 -0.1474
  842MPD2    C212425   3.136   4.251  16.782 -0.0259  0.1284 -0.4323
  842MPD2    C312426   3.159   4.302  16.910  0.2402  0.1840  0.0132
  842MPD2    C412427   3.210   4.432  16.927 -0.1672 -0.0377 -0.0766
  842MPD2    C512428   3.234   4.509  16.822  0.1227 -0.5052 -0.7045
  842MPD2     H12429   3.075   4.162  16.781 -0.3972  0.3703  0.7560
  842MPD2    H112430   3.225   4.466  17.029 -2.3172  1.5928 -0.3011
  842MPD2    H212431   3.237   4.516  16.606  0.8182 -0.9334 -1.7034
  842MPD2    H312432   3.279   4.607  16.833 -0.2913 -0.5208  1.1947
  842MPD2     N12433   3.124   4.232  17.028  0.7392  0.5424 -0.8300
  842MPD2    H512434   3.108   4.292  17.109  1.8769 -2.1260  1.3641
  842MPD2    N112435   3.138   4.289  16.545 -0.8426  0.1678  0.6154
  842MPD2    H712436   3.161   4.352  16.469  0.1499  0.2969  1.0227
  843MPD2     C12437   0.559   0.023   0.061 -0.6634 -0.3264 -0.2075
  843MPD2    C112438   0.668   4.733  17.742 -0.3516  0.4416 -0.0187
  843MPD2    C212439   0.769   0.091  17.735  0.5470 -0.2955  0.7418
  843MPD2    C312440   0.751   0.206   0.055 -0.7675 -0.5006  0.1338
  843MPD2    C412441   0.636   0.236   0.123  0.3484 -0.1447 -0.1930
  843MPD2    C512442   0.541   0.143   0.137  0.5607  0.4827 -0.2579
  843MPD2     H12443   0.854   0.073  17.671  0.0454 -1.2653  0.3583
  843MPD2    H112444   0.633   0.320   0.191  0.4677  0.7825 -1.3514
  843MPD2    H212445   0.483   4.685   0.073 -0.0770 -1.2749 -2.6180
  843MPD2    H312446   0.462   0.167   0.207  1.9171 -0.4582  1.5842
  843MPD2     N12447   0.850   0.306   0.049 -0.0374  0.4662 -0.1958
  843MPD2    H512448   0.821   0.397   0.083  0.7580 -0.4647  2.9724
  843MPD2    N112449   0.679   4.602  17.692  0.1271  1.2367 -0.3499
  843MPD2    H712450   0.594   4.547  17.684  0.6515  0.6860 -2.0436
  844MPD2     C12451   3.450   3.390  16.754  0.0067 -0.0076  0.4267
  844MPD2    C112452   3.478   3.478  16.652 -0.6388 -0.6294  1.2285
  844MPD2    C212453   3.528   3.604  16.684 -0.4309 -0.4953 -0.8341
  844MPD2    C312454   3.574   3.632  16.811 -0.3474 -0.4403 -0.5355
  844MPD2    C412455   3.554   3.539  16.908  0.1203  0.0225  0.9844
  844MPD2    C512456   3.490   3.420  16.884 -0.1100 -0.3232  0.4588
  844MPD2     H12457   3.563   3.672  16.607 -1.2661  0.3711 -0.4534
  844MPD2    H112458   3.583   3.558  17.011 -0.0093 -0.1119  1.0446
  844MPD2    H212459   3.402   3.293  16.745  1.7532 -0.8324 -0.0537
  844MPD2    H312460   3.468   3.340  16.954  1.3182 -1.6014 -0.5223
  844MPD2     N12461   3.672   3.736  16.817  0.4805  0.5747 -0.0558
  844MPD2    H512462   3.684   3.799  16.739 -0.6280  0.1090 -0.6027
  844MPD2    N112463   3.463   3.442  16.518  1.0721 -0.6449 -0.0283
  844MPD2    H712464   3.446   3.518  16.453 -0.6488 -0.8854  0.1478
  845MPD2     C12465   4.050   4.681  16.691  0.0720 -0.0039  0.1392
  845MPD2    C112466   4.121   4.634  16.800 -0.3653  0.7011  0.4625
  845MPD2    C212467   4.098   4.497  16.842 -0.2280  0.3449 -0.0877
  845MPD2    C312468   4.003   4.420  16.778 -0.1970  0.4989  0.6438
  845MPD2    C412469   3.934   4.469  16.672  0.2255 -0.5082  0.2042
  845MPD2    C512470   3.960   4.603  16.625 -0.6122 -0.2314  0.2320
  845MPD2     H12471   4.141   4.454  16.931 -3.6781  0.3837  1.6062
  845MPD2    H112472   3.851   4.414  16.628 -2.2963  0.9566  3.1573
  845MPD2    H212473   4.062   0.043  16.653 -1.7093 -0.7357 -2.3334
  845MPD2    H312474   3.893   4.635  16.546  1.4370 -0.7620 -1.7307
  845MPD2     N12475   3.980   4.292  16.837  0.5897 -0.4417 -0.4120
  845MPD2    H512476   4.035   4.274  16.920  0.6140 -0.3365 -0.4056
  845MPD2    N112477   4.208   4.719  16.864 -0.1479 -0.2646 -0.8716
  845MPD2    H712478   4.213   0.074  16.825  0.2830  1.1210  2.4472
  846MPD2     C12479   0.786   4.703  13.888  0.3155 -0.2380 -0.0094
  846MPD2    C112480   0.661   0.023  13.868  0.4700  0.0540  0.1365
  846MPD2    C212481   0.593   0.062  13.981 -0.4387 -0.4530  0.4438
  846MPD2    C312482   0.657   0.069  14.104  0.3482 -0.1140  0.8901
  846MPD2    C412483   0.783   0.016  14.124 -0.1017  0.1378  0.4465
  846MPD2    C512484   0.844   4.702  14.010  0.0049 -1.1474  0.1882
  846MPD2     H12485   0.497   0.112  13.969  0.8256  1.8604  0.0595
  846MPD2    H112486   0.839   0.003  14.215 -2.2320 -0.8660  1.6172
  846MPD2    H212487   0.833   4.638  13.814 -0.0810  0.5571 -0.9700
  846MPD2    H312488   0.939   4.651  14.024  0.7335  0.9082  2.6536
  846MPD2     N12489   0.574   0.129  14.202  0.2804 -0.3503  0.4029
  846MPD2    H512490   0.480   0.156  14.176  0.3224  0.2742  0.9103
  846MPD2    N112491   0.604   0.042  13.737 -0.1977 -0.7888  0.2189
  846MPD2    H712492   0.519   0.097  13.733  0.9447  0.9825  0.6731
  847MPD2     C12493   0.648   0.551  14.472  1.0417  0.1509  0.6900
  847MPD2    C112494   0.698   0.647  14.376  1.1009 -0.0712 -0.5765
  847MPD2    C212495   0.839   0.657  14.374  0.3800 -0.3548  0.5054
  847MPD2    C312496   0.923   0.600  14.470  0.2615 -0.3473 -0.2984
  847MPD2    C412497   0.867   0.517  14.568  0.3790  0.3914  0.1820
  847MPD2    C512498   0.733   0.488  14.564 -0.3935 -0.1093  0.1455
  847MPD2     H12499   0.879   0.717  14.292 -0.1747  0.3793  0.7758
  847MPD2    H112500   0.927   0.472  14.647 -1.1027 -0.3874  0.8526
  847MPD2    H212501   0.544   0.526  14.488  1.2260 -1.5771 -0.8176
  847MPD2    H312502   0.694   0.414  14.634 -0.9831  0.4984  0.4584
  847MPD2     N12503   1.053   0.639  14.468 -0.6905 -0.5887 -0.6484
  847MPD2    H512504   1.077   0.711  14.401  0.0439  0.2471  0.5216
  847MPD2    N112505   0.619   0.719  14.290  0.1936  0.7718  0.3297
  847MPD2    H712506   0.674   0.785  14.235  0.8993 -1.3350 -1.4590
  848MPD2     C12507   3.470   4.300  16.501  0.6857 -0.7382  0.0898
  848MPD2    C112508   3.518   4.369  16.612  0.0547  0.2251  0.1277
  848MPD2    C212509   3.551   4.502  16.600 -0.1021  0.4741  0.0048
  848MPD2    C312510   3.534   4.566  16.480  0.2802 -0.0015 -0.5696
  848MPD2    C412511   3.510   4.496  16.365  0.0076 -0.1906  1.0567
  848MPD2    C512512   3.477   4.361  16.381  0.7135  0.0785  0.4839
  848MPD2     H12513   3.573   4.555  16.692 -1.4514  1.8554 -0.4695
  848MPD2    H112514   3.494   4.540  16.267  0.8794  1.0069  1.4611
  848MPD2    H212515   3.431   4.199  16.506  0.1469 -0.5824 -0.9048
  848MPD2    H312516   3.431   4.308  16.298 -2.2332  4.5521 -0.7861
  848MPD2     N12517   3.544   4.708  16.466  0.2715 -0.1415 -0.4362
  848MPD2    H512518   3.531   0.000  16.371  1.6015 -0.7331 -0.7981
  848MPD2    N112519   3.526   4.307  16.737 -0.6124 -0.3237 -0.1674
  848MPD2    H712520   3.586   4.360  16.799 -0.3679 -1.7267  0.8046
  849MPD2     C12521   2.918   4.066  14.437  0.0317 -0.2053  1.0036
  849MPD2    C112522   2.892   3.964  14.349 -0.3974 -0.1178  0.0971
  849MPD2    C212523   2.788   3.882  14.371 -0.1504 -0.4039  0.0645
  849MPD2    C312524   2.713   3.890  14.485 -0.2378  0.2347  0.2663
  849MPD2    C412525   2.740   3.994  14.571 -0.3629 -0.3628 -0.2625
  849MPD2    C512526   2.838   4.080  14.549  0.0562  0.3390 -0.1313
  849MPD2     H12527   2.769   3.789  14.318 -0.5629  0.6460 -1.6256
  849MPD2    H112528   2.673   4.015  14.653 -0.7658  0.1913 -0.7302
  849MPD2    H212529   2.998   4.138  14.428 -0.2034 -0.2110 -1.1530
  849MPD2    H312530   2.854   4.165  14.614 -0.0280 -0.2535  0.6572
  849MPD2     N12531   2.602   3.802  14.511  0.0422 -0.4769 -0.1834
  849MPD2    H512532   2.567   3.799  14.606 -2.2280 -0.3049 -1.0312
  849MPD2    N112533   2.975   3.931  14.243  0.8508  0.2943 -0.3251
  849MPD2    H712534   2.940   3.855  14.186  0.3915  2.0778 -2.4368
  850MPD2     C12535   0.482   1.712  14.491  0.4365 -0.3494 -0.7096
  850MPD2    C112536   0.479   1.827  14.566 -0.4397  0.7487  0.5887
  850MPD2    C212537   0.594   1.859  14.640  0.2653 -0.2104  1.1419
  850MPD2    C312538   0.703   1.775  14.629  0.4095 -0.4082 -0.1487
  850MPD2    C412539   0.698   1.656  14.557 -0.3860 -0.4708  0.1055
  850MPD2    C512540   0.584   1.623  14.491  0.1110 -0.0203  0.0140
  850MPD2     H12541   0.600   1.948  14.701  1.3254  0.3864  0.1710
  850MPD2    H112542   0.778   1.582  14.560 -1.7891 -1.8847  2.7899
  850MPD2    H212543   0.393   1.685  14.437  0.6617 -0.3902 -1.0598
  850MPD2    H312544   0.582   1.528  14.438  2.0493  0.1060 -0.3081
  850MPD2     N12545   0.821   1.800  14.705 -0.1202 -0.7030 -0.0199
  850MPD2    H512546   0.900   1.738  14.689  1.2273  0.7732  0.9114
  850MPD2    N112547   0.348   1.885  14.573 -0.2998  0.3454 -0.4047
  850MPD2    H712548   0.284   1.857  14.499 -0.8470  0.5608 -0.0159
  851MPD2     C12549   0.776   1.891  15.310 -0.3785  0.7042 -0.8207
  851MPD2    C112550   0.736   1.825  15.194 -0.5795 -0.3611  0.1675
  851MPD2    C212551   0.819   1.727  15.137  0.4811  0.7343  0.0979
  851MPD2    C312552   0.944   1.699  15.193  1.0685 -0.2106  0.5263
  851MPD2    C412553   0.987   1.770  15.300  0.4359 -0.5615 -0.7073
  851MPD2    C512554   0.906   1.872  15.351 -0.7836  0.5936 -0.5039
  851MPD2     H12555   0.789   1.664  15.054 -0.6735  0.9532  0.3608
  851MPD2    H112556   1.076   1.746  15.357 -1.0903 -3.4746  0.4480
  851MPD2    H212557   0.717   1.970  15.354  0.4503  1.2964 -0.7921
  851MPD2    H312558   0.955   1.925  15.432 -2.6933 -0.4804  1.3583
  851MPD2     N12559   1.025   1.595  15.131  0.2474 -0.0782 -0.3524
  851MPD2    H512560   0.997   1.553  15.043  1.5862  1.1797 -1.3601
  851MPD2    N112561   0.620   1.877  15.136  0.2255  0.3195 -0.1130
  851MPD2    H712562   0.585   1.957  15.187  0.2755  0.6479 -0.5950
  852MPD2     C12563   0.804   0.135  10.547 -0.5743 -0.3140 -0.6341
  852MPD2    C112564   0.835   0.199  10.668 -0.5354  0.4942  0.3660
  852MPD2    C212565   0.874   0.332  10.666  0.1538  0.1815 -0.1793
  852MPD2    C312566   0.883   0.403  10.543 -0.5107 -0.2326 -0.5064
  852MPD2    C412567   0.864   0.334  10.427 -0.4419  0.6114 -0.0255
  852MPD2    C512568   0.815   0.208  10.431  0.1621  1.1677 -0.0523
  852MPD2     H12569   0.898   0.382  10.759 -1.2309 -1.6615  1.1458
  852MPD2    H112570   0.858   0.379  10.329  1.0602 -2.4768 -1.5561
  852MPD2    H212571   0.770   0.031  10.545 -1.8802  0.0546  2.8797
  852MPD2    H312572   0.791   0.163  10.335 -0.7097 -2.3815  1.8391
  852MPD2     N12573   0.911   0.539  10.554 -0.1900 -0.5729  0.4868
  852MPD2    H512574   0.916   0.575  10.649 -0.2505  1.3126 -0.2065
  852MPD2    N112575   0.820   0.133  10.789  0.3247  0.2051  0.0567
  852MPD2    H712576   0.832   0.195  10.868 -1.3457 -0.6290  0.9562
  853MPD2     C12577   2.408   4.188  12.406  0.2680 -0.4851  0.2537
  853MPD2    C112578   2.367   4.317  12.388  0.3545 -0.0618  0.1242
  853MPD2    C212579   2.378   4.374  12.263  0.1691 -0.4453  0.8171
  853MPD2    C312580   2.443   4.310  12.156  0.2005 -0.2756  0.1825
  853MPD2    C412581   2.486   4.177  12.175 -0.0973  0.0124 -1.0610
  853MPD2    C512582   2.462   4.118  12.299  0.1303  0.6636  0.7434
  853MPD2     H12583   2.350   4.477  12.244  2.7810 -0.5444 -3.5418
  853MPD2    H112584   2.529   4.113  12.098 -0.4969  0.0132 -1.2828
  853MPD2    H212585   2.382   4.138  12.498  0.3404  0.4873  0.8015
  853MPD2    H312586   2.478   4.014  12.323 -0.9894  0.5018  0.7993
  853MPD2     N12587   2.466   4.373  12.038  0.0469  0.0711  0.1378
  853MPD2    H512588   2.500   4.314  11.962 -0.6629 -0.6156  0.3524
  853MPD2    N112589   2.284   4.367  12.491 -0.2513  0.1589 -0.5691
  853MPD2    H712590   2.295   4.318  12.580  1.8884 -0.3701 -1.1295
  854MPD2     C12591   3.546   4.064  12.902 -0.2886  0.2728 -0.4086
  854MPD2    C112592   3.625   4.102  12.793  0.1325 -0.8907  0.2392
  854MPD2    C212593   3.724   4.011  12.760 -0.1777 -0.8284 -0.4105
  854MPD2    C312594   3.753   3.898  12.826 -0.1320 -0.5445  0.4934
  854MPD2    C412595   3.686   3.871  12.943 -1.0294  0.6668 -0.1678
  854MPD2    C512596   3.584   3.954  12.976 -0.1152 -0.1298  0.4559
  854MPD2     H12597   3.780   4.039  12.671  2.0607  1.7039  1.7858
  854MPD2    H112598   3.705   3.780  13.000  0.0526 -0.5125 -2.4462
  854MPD2    H212599   3.463   4.125  12.935  1.3292  2.8662 -1.0930
  854MPD2    H312600   3.525   3.934  13.065  1.1089 -1.0367  1.0707
  854MPD2     N12601   3.871   3.821  12.806 -0.7001  0.1115 -0.2561
  854MPD2    H512602   3.907   3.757  12.876  3.6150  1.0798 -1.6305
  854MPD2    N112603   3.600   4.227  12.733 -0.2590 -0.0692  0.7564
  854MPD2    H712604   3.533   4.293  12.770 -1.0229 -0.7412  0.5524
  855MPD2     C12605   0.076   3.977  13.080  0.0183 -0.5640 -1.0056
  855MPD2    C112606   4.714   3.896  13.135 -0.9725 -0.9038 -0.4680
  855MPD2    C212607   4.612   3.861  13.053 -0.1322 -0.3189  0.1157
  855MPD2    C312608   4.609   3.902  12.921 -0.2180  0.0155 -0.4963
  855MPD2    C412609   4.716   3.968  12.865 -0.0792  0.2878  0.7279
  855MPD2    C512610   0.075   3.998  12.948 -0.1550  0.1704 -0.0816
  855MPD2     H12611   4.535   3.791  13.084  1.3099 -1.7163  0.5922
  855MPD2    H112612   4.710   4.005  12.763  0.4519  0.7620  0.8641
  855MPD2    H212613   0.157   4.020  13.137  0.2703 -1.4023 -0.7201
  855MPD2    H312614   0.160   4.043  12.898 -0.0897 -1.0555 -1.0598
  855MPD2     N12615   4.506   3.873  12.832  0.0097 -0.2840  0.0684
  855MPD2    H512616   4.530   3.896  12.736 -1.0959 -1.3248 -0.4686
  855MPD2    N112617   4.709   3.858  13.272 -0.1201  0.5000  0.4640
  855MPD2    H712618   4.636   3.795  13.301 -0.1934  0.9709  1.2901
  856MPD2     C12619   2.285   0.015  14.105 -0.1111  0.0591 -0.9043
  856MPD2    C112620   2.234   0.144  14.112  0.3297  0.2191 -0.0745
  856MPD2    C212621   2.119   0.167  14.183 -0.3876  0.4445  0.3059
  856MPD2    C312622   2.037   0.067  14.233 -0.2353  0.0634 -0.3006
  856MPD2    C412623   2.090   4.679  14.211 -0.5727 -0.3422  0.5084
  856MPD2    C512624   2.221   4.656  14.170  0.0502  0.4408  0.3567
  856MPD2     H12625   2.079   0.267  14.187 -0.5826  0.4044 -0.7162
  856MPD2    H112626   2.046   4.592  14.259  2.1095 -1.6989  0.5402
  856MPD2    H212627   2.379   4.726  14.057 -0.4450 -1.0360 -0.9276
  856MPD2    H312628   2.267   4.558  14.165 -1.4786 -0.2117 -0.8349
  856MPD2     N12629   1.902   0.092  14.281 -0.4463  0.0303  0.0105
  856MPD2    H512630   1.839   0.013  14.271 -1.8430  0.6921  3.5099
  856MPD2    N112631   2.290   0.256  14.049  0.4502  0.1424 -0.6474
  856MPD2    H712632   2.245   0.343  14.078 -3.4513 -1.8331 -0.8170
  857MPD2     C12633   3.717   3.186  12.111 -0.5029  0.1558  0.8347
  857MPD2    C112634   3.650   3.147  12.227 -0.5646  0.1040  0.1202
  857MPD2    C212635   3.644   3.238  12.331  0.3188 -0.3817  0.6810
  857MPD2    C312636   3.691   3.364  12.337  0.2224 -0.1168 -0.7282
  857MPD2    C412637   3.740   3.400  12.213  0.1486 -0.2477 -0.4268
  857MPD2    C512638   3.754   3.310  12.105 -0.0709  0.3041  0.2751
  857MPD2     H12639   3.591   3.204  12.420 -1.5285  0.3046 -0.1610
  857MPD2    H112640   3.775   3.501  12.199  2.8959 -0.8350  2.1850
  857MPD2    H212641   3.723   3.127  12.021  1.5898 -0.4500  1.3475
  857MPD2    H312642   3.798   3.345  12.012  1.4768 -0.9484  0.5342
  857MPD2     N12643   3.675   3.436  12.453  0.5613  0.3230 -0.0578
  857MPD2    H512644   3.636   3.396  12.538  1.0635 -1.4355 -0.6476
  857MPD2    N112645   3.600   3.016  12.237  0.9944  0.0784  0.0757
  857MPD2    H712646   3.618   2.953  12.159  0.0070 -0.5388  0.3427
  858MPD2     C12647   4.149   1.884  16.799  0.5018 -0.0674  0.5740
  858MPD2    C112648   4.168   1.754  16.819  0.5423 -0.3380 -0.5209
  858MPD2    C212649   4.178   1.707  16.947 -0.1970  0.1519 -0.2380
  858MPD2    C312650   4.165   1.791  17.056  0.7517 -0.2430 -0.2746
  858MPD2    C412651   4.139   1.919  17.029 -0.0765  0.4137 -0.3745
  858MPD2    C512652   4.140   1.972  16.904 -0.4818  0.0024  0.6371
  858MPD2     H12653   4.198   1.603  16.972  0.4732  0.1865 -0.6283
  858MPD2    H112654   4.121   1.986  17.113  3.6904 -0.8782  1.4855
  858MPD2    H212655   4.144   1.922  16.697  1.8946 -0.0182  0.5187
  858MPD2    H312656   4.125   2.079  16.897 -0.3685  0.0418  1.0374
  858MPD2     N12657   4.190   1.752  17.193 -0.4087  0.3650 -0.4518
  858MPD2    H512658   4.190   1.826  17.262 -0.5876  0.9231 -1.0574
  858MPD2    N112659   4.184   1.670  16.702  0.0748  0.4471 -0.2573
  858MPD2    H712660   4.178   1.718  16.612  0.4864  0.3883 -0.3147
  859MPD2     C12661   2.098   3.024  15.693  0.1019  0.0259 -0.4125
  859MPD2    C112662   2.206   3.039  15.613  0.5359  0.5115  0.4816
  859MPD2    C212663   2.310   2.946  15.613 -0.5470  0.3536 -1.1124
  859MPD2    C312664   2.303   2.837  15.702 -0.6082  0.2925  0.0261
  859MPD2    C412665   2.200   2.836  15.797 -0.2893 -0.3655 -0.1562
  859MPD2    C512666   2.089   2.919  15.785 -0.2275  0.7351  0.0558
  859MPD2     H12667   2.400   2.944  15.553  0.9218 -0.8597  1.1320
  859MPD2    H112668   2.200   2.745  15.854 -0.5326 -0.3090 -0.0653
  859MPD2    H212669   2.014   3.093  15.697  0.4425  0.3057  2.0128
  859MPD2    H312670   2.013   2.909  15.861  1.5996  1.6781  2.0176
  859MPD2     N12671   2.396   2.730  15.710 -0.0909 -0.4396 -0.0548
  859MPD2    H512672   2.385   2.664  15.786 -0.8385  0.0618  0.2760
  859MPD2    N112673   2.209   3.159  15.536 -0.5367 -0.5310 -0.3319
  859MPD2    H712674   2.138   3.231  15.548 -0.3026 -0.1925 -0.9596
  860MPD2     C12675   0.791   4.693  11.933  0.1528  0.0106  0.5552
  860MPD2    C112676   0.716   4.713  12.040 -0.5143  0.4279 -0.3676
  860MPD2    C212677   0.592   4.665  12.051  0.6711 -0.3536  0.0462
  860MPD2    C312678   0.532   4.589  11.950 -0.1257 -0.0256  0.0840
  860MPD2    C412679   0.603   4.571  11.834 -0.2470  0.5824  0.4785
  860MPD2    C512680   0.731   4.629  11.825  0.6349 -0.0161  0.4391
  860MPD2     H12681   0.528   4.684  12.136  0.4891 -3.2327  0.5742
  860MPD2    H112682   0.569   4.516  11.746 -0.6969  1.7792 -0.0962
  860MPD2    H212683   0.897   4.715  11.922 -0.2679  1.2445 -1.0029
  860MPD2    H312684   0.802   4.607  11.747 -2.3981 -1.3203 -1.9861
  860MPD2     N12685   0.410   4.532  11.976 -0.0189 -0.1913 -0.4450
  860MPD2    H512686   0.364   4.537  12.066 -1.4913  0.4737 -1.2249
  860MPD2    N112687   0.782   0.020  12.157  0.1895  0.2180  0.1501
  860MPD2    H712688   0.716   0.014  12.234  0.7224  0.2191  0.5975
  861MPD2     C12689   4.232   2.229  11.128 -0.4716 -1.1313 -0.0006
  861MPD2    C112690   4.265   2.362  11.142  0.4499  0.3654 -0.7857
  861MPD2    C212691   4.195   2.450  11.065 -0.6771 -0.5518  0.5513
  861MPD2    C312692   4.091   2.404  10.989 -0.1410 -0.1891  0.0706
  861MPD2    C412693   4.052   2.271  10.990 -0.6511 -0.4431 -0.7555
  861MPD2    C512694   4.124   2.185  11.057 -0.3711  0.1080 -0.1127
  861MPD2     H12695   4.219   2.556  11.058  2.1077 -1.3331 -1.5132
  861MPD2    H112696   3.974   2.239  10.923  0.1764 -0.8972 -1.5104
  861MPD2    H212697   4.302   2.155  11.165 -1.4026 -1.5362  0.9537
  861MPD2    H312698   4.098   2.080  11.049  2.2291 -0.4968 -0.6645
  861MPD2     N12699   4.011   2.485  10.906 -0.3117 -0.7080 -0.2878
  861MPD2    H512700   3.920   2.450  10.878 -1.9819  2.6548  0.8648
  861MPD2    N112701   4.360   2.426  11.217 -0.2463 -0.0227 -0.3133
  861MPD2    H712702   4.369   2.527  11.211 -0.3103  0.1007  1.6481
  862MPD2     C12703   3.322   2.524  10.840  0.0162 -0.3557  0.2666
  862MPD2    C112704   3.424   2.521  10.928 -0.7613 -0.9960  0.3403
  862MPD2    C212705   3.420   2.435  11.035  0.1366 -0.0365  0.6810
  862MPD2    C312706   3.308   2.346  11.049 -0.1671 -0.1562  0.4763
  862MPD2    C412707   3.198   2.366  10.970 -0.6922  0.4712 -0.0650
  862MPD2    C512708   3.204   2.453  10.865  0.4197  0.0636 -0.3424
  862MPD2     H12709   3.501   2.441  11.106  0.1542 -0.8151  0.7302
  862MPD2    H112710   3.097   2.337  10.994 -1.0241  2.1791  0.5616
  862MPD2    H212711   3.325   2.594  10.758 -4.1796 -0.9082 -0.3720
  862MPD2    H312712   3.116   2.476  10.806  1.8243  0.6921 -2.1968
  862MPD2     N12713   3.302   2.249  11.151 -0.5624 -0.3559 -0.3299
  862MPD2    H512714   3.219   2.190  11.158 -1.4145  0.9423  0.4531
  862MPD2    N112715   3.545   2.595  10.907  0.2791 -0.1587  0.6347
  862MPD2    H712716   3.625   2.563  10.960  1.4191  0.4952 -0.6808
  863MPD2     C12717   1.931   0.654  16.364  0.2282  0.3366  0.2333
  863MPD2    C112718   2.054   0.703  16.327 -0.5909 -0.2607  0.0968
  863MPD2    C212719   2.163   0.711  16.416 -0.0796 -0.2904  0.4040
  863MPD2    C312720   2.141   0.654  16.541 -0.1410  0.7081  0.2177
  863MPD2    C412721   2.027   0.588  16.579 -0.2112  0.1782 -0.3220
  863MPD2    C512722   1.918   0.596  16.490  0.8442 -0.4268  0.0446
  863MPD2     H12723   2.250   0.768  16.385 -1.3137  0.7849 -1.0858
  863MPD2    H112724   2.016   0.541  16.676  0.0477 -0.4500 -0.5968
  863MPD2    H212725   1.841   0.654  16.303  0.1496 -0.2681  0.3443
  863MPD2    H312726   1.824   0.547  16.512  0.3393  1.0836  1.2508
  863MPD2     N12727   2.247   0.650  16.640 -0.0071  0.5648  0.0986
  863MPD2    H512728   2.220   0.599  16.723  0.4962  0.3620  0.1371
  863MPD2    N112729   2.063   0.762  16.197  0.8330 -0.4344  0.0062
  863MPD2    H712730   1.972   0.786  16.158  0.9272 -3.0968 -1.9340
  864MPD2     C12731   2.953   2.403  16.948 -0.1250  0.6292  0.6501
  864MPD2    C112732   3.013   2.278  16.948 -0.2044 -0.0230 -0.0843
  864MPD2    C212733   3.147   2.260  16.954  0.2069 -0.3445 -0.3736
  864MPD2    C312734   3.235   2.372  16.954 -0.1707  0.4903  0.1381
  864MPD2    C412735   3.176   2.498  16.950  0.0106 -0.5044  0.4984
  864MPD2    C512736   3.039   2.508  16.961  0.5795  0.3202 -0.5380
  864MPD2     H12737   3.182   2.160  16.978 -0.4356 -0.3541  0.5265
  864MPD2    H112738   3.228   2.593  16.940 -1.3844  0.3077  1.1336
  864MPD2    H212739   2.846   2.417  16.953 -0.1619  0.4562  0.3536
  864MPD2    H312740   3.000   2.609  16.963  0.7324  0.3421  1.5430
  864MPD2     N12741   3.373   2.359  16.960 -0.5706 -0.3007  0.1627
  864MPD2    H512742   3.418   2.450  16.955  1.0462 -1.0788  0.5333
  864MPD2    N112743   2.928   2.156  16.942  0.4998  0.1409 -0.2691
  864MPD2    H712744   2.830   2.183  16.936 -0.0299 -1.5493  0.9714
  865MPD2     C12745   3.518   2.348  16.148  0.2302 -0.2843  0.6867
  865MPD2    C112746   3.505   2.216  16.190  0.3972 -0.2567 -0.3281
  865MPD2    C212747   3.574   2.188  16.310  0.4000  0.9314  0.4306
  865MPD2    C312748   3.633   2.280  16.394  0.7431 -0.1918  0.0487
  865MPD2    C412749   3.638   2.415  16.346  0.4962 -1.1369 -0.4704
  865MPD2    C512750   3.582   2.442  16.226  0.7741  0.3739 -0.1595
  865MPD2     H12751   3.568   2.087  16.349 -1.5369  0.6882 -0.5205
  865MPD2    H112752   3.680   2.492  16.408  0.0343 -0.6412 -0.7788
  865MPD2    H212753   3.481   2.387  16.054  0.0171 -2.1385  0.0050
  865MPD2    H312754   3.607   2.540  16.187 -1.0023 -0.3090 -3.0765
  865MPD2     N12755   3.678   2.238  16.517 -1.0941 -0.2470  0.0833
  865MPD2    H512756   3.656   2.144  16.549 -0.8262  0.4130  2.1655
  865MPD2    N112757   3.437   2.117  16.117 -0.0004 -0.4627 -0.0784
  865MPD2    H712758   3.389   2.152  16.035 -1.9042  0.5327  1.4413
  866MPD2     C12759   0.372   2.926  10.779  0.3253  0.0178  1.2816
  866MPD2    C112760   0.326   2.836  10.872 -0.1471  0.0250  0.1397
  866MPD2    C212761   0.196   2.847  10.910 -0.0497  0.0511  0.3324
  866MPD2    C312762   0.113   2.943  10.852 -0.1985 -0.2536 -0.9094
  866MPD2    C412763   0.166   3.033  10.759  0.0678 -0.5327 -0.7046
  866MPD2    C512764   0.302   3.034  10.728 -0.7248 -0.0327 -0.1734
  866MPD2     H12765   0.157   2.777  10.983 -3.0176  1.7627  0.4320
  866MPD2    H112766   0.115   3.114  10.709  1.9543  0.3723 -1.1628
  866MPD2    H212767   0.477   2.929  10.751  0.1292  0.1475  0.5732
  866MPD2    H312768   0.354   3.107  10.667 -1.8843  0.1612 -0.9489
  866MPD2     N12769   4.724   2.967  10.885  0.1911 -1.2265  0.0714
  866MPD2    H512770   4.672   3.042  10.841  0.1934 -0.5782  1.1795
  866MPD2    N112771   0.419   2.736  10.921  0.5190  0.3768  0.1701
  866MPD2    H712772   0.516   2.757  10.901  0.9416  0.5259  2.3552
  867MPD2     C12773   1.571   1.928  16.296  0.0637  0.2726  0.1118
  867MPD2    C112774   1.676   1.896  16.380 -0.7163  0.0857 -0.0170
  867MPD2    C212775   1.700   1.984  16.490 -0.3659 -0.2782 -0.6744
  867MPD2    C312776   1.601   2.085  16.521  0.5423  0.1418  0.5745
  867MPD2    C412777   1.488   2.103  16.443  0.3692 -0.4200  0.1550
  867MPD2    C512778   1.479   2.019  16.331  0.2557 -0.3836 -0.0807
  867MPD2     H12779   1.782   1.965  16.559 -0.9627 -2.5511 -0.5730
  867MPD2    H112780   1.407   2.171  16.468  1.7417  1.0260  0.6295
  867MPD2    H212781   1.545   1.873  16.206 -0.0283  0.0517  0.2742
  867MPD2    H312782   1.399   2.021  16.258 -1.9547 -0.8549  2.3328
  867MPD2     N12783   1.614   2.174  16.630 -0.1783 -0.0454 -0.2115
  867MPD2    H512784   1.546   2.249  16.632 -0.0019  0.1560 -1.7149
  867MPD2    N112785   1.763   1.784  16.351 -0.5200 -0.4370  0.1079
  867MPD2    H712786   1.753   1.752  16.256  1.4162 -0.2300 -0.1663
  868MPD2     C12787   3.339   0.776  12.865  0.4295  0.4265  0.0865
  868MPD2    C112788   3.406   0.891  12.908  0.0646  0.2264 -0.0439
  868MPD2    C212789   3.329   0.984  12.968  0.3309  0.1013  0.3569
  868MPD2    C312790   3.196   0.960  13.016  0.9150  0.0186  0.3880
  868MPD2    C412791   3.135   0.840  12.983 -0.8677  0.4928 -0.0672
  868MPD2    C512792   3.209   0.758  12.902 -1.1617 -0.7725 -0.4592
  868MPD2     H12793   3.383   1.071  13.002 -0.4172 -0.8737  3.9940
  868MPD2    H112794   3.036   0.819  13.020 -1.4977  4.2777  0.4197
  868MPD2    H212795   3.388   0.716  12.789  1.7386  0.6323  0.7675
  868MPD2    H312796   3.164   0.671  12.856 -0.5073 -1.5088  0.3060
  868MPD2     N12797   3.144   1.048  13.113 -0.0079 -0.5027  0.3571
  868MPD2    H512798   3.204   1.126  13.139 -1.1542 -0.2664  2.3219
  868MPD2    N112799   3.546   0.907  12.870 -0.5993 -0.1075 -0.1097
  868MPD2    H712800   3.598   0.827  12.836  1.7021  0.3908  2.2041
  869MPD2     C12801   0.490   3.067   0.270 -0.4924  0.2273 -0.3028
  869MPD2    C112802   0.406   3.153   0.345  0.4663 -0.6929  0.4194
  869MPD2    C212803   0.471   3.234   0.434 -0.2008 -0.7921 -0.1010
  869MPD2    C312804   0.605   3.236   0.445  0.2527 -0.3663  0.8875
  869MPD2    C412805   0.683   3.160   0.364 -0.0694 -0.1437  0.2127
  869MPD2    C512806   0.623   3.072   0.286 -0.4654  0.1572  0.0441
  869MPD2     H12807   0.413   3.311   0.484  1.7273  2.1490 -2.4229
  869MPD2    H112808   0.791   3.168   0.360 -0.0574 -0.9148 -0.8310
  869MPD2    H212809   0.445   2.994   0.203  3.2577 -2.8946  0.5575
  869MPD2    H312810   0.694   3.009   0.235  2.0208  1.3300  2.0948
  869MPD2     N12811   0.673   3.322   0.532 -0.6280  0.2160  0.2359
  869MPD2    H512812   0.774   3.326   0.530 -0.6769  0.4459 -1.3871
  869MPD2    N112813   0.268   3.140   0.328  0.2458  0.2028 -0.6171
  869MPD2    H712814   0.241   3.082   0.249 -0.2871 -0.4780  0.0661
  870MPD2     C12815   0.084   3.271   1.464  0.0227  0.4376  0.3746
  870MPD2    C112816   0.105   3.211   1.338 -0.3229  0.0046  0.5294
  870MPD2    C212817   0.001   3.218   1.243 -0.3771 -0.0957 -0.0530
  870MPD2    C312818   4.621   3.279   1.283  0.3676 -0.1482  0.4940
  870MPD2    C412819   4.606   3.333   1.410 -0.2517  0.2381 -0.2970
  870MPD2    C512820   4.708   3.324   1.498  0.0957  0.1595  0.1310
  870MPD2     H12821   4.739   3.159   1.153 -3.3247  1.3931 -0.9913
  870MPD2    H112822   4.517   3.387   1.441 -1.3226 -0.9411 -1.3574
  870MPD2    H212823   0.170   3.264   1.530 -0.2040 -2.3939  0.3991
  870MPD2    H312824   4.708   3.383   1.589 -1.4896  1.8431 -0.9582
  870MPD2     N12825   4.520   3.267   1.185 -0.1302  0.0117  0.3350
  870MPD2    H512826   4.550   3.241   1.092 -1.1944  0.8280 -0.2391
  870MPD2    N112827   0.227   3.148   1.305  0.1291  0.7852 -0.4829
  870MPD2    H712828   0.290   3.140   1.384  3.3548  2.3642 -2.8876
  871MPD2     C12829   0.789   2.265  16.243  0.3201  0.0456 -0.0985
  871MPD2    C112830   0.738   2.172  16.330  0.1474  0.8023 -1.5930
  871MPD2    C212831   0.744   2.034  16.296 -0.3213 -0.1751 -0.5347
  871MPD2    C312832   0.796   1.995  16.176  0.0221 -0.6577 -0.2450
  871MPD2    C412833   0.839   2.093  16.089  0.2345 -0.0143 -0.0100
  871MPD2    C512834   0.829   2.233  16.116  0.7918 -0.2623 -0.0110
  871MPD2     H12835   0.699   1.954  16.353  2.0081 -1.1517 -0.0798
  871MPD2    H112836   0.872   2.068  15.989  0.8788 -0.9162  0.4295
  871MPD2    H212837   0.783   2.372  16.260  0.3404  0.2841 -1.5940
  871MPD2    H312838   0.866   2.307  16.046 -1.0019 -0.2927 -0.9829
  871MPD2     N12839   0.795   1.857  16.137  0.2510 -0.9013  0.5918
  871MPD2    H512840   0.762   1.789  16.205 -0.7707 -0.5782  0.4273
  871MPD2    N112841   0.688   2.223  16.453  0.2173  1.1633  0.3047
  871MPD2    H712842   0.701   2.322  16.470  1.0191  0.4604  3.7192
  872MPD2     C12843   1.639   4.391  14.381  0.4257 -0.7471  0.0116
  872MPD2    C112844   1.560   4.447  14.282  0.0119 -0.0315 -0.0296
  872MPD2    C212845   1.426   4.462  14.309  0.9416  0.7077 -0.0227
  872MPD2    C312846   1.377   4.435  14.433 -0.4988  0.4157  0.1127
  872MPD2    C412847   1.463   4.389  14.534  0.1774  0.0254  0.1604
  872MPD2    C512848   1.593   4.369  14.507  0.4235 -0.2223  0.0982
  872MPD2     H12849   1.365   4.503  14.229  0.0642 -1.2565 -0.3596
  872MPD2    H112850   1.424   4.344  14.625  2.1060  0.9768  1.4389
  872MPD2    H212851   1.743   4.374  14.356  1.2068  0.5592  2.3326
  872MPD2    H312852   1.662   4.325  14.578 -0.2622 -3.7405 -1.4157
  872MPD2     N12853   1.242   4.454  14.468  0.8040  0.3157  0.1207
  872MPD2    H512854   1.209   4.430  14.561 -0.6885  0.7042 -0.3164
  872MPD2    N112855   1.608   4.456  14.150  0.1874  0.0237 -0.2913
  872MPD2    H712856   1.538   4.496  14.089 -1.6538 -0.3091  1.5933
  873MPD2     C12857   3.881   3.904   0.800 -0.2327  0.5809 -0.3069
  873MPD2    C112858   3.761   3.971   0.798  0.1329 -0.4361 -0.0475
  873MPD2    C212859   3.638   3.907   0.805 -0.7362  0.0976 -0.4260
  873MPD2    C312860   3.637   3.772   0.819  0.0206 -0.3614  0.9030
  873MPD2    C412861   3.754   3.705   0.829  0.7587 -0.0685  0.1162
  873MPD2    C512862   3.869   3.770   0.819  0.0590 -0.6673 -0.8051
  873MPD2     H12863   3.542   3.957   0.811 -1.0843 -0.7657  1.3984
  873MPD2    H112864   3.755   3.599   0.851  0.8931  0.4670  2.5875
  873MPD2    H212865   3.976   3.954   0.785 -1.4208  3.0443  0.3647
  873MPD2    H312866   3.959   3.711   0.832 -0.1742 -0.7084  0.5567
  873MPD2     N12867   3.517   3.691   0.817 -0.3133 -0.0391  0.0183
  873MPD2    H512868   3.533   3.593   0.835  0.5842 -0.0259 -0.7398
  873MPD2    N112869   3.769   4.114   0.813  0.2935  0.2446  0.2834
  873MPD2    H712870   3.861   4.155   0.826  0.2582 -0.3009  2.2202
  874MPD2     C12871   3.000   0.039  16.037  0.1390 -0.0111  0.2670
  874MPD2    C112872   3.037   4.725  16.154  0.4014 -1.0213  0.4237
  874MPD2    C212873   3.112   0.056  16.250 -0.8468 -0.2637  0.4118
  874MPD2    C312874   3.146   0.182  16.222  0.3656 -0.8210  0.0174
  874MPD2    C412875   3.118   0.240  16.103 -0.2328  0.5642  0.5630
  874MPD2    C512876   3.037   0.169  16.015 -0.4393  0.1380 -0.1150
  874MPD2     H12877   3.124   0.021  16.352 -2.0019  0.3437  0.7682
  874MPD2    H112878   3.152   0.340  16.079  0.8159 -0.4437 -2.1166
  874MPD2    H212879   2.949   4.722  15.959  2.1328 -0.9228 -0.3769
  874MPD2    H312880   3.005   0.213  15.921 -0.7831 -0.2559 -0.1816
  874MPD2     N12881   3.209   0.240  16.328 -0.0964 -0.3868 -0.3139
  874MPD2    H512882   3.231   0.181  16.408  1.8272 -0.2729 -0.7712
  874MPD2    N112883   3.000   4.594  16.180 -0.2328  0.0913  0.2173
  874MPD2    H712884   2.942   4.541  16.117  2.3631 -0.1757 -1.9443
  875MPD2     C12885   4.085   2.518  14.463 -0.3668 -0.0120 -0.0005
  875MPD2    C112886   4.049   2.647  14.444 -0.2064 -0.8893  0.1237
  875MPD2    C212887   4.091   2.743  14.537  0.0494 -0.5042  0.0699
  875MPD2    C312888   4.172   2.711  14.648 -0.2236  0.6705  0.5284
  875MPD2    C412889   4.208   2.579  14.654 -0.5679  0.4451 -0.4470
  875MPD2    C512890   4.158   2.478  14.571 -0.4126 -0.5301 -0.4251
  875MPD2     H12891   4.053   2.845  14.536 -0.0524 -0.5518 -0.5326
  875MPD2    H112892   4.257   2.549  14.746 -0.1141 -1.4269 -1.2897
  875MPD2    H212893   4.061   2.438  14.394  0.6319 -0.5010  0.2132
  875MPD2    H312894   4.184   2.372  14.572  0.3583 -0.2663  4.1742
  875MPD2     N12895   4.216   2.799  14.748  0.0345 -0.1263 -0.0577
  875MPD2    H512896   4.260   2.755  14.827  1.1800  2.2001  0.6058
  875MPD2    N112897   3.957   2.690  14.339  0.3851  0.4800  0.1033
  875MPD2    H712898   3.915   2.783  14.347 -1.1630 -0.3166  1.2452
  876MPD2     C12899   3.104   3.827  16.278  0.4348  0.6085  0.1181
  876MPD2    C112900   3.123   3.783  16.154  0.0066  0.5577 -0.3820
  876MPD2    C212901   3.124   3.641  16.144 -0.0608 -0.0968  0.2648
  876MPD2    C312902   3.117   3.556  16.251  0.1170  0.3721  0.2493
  876MPD2    C412903   3.104   3.610  16.380 -0.2863  0.2099 -0.0381
  876MPD2    C512904   3.087   3.743  16.386  1.1416  0.1956  0.1570
  876MPD2     H12905   3.153   3.605  16.046  0.8770  3.3729 -0.7022
  876MPD2    H112906   3.104   3.552  16.471 -1.8188  1.1263  0.5460
  876MPD2    H212907   3.109   3.933  16.301  1.3948  0.5189  0.2825
  876MPD2    H312908   3.073   3.786  16.484 -1.2709  0.2216 -0.2078
  876MPD2     N12909   3.123   3.416  16.231  0.2859  0.4790  0.9378
  876MPD2    H512910   3.126   3.380  16.135 -1.2254 -1.2646  1.5383
  876MPD2    N112911   3.122   3.858  16.038  0.6986 -0.2928  0.1908
  876MPD2    H712912   3.120   3.807  15.951 -0.5342 -2.8749  1.7436
  877MPD2     C12913   3.380   4.486  15.468  0.1949 -0.1084 -0.1192
  877MPD2    C112914   3.309   4.372  15.440  0.1363 -0.6475  0.4996
  877MPD2    C212915   3.277   4.334  15.312 -0.2175 -0.0591 -0.3504
  877MPD2    C312916   3.316   4.409  15.204 -0.4379  0.0761  0.6485
  877MPD2    C412917   3.400   4.518  15.231  0.0170  0.1109  0.0081
  877MPD2    C512918   3.429   4.559  15.358  0.0432 -0.1960  0.3195
  877MPD2     H12919   3.224   4.239  15.302  0.4990 -0.4596 -0.3437
  877MPD2    H112920   3.442   4.574  15.148 -2.2958  1.1516 -0.4636
  877MPD2    H212921   3.401   4.521  15.568 -2.2762 -1.1524  0.7669
  877MPD2    H312922   3.482   4.651  15.381  1.9810 -1.4879  1.0471
  877MPD2     N12923   3.280   4.368  15.075  0.0210  0.3724  0.1109
  877MPD2    H512924   3.337   4.402  14.998  1.3385 -1.6367  0.2194
  877MPD2    N112925   3.247   4.286  15.531 -0.0339 -0.0023  0.0379
  877MPD2    H712926   3.186   4.210  15.503  1.1026 -2.0228  3.0239
  878MPD2     C12927   2.710   4.369  13.409  0.8992  0.2589 -0.7084
  878MPD2    C112928   2.748   4.248  13.363 -0.4760 -0.6286 -0.3021
  878MPD2    C212929   2.795   4.154  13.455  0.1021 -0.0938 -0.0318
  878MPD2    C312930   2.804   4.197  13.591 -0.0383 -0.3458 -0.3426
  878MPD2    C412931   2.767   4.324  13.631  0.0071  0.2125 -0.1770
  878MPD2    C512932   2.716   4.413  13.540  0.8313  0.0945  0.3216
  878MPD2     H12933   2.841   4.060  13.428  0.2235 -0.9291  2.9879
  878MPD2    H112934   2.774   4.353  13.735 -0.1219 -2.0494  0.4752
  878MPD2    H212935   2.679   4.451  13.345 -0.2062 -0.5304 -1.1712
  878MPD2    H312936   2.692   4.515  13.565 -1.2548 -0.3434  0.0738
  878MPD2     N12937   2.861   4.105  13.687 -0.3657 -0.3592  0.6637
  878MPD2    H512938   2.900   4.022  13.644  0.3696  0.0062  0.6202
  878MPD2    N112939   2.732   4.227  13.225  0.3945 -0.0014 -0.2091
  878MPD2    H712940   2.683   4.299  13.173 -0.8994  0.3037  1.4742
  879MPD2     C12941   3.154   0.632  16.692  0.1889  0.5472  0.2508
  879MPD2    C112942   3.155   0.500  16.728  0.6720 -0.4214 -0.1433
  879MPD2    C212943   3.064   0.408  16.673 -0.4214 -0.7765  0.1061
  879MPD2    C312944   2.972   0.457  16.579  0.1481 -0.6547 -0.3958
  879MPD2    C412945   2.974   0.590  16.553  0.2902 -0.0981  0.4223
  879MPD2    C512946   3.061   0.670  16.613  0.6022  0.5040  0.2296
  879MPD2     H12947   3.062   0.304  16.703 -1.0511 -0.8130 -0.0680
  879MPD2    H112948   2.903   0.620  16.478  0.2197 -1.9264 -0.2374
  879MPD2    H212949   3.223   0.710  16.724 -0.4195  0.2446  2.2406
  879MPD2    H312950   3.074   0.770  16.573  2.4098  0.1650 -0.0372
  879MPD2     N12951   2.884   0.372  16.507  0.3330 -0.9562  0.0214
  879MPD2    H512952   2.824   0.416  16.438  0.9148 -2.1856 -1.2667
  879MPD2    N112953   3.251   0.465  16.824 -0.3747 -0.5898  0.5636
  879MPD2    H712954   3.320   0.537  16.843 -1.3263  0.5458 -0.3241
  880MPD2     C12955   4.499   2.019  17.746  0.0183 -0.3867 -0.2369
  880MPD2    C112956   4.507   2.088   0.113  0.9211  0.1039 -0.1794
  880MPD2    C212957   4.588   2.054   0.218  0.5301 -1.1892  0.3736
  880MPD2    C312958   4.657   1.936   0.196 -0.5658 -0.4317  0.1026
  880MPD2    C412959   4.657   1.866   0.080 -0.4623  0.4205  0.7956
  880MPD2    C512960   4.571   1.903  17.732  0.3855 -0.5365  0.2783
  880MPD2     H12961   4.602   2.107   0.312 -1.4075  1.0971 -0.6209
  880MPD2    H112962   4.718   1.778   0.063 -0.9146  0.2200  0.1819
  880MPD2    H212963   4.449   2.058  17.658 -1.5456  1.4037  1.4388
  880MPD2    H312964   4.577   1.844  17.642  1.8025  0.4034 -0.2556
  880MPD2     N12965   0.007   1.890   0.300  0.3012 -0.8147  0.0982
  880MPD2    H512966   0.004   1.947   0.384 -0.4487  0.8522 -1.0581
  880MPD2    N112967   4.424   2.203   0.116 -0.2527 -0.2917  0.6585
  880MPD2    H712968   4.360   2.202   0.038 -0.2432 -0.0971  0.6474
  881MPD2     C12969   4.085   2.954  17.328  0.3172  0.2332 -0.6561
  881MPD2    C112970   4.154   2.838  17.323  0.2190  0.0062  0.0460
  881MPD2    C212971   4.190   2.777  17.445 -0.2941 -0.3308  0.0780
  881MPD2    C312972   4.137   2.826  17.564  0.0417  0.3004 -0.9221
  881MPD2    C412973   4.078   2.949  17.563 -0.5555 -0.1151 -0.0022
  881MPD2    C512974   4.049   3.008  17.443  0.3007  0.0965  0.4248
  881MPD2     H12975   4.263   2.698  17.430 -0.6516 -0.4565 -1.0306
  881MPD2    H112976   4.044   3.002  17.652 -0.6977  1.5200 -1.0231
  881MPD2    H212977   4.063   3.006  17.236 -1.1345 -1.4848 -1.2749
  881MPD2    H312978   3.994   3.102  17.450  0.4401  0.1501  0.8308
  881MPD2     N12979   4.155   2.757  17.683  0.5142 -0.1779  0.9296
  881MPD2    H512980   4.113   2.810   0.006  0.8617  2.0810 -0.4623
  881MPD2    N112981   4.207   2.811  17.192  0.4536 -0.6070 -0.1737
  881MPD2    H712982   4.174   2.866  17.114 -0.5392 -0.3502  0.4278
  882MPD2     C12983   3.018   4.374  14.258  0.0917 -0.0193 -0.8873
  882MPD2    C112984   3.014   4.404  14.393 -0.1932  0.8001  0.4599
  882MPD2    C212985   2.891   4.442  14.444  0.2329 -0.1975  0.0740
  882MPD2    C312986   2.785   4.471  14.360 -0.1102  0.6786  1.1209
  882MPD2    C412987   2.797   4.461  14.228 -0.7428  0.1958  0.3211
  882MPD2    C512988   2.916   4.410  14.172  0.6325 -0.1941  0.1283
  882MPD2     H12989   2.878   4.452  14.551  0.1526  2.5820 -0.2125
  882MPD2    H112990   2.714   4.485  14.163 -0.2089 -0.3124 -0.5460
  882MPD2    H212991   3.102   4.333  14.204 -0.6395 -0.8955 -1.3622
  882MPD2    H312992   2.931   4.405  14.065 -0.4884  0.6406 -0.0611
  882MPD2     N12993   2.664   4.506  14.414  0.5466  0.4947 -0.0294
  882MPD2    H512994   2.586   4.517  14.350  2.0364  0.6375 -1.8245
  882MPD2    N112995   3.119   4.362  14.474 -0.0832  0.3567  0.6943
  882MPD2    H712996   3.191   4.309  14.425  0.7970  3.1785 -1.0350
  883MPD2     C12997   4.704   4.056  15.996 -0.1493 -0.5620 -0.5141
  883MPD2    C112998   4.738   4.166  15.925  0.6303 -0.0500 -0.1407
  883MPD2    C212999   0.077   4.261  15.979 -0.0991 -0.1482  0.5067
  883MPD2    C313000   0.123   4.252  16.112  0.4213 -0.5665  0.4450
  883MPD2    C413001   0.079   4.143  16.183 -0.3824  0.9169  0.1702
  883MPD2    C513002   0.001   4.053  16.128 -0.0169 -0.0329 -0.3146
  883MPD2     H13003   0.098   4.353  15.926 -0.2212 -0.4968 -0.1553
  883MPD2    H113004   0.092   4.136  16.290 -0.4967  1.8609  0.2446
  883MPD2    H213005   4.653   3.972  15.950 -0.7543 -0.0176 -0.8342
  883MPD2    H313006   4.703   3.970  16.187 -1.4370  1.2261  0.5706
  883MPD2     N13007   0.215   4.350  16.159 -0.1310  0.0301 -0.0628
  883MPD2    H513008   0.255   4.413  16.090 -0.8602 -1.1282 -1.5331
  883MPD2    N113009   4.693   4.187  15.793 -0.4586 -0.4154 -0.3530
  883MPD2    H713010   4.726   4.271  15.748 -3.1635  0.4247 -0.7726
  884MPD2     C13011   2.149   0.371  15.076 -0.4318  0.2032  0.5415
  884MPD2    C113012   2.070   0.436  14.985  0.3331  0.8667 -0.1798
  884MPD2    C213013   1.961   0.514  15.021 -0.2412 -0.1135 -0.4112
  884MPD2    C313014   1.932   0.520  15.151  0.3452 -0.9428  0.9620
  884MPD2    C413015   2.014   0.461  15.252 -0.3019 -0.3872 -0.2156
  884MPD2    C513016   2.122   0.391  15.208 -0.4889 -0.0600 -0.2022
  884MPD2     H13017   1.896   0.548  14.942 -0.4925 -0.7028 -0.4604
  884MPD2    H113018   2.002   0.481  15.358 -0.4214 -1.2098 -0.0766
  884MPD2    H213019   2.234   0.307  15.052 -1.7342 -1.4071  0.2260
  884MPD2    H313020   2.177   0.344  15.289 -2.5681 -0.4376  0.9806
  884MPD2     N13021   1.812   0.589  15.180  1.2208 -0.3138  0.1072
  884MPD2    H513022   1.767   0.628  15.098  0.6462  2.2360  1.6341
  884MPD2    N113023   2.085   0.416  14.845 -0.0983  0.1426 -0.0976
  884MPD2    H713024   2.058   0.494  14.785  0.4401  0.2271 -0.2253
  885MPD2     C13025   0.586   0.941   0.327 -0.3482 -0.0841 -0.5014
  885MPD2    C113026   0.686   0.872   0.256 -0.0594 -0.2814 -0.2450
  885MPD2    C213027   0.664   0.808   0.134  0.1786  0.0335  0.4322
  885MPD2    C313028   0.535   0.813   0.080 -0.5245  0.8362  0.3476
  885MPD2    C413029   0.434   0.872   0.157 -0.7180 -0.0133  0.0213
  885MPD2    C513030   0.458   0.938   0.271  0.7038 -0.0975 -0.8451
  885MPD2     H13031   0.749   0.771   0.078 -0.2747 -0.2456 -0.0715
  885MPD2    H113032   0.334   0.888   0.118 -0.8824 -0.5396  0.2180
  885MPD2    H213033   0.606   0.991   0.421 -0.0056  0.0005 -0.6205
  885MPD2    H313034   0.380   0.993   0.323  0.5827 -0.3580 -0.7513
  885MPD2     N13035   0.526   0.759  17.703 -0.3383  0.5294  0.1704
  885MPD2    H513036   0.618   0.738  17.666 -0.3954  1.0963 -0.2798
  885MPD2    N113037   0.821   0.884   0.304  1.0429  0.0679  0.2923
  885MPD2    H713038   0.829   0.935   0.391  0.7098 -0.0087  0.3691
  886MPD2     C13039   1.519   3.925  15.236 -0.0525  0.3841 -0.0618
  886MPD2    C113040   1.614   3.942  15.342 -0.9925 -0.4910 -0.1347
  886MPD2    C213041   1.651   4.069  15.370  0.2290 -0.0663 -0.0122
  886MPD2    C313042   1.607   4.177  15.300  0.6001 -0.0443 -0.1742
  886MPD2    C413043   1.513   4.158  15.202 -0.1464 -0.2114  0.4547
  886MPD2    C513044   1.471   4.030  15.168 -0.4690 -0.3229  0.6545
  886MPD2     H13045   1.737   4.080  15.436  0.1178 -2.1790  0.5060
  886MPD2    H113046   1.473   4.245  15.151 -0.5098  0.0575  1.2076
  886MPD2    H213047   1.490   3.827  15.200  1.6535  0.3788 -1.4081
  886MPD2    H313048   1.399   4.009  15.091  1.4593 -1.2865 -0.8786
  886MPD2     N13049   1.653   4.307  15.322  0.1903  0.4986 -0.1988
  886MPD2    H513050   1.601   4.375  15.268 -0.0027  0.7586  0.3167
  886MPD2    N113051   1.683   3.836  15.397 -0.8180 -0.4716  0.2552
  886MPD2    H713052   1.762   3.860  15.455 -1.0018 -2.2572  1.2441
  887MPD2     C13053   2.339   3.782  15.585 -0.5132  0.4918 -0.1469
  887MPD2    C113054   2.234   3.843  15.528  0.4322 -0.4840 -0.3101
  887MPD2    C213055   2.244   3.971  15.469  0.4317 -0.9333  0.5126
  887MPD2    C313056   2.365   4.039  15.484 -0.3289 -1.0087 -0.0826
  887MPD2    C413057   2.471   3.967  15.542  0.0855  0.1342  0.6884
  887MPD2    C513058   2.455   3.845  15.583 -0.4064 -0.1719 -0.7677
  887MPD2     H13059   2.159   4.006  15.411  1.5654 -1.5757 -1.5419
  887MPD2    H113060   2.568   4.012  15.560  1.1624 -1.4666 -1.1492
  887MPD2    H213061   2.330   3.681  15.624 -0.9592  0.6019  0.0393
  887MPD2    H313062   2.545   3.812  15.632  0.2052 -0.7134 -2.2615
  887MPD2     N13063   2.384   4.165  15.428  0.1596  0.0468  0.2405
  887MPD2    H513064   2.312   4.209  15.371  1.5035  0.3107 -1.2616
  887MPD2    N113065   2.112   3.772  15.511  0.1414  0.0929  0.4454
  887MPD2    H713066   2.035   3.825  15.473 -0.9963 -0.9326  1.3455
  888MPD2     C13067   4.117   4.018  14.895 -0.2663 -0.1914 -0.3150
  888MPD2    C113068   4.237   4.080  14.918 -0.0535  0.2899 -0.0614
  888MPD2    C213069   4.244   4.219  14.922 -0.3854 -0.4233  0.1019
  888MPD2    C313070   4.127   4.299  14.920  0.1296  0.2401  0.4433
  888MPD2    C413071   4.008   4.230  14.905  0.4477  0.6438  0.0161
  888MPD2    C513072   4.005   4.092  14.901 -0.1483  0.6442  0.0795
  888MPD2     H13073   4.343   4.260  14.934  0.6821 -3.4877  1.8075
  888MPD2    H113074   3.913   4.282  14.897  1.7003  3.1323  1.1238
  888MPD2    H213075   4.116   3.910  14.884 -2.6536 -0.3172  1.0450
  888MPD2    H313076   3.913   4.035  14.890  1.0461 -1.1847 -0.4750
  888MPD2     N13077   4.139   4.438  14.922  0.3869 -0.1916  0.2706
  888MPD2    H513078   4.232   4.474  14.938  0.4689 -0.0918 -0.4224
  888MPD2    N113079   4.352   3.999  14.938 -0.1491  0.1687 -0.4990
  888MPD2    H713080   4.339   3.899  14.928 -2.7275  0.3287  1.1148
  889MPD2     C13081   3.164   4.025  12.702 -0.4363 -0.1953 -0.1751
  889MPD2    C113082   3.220   3.946  12.806 -0.3890  0.1237 -0.2247
  889MPD2    C213083   3.203   3.995  12.933  0.0693 -0.1467 -0.3622
  889MPD2    C313084   3.132   4.110  12.968  0.7728 -0.1584 -0.1392
  889MPD2    C413085   3.073   4.180  12.861  0.8565 -0.1006 -0.1313
  889MPD2    C513086   3.079   4.127  12.732 -0.1311 -0.0165 -0.6965
  889MPD2     H13087   3.260   3.949  13.012  0.1338  1.6513  0.6368
  889MPD2    H113088   3.028   4.279  12.870 -1.4153 -1.3198  1.8842
  889MPD2    H213089   3.168   3.982  12.602 -1.3325  3.1028 -1.6093
  889MPD2    H313090   3.046   4.188  12.649  2.4911  1.5006 -0.6394
  889MPD2     N13091   3.140   4.157  13.098  0.6181 -0.9228 -0.3080
  889MPD2    H513092   3.203   4.106  13.158 -1.0814 -0.8558  1.5226
  889MPD2    N113093   3.326   3.855  12.781 -0.0672  0.3787 -0.2208
  889MPD2    H713094   3.360   3.809  12.865  2.3466  0.0241 -1.4088
  890MPD2     C13095   2.982   0.456  14.419 -0.3673 -0.7987  0.4302
  890MPD2    C113096   3.097   0.514  14.467  0.2379  0.5859  0.1582
  890MPD2    C213097   3.170   0.453  14.563 -0.5231  0.3784  0.6498
  890MPD2    C313098   3.124   0.334  14.614 -0.1170  0.4513  0.5511
  890MPD2    C413099   3.008   0.281  14.576 -0.6103 -0.4670 -0.3569
  890MPD2    C513100   2.938   0.340  14.475 -0.2894 -0.5753 -0.4584
  890MPD2     H13101   3.267   0.493  14.593 -0.7840  1.6781 -0.2632
  890MPD2    H113102   2.964   0.192  14.619 -1.4396  0.0083 -0.2279
  890MPD2    H213103   2.917   0.503  14.346  0.8404 -0.4978 -0.4384
  890MPD2    H313104   2.850   0.289  14.439 -0.2253  0.0196 -1.4621
  890MPD2     N13105   3.207   0.274  14.709 -0.7202  0.0364  0.2323
  890MPD2    H513106   3.291   0.319  14.743 -0.4927  1.4843 -2.1802
  890MPD2    N113107   3.130   0.639  14.423  0.1624  0.0934 -0.4199
  890MPD2    H713108   3.069   0.674  14.350 -0.1473  0.9959  0.2802
  891MPD2     C13109   1.008   4.204  16.621  0.4652 -0.1865  0.4642
  891MPD2    C113110   0.936   4.093  16.649  0.2380 -0.5610 -0.3111
  891MPD2    C213111   0.993   3.998  16.732 -0.0818 -1.3174 -1.1407
  891MPD2    C313112   1.119   4.000  16.766 -0.0290  0.4667  0.1585
  891MPD2    C413113   1.194   4.108  16.726 -0.1531  0.1540  0.3060
  891MPD2    C513114   1.138   4.209  16.651 -0.3546  0.6463 -0.8003
  891MPD2     H13115   0.948   3.908  16.772 -0.7047  0.9757  3.3279
  891MPD2    H113116   1.301   4.108  16.744 -0.3978 -0.4707  1.8325
  891MPD2    H213117   0.969   4.278  16.553 -1.7686 -2.2133 -0.4578
  891MPD2    H313118   1.206   4.283  16.611  0.2183 -0.0101 -1.0644
  891MPD2     N13119   1.175   3.889  16.840 -0.4966  0.0011  0.2891
  891MPD2    H513120   1.111   3.825  16.886 -0.4632 -0.3633 -0.1686
  891MPD2    N113121   0.796   4.080  16.615 -0.3185  0.4502  0.4162
  891MPD2    H713122   0.748   3.995  16.644 -0.5372  0.3994 -0.1053
  892MPD2     C13123   2.264   0.058  15.294  0.2681  0.4135  0.7784
  892MPD2    C113124   2.166   0.016  15.209 -0.4936 -0.7038  0.2310
  892MPD2    C213125   2.193   4.683  15.093  0.4295  0.2554 -0.2910
  892MPD2    C313126   2.322   4.647  15.054 -1.1695  0.6104 -0.2544
  892MPD2    C413127   2.422   4.684  15.140 -0.3079  0.5367  0.1458
  892MPD2    C513128   2.393   0.029  15.253 -0.4238 -0.0180  0.2867
  892MPD2     H13129   2.107   4.663  15.031  1.4698  1.0777 -1.9752
  892MPD2    H113130   2.528   4.672  15.123 -0.3453 -0.3674  0.5854
  892MPD2    H213131   2.244   0.113  15.385  1.9931  0.8731  0.8911
  892MPD2    H313132   2.468   0.067  15.322  0.8644 -1.3376 -0.3663
  892MPD2     N13133   2.344   4.568  14.939  0.8450  0.0108 -0.1339
  892MPD2    H513134   2.443   4.553  14.918  0.7554 -0.1540 -0.4355
  892MPD2    N113135   2.031   0.054  15.231  0.5545 -0.1249  0.0251
  892MPD2    H713136   1.973   0.047  15.147  1.4001  1.0863 -0.6595
  893MPD2     C13137   4.006   3.805   1.413  0.8349 -0.0018  0.7085
  893MPD2    C113138   4.096   3.710   1.449  1.0192  0.0983  0.4365
  893MPD2    C213139   4.049   3.603   1.528 -0.2818  0.5413  0.1385
  893MPD2    C313140   3.907   3.596   1.550  1.0072  0.3141 -0.3986
  893MPD2    C413141   3.816   3.689   1.510 -0.0046  0.7482  0.6119
  893MPD2    C513142   3.873   3.795   1.434  0.2902  0.0868 -0.5850
  893MPD2     H13143   4.122   3.533   1.567 -2.9985 -2.3318  0.0365
  893MPD2    H113144   3.709   3.676   1.515 -0.0547  1.2835  0.8736
  893MPD2    H213145   4.045   3.891   1.360  0.1592  0.6071  1.2005
  893MPD2    H313146   3.802   3.870   1.399 -0.0593 -0.2128 -0.5178
  893MPD2     N13147   3.852   3.499   1.627  0.4106  0.4664  0.1377
  893MPD2    H513148   3.760   3.523   1.664  0.2857  0.9047 -0.4566
  893MPD2    N113149   4.233   3.728   1.410 -0.2571  0.0158  0.3951
  893MPD2    H713150   4.257   3.803   1.345 -1.3694  0.5236  0.5834
  894MPD2     C13151   2.443   0.810   0.361  0.2050  0.0594  0.0169
  894MPD2    C113152   2.331   0.848   0.434  0.1107  0.5939 -0.3668
  894MPD2    C213153   2.309   0.986   0.452  0.0306 -0.3882  0.2188
  894MPD2    C313154   2.396   1.080   0.398 -0.4659  0.1428  0.2537
  894MPD2    C413155   2.508   1.035   0.323  0.0926 -0.0273  0.4269
  894MPD2    C513156   2.528   0.901   0.304 -0.3979  0.0305 -0.2260
  894MPD2     H13157   2.232   1.024   0.518 -0.2799 -1.6106  0.5575
  894MPD2    H113158   2.572   1.102   0.267 -0.6692 -0.4447 -0.9368
  894MPD2    H213159   2.457   0.708   0.328 -1.4605 -0.2154  0.1600
  894MPD2    H313160   2.606   0.861   0.240  0.1988 -1.9015  1.6685
  894MPD2     N13161   2.363   1.209   0.424 -0.3160 -0.1817 -0.3285
  894MPD2    H513162   2.282   1.232   0.481 -1.9250 -1.7418 -1.9942
  894MPD2    N113163   2.238   0.755   0.484  0.1379 -0.2553  0.3326
  894MPD2    H713164   2.148   0.791   0.515 -1.0429 -2.9195 -0.0615
  895MPD2     C13165   1.639   4.094  13.778 -0.0241 -0.0485  0.0026
  895MPD2    C113166   1.544   3.998  13.807 -0.9516 -0.5209 -0.5539
  895MPD2    C213167   1.589   3.893  13.892 -0.0422 -0.1184 -0.5538
  895MPD2    C313168   1.722   3.877  13.925  0.3444  0.4162  0.4699
  895MPD2    C413169   1.812   3.972  13.886 -0.1095  1.0378 -0.9259
  895MPD2    C513170   1.776   4.083  13.818 -0.0447  0.4957  0.2781
  895MPD2     H13171   1.512   3.818  13.910 -1.3531  1.0926 -1.1249
  895MPD2    H113172   1.917   3.959  13.909 -0.7217 -0.4646  1.0171
  895MPD2    H213173   1.614   4.183  13.722 -0.0946 -0.2731 -0.3238
  895MPD2    H313174   1.849   4.153  13.778  0.8791  0.2700  1.5580
  895MPD2     N13175   1.776   3.765  13.999  0.0237  0.2824  0.4145
  895MPD2    H513176   1.873   3.772  14.028 -0.0656 -2.5456  1.4052
  895MPD2    N113177   1.413   4.006  13.764 -0.2453 -0.2170  0.0863
  895MPD2    H713178   1.359   3.926  13.796 -1.8756  0.5970 -0.6056
  896MPD2     C13179   4.402   2.218   1.431 -0.0224  0.5053 -0.7180
  896MPD2    C113180   4.369   2.164   1.306  0.5751  0.0161 -0.3591
  896MPD2    C213181   4.235   2.129   1.284 -0.2889  0.0055 -0.2481
  896MPD2    C313182   4.137   2.159   1.374 -0.3906  0.2619 -0.2704
  896MPD2    C413183   4.173   2.223   1.495 -0.5765  0.3425 -0.0956
  896MPD2    C513184   4.307   2.246   1.518  0.3129 -0.7848  0.7722
  896MPD2     H13185   4.204   2.078   1.194 -1.4612  1.7705 -0.8481
  896MPD2    H113186   4.110   2.262   1.574 -0.7904 -0.3381  0.0716
  896MPD2    H213187   4.509   2.228   1.450 -0.2583  0.5828  0.5899
  896MPD2    H313188   4.322   2.304   1.608  1.3264  1.5761 -0.9436
  896MPD2     N13189   4.003   2.130   1.338  0.0013  0.3370  0.3575
  896MPD2    H513190   3.987   2.103   1.241 -0.6253  1.1455  0.2413
  896MPD2    N113191   4.467   2.135   1.209 -0.1313 -0.3700 -0.1697
  896MPD2    H713192   4.565   2.146   1.230 -0.3776  0.9705  0.3267
  897MPD2     C13193   0.309   4.167  10.885 -0.2247  0.2951  0.0360
  897MPD2    C113194   0.200   4.185  10.804  0.1313 -0.4595 -0.0937
  897MPD2    C213195   0.073   4.141  10.842  0.1949  0.1123 -0.4291
  897MPD2    C313196   0.051   4.095  10.971  0.2226  0.3781 -0.0592
  897MPD2    C413197   0.160   4.093  11.061  0.2304  0.6585 -0.0789
  897MPD2    C513198   0.287   4.123  11.013 -0.5514 -0.0661  0.4878
  897MPD2     H13199   4.721   4.173  10.793 -0.0930  0.3957  0.2938
  897MPD2    H113200   0.151   4.068  11.166 -3.5702 -0.7648 -0.7536
  897MPD2    H213201   0.412   4.178  10.855  0.6253  0.4702  2.9519
  897MPD2    H313202   0.374   4.115  11.078 -0.2897 -0.5893  0.0740
  897MPD2     N13203   4.659   4.070  11.002  0.0310  0.3734  0.0180
  897MPD2    H513204   4.586   4.069  10.932  0.3956 -1.7250 -0.3442
  897MPD2    N113205   0.223   4.253  10.684 -0.6086  0.2886 -0.4790
  897MPD2    H713206   0.314   4.295  10.669  0.9285 -2.8110  0.1510
  898MPD2     C13207   1.846   4.359  16.747  0.0970  1.1826  0.0195
  898MPD2    C113208   1.919   4.460  16.807 -0.2349 -0.1755 -0.1284
  898MPD2    C213209   1.863   4.588  16.823  0.5058  0.1974 -0.1267
  898MPD2    C313210   1.728   4.612  16.786 -0.8362 -0.1881 -0.0999
  898MPD2    C413211   1.655   4.502  16.739 -0.2772  0.3684 -0.3521
  898MPD2    C513212   1.717   4.381  16.709  0.3431  0.4340 -0.0146
  898MPD2     H13213   1.923   4.663  16.874  0.0212  0.5722 -0.0968
  898MPD2    H113214   1.550   4.514  16.715 -0.3490  1.3782  0.4617
  898MPD2    H213215   1.896   4.264  16.730  2.1199  2.2893 -0.2605
  898MPD2    H313216   1.666   4.300  16.659  0.0823  0.0599  0.8730
  898MPD2     N13217   1.662   4.736  16.795  0.0765  0.2446 -0.4271
  898MPD2    H513218   1.561   4.735  16.781  0.2119 -0.6459 -1.3161
  898MPD2    N113219   2.051   4.439  16.857  0.3864 -0.2157 -0.2917
  898MPD2    H713220   2.103   4.518  16.893  1.2747 -1.6783  1.6536
  899MPD2     C13221   2.111   0.325  17.093 -0.1174  0.3010 -0.7373
  899MPD2    C113222   2.235   0.365  17.135  0.2894  1.0413  0.4708
  899MPD2    C213223   2.281   0.326  17.260  0.5350  0.1396  0.2672
  899MPD2    C313224   2.191   0.265  17.347 -0.2254 -0.3667  0.4358
  899MPD2    C413225   2.061   0.233  17.304  0.2347  0.7205  0.1606
  899MPD2    C513226   2.020   0.267  17.176  0.0732 -0.2008  0.4356
  899MPD2     H13227   2.379   0.350  17.299 -0.4600  2.4408  1.3356
  899MPD2    H113228   1.999   0.171  17.367  0.7660  0.9880  0.9501
  899MPD2    H213229   2.072   0.340  16.993  0.4945 -0.0542 -1.0317
  899MPD2    H313230   1.919   0.250  17.141 -0.1471  1.4856  0.2651
  899MPD2     N13231   2.217   0.222  17.480 -0.0228  0.4339  0.3009
  899MPD2    H513232   2.136   0.198  17.536 -1.2639  2.3019 -0.6888
  899MPD2    N113233   2.318   0.432  17.049 -0.0158  0.0530  0.3969
  899MPD2    H713234   2.287   0.456  16.955 -0.1016 -2.0767 -0.1160
  900MPD2     C13235   2.195   1.787  13.048 -0.0349 -0.6586 -0.2983
  900MPD2    C113236   2.119   1.689  12.999  0.3678 -0.2093 -0.8797
  900MPD2    C213237   2.062   1.713  12.876  0.5787  0.4577  0.6306
  900MPD2    C313238   2.104   1.824  12.801  0.1008  0.7636  0.6556
  900MPD2    C413239   2.190   1.920  12.849 -0.1778  0.0041 -0.2906
  900MPD2    C513240   2.233   1.893  12.974  0.0777 -0.0577  1.1042
  900MPD2     H13241   1.993   1.642  12.832  1.7808 -0.7519  0.7235
  900MPD2    H113242   2.233   2.010  12.806  2.6810 -0.3387  1.8294
  900MPD2    H213243   2.227   1.775  13.150  1.2685  0.7269 -0.5567
  900MPD2    H313244   2.307   1.963  13.012 -2.1911  1.7751  2.1858
  900MPD2     N13245   2.047   1.838  12.673  0.0315 -0.0778 -0.2223
  900MPD2    H513246   1.981   1.769  12.638 -0.8416 -0.7151  2.7482
  900MPD2    N113247   2.107   1.571  13.076  0.3008  0.5111  0.4832
  900MPD2    H713248   2.151   1.552  13.165  0.7717 -1.8936 -0.2654
  901MPD2     C13249   1.830   0.503  13.009  0.4803  0.0423  0.0292
  901MPD2    C113250   1.961   0.514  12.993 -0.1712 -1.1886  0.7626
  901MPD2    C213251   2.028   0.631  13.028  0.0429 -0.3565  0.5818
  901MPD2    C313252   1.950   0.742  13.069  0.3673  0.5965  0.2143
  901MPD2    C413253   1.814   0.728  13.086 -0.0405  0.5974 -0.4601
  901MPD2    C513254   1.755   0.603  13.065  0.4812  0.3824 -0.3214
  901MPD2     H13255   2.129   0.644  12.991  0.2577  1.3991  1.7878
  901MPD2    H113256   1.756   0.804  13.137 -0.4562  0.4158 -0.6631
  901MPD2    H213257   1.779   0.416  12.967 -0.3904  0.2519  0.6466
  901MPD2    H313258   1.650   0.593  13.091 -0.1916  2.4964 -2.2421
  901MPD2     N13259   2.017   0.869  13.081 -0.3373 -0.5222 -0.2165
  901MPD2    H513260   2.115   0.872  13.055 -0.1523  0.9006  0.6613
  901MPD2    N113261   2.023   0.402  12.916 -0.8141 -0.4302 -0.0706
  901MPD2    H713262   1.969   0.328  12.872 -1.0217  0.2225 -0.9095
  902MPD2     C13263   1.058   4.706  13.226  0.0051  0.1255 -0.1218
  902MPD2    C113264   1.137   0.051  13.147 -0.7420 -0.0038 -0.1506
  902MPD2    C213265   1.275   0.038  13.159 -0.6036 -0.0908  0.0010
  902MPD2    C313266   1.333   4.683  13.243  0.0878 -0.7198 -0.7357
  902MPD2    C413267   1.250   4.615  13.328 -0.2451 -0.4493  0.6374
  902MPD2    C513268   1.116   4.634  13.327 -0.0203  0.0954 -0.1024
  902MPD2     H13269   1.335   0.098  13.091 -2.8504  1.3930 -0.6567
  902MPD2    H113270   1.283   4.551  13.409  1.2046 -0.9644 -0.3750
  902MPD2    H213271   0.950   4.706  13.216 -0.1610 -0.4949  1.5286
  902MPD2    H313272   1.057   4.569  13.391 -1.6921  0.7553 -0.9690
  902MPD2     N13273   1.467   4.667  13.237 -0.4660 -0.2958 -0.2123
  902MPD2    H513274   1.513   4.724  13.167  0.2084  2.3382  2.4125
  902MPD2    N113275   1.091   0.141  13.052  0.2489  0.1333 -0.3593
  902MPD2    H713276   1.155   0.215  13.022 -0.6731  1.8020  1.7727
  903MPD2     C13277   1.501   0.324  12.924  0.0570  0.0707 -0.2130
  903MPD2    C113278   1.510   0.190  12.892 -0.2871  0.3368 -0.0065
  903MPD2    C213279   1.424   0.131  12.802  0.9701  0.2189 -0.5368
  903MPD2    C313280   1.345   0.218  12.733 -0.9274 -0.3578 -0.0982
  903MPD2    C413281   1.337   0.353  12.752 -0.3792 -0.2762  0.2892
  903MPD2    C513282   1.416   0.406  12.854 -0.2996  0.5562  0.6890
  903MPD2     H13283   1.416   0.024  12.786  2.5209  0.2113 -1.3006
  903MPD2    H113284   1.260   0.419  12.713  0.1997  0.6104  0.6480
  903MPD2    H213285   1.551   0.367  13.010 -0.5165  2.2041 -0.9454
  903MPD2    H313286   1.413   0.510  12.883  3.4184  1.1740 -1.1365
  903MPD2     N13287   1.261   0.157  12.640  0.0533  0.1109 -0.0765
  903MPD2    H513288   1.261   0.055  12.640 -0.5102  0.1103 -1.1532
  903MPD2    N113289   1.612   0.119  12.960 -0.3865 -0.5560  1.1216
  903MPD2    H713290   1.673   0.172  13.022 -3.2346  1.8826  1.8604
  904MPD2     C13291   1.174   3.758  14.058  0.2191 -0.2394 -0.7391
  904MPD2    C113292   1.133   3.653  14.143  0.2336  0.8965  0.2388
  904MPD2    C213293   1.218   3.612  14.242 -0.1601 -0.2606  0.5868
  904MPD2    C313294   1.341   3.672  14.268 -0.2629  0.1426 -0.0653
  904MPD2    C413295   1.376   3.781  14.188  0.1109  0.2742  0.2765
  904MPD2    C513296   1.294   3.820  14.092 -0.1998  0.2904  0.3037
  904MPD2     H13297   1.187   3.529  14.305  0.0277 -1.9829 -1.5831
  904MPD2    H113298   1.468   3.838  14.201 -0.4695  1.5064 -1.0503
  904MPD2    H213299   1.111   3.797  13.980  1.3132 -0.9813 -1.9993
  904MPD2    H313300   1.327   3.907  14.035  0.0737 -0.3684 -0.5350
  904MPD2     N13301   1.439   3.606  14.352  0.3041  0.5322  0.1497
  904MPD2    H513302   1.415   3.512  14.381  1.5549  0.7490  1.9503
  904MPD2    N113303   1.007   3.591  14.117  0.1117  0.0619  0.1399
  904MPD2    H713304   0.961   3.622  14.032 -0.8493  0.0408  0.6508
  905MPD2     C13305   0.902   3.418  13.567 -0.1582  0.5467  0.5785
  905MPD2    C113306   0.928   3.514  13.661 -0.0160  0.1426  0.1202
  905MPD2    C213307   1.059   3.548  13.678 -0.0203  1.2886 -0.1634
  905MPD2    C313308   1.157   3.490  13.599 -0.6579 -0.2610 -0.2356
  905MPD2    C413309   1.127   3.395  13.504 -0.3979  0.6706  0.0028
  905MPD2    C513310   1.001   3.357  13.491 -0.1696  1.1938  0.2111
  905MPD2     H13311   1.095   3.614  13.756  0.6966  2.0037 -1.0976
  905MPD2    H113312   1.206   3.357  13.440 -0.6272  1.5520 -0.8030
  905MPD2    H213313   0.802   3.383  13.546  0.2479 -0.1330 -0.2513
  905MPD2    H313314   0.968   3.280  13.422 -1.6792  1.1229  0.9978
  905MPD2     N13315   1.291   3.495  13.634  0.4768  0.2731  0.7595
  905MPD2    H513316   1.353   3.430  13.585  1.1066  1.5734 -0.1541
  905MPD2    N113317   0.812   3.565  13.731 -0.6066  0.2584 -0.0758
  905MPD2    H713318   0.725   3.515  13.715 -1.5312  1.3574  1.5301
  906MPD2     C13319   3.479   4.243  11.344  0.1858  0.3629  0.5790
  906MPD2    C113320   3.464   4.142  11.248 -0.1579 -0.0098 -0.2091
  906MPD2    C213321   3.465   4.008  11.290 -0.1220  0.5208  0.1201
  906MPD2    C313322   3.492   3.971  11.421  0.1269  0.0781  0.1066
  906MPD2    C413323   3.508   4.076  11.509  0.4558 -0.7529  0.0875
  906MPD2    C513324   3.505   4.208  11.470 -0.0149 -0.6450  0.6592
  906MPD2     H13325   3.423   3.929  11.228 -1.1018  0.0362  1.4030
  906MPD2    H113326   3.523   4.060  11.615 -0.6166 -1.8939  0.0574
  906MPD2    H213327   3.465   4.348  11.324  1.8215  0.7300  1.3259
  906MPD2    H313328   3.516   4.289  11.542 -1.0246 -0.0240  0.1142
  906MPD2     N13329   3.480   3.834  11.466 -0.0625  0.0494 -0.4919
  906MPD2    H513330   3.468   3.821  11.566 -0.9350 -1.0602 -0.7397
  906MPD2    N113331   3.426   4.160  11.113  0.2123  0.6679  0.0844
  906MPD2    H713332   3.412   4.076  11.057  1.2182  1.0690 -0.7562
  907MPD2     C13333   1.848   2.675  15.360 -0.0348 -0.7457 -0.0396
  907MPD2    C113334   1.886   2.551  15.310  0.3767  1.4622 -0.8500
  907MPD2    C213335   1.986   2.482  15.365  0.4312 -0.5479  0.5081
  907MPD2    C313336   2.048   2.522  15.480 -0.3512 -0.5024 -0.4507
  907MPD2    C413337   2.010   2.645  15.534  0.3127 -0.5427  0.1581
  907MPD2    C513338   1.909   2.721  15.478  0.2122 -0.1026  0.5099
  907MPD2     H13339   2.003   2.377  15.344  1.0512 -0.1783 -0.8131
  907MPD2    H113340   2.059   2.692  15.619 -1.1663  0.6748  0.3316
  907MPD2    H213341   1.772   2.739  15.315  2.5690  2.4635  0.1680
  907MPD2    H313342   1.887   2.822  15.513  1.2268  0.2707  0.0944
  907MPD2     N13343   2.154   2.440  15.527 -0.2628 -0.8696  0.0644
  907MPD2    H513344   2.190   2.368  15.465  4.9092  1.1336  0.7621
  907MPD2    N113345   1.835   2.490  15.198 -0.3647 -0.2449  0.1421
  907MPD2    H713346   1.867   2.395  15.179 -0.5772 -0.1685 -0.5887
  908MPD2     C13347   4.256   4.538  10.075 -0.2164  0.7383  0.2353
  908MPD2    C113348   4.306   4.409  10.089  0.0092 -0.0449  0.7870
  908MPD2    C213349   4.436   4.397  10.135 -0.0071 -0.3042 -0.0274
  908MPD2    C313350   4.509   4.507  10.176 -0.0008 -0.4796  0.3034
  908MPD2    C413351   4.451   4.640  10.169  0.1904  0.1760  0.3509
  908MPD2    C513352   4.320   4.645  10.129 -0.5741  0.2018  0.1218
  908MPD2     H13353   4.486   4.301  10.141 -0.0236 -0.3351 -0.4104
  908MPD2    H113354   4.504   4.733  10.183 -1.2496  1.4366 -2.5624
  908MPD2    H213355   4.155   4.548  10.038 -0.4072 -2.3118 -0.0903
  908MPD2    H313356   4.273   0.003  10.122 -1.7833 -0.5204 -1.6070
  908MPD2     N13357   4.642   4.489  10.218 -0.6801 -0.4682 -0.0373
  908MPD2    H513358   4.678   4.395  10.207 -0.0280 -0.0677 -1.3257
  908MPD2    N113359   4.221   4.305  10.066 -0.2726 -0.4988 -0.4052
  908MPD2    H713360   4.129   4.329  10.032 -1.0630 -1.4008  1.0642
  909MPD2     C13361   0.285   1.614  11.881  0.1304  0.1812 -0.0339
  909MPD2    C113362   0.299   1.745  11.885  0.0672 -0.7574 -0.3222
  909MPD2    C213363   0.217   1.821  11.965  0.2879 -0.0529 -0.9749
  909MPD2    C313364   0.121   1.766  12.041  0.1756  0.4213 -0.1360
  909MPD2    C413365   0.104   1.634  12.032  0.3927  0.2797  0.2015
  909MPD2    C513366   0.178   1.563  11.947 -0.0579  0.4282  0.0450
  909MPD2     H13367   0.230   1.929  11.961 -2.4639  0.2253 -2.3293
  909MPD2    H113368   0.025   1.580  12.084  1.8873 -1.6807  0.4209
  909MPD2    H213369   0.356   1.544  11.837 -0.2318 -1.7029  2.3689
  909MPD2    H313370   0.156   1.458  11.955  1.5705  0.0752 -0.1655
  909MPD2     N13371   0.034   1.860  12.098  0.7668  0.2095  0.0905
  909MPD2    H513372   0.052   1.957  12.073 -2.1873  0.4172 -1.1826
  909MPD2    N113373   0.397   1.814  11.814 -0.1195  0.2818 -0.0293
  909MPD2    H713374   0.410   1.909  11.845  0.0711  0.1441  0.3093
  910MPD2     C13375   1.561   3.362  16.069  0.6456 -0.0300  0.6711
  910MPD2    C113376   1.491   3.247  16.063 -0.5847  0.3547  0.4394
  910MPD2    C213377   1.405   3.224  15.953  0.3451  0.5857  0.3224
  910MPD2    C313378   1.397   3.324  15.856  0.0229  1.3482  0.2406
  910MPD2    C413379   1.465   3.446  15.867  0.1296  0.3771  0.0662
  910MPD2    C513380   1.545   3.462  15.975 -0.7044  0.4072 -0.2538
  910MPD2     H13381   1.352   3.130  15.956  2.1364 -0.4053  1.0815
  910MPD2    H113382   1.469   3.522  15.790  1.0291  2.5172  2.2181
  910MPD2    H213383   1.622   3.382  16.157 -0.1980  0.9115  1.0484
  910MPD2    H313384   1.612   3.547  15.986 -0.1071 -0.2931  1.4606
  910MPD2     N13385   1.310   3.317  15.744  0.3376  0.0027  0.4550
  910MPD2    H513386   1.315   3.398  15.683  0.2627 -1.1329 -1.0595
  910MPD2    N113387   1.496   3.148  16.169  0.2248 -0.3014 -0.5395
  910MPD2    H713388   1.449   3.060  16.148 -2.3593  0.4410  2.1970
  911MPD2     C13389   3.888   3.591  16.492  0.2214  0.4105  0.7253
  911MPD2    C113390   3.978   3.681  16.549  0.0556  0.5636 -0.0946
  911MPD2    C213391   3.964   3.818  16.528 -0.5447  0.0039  0.0129
  911MPD2    C313392   3.861   3.859  16.451  0.0294 -0.6773 -0.3602
  911MPD2    C413393   3.762   3.769  16.398  0.0640 -0.5738 -0.0126
  911MPD2    C513394   3.779   3.632  16.413  0.0743 -0.4739  0.2715
  911MPD2     H13395   4.036   3.890  16.563 -1.1680  1.2278 -1.2064
  911MPD2    H113396   3.683   3.798  16.331 -0.3029 -0.3849  0.5062
  911MPD2    H213397   3.895   3.485  16.515 -2.7410 -0.0740 -0.7061
  911MPD2    H313398   3.718   3.551  16.375 -0.8568 -0.1362  1.0291
  911MPD2     N13399   3.845   3.987  16.404  0.2247 -0.6886  0.1499
  911MPD2    H513400   3.757   4.003  16.357 -0.6498 -1.9288  1.3539
  911MPD2    N113401   4.087   3.620  16.614  0.2805  0.2006  0.1696
  911MPD2    H713402   4.088   3.518  16.617  1.8201  0.3407  4.3670
  912MPD2     C13403   3.444   3.983  15.870  0.2043  0.2847  0.7049
  912MPD2    C113404   3.508   3.973  15.992 -0.4825  0.4022 -0.2552
  912MPD2    C213405   3.499   3.857  16.062 -0.5796  0.6668  0.4796
  912MPD2    C313406   3.457   3.745  16.001 -0.3322  0.7851  0.3827
  912MPD2    C413407   3.401   3.750  15.881  0.1596 -0.4557  0.0205
  912MPD2    C513408   3.385   3.870  15.812 -0.2248  1.5707  0.4129
  912MPD2     H13409   3.552   3.850  16.156  1.6193 -0.5937 -0.8413
  912MPD2    H113410   3.358   3.662  15.836 -0.6851 -0.0757  0.0849
  912MPD2    H213411   3.458   4.071  15.809  0.0248 -0.1720  0.0087
  912MPD2    H313412   3.338   3.867  15.714 -1.0612  2.1102  0.8063
  912MPD2     N13413   3.478   3.627  16.076  0.5908  0.3740  0.3491
  912MPD2    H513414   3.522   3.626  16.167  0.7760  0.2464  0.2588
  912MPD2    N113415   3.569   4.091  16.035  0.4064 -0.1560 -0.1543
  912MPD2    H713416   3.573   4.173  15.977  1.3270  0.4786  0.7986
  913MPD2     C13417   0.310   0.646  10.806 -0.1331 -0.2085  0.1091
  913MPD2    C113418   0.200   0.682  10.877  0.4734 -0.2056 -0.0786
  913MPD2    C213419   0.103   0.762  10.814 -0.0620  0.4668 -0.1051
  913MPD2    C313420   0.131   0.809  10.684  0.2363  0.0015 -0.4558
  913MPD2    C413421   0.244   0.778  10.622 -0.4903 -0.3254  0.1493
  913MPD2    C513422   0.338   0.696  10.683 -0.4390 -0.0506  0.6308
  913MPD2     H13423   0.007   0.777  10.861  1.3800  0.7806  2.7908
  913MPD2    H113424   0.265   0.814  10.522 -0.8276 -0.7533 -0.0814
  913MPD2    H213425   0.385   0.578  10.846 -0.9702 -1.6688 -0.7943
  913MPD2    H313426   0.435   0.679  10.637  0.9274  0.9502  3.1131
  913MPD2     N13427   0.055   0.902  10.619 -0.0759 -0.5224 -0.5371
  913MPD2    H513428   0.083   0.927  10.524  0.7158 -0.6767 -0.3421
  913MPD2    N113429   0.185   0.633  11.010 -0.6738  0.3496 -0.6735
  913MPD2    H713430   0.244   0.554  11.034 -0.1890  1.1275  0.7374
  914MPD2     C13431   2.041   0.933  12.309 -0.6584  0.8870 -0.1748
  914MPD2    C113432   2.097   0.928  12.434 -0.0095 -0.8733  0.1500
  914MPD2    C213433   2.113   0.798  12.488  0.0926 -0.4447  0.6907
  914MPD2    C313434   2.100   0.687  12.412  0.1558  0.1039 -0.4039
  914MPD2    C413435   2.060   0.699  12.279  0.5430 -0.3891  0.2075
  914MPD2    C513436   2.012   0.820  12.232 -0.2668 -0.6750 -0.3460
  914MPD2     H13437   2.138   0.794  12.594  0.3154  0.9429  0.6947
  914MPD2    H113438   2.049   0.607  12.222  0.7801 -1.6409  2.1675
  914MPD2    H213439   2.023   1.028  12.261 -1.1927  0.1409 -1.4576
  914MPD2    H313440   1.978   0.835  12.130 -2.0731 -0.4839  0.2872
  914MPD2     N13441   2.147   0.571  12.483 -0.8137  0.5748 -0.4642
  914MPD2    H513442   2.174   0.593  12.578 -2.1117  0.7654 -0.1433
  914MPD2    N113443   2.113   1.044  12.513  1.1155 -0.7335 -0.5496
  914MPD2    H713444   2.084   1.129  12.466  0.1550 -0.9937 -0.4161
  915MPD2     C13445   0.638   0.631  15.240  0.0499 -0.6457  0.5401
  915MPD2    C113446   0.501   0.615  15.236  0.1002 -0.0572 -0.7376
  915MPD2    C213447   0.427   0.614  15.353 -0.4691 -0.1275  0.6962
  915MPD2    C313448   0.490   0.634  15.474  0.0993  0.7506 -0.2806
  915MPD2    C413449   0.619   0.674  15.472  0.4943  0.8283  0.1237
  915MPD2    C513450   0.690   0.671  15.359  0.1186 -0.3674  0.6534
  915MPD2     H13451   0.319   0.608  15.355 -0.4957  0.5123  1.0016
  915MPD2    H113452   0.683   0.706  15.554 -0.2428  1.8765  0.2888
  915MPD2    H213453   0.689   0.639  15.144 -0.1460  0.4667  0.5278
  915MPD2    H313454   0.794   0.703  15.361 -0.1145  0.2964  2.0603
  915MPD2     N13455   0.414   0.619  15.591  0.2643 -0.2757  0.3809
  915MPD2    H513456   0.313   0.612  15.586  0.1975 -0.3644  1.8194
  915MPD2    N113457   0.448   0.621  15.105  0.0710  0.2977 -0.6846
  915MPD2    H713458   0.510   0.622  15.025  0.6259  1.1346 -0.2473
  916MPD2     C13459   3.317   3.270  15.671  0.3361  0.3354  0.1130
  916MPD2    C113460   3.355   3.173  15.754  0.4619  0.5020 -0.6119
  916MPD2    C213461   3.465   3.090  15.726 -0.5889  0.1445  0.1487
  916MPD2    C313462   3.535   3.105  15.614 -0.2965  0.1926 -0.0288
  916MPD2    C413463   3.486   3.203  15.518  0.3410 -0.2172  0.8321
  916MPD2    C513464   3.384   3.290  15.553  1.0566 -0.3137 -0.1029
  916MPD2     H13465   3.496   3.024  15.806  2.2772 -0.4352 -1.4657
  916MPD2    H113466   3.536   3.217  15.423  0.2850  0.2410  0.8687
  916MPD2    H213467   3.236   3.341  15.689 -0.2683 -0.8274  2.0374
  916MPD2    H313468   3.354   3.374  15.493  1.0451  1.6412  2.6203
  916MPD2     N13469   3.641   3.017  15.590  0.3161  0.4362 -0.1087
  916MPD2    H513470   3.668   2.955  15.666  1.1367 -0.6091 -1.2335
  916MPD2    N113471   3.275   3.151  15.869  0.2674  0.2511 -0.1048
  916MPD2    H713472   3.210   3.224  15.896 -0.4161 -0.4079  0.0335
  917MPD2     C13473   4.069   0.937  12.063 -0.2892  0.5278 -0.5850
  917MPD2    C113474   3.976   0.984  11.974 -0.3155  0.4032  1.0232
  917MPD2    C213475   4.011   1.074  11.874 -0.1047  0.0739  0.1024
  917MPD2    C313476   4.149   1.114  11.859  0.3082  0.3089  0.5695
  917MPD2    C413477   4.241   1.050  11.934  0.5650  0.0377 -0.3010
  917MPD2    C513478   4.198   0.966  12.034 -0.2717 -0.7373 -1.1683
  917MPD2     H13479   3.927   1.117  11.821  0.9407 -0.7538 -2.1912
  917MPD2    H113480   4.346   1.072  11.926  0.0346  2.6806 -0.0777
  917MPD2    H213481   4.045   0.871  12.146  1.2540  0.2688 -0.3577
  917MPD2    H313482   4.279   0.925  12.094  0.8175  1.1963 -1.3388
  917MPD2     N13483   4.177   1.219  11.776 -0.2510 -0.3299  0.0858
  917MPD2    H513484   4.095   1.255  11.729 -0.8624 -1.5736  0.1864
  917MPD2    N113485   3.845   0.952  12.002  0.7977 -0.4706  0.0729
  917MPD2    H713486   3.822   0.902  12.087 -0.9669  1.4073  0.6935
  918MPD2     C13487   3.535   1.695  12.370  1.0066  0.8793 -0.5309
  918MPD2    C113488   3.656   1.622  12.374  0.2436 -0.1318  0.2660
  918MPD2    C213489   3.660   1.486  12.354 -0.1417  0.0713  0.4924
  918MPD2    C313490   3.540   1.426  12.311 -0.5959  0.4080  0.0556
  918MPD2    C413491   3.422   1.494  12.318  0.8793  0.2441 -0.0056
  918MPD2    C513492   3.421   1.626  12.337 -1.0017  0.4583 -0.1654
  918MPD2     H13493   3.750   1.428  12.366 -0.1898 -0.8076 -3.5995
  918MPD2    H113494   3.328   1.454  12.280  1.4026 -0.2492 -0.7794
  918MPD2    H213495   3.538   1.799  12.400  1.8805  0.9701 -0.9404
  918MPD2    H313496   3.334   1.690  12.325  0.9472  3.0459 -0.5558
  918MPD2     N13497   3.554   1.292  12.266  0.1863 -0.1287  0.1553
  918MPD2    H513498   3.634   1.233  12.289 -0.0093 -0.6919 -0.5815
  918MPD2    N113499   3.780   1.678  12.408 -0.2513 -0.2358  1.1422
  918MPD2    H713500   3.866   1.624  12.417 -0.4314 -0.4588  1.5230
  919MPD2     C13501   4.196   0.677  11.760 -0.1728  0.0688 -0.1323
  919MPD2    C113502   4.232   0.556  11.699 -0.1622 -0.4798  0.9470
  919MPD2    C213503   4.285   0.561  11.568  0.5594  0.2240 -0.0927
  919MPD2    C313504   4.292   0.681  11.501  0.3851 -0.0872 -0.2008
  919MPD2    C413505   4.265   0.797  11.562 -0.1833 -0.0948 -0.2347
  919MPD2    C513506   4.218   0.797  11.690  0.0133 -0.3606 -0.0465
  919MPD2     H13507   4.302   0.472  11.508 -0.2420 -0.7615  1.1472
  919MPD2    H113508   4.261   0.893  11.513  0.5336  0.3293  0.5390
  919MPD2    H213509   4.145   0.678  11.855  1.8854  2.9781  0.9611
  919MPD2    H313510   4.183   0.893  11.727 -3.4324 -1.3353 -0.7453
  919MPD2     N13511   4.330   0.688  11.367  0.4743 -0.4916 -0.5677
  919MPD2    H513512   4.315   0.777  11.320  2.2470 -1.0242 -2.1619
  919MPD2    N113513   4.210   0.423  11.745 -0.3129 -0.0279 -0.5189
  919MPD2    H713514   4.254   0.347  11.693 -0.2312  0.0512 -0.5653
  920MPD2     C13515   4.076   1.134  10.542 -0.8348 -0.1404  0.2913
  920MPD2    C113516   4.097   1.007  10.496  0.3043 -0.4742  0.0792
  920MPD2    C213517   4.142   0.912  10.583  0.1158 -0.0939 -0.3638
  920MPD2    C313518   4.203   0.953  10.702  0.9631 -0.3474 -0.2841
  920MPD2    C413519   4.198   1.088  10.742 -0.4008 -0.1747 -0.9539
  920MPD2    C513520   4.127   1.171  10.661 -0.1531 -0.2434  0.0503
  920MPD2     H13521   4.143   0.806  10.559 -3.3295 -0.4110  0.9274
  920MPD2    H113522   4.249   1.127  10.830 -0.2986  0.7472 -1.4232
  920MPD2    H213523   4.039   1.216  10.480 -0.2516 -0.3897 -0.3863
  920MPD2    H313524   4.111   1.271  10.699  2.2408 -0.1908  0.8992
  920MPD2     N13525   4.262   0.851  10.782  0.7426  0.4640 -0.0696
  920MPD2    H513526   4.275   0.759  10.741 -1.4783  0.0302  0.2319
  920MPD2    N113527   4.038   0.955  10.377 -0.2063 -0.3561  0.0672
  920MPD2    H713528   4.010   0.857  10.373 -1.4635  0.0502 -0.8090
  921MPD2     C13529   4.722   4.124  16.549 -0.0790  0.4287 -0.7695
  921MPD2    C113530   0.063   4.016  16.575  0.1216  0.1808 -0.0820
  921MPD2    C213531   0.014   3.913  16.654  0.1797 -0.0633  0.3266
  921MPD2    C313532   4.624   3.920  16.699  0.7097 -0.3283  0.0280
  921MPD2    C413533   4.553   4.030  16.688 -0.2667 -0.3666  0.5915
  921MPD2    C513534   4.606   4.130  16.615 -0.2097  0.2143 -0.3400
  921MPD2     H13535   0.066   3.818  16.657 -0.6317 -0.5847 -1.7948
  921MPD2    H113536   4.461   4.034  16.745  1.2789  0.3430  3.0298
  921MPD2    H213537   0.019   4.216  16.505  1.0536 -0.7919 -2.4125
  921MPD2    H313538   4.553   4.224  16.612  1.0708  0.9117 -0.9986
  921MPD2     N13539   4.561   3.803  16.757 -0.0580 -0.3429  0.0788
  921MPD2    H513540   4.468   3.820  16.792  0.4447 -0.2274  1.3603
  921MPD2    N113541   0.195   4.019  16.525  0.3619  0.6238 -0.9260
  921MPD2    H713542   0.210   4.092  16.456 -1.6496  1.5176 -0.4235
  922MPD2     C13543   0.935   1.758  17.314 -0.3384 -0.7985 -0.5415
  922MPD2    C113544   0.802   1.779  17.344 -0.3494 -0.3827  0.1439
  922MPD2    C213545   0.707   1.717  17.262 -0.4305  0.2149 -0.4492
  922MPD2    C313546   0.743   1.632  17.155 -0.0755 -0.4487  0.4984
  922MPD2    C413547   0.874   1.604  17.131  0.0916  0.5504  1.0530
  922MPD2    C513548   0.965   1.669  17.209  0.2448 -0.6114 -0.0019
  922MPD2     H13549   0.604   1.742  17.282 -0.4881 -0.6598  0.3650
  922MPD2    H113550   0.905   1.526  17.063  2.5928  2.1269  0.3780
  922MPD2    H213551   1.019   1.780  17.379 -1.7634  2.6196  0.1199
  922MPD2    H313552   1.068   1.637  17.195 -0.0148 -1.5130  0.1712
  922MPD2     N13553   0.634   1.556  17.105 -0.3971 -0.1928  0.7087
  922MPD2    H513554   0.545   1.563  17.153 -1.0843  0.7100 -0.6956
  922MPD2    N113555   0.752   1.867  17.450  0.2243 -0.2718  0.0714
  922MPD2    H713556   0.652   1.874  17.467  0.3025 -2.4791  1.4218
  923MPD2     C13557   1.945   4.015   8.626  0.6625 -0.2305  0.5371
  923MPD2    C113558   1.933   4.062   8.756 -0.2808 -0.7430  0.8480
  923MPD2    C213559   2.038   4.053   8.848 -0.1000  0.0379  0.2918
  923MPD2    C313560   2.152   3.984   8.817 -0.7105  0.2067 -0.1428
  923MPD2    C413561   2.166   3.936   8.687 -0.0502  0.2486 -0.2806
  923MPD2    C513562   2.060   3.945   8.598 -0.3749 -0.6336  0.0352
  923MPD2     H13563   2.022   4.094   8.947  1.5561  0.1830  0.4988
  923MPD2    H113564   2.256   3.885   8.655  0.0134 -0.2672  0.7249
  923MPD2    H213565   1.877   4.026   8.542 -1.4466  1.4331  2.4503
  923MPD2    H313566   2.056   3.906   8.497 -1.2971 -1.1194  0.2554
  923MPD2     N13567   2.254   3.970   8.905 -0.7981 -0.3452  0.8003
  923MPD2    H513568   2.344   3.942   8.867 -1.6598  0.0507 -1.5241
  923MPD2    N113569   1.808   4.127   8.783 -1.0259  0.3969 -0.0435
  923MPD2    H713570   1.730   4.102   8.723 -0.7393 -1.7579  0.4864
  924MPD2     C13571   2.122   1.892  15.477  0.1381 -0.4794 -0.2316
  924MPD2    C113572   2.207   1.915  15.585  0.6210  0.6830  0.6786
  924MPD2    C213573   2.330   1.974  15.559  0.0053  0.9360 -0.0201
  924MPD2    C313574   2.366   2.006  15.430 -0.7182 -0.3320  0.4505
  924MPD2    C413575   2.288   1.967  15.324 -0.3342 -0.3190 -0.0826
  924MPD2    C513576   2.165   1.917  15.352 -0.5574  0.2386  0.1620
  924MPD2     H13577   2.389   2.001  15.646 -0.8558  0.9035  0.5790
  924MPD2    H113578   2.308   1.986  15.219  1.1075 -1.4036 -0.0063
  924MPD2    H213579   2.031   1.837  15.498 -1.7536  1.3314 -3.6579
  924MPD2    H313580   2.105   1.876  15.271 -1.0842 -0.6789  1.0146
  924MPD2     N13581   2.487   2.079  15.405  0.0750 -0.6863  0.1870
  924MPD2    H513582   2.514   2.079  15.307  1.0928 -2.5690  0.4617
  924MPD2    N113583   2.169   1.879  15.714 -0.1513 -0.2460  0.5525
  924MPD2    H713584   2.072   1.848  15.724 -0.3935  0.6277  0.8791
  925MPD2     C13585   0.986   4.719  15.080 -0.5307  0.2923  0.5475
  925MPD2    C113586   0.868   0.013  15.012 -0.1157  0.7297 -0.2780
  925MPD2    C213587   0.767   0.083  15.070  0.2184  0.5278  0.3158
  925MPD2    C313588   0.783   0.118  15.204 -0.1713 -0.7739  0.2754
  925MPD2    C413589   0.902   0.089  15.273 -0.1248  0.4835  0.6121
  925MPD2    C513590   1.004   0.024  15.208  0.5336  0.3363 -0.4761
  925MPD2     H13591   0.684   0.114  15.008 -0.6116 -2.6364 -0.1986
  925MPD2    H113592   0.914   0.107  15.379 -3.8581  1.6851  0.8186
  925MPD2    H213593   1.067   4.669  15.029 -1.2466 -0.3070 -0.0080
  925MPD2    H313594   1.093   4.735  15.265 -0.0166 -1.8019 -0.6940
  925MPD2     N13595   0.674   0.178  15.269 -0.8154 -0.1716  0.4205
  925MPD2    H513596   0.671   0.167  15.370  2.5366  0.1349  0.5290
  925MPD2    N113597   0.852   4.711  14.878 -0.1131  0.3515  0.1500
  925MPD2    H713598   0.772   0.022  14.841 -0.4800 -0.4522 -0.1128
  926MPD2     C13599   0.288   2.816  13.445  0.3493 -0.7858 -0.2562
  926MPD2    C113600   0.197   2.889  13.375  0.3800 -0.4674  0.7193
  926MPD2    C213601   0.245   3.005  13.317  0.2734 -0.2471 -0.3306
  926MPD2    C313602   0.379   3.041  13.333 -0.3270 -0.2372 -0.6502
  926MPD2    C413603   0.462   2.967  13.413  0.0815  0.2258 -0.0951
  926MPD2    C513604   0.419   2.853  13.457 -0.0170 -0.8264 -0.6407
  926MPD2     H13605   0.178   3.067  13.260 -0.1422 -1.3067 -0.9971
  926MPD2    H113606   0.569   2.973  13.429  0.0537  0.8644 -0.1626
  926MPD2    H213607   0.270   2.713  13.475  0.4406 -0.4561  0.9316
  926MPD2    H313608   0.494   2.791  13.506 -2.3357 -2.2981  1.0276
  926MPD2     N13609   0.441   3.147  13.266  0.3984 -0.4809  0.4691
  926MPD2    H513610   0.540   3.158  13.289  0.7760  1.7124 -2.1722
  926MPD2    N113611   0.062   2.845  13.343  0.1098 -0.5357 -0.4512
  926MPD2    H713612   0.012   2.893  13.270  0.5826  0.4131 -0.1492
  927MPD2     C13613   4.526   4.667  17.402 -0.3445 -0.1145 -0.3794
  927MPD2    C113614   4.546   0.049  17.459  0.5780  0.5546 -0.3848
  927MPD2    C213615   4.613   0.151  17.385  0.2426  0.2803 -0.0984
  927MPD2    C313616   4.657   0.127  17.255 -0.8610 -0.2144  0.1405
  927MPD2    C413617   4.654   4.732  17.212  0.0025 -0.3169 -0.3873
  927MPD2    C513618   4.597   4.635  17.287 -0.4616  0.6455  0.1837
  927MPD2     H13619   4.616   0.251  17.427  0.2267 -0.7872  2.4689
  927MPD2    H113620   4.688   4.699  17.114  0.9221  0.6588 -0.3939
  927MPD2    H213621   4.488   4.585  17.463 -1.3515  0.2759 -0.4822
  927MPD2    H313622   4.588   4.532  17.253  1.0504  0.6150 -0.1217
  927MPD2     N13623   4.713   0.231  17.180 -0.5950  0.0402  0.3281
  927MPD2    H513624   4.723   0.317  17.234 -0.2328 -0.2010  0.6488
  927MPD2    N113625   4.498   0.085  17.589  0.2690  0.2375 -0.5204
  927MPD2    H713626   4.510   0.182  17.616 -1.1674  0.0788  0.7469
  928MPD2     C13627   2.440   3.430   0.897 -0.5787 -0.7548  0.5356
  928MPD2    C113628   2.357   3.442   0.789  0.2619  0.5561  0.0061
  928MPD2    C213629   2.410   3.442   0.659 -0.3199  0.5459 -0.5089
  928MPD2    C313630   2.553   3.427   0.643 -0.4421  0.3372  0.3007
  928MPD2    C413631   2.636   3.417   0.758  0.2873  0.6513 -0.3235
  928MPD2    C513632   2.573   3.413   0.877 -0.0012  0.5960  0.2216
  928MPD2     H13633   2.338   3.455   0.579  1.0429 -0.2587 -1.8699
  928MPD2    H113634   2.742   3.395   0.750  0.2103 -0.6195  2.2227
  928MPD2    H213635   2.412   3.431   1.002  0.1390 -0.7328  0.7293
  928MPD2    H313636   2.643   3.404   0.959  0.9664  0.1202 -0.6572
  928MPD2     N13637   2.620   3.421   0.519  0.5403  0.3018 -0.5910
  928MPD2    H513638   2.721   3.417   0.519  0.6384  2.9071 -2.7440
  928MPD2    N113639   2.221   3.478   0.819 -0.2029 -0.4394 -0.4235
  928MPD2    H713640   2.203   3.478   0.919 -0.5767 -1.6552 -0.4953
  929MPD2     C13641   2.308   3.418   9.399 -0.3278  0.2165 -0.2196
  929MPD2    C113642   2.318   3.528   9.480  0.5547 -0.0070  0.5701
  929MPD2    C213643   2.252   3.648   9.451  0.4541  0.1375  0.2134
  929MPD2    C313644   2.193   3.660   9.327  0.4481 -0.0152  0.5499
  929MPD2    C413645   2.186   3.548   9.248  0.0774  0.2398  0.0873
  929MPD2    C513646   2.234   3.433   9.287  0.5047 -0.1089 -0.2658
  929MPD2     H13647   2.274   3.743   9.499  1.3498 -0.4942  1.0500
  929MPD2    H113648   2.153   3.547   9.144 -2.1642  2.4709  0.7795
  929MPD2    H213649   2.348   3.322   9.433  0.4580  0.0102 -1.7204
  929MPD2    H313650   2.231   3.341   9.230  0.8326 -1.0886  1.2910
  929MPD2     N13651   2.130   3.778   9.276  0.5357  0.6218  0.0025
  929MPD2    H513652   2.092   3.781   9.182 -2.6096  0.3586  1.2777
  929MPD2    N113653   2.380   3.504   9.604  0.1136 -0.7051  0.1401
  929MPD2    H713654   2.400   3.405   9.619 -0.2840 -0.8441 -0.2591
  930MPD2     C13655   3.622   0.885  13.840  0.4240  0.0426  0.6291
  930MPD2    C113656   3.751   0.841  13.871 -0.3074 -0.0203 -0.1630
  930MPD2    C213657   3.838   0.830  13.760 -0.2389 -0.2250  0.0124
  930MPD2    C313658   3.797   0.877  13.635  0.2928 -0.8757 -0.8782
  930MPD2    C413659   3.673   0.921  13.615 -0.4538 -0.1998 -0.5480
  930MPD2    C513660   3.586   0.913  13.714 -0.8669  0.0687  0.3678
  930MPD2     H13661   3.936   0.788  13.780  1.0742  2.7545 -0.1635
  930MPD2    H113662   3.636   0.939  13.515 -0.5018 -0.7744 -0.6384
  930MPD2    H213663   3.556   0.903  13.924 -0.1784 -1.1325  0.3969
  930MPD2    H313664   3.488   0.957  13.704 -0.7390  0.5960  1.4368
  930MPD2     N13665   3.883   0.901  13.531  1.0353  0.4535 -0.0517
  930MPD2    H513666   3.843   0.946  13.449  2.0649  3.0828  0.8682
  930MPD2    N113667   3.789   0.816  14.007  0.5885 -0.8166 -0.6153
  930MPD2    H713668   3.726   0.846  14.080  0.0928 -1.7556 -0.6576
  931MPD2     C13669   0.184   4.737   0.304  0.9275  0.7752 -0.1450
  931MPD2    C113670   0.066   0.006   0.373  0.8421  0.2104 -0.5755
  931MPD2    C213671   0.052   4.683   0.496  0.0578  0.0184 -0.6907
  931MPD2    C313672   0.160   4.646   0.573  0.1489  0.1235 -0.2837
  931MPD2    C413673   0.279   4.652   0.508  0.2028 -0.1799 -1.0748
  931MPD2    C513674   0.287   4.680   0.374  0.0878  0.9816 -0.8147
  931MPD2     H13675   4.692   4.674   0.541 -0.0897  0.4182 -0.9339
  931MPD2    H113676   0.373   4.626   0.555 -1.8864 -1.6528  2.2727
  931MPD2    H213677   0.204   0.036   0.204  1.3063  1.9935  0.3825
  931MPD2    H313678   0.386   4.671   0.332  0.3820  0.9204 -0.1182
  931MPD2     N13679   0.152   4.568   0.692  0.1545  0.5748 -0.3697
  931MPD2    H513680   0.241   4.528   0.720 -0.8126 -0.4054  1.3215
  931MPD2    N113681   4.700   0.070   0.308  0.0553  0.2713  0.4685
  931MPD2    H713682   4.723   0.107   0.216 -1.7842  1.3918  0.4625
  932MPD2     C13683   1.599   4.265  11.471 -0.1298  0.2796 -0.0473
  932MPD2    C113684   1.614   4.367  11.562 -0.4802  0.4631 -0.2282
  932MPD2    C213685   1.664   4.332  11.687  0.7649 -0.1815  0.0942
  932MPD2    C313686   1.707   4.209  11.727  0.7636 -0.2207  0.0959
  932MPD2    C413687   1.702   4.107  11.626  0.0896 -0.4174 -0.0371
  932MPD2    C513688   1.644   4.137  11.501  0.2332  0.6134 -0.4772
  932MPD2     H13689   1.687   4.419  11.748  0.6730 -0.8920  1.1339
  932MPD2    H113690   1.743   4.007  11.638 -2.2177 -1.5389 -1.5919
  932MPD2    H213691   1.566   4.271  11.368  0.2884 -0.1525 -0.2079
  932MPD2    H313692   1.623   4.064  11.425 -2.7013 -0.8320  1.7214
  932MPD2     N13693   1.774   4.183  11.847  0.8503 -0.2905  1.1243
  932MPD2    H513694   1.814   4.090  11.856 -0.6077 -1.0671 -0.3813
  932MPD2    N113695   1.596   4.504  11.525 -0.4339  0.4173  0.3643
  932MPD2    H713696   1.603   4.565  11.606 -2.4452 -1.2425  1.7616
  933MPD2     C13697   1.804   3.608   0.341 -0.2226 -0.1715 -0.5676
  933MPD2    C113698   1.756   3.689   0.441  0.3842 -0.1555 -0.2276
  933MPD2    C213699   1.732   3.823   0.423  0.1494 -0.0229  0.4324
  933MPD2    C313700   1.756   3.872   0.293  0.1193 -0.1008 -0.1375
  933MPD2    C413701   1.800   3.788   0.191 -0.7040  0.2250  0.2720
  933MPD2    C513702   1.819   3.653   0.213  0.1401 -0.0548  0.0994
  933MPD2     H13703   1.705   3.893   0.501 -2.7591 -1.0562  0.3459
  933MPD2    H113704   1.810   3.808   0.085 -2.4714 -0.8403 -0.0962
  933MPD2    H213705   1.829   3.504   0.359 -1.5166 -0.1555  1.2971
  933MPD2    H313706   1.849   3.587   0.133  2.7803  0.3611  0.7110
  933MPD2     N13707   1.739   4.008   0.265  0.1431 -0.5116  0.0963
  933MPD2    H513708   1.733   4.072   0.344  0.0014  0.3415 -0.5991
  933MPD2    N113709   1.741   3.624   0.566  0.1487 -0.1297 -0.0836
  933MPD2    H713710   1.784   3.533   0.573 -1.1273 -0.5460  2.3385
  934MPD2     C13711   3.726   1.734   1.384  0.6741 -0.2359  0.0666
  934MPD2    C113712   3.791   1.676   1.276  0.3574 -0.2714  0.5368
  934MPD2    C213713   3.713   1.628   1.174 -0.0092  0.2542  0.6343
  934MPD2    C313714   3.571   1.624   1.180 -0.0700  0.1293 -0.2102
  934MPD2    C413715   3.509   1.678   1.288 -0.1293  0.2970 -0.3243
  934MPD2    C513716   3.587   1.736   1.387 -0.4236 -0.3142  0.5582
  934MPD2     H13717   3.763   1.583   1.089 -3.1012  0.1519 -1.1253
  934MPD2    H113718   3.402   1.684   1.307  0.1235  2.6141  0.3468
  934MPD2    H213719   3.773   1.774   1.473  1.5110 -1.6657  0.2645
  934MPD2    H313720   3.542   1.771   1.479 -0.2458  0.7203  0.2498
  934MPD2     N13721   3.494   1.564   1.075  0.1616 -0.6419  0.0475
  934MPD2    H513722   3.395   1.584   1.078  0.4322  0.3920  2.5360
  934MPD2    N113723   3.927   1.677   1.253  0.0241 -0.6633  0.2743
  934MPD2    H713724   3.958   1.623   1.173 -0.5535 -1.1477  0.3804
  935MPD2     C13725   3.670   0.976   0.219  0.1342  0.4577 -0.4038
  935MPD2    C113726   3.553   0.934   0.290 -0.6009  0.1155  0.0102
  935MPD2    C213727   3.509   1.021   0.386 -0.5058  0.4643 -0.0688
  935MPD2    C313728   3.571   1.141   0.416 -0.2866 -0.0985  0.5193
  935MPD2    C413729   3.691   1.168   0.351 -0.3843 -0.2418 -0.3881
  935MPD2    C513730   3.739   1.086   0.253  0.5879  0.2627  0.0936
  935MPD2     H13731   3.416   0.997   0.436  0.0036 -0.0090  0.6502
  935MPD2    H113732   3.752   1.253   0.380 -1.5150  0.2864  0.4409
  935MPD2    H213733   3.719   0.916   0.144  0.4060 -0.5343  0.5618
  935MPD2    H313734   3.834   1.101   0.203  0.7145 -0.4678  0.1182
  935MPD2     N13735   3.532   1.226   0.520  0.3269  1.2196  0.3892
  935MPD2    H513736   3.601   1.297   0.541  1.0592  0.8491 -0.8097
  935MPD2    N113737   3.492   0.808   0.286  0.0057  0.1639 -0.0119
  935MPD2    H713738   3.408   0.789   0.339 -0.0360  1.3561  0.3568
  936MPD2     C13739   1.968   2.775  12.615 -0.1920  0.0507  0.5191
  936MPD2    C113740   1.999   2.787  12.749  0.2894  0.2955  0.8653
  936MPD2    C213741   2.123   2.833  12.787 -0.1255  0.6652 -0.2667
  936MPD2    C313742   2.224   2.868  12.702  0.3224 -0.1878  0.0831
  936MPD2    C413743   2.191   2.853  12.568 -0.6424  0.2334  0.1107
  936MPD2    C513744   2.067   2.813  12.525  0.3826 -0.0626  0.3900
  936MPD2     H13745   2.142   2.861  12.890  1.9273  1.7476 -0.9418
  936MPD2    H113746   2.272   2.872  12.499 -0.3162  1.3254  0.7935
  936MPD2    H213747   1.871   2.741  12.579 -0.1413  1.0387 -0.5519
  936MPD2    H313748   2.042   2.818  12.420 -1.1555  0.4168  0.7865
  936MPD2     N13749   2.346   2.904  12.753 -0.4413 -0.7543  0.0045
  936MPD2    H513750   2.350   2.915  12.854  4.3080 -0.6010 -0.2061
  936MPD2    N113751   1.928   2.734  12.851 -0.3181 -0.7781 -0.0284
  936MPD2    H713752   1.976   2.732  12.941 -0.5507  0.4770  0.1185
  937MPD2     C13753   4.581   4.523  11.742 -0.0813  0.5083 -0.3421
  937MPD2    C113754   4.543   4.661  11.718  0.5582  0.0845 -0.5441
  937MPD2    C213755   4.650   0.003  11.676 -0.0113  0.3470 -0.4620
  937MPD2    C313756   0.040   4.691  11.643 -0.0758 -1.0619 -0.5457
  937MPD2    C413757   0.050   4.556  11.641 -0.1007  0.8373  1.0010
  937MPD2    C513758   4.706   4.477  11.695 -0.4188 -0.5297 -0.3101
  937MPD2     H13759   4.648   0.111  11.680  0.9983  0.2922  1.6490
  937MPD2    H113760   0.148   4.514  11.622 -0.4441  0.3139  0.4213
  937MPD2    H213761   4.516   4.451  11.789 -0.1108  1.5114  1.1383
  937MPD2    H313762   4.737   4.373  11.696  0.0343 -0.4104 -2.1231
  937MPD2     N13763   0.134   0.041  11.594  0.5938 -0.2837  0.2322
  937MPD2    H513764   0.116   0.139  11.608  0.3140 -0.2742 -0.2044
  937MPD2    N113765   4.439   4.725  11.781 -0.2812  0.1895  0.2709
  937MPD2    H713766   4.433   0.086  11.763  2.7177 -0.0950 -2.3122
  938MPD2     C13767   2.849   1.416   0.245 -0.4545  0.3786 -0.6342
  938MPD2    C113768   2.850   1.418   0.380 -0.0589  0.7817  0.6034
  938MPD2    C213769   2.859   1.301   0.448 -0.8735 -0.2486 -0.4331
  938MPD2    C313770   2.862   1.176   0.386  0.4557  0.6421  0.0959
  938MPD2    C413771   2.870   1.176   0.252  0.3517 -0.1907 -0.8703
  938MPD2    C513772   2.871   1.294   0.188 -0.1607 -0.1962 -0.1234
  938MPD2     H13773   2.847   1.308   0.556  0.3555  1.3475 -0.4013
  938MPD2    H113774   2.880   1.080   0.203  3.9885 -1.6625  2.7049
  938MPD2    H213775   2.848   1.501   0.177  1.6239  1.4520  0.6641
  938MPD2    H313776   2.895   1.293   0.082  0.5890  2.7085  0.0104
  938MPD2     N13777   2.842   1.050   0.448  0.3388  0.3425 -0.3683
  938MPD2    H513778   2.865   0.969   0.392  1.9693  0.8505 -0.4556
  938MPD2    N113779   2.849   1.539   0.456 -0.3918 -0.2266 -0.0788
  938MPD2    H713780   2.879   1.538   0.553  0.0200  1.6153 -0.1870
  939MPD2     C13781   4.014   2.363   0.949 -0.1709 -0.2135  0.5460
  939MPD2    C113782   3.889   2.382   0.995  0.5501  0.0942  0.6775
  939MPD2    C213783   3.779   2.328   0.923 -0.0430 -0.7317 -0.1592
  939MPD2    C313784   3.809   2.265   0.808 -0.0305  0.8783  0.3385
  939MPD2    C413785   3.936   2.246   0.761  0.0167  0.0955 -0.1418
  939MPD2    C513786   4.040   2.292   0.834  0.3259 -0.8256  0.1306
  939MPD2     H13787   3.676   2.335   0.954  0.2849 -1.6782  1.1531
  939MPD2    H113788   3.963   2.197   0.668  0.6718  2.3085 -1.1034
  939MPD2    H213789   4.099   2.410   0.998 -0.9616  0.7750  0.9571
  939MPD2    H313790   4.144   2.285   0.806  0.4221  0.6596  0.1330
  939MPD2     N13791   3.700   2.211   0.743 -0.6504 -0.6449 -0.6507
  939MPD2    H513792   3.609   2.245   0.774 -0.4085 -1.8515  1.4276
  939MPD2    N113793   3.876   2.443   1.119 -0.0814  0.2893 -0.4835
  939MPD2    H713794   3.963   2.455   1.169 -0.5387  1.0586  0.1219
  940MPD2     C13795   3.010   2.746  13.817  0.5442  0.0651  0.4916
  940MPD2    C113796   2.889   2.804  13.787  0.3080 -0.3077 -0.2052
  940MPD2    C213797   2.877   2.872  13.662 -0.4492  0.3314 -0.2313
  940MPD2    C313798   2.977   2.862  13.570  0.2941 -0.2565  0.6207
  940MPD2    C413799   3.094   2.806  13.607 -0.6539 -0.8246 -0.9393
  940MPD2    C513800   3.113   2.746  13.729 -0.3613  0.7880 -0.0412
  940MPD2     H13801   2.786   2.930  13.654 -0.2316  0.4647 -1.7582
  940MPD2    H113802   3.184   2.804  13.547  0.2865 -1.0552  0.4915
  940MPD2    H213803   3.017   2.694  13.912  0.6820 -0.6993  0.0681
  940MPD2    H313804   3.197   2.679  13.743  0.4993  1.4764 -1.9845
  940MPD2     N13805   2.957   2.908  13.434  0.8156 -0.4698 -0.6172
  940MPD2    H513806   3.035   2.911  13.370 -0.0195 -0.8618 -1.6636
  940MPD2    N113807   2.779   2.801  13.880  0.0630 -0.7124 -0.2023
  940MPD2    H713808   2.689   2.838  13.850  0.8985  1.0988 -0.5036
  941MPD2     C13809   1.499   1.940   9.658 -0.6168 -0.4024  0.2460
  941MPD2    C113810   1.488   1.953   9.797 -0.0312 -0.2118  0.3514
  941MPD2    C213811   1.435   1.841   9.866 -0.3770  0.3458  0.4727
  941MPD2    C313812   1.390   1.728   9.803  0.4731  0.2309  0.1027
  941MPD2    C413813   1.411   1.710   9.674 -0.0482  0.2837  0.0833
  941MPD2    C513814   1.462   1.822   9.604 -0.1550  0.0524 -0.1279
  941MPD2     H13815   1.436   1.856   9.973 -0.0652 -4.4166  1.1489
  941MPD2    H113816   1.381   1.623   9.616  0.2428 -0.4047  0.9734
  941MPD2    H213817   1.550   2.011   9.594  0.3895  2.0710  3.8037
  941MPD2    H313818   1.462   1.811   9.496  0.4704  0.4051 -0.1607
  941MPD2     N13819   1.325   1.624   9.874  0.1158  0.3284 -0.5461
  941MPD2    H513820   1.321   1.536   9.823  1.0991  0.9298 -1.6584
  941MPD2    N113821   1.531   2.073   9.865  0.0883 -0.1527  0.1321
  941MPD2    H713822   1.510   2.074   9.964 -1.1265  1.1048 -0.1510
  942MPD2     C13823   2.381   3.103   9.117 -0.0512  0.3663  0.1294
  942MPD2    C113824   2.440   3.201   9.040 -0.3371  0.4719 -0.2880
  942MPD2    C213825   2.578   3.220   9.058  0.3960 -0.3676  0.0703
  942MPD2    C313826   2.660   3.138   9.135  0.5592  0.0486  0.1734
  942MPD2    C413827   2.596   3.042   9.209  0.7874 -0.1075 -0.0317
  942MPD2    C513828   2.456   3.029   9.201  0.2626 -0.5197 -0.2822
  942MPD2     H13829   2.622   3.304   9.004  0.7275 -0.6548 -0.1056
  942MPD2    H113830   2.652   2.985   9.282 -0.4749 -1.1620  0.1185
  942MPD2    H213831   2.274   3.085   9.127  0.3096 -0.3673  2.4868
  942MPD2    H313832   2.414   2.958   9.270 -0.9410  2.0632  1.6273
  942MPD2     N13833   2.799   3.163   9.143 -0.0861  0.2191 -0.0150
  942MPD2    H513834   2.853   3.116   9.216 -3.5226 -1.4439  1.4660
  942MPD2    N113835   2.367   3.286   8.960  0.0163 -0.0220 -0.3058
  942MPD2    H713836   2.411   3.367   8.918 -0.0516  0.5030  0.6463
  943MPD2     C13837   0.777   1.999   9.473  0.1237  0.2916  0.7521
  943MPD2    C113838   0.750   1.965   9.603 -0.3448 -0.3112  0.3249
  943MPD2    C213839   0.767   2.065   9.695  0.1601  0.6861  0.1027
  943MPD2    C313840   0.811   2.189   9.657  0.6157 -0.0470 -0.0743
  943MPD2    C413841   0.842   2.221   9.527 -0.4419  0.1062 -0.0424
  943MPD2    C513842   0.824   2.121   9.434  0.3291 -0.4201  0.0831
  943MPD2     H13843   0.745   2.040   9.798 -1.5668 -0.9709 -0.6909
  943MPD2    H113844   0.888   2.315   9.500 -0.4021  0.3510  0.8884
  943MPD2    H213845   0.773   1.918   9.401 -1.1014  1.6726 -0.7297
  943MPD2    H313846   0.846   2.130   9.328  1.1866 -2.0184  0.1245
  943MPD2     N13847   0.829   2.291   9.753  0.0922 -0.4149 -0.2679
  943MPD2    H513848   0.879   2.372   9.718  0.7028  0.4372  2.5956
  943MPD2    N113849   0.691   1.836   9.617  0.1762 -0.5459 -0.3381
  943MPD2    H713850   0.683   1.784   9.530  1.3822 -2.4549  0.7049
  944MPD2     C13851   0.244   1.036  11.155  0.0737 -0.3748  0.6385
  944MPD2    C113852   0.317   1.157  11.157 -0.4671 -0.1314 -0.6360
  944MPD2    C213853   0.297   1.236  11.271 -0.4179  0.9770  0.5645
  944MPD2    C313854   0.191   1.223  11.360 -0.0297  0.1899 -0.5423
  944MPD2    C413855   0.115   1.112  11.351 -0.0609  0.4967 -0.0463
  944MPD2    C513856   0.145   1.019  11.251 -0.2773 -0.0859 -0.3973
  944MPD2     H13857   0.358   1.326  11.279  1.7054 -0.1992 -2.3020
  944MPD2    H113858   0.029   1.091  11.414  0.0536  1.4025  0.4079
  944MPD2    H213859   0.254   0.966  11.072 -0.0375 -0.2652  0.5327
  944MPD2    H313860   0.091   0.925  11.247 -1.4853  0.6039 -0.2363
  944MPD2     N13861   0.175   1.325  11.455 -0.3402 -0.0384  0.1463
  944MPD2    H513862   0.239   1.402  11.437  0.5862 -0.6038  1.0364
  944MPD2    N113863   0.418   1.183  11.059  0.0390  0.2592  0.8022
  944MPD2    H713864   0.411   1.125  10.977  0.3460  0.5813  0.5466
    1TMC1    C113865   2.765   2.067  14.411  0.4950  0.5858 -0.2512
    1TMC1    C213866   2.742   2.139  14.514 -0.6970 -0.0013 -1.0020
    1TMC1    C313867   2.645   2.107  14.591 -0.7531 -0.2256 -0.3763
    1TMC1    C413868   2.692   1.957  14.376  0.2968 -0.4708  0.0048
    1TMC1    C513869   2.583   1.934  14.449  0.7339 -0.6912  0.4375
    1TMC1    C613870   2.558   2.000  14.566 -0.2627  0.4417  0.3319
    1TMC1     C13871   2.887   2.110  14.333  0.3492 -0.3821 -0.3423
    1TMC1     O13872   2.954   2.020  14.278 -0.0161 -0.4842  0.4459
    1TMC1     H13873   2.814   2.213  14.548 -1.4763 -0.0443  0.7515
    1TMC1    H113874   2.730   1.883  14.306  1.5326 -1.2211  1.4653
    1TMC1    H213875   2.479   1.973  14.634 -0.5947  2.1364  0.6311
    1TMC1    C713876   2.490   1.823  14.418  0.0263 -0.8118  0.8501
    1TMC1    C813877   2.621   2.184  14.710 -1.4454 -0.3523  0.1721
    1TMC1    O113878   2.398   1.789  14.491 -0.2862 -0.1328 -0.4336
    1TMC1    O213879   2.649   2.302  14.714 -0.0201  0.0083  0.4076
    1TMC1    O313880   2.474   1.841  14.290 -0.6447 -0.6585 -0.6531
    1TMC1    H313881   2.559   1.854  14.242 -0.3630 -1.1189 -0.2837
    1TMC1    O513882   2.535   2.120  14.792 -0.3260 -0.1154 -0.2046
    1TMC1    H513883   2.559   2.026  14.805  1.2921  0.4611  0.9766
    2MPD2     C13884   3.229   2.460  14.162 -0.5782  0.0262  0.0504
    2MPD2    C113885   3.131   2.524  14.237  0.4177  0.0162 -0.0566
    2MPD2    C213886   3.026   2.456  14.289 -0.4663 -0.4115 -0.3308
    2MPD2    C313887   3.021   2.316  14.281 -0.1233  0.3785  0.0940
    2MPD2    C413888   3.123   2.251  14.227 -0.2223 -0.0438  0.6038
    2MPD2    C513889   3.223   2.322  14.168 -0.3159  0.4633 -0.2123
    2MPD2     H13890   2.935   2.503  14.325 -0.3155 -2.4834  2.7639
    2MPD2    H113891   3.123   2.146  14.199 -1.8154  0.7641 -2.4115
    2MPD2    H213892   3.309   2.521  14.121 -0.6972 -0.1765 -0.4715
    2MPD2    H313893   3.298   2.271  14.108 -0.2668  2.3760 -1.7905
    2MPD2     N13894   2.909   2.246  14.331  0.2334 -0.8015  0.3250
    2MPD2    H513895   2.839   2.297  14.383 -0.3087 -2.2330  0.9937
    2MPD2    N113896   3.126   2.667  14.231 -0.0702 -0.0101  0.3458
    2MPD2    H713897   3.197   2.719  14.180 -0.6720 -0.1747 -0.6561
    3TMC2    C113898   3.053   2.892  14.256  0.1583  0.2551 -0.1575
    3TMC2    C213899   2.933   2.958  14.252  0.7325  0.5868  0.3807
    3TMC2    C313900   2.929   3.072  14.174  0.3161 -0.0369 -0.4664
    3TMC2    C413901   3.171   2.928  14.185  0.0265  0.0002 -0.2337
    3TMC2    C513902   3.163   3.043  14.107 -0.7830  0.4410  0.0233
    3TMC2    C613903   3.043   3.117  14.110  0.1096 -0.2872  0.0970
    3TMC2     C13904   3.043   2.752  14.303  0.2565 -0.2431 -0.4624
    3TMC2     O13905   2.956   2.723  14.386 -0.3986  0.2557 -0.3061
    3TMC2     H13906   2.850   2.913  14.306  1.0267  2.0312  2.0516
    3TMC2    H113907   3.259   2.866  14.182  0.0445  0.1234 -2.1491
    3TMC2    H213908   3.027   3.203  14.047 -1.4533  0.1481  1.0784
    3TMC2    C713909   3.243   3.042  13.987  1.2655  0.0047 -0.5947
    3TMC2    C813910   2.792   3.123  14.151  0.1194  0.1949  0.1519
    3TMC2    O113911   3.313   2.945  13.962 -0.4566 -0.3659 -0.4167
    3TMC2    O213912   2.699   3.086  14.216  0.4220  0.8580 -0.0888
    3TMC2    O513913   2.786   3.158  14.023 -0.2231 -0.4286  0.1052
    3TMC2    H513914   2.875   3.170  13.985  0.2194  1.2570  1.6167
    4TMC2    C113915   2.971   3.758  13.414 -0.1934 -0.1839  0.6035
    4TMC2    C213916   3.009   3.748  13.284 -0.2321  0.5807 -0.0617
    4TMC2    C313917   3.124   3.685  13.245  0.4729 -1.2224 -0.2643
    4TMC2    C413918   3.065   3.718  13.507 -0.3755 -0.3087 -0.2781
    4TMC2    C513919   3.165   3.635  13.461  0.1068 -0.2736 -0.2691
    4TMC2    C613920   3.200   3.613  13.331  0.0073 -0.4709 -0.5060
    4TMC2     C13921   2.830   3.730  13.462 -0.4444 -0.1707  0.0027
    4TMC2     O13922   2.807   3.755  13.577  0.0157  0.5633  0.1135
    4TMC2     H13923   2.938   3.779  13.208 -2.0279 -0.1640  1.2851
    4TMC2    H113924   3.042   3.719  13.613 -0.9371  0.1291 -0.4054
    4TMC2    H213925   3.271   3.539  13.295  1.0423  0.9106 -1.2892
    4TMC2    C713926   3.208   3.534  13.556  0.0056 -0.6751 -0.0711
    4TMC2    C813927   3.144   3.670  13.099  0.4903 -0.6126 -0.1341
    4TMC2    O113928   3.181   3.561  13.671  0.0338  0.1119  0.1335
    4TMC2    O213929   3.066   3.687  13.006 -0.1101 -0.2458 -0.4471
    4TMC2    O513930   3.280   3.687  13.078 -0.0206  0.3219  1.1782
    4TMC2    H513931   3.322   3.724  13.158  2.1655  0.5486 -0.0696
    5MPD2     C13932   2.348   3.603  13.445  0.6866 -0.4839 -0.4391
    5MPD2    C113933   2.402   3.552  13.333 -0.0826  0.5478 -0.2917
    5MPD2    C213934   2.533   3.569  13.319  0.7990 -0.1864 -0.4623
    5MPD2    C313935   2.610   3.644  13.402  0.1162  0.1060  0.3830
    5MPD2    C413936   2.544   3.707  13.505  0.0074 -0.2762  0.1500
    5MPD2    C513937   2.411   3.681  13.533  0.1944  0.7222  0.4296
    5MPD2     H13938   2.589   3.515  13.244  1.0797 -1.1653  0.4495
    5MPD2    H113939   2.588   3.772  13.580 -0.1426  1.9499 -1.7122
    5MPD2    H213940   2.242   3.591  13.463  0.4618  0.6185 -0.9950
    5MPD2    H313941   2.363   3.728  13.618 -0.4103 -0.4664  0.7542
    5MPD2     N13942   2.746   3.665  13.372  0.1677 -0.0082 -0.2514
    5MPD2    H513943   2.781   3.631  13.283 -0.1018 -0.5761 -0.1414
    5MPD2    N113944   2.326   3.466  13.265  0.2253 -0.6885 -0.0337
    5MPD2    H713945   2.251   3.422  13.318  0.9291 -2.3702 -0.4389
    6MPD1     C13946   0.791   4.139  12.494 -0.6974  0.4686  0.6757
    6MPD1    C113947   0.762   4.060  12.605 -1.3298  0.1754  0.5083
    6MPD1    C213948   0.864   3.980  12.663 -0.0332  0.5534 -0.1483
    6MPD1    C313949   0.991   3.984  12.601 -0.0077  0.6510  0.1380
    6MPD1    C413950   1.014   4.062  12.488 -0.0024 -0.6217 -0.0845
    6MPD1    C513951   0.908   4.130  12.427 -0.3866  0.5535 -0.5535
    6MPD1     H13952   0.857   3.922  12.754  4.1745 -0.6673 -0.6019
    6MPD1    H113953   1.106   4.065  12.432  1.5597  0.1334  2.5338
    6MPD1    H213954   0.713   4.200  12.450 -2.4628 -3.1494 -1.2661
    6MPD1    H313955   0.929   4.187  12.337 -1.1148 -0.0050 -1.0733
    6MPD1     N13956   1.099   3.904  12.644 -0.1211 -0.0915  0.1054
    6MPD1    H513957   1.187   3.898  12.593 -0.1566 -0.7097  0.1148
    6MPD1    N113958   0.636   4.067  12.666  0.0397  0.4572  0.2041
    6MPD1    H613959   0.556   4.103  12.615 -0.0471 -0.6655 -0.4469
    6MPD1    H713960   0.616   3.988  12.728 -1.0315  0.6033  0.0369
    7MPD2     C13961   1.536   3.518  13.335 -0.4889 -0.3944 -0.7029
    7MPD2    C113962   1.568   3.517  13.199 -0.4627 -0.5254  1.0743
    7MPD2    C213963   1.671   3.432  13.163 -0.3236 -0.5156 -0.3482
    7MPD2    C313964   1.751   3.356  13.249 -0.0048 -0.1264 -0.1376
    7MPD2    C413965   1.721   3.376  13.385 -0.1920 -0.2132  1.0403
    7MPD2    C513966   1.613   3.445  13.422  0.0836 -0.6386  0.0403
    7MPD2     H13967   1.694   3.423  13.058 -1.2998 -0.8845 -0.5382
    7MPD2    H113968   1.786   3.323  13.454  0.4969 -0.3688  0.2814
    7MPD2    H213969   1.467   3.586  13.383  0.7249  0.6044 -0.3834
    7MPD2    H313970   1.606   3.444  13.530 -0.1349 -3.0086  0.0057
    7MPD2     N13971   1.868   3.288  13.209  0.4255 -0.9375  0.7691
    7MPD2    H513972   1.936   3.260  13.279  0.6786 -1.7110  0.2249
    7MPD2    N113973   1.502   3.589  13.092 -0.2339  0.4557 -0.1597
    7MPD2    H713974   1.525   3.574  12.994  0.2050  0.1516 -0.0104
    8TMC3    C113975   2.048   3.231  13.065 -0.5364 -0.3301  0.5995
    8TMC3    C213976   2.148   3.295  13.138  0.0157  0.9297  0.2916
    8TMC3    C313977   2.266   3.328  13.076 -0.3566 -0.8595 -0.5799
    8TMC3    C413978   2.075   3.191  12.935 -0.0160  0.6811 -0.7524
    8TMC3    C513979   2.190   3.233  12.873  0.4034 -0.6437 -0.2916
    8TMC3    C613980   2.293   3.294  12.944 -0.5062 -0.1155  0.3621
    8TMC3     C13981   1.906   3.267  13.081 -0.2937  0.1526 -0.4895
    8TMC3     O13982   1.854   3.303  12.976 -0.2408  0.0209  0.1696
    8TMC3     H13983   2.125   3.349  13.230 -2.3558  0.7955 -0.2336
    8TMC3    H113984   1.994   3.148  12.878  0.2329 -1.6111  0.6390
    8TMC3    H213985   2.384   3.326  12.894  0.5484 -0.4671  2.0247
    8TMC3    C713986   2.161   3.304  12.749  0.0961  0.5725 -1.7002
    8TMC3    C813987   2.364   3.412  13.139 -0.2260  0.1876 -0.1736
    8TMC3    O113988   2.252   3.331  12.672 -0.6205  0.0563 -0.0182
    8TMC3    O213989   2.455   3.448  13.065  0.9560  0.0652 -0.1169
    9TMC3    C113990   1.242   3.801  12.806 -0.3143 -0.1198 -0.0849
    9TMC3    C213991   1.329   3.765  12.708 -0.2970  0.6034 -0.0383
    9TMC3    C313992   1.457   3.727  12.747  0.8571  0.9288 -0.4760
    9TMC3    C413993   1.263   3.783  12.938  0.0925 -0.2259  0.2580
    9TMC3    C513994   1.389   3.737  12.975 -0.6544 -0.0724  0.1549
    9TMC3    C613995   1.489   3.723  12.881  0.0840  0.2384 -0.0135
    9TMC3     C13996   1.111   3.854  12.771 -0.1586 -0.5653  0.1938
    9TMC3     O13997   1.028   3.864  12.864 -0.5645 -0.3212  0.5474
    9TMC3     H13998   1.302   3.761  12.603  0.4061  0.7659 -0.2220
    9TMC3    H113999   1.191   3.793  13.018 -1.2161  1.1567 -1.0940
    9TMC3    H214000   1.593   3.710  12.910  0.0551  0.9643  0.4076
    9TMC3    C714001   1.401   3.675  13.103  0.0895 -0.4890 -0.1467
    9TMC3    C814002   1.555   3.708  12.641  0.2319 -0.2475  0.3422
    9TMC3    O114003   1.339   3.718  13.201  0.6783 -0.1064 -0.1697
    9TMC3    O214004   1.523   3.720  12.519 -0.0191 -0.9339  0.1151
   10MPD2     C14005   2.007   3.467  12.540 -0.6412 -0.6093  0.5694
   10MPD2    C114006   1.961   3.440  12.664 -0.5887 -0.2795 -0.2515
   10MPD2    C214007   1.842   3.488  12.710 -0.0035  0.5726 -0.3387
   10MPD2    C314008   1.767   3.573  12.628  0.4591  0.5688 -0.5362
   10MPD2    C414009   1.814   3.604  12.501  0.0251 -0.0216 -0.3546
   10MPD2    C514010   1.932   3.548  12.462  0.3306 -0.5950  0.2135
   10MPD2     H14011   1.809   3.462  12.810  1.5371  0.6962  0.2001
   10MPD2    H114012   1.760   3.671  12.435  0.0221  0.1107 -0.2142
   10MPD2    H214013   2.097   3.424  12.497 -0.9978  0.2746 -1.0406
   10MPD2    H314014   1.980   3.576  12.369 -1.5438 -1.3389 -0.9708
   10MPD2     N14015   1.653   3.632  12.695  0.3958  0.1916 -0.1258
   10MPD2    H514016   1.634   3.593  12.787 -1.3999  0.2747 -0.4665
   10MPD2    N114017   2.033   3.358  12.757  0.3715 -0.0255 -0.3949
   10MPD2    H714018   1.980   3.333  12.840  1.3488  2.2894  0.9259
   11MPD2     C14019   3.302   3.050  13.691 -0.1969 -0.4354 -0.4966
   11MPD2    C114020   3.250   3.158  13.763 -0.2537  0.0039 -0.7193
   11MPD2    C214021   3.237   3.283  13.703  0.5192 -0.5335 -0.1801
   11MPD2    C314022   3.244   3.293  13.559  0.3110  0.4736 -0.2120
   11MPD2    C414023   3.261   3.173  13.490  0.0669 -0.5973 -0.0521
   11MPD2    C514024   3.311   3.062  13.558 -0.8234  0.0794 -0.5384
   11MPD2     H14025   3.205   3.368  13.762 -0.7263 -0.7473 -0.5478
   11MPD2    H114026   3.268   3.165  13.382  2.4516  0.1083  0.0579
   11MPD2    H214027   3.331   2.952  13.727 -2.0232 -0.9679 -0.4451
   11MPD2    H314028   3.340   2.982  13.491  1.0385 -0.9234  1.4948
   11MPD2     N14029   3.230   3.413  13.492  0.2206  0.1292  0.2837
   11MPD2    H514030   3.216   3.405  13.391 -0.2718  0.3973  0.3288
   11MPD2    N114031   3.222   3.151  13.900  0.6077 -0.1072 -0.1662
   11MPD2    H714032   3.184   3.235  13.941 -1.6565 -0.7164 -1.0073
    1MPD1     C14033   0.104   4.196  16.837  0.3871 -0.0856  1.4090
    1MPD1    C114034   0.162   4.093  16.903  0.2392  0.1019 -0.1753
    1MPD1    C214035   0.295   4.104  16.929 -0.2159  0.0483 -0.5311
    1MPD1    C314036   0.377   4.206  16.880  0.1979 -0.2803  0.1113
    1MPD1    C414037   0.319   4.303  16.803  1.1692  0.1350  0.2577
    1MPD1    C514038   0.183   4.299  16.783  0.0746 -0.3292  0.0854
    1MPD1     H14039   0.342   4.032  16.995  1.5025 -0.2930 -2.1099
    1MPD1    H114040   0.379   4.388  16.772  2.6020 -1.4181 -1.2482
    1MPD1    H214041   4.734   4.198  16.836  0.4810  3.2493  1.1260
    1MPD1    H314042   0.145   4.383  16.726  0.8655 -0.7450 -1.0418
    1MPD1     N14043   0.515   4.219  16.897 -0.3950 -1.2614 -0.3393
    1MPD1    H514044   0.557   4.311  16.888  0.7683 -1.7295  0.4374
    1MPD1    N114045   0.082   3.997  16.960 -0.7864  0.0951  0.1877
    1MPD1    H614046   4.730   3.987  16.914 -0.2203  0.8152 -1.0974
    1MPD1    H714047   0.129   3.908  16.947 -1.4914 -0.3517  0.7181
    2MPD1     C14048   1.456   3.923  17.357 -0.3742 -0.4498  0.1647
    2MPD1    C114049   1.485   3.974  17.235 -0.3204 -0.2934 -0.4702
    2MPD1    C214050   1.380   4.038  17.163  0.2827  0.7613  0.2108
    2MPD1    C314051   1.248   4.028  17.209 -0.4208  0.4895  0.5470
    2MPD1    C414052   1.226   3.968  17.334 -0.0877 -0.6028 -0.0975
    2MPD1    C514053   1.331   3.922  17.409  0.0465  0.5828 -0.0329
    2MPD1     H14054   1.400   4.080  17.065 -0.5816 -2.7640 -1.4772
    2MPD1    H114055   1.128   3.957  17.379 -0.0453  2.1378  0.6765
    2MPD1    H214056   1.534   3.871  17.412 -0.9823 -0.8005  0.6965
    2MPD1    H314057   1.315   3.867  17.500  0.0026 -0.2198 -0.5218
    2MPD1     N14058   1.138   4.075  17.135  0.2199 -0.4493  0.1280
    2MPD1    H514059   1.162   4.123  17.049 -1.0505  0.3936  0.2455
    2MPD1    N114060   1.616   3.980  17.194 -0.7328 -0.1487 -0.2245
    2MPD1    H614061   1.617   3.992  17.093  0.8964 -1.3294 -0.3360
    2MPD1    H714062   1.679   3.901  17.206 -0.5653  0.3754  2.4443
    3TMC3    C114063   0.927   4.135  17.069  0.0680  0.0971  0.6919
    3TMC3    C214064   0.979   4.244  17.005  0.4001 -0.2722 -0.3268
    3TMC3    C314065   0.903   4.318  16.919  0.2939  0.4598  0.4534
    3TMC3    C414066   0.803   4.090  17.051 -0.0328  0.1612  0.0583
    3TMC3    C514067   0.730   4.164  16.960  0.2851  0.0407 -0.1539
    3TMC3    C614068   0.776   4.275  16.890  0.5241  0.8190 -0.8201
    3TMC3     C14069   1.004   4.043  17.154  0.0745 -0.1226  0.3833
    3TMC3     O14070   0.954   3.954  17.223  0.0608  0.3380 -0.0348
    3TMC3     H14071   1.076   4.287  17.026  0.6307 -0.3405 -1.2200
    3TMC3    H114072   0.766   3.998  17.094 -0.6415  0.2236 -0.3285
    3TMC3    H214073   0.714   4.330  16.820 -1.4251 -0.6165 -0.2403
    3TMC3    C714074   0.593   4.117  16.945 -1.0269 -0.6150  0.2023
    3TMC3    C814075   0.962   4.436  16.864  0.8559  0.3518  0.2446
    3TMC3    O114076   0.568   4.005  16.968  0.8634  0.3497  0.6003
    3TMC3    O214077   1.075   4.469  16.897  0.0176 -0.1142 -0.0197
    4MPD1     C14078   0.984   0.061  16.484  0.0061 -0.7173 -0.4595
    4MPD1    C114079   0.926   4.683  16.436 -0.7074  0.2685 -0.1802
    4MPD1    C214080   0.890   4.584  16.526  0.0848  0.0533  0.3317
    4MPD1    C314081   0.933   4.587  16.654  0.4634 -0.2811  0.2547
    4MPD1    C414082   1.013   4.690  16.701 -0.0705 -0.3631 -0.0928
    4MPD1    C514083   1.032   0.060  16.616  0.6290  0.2455 -0.0491
    4MPD1     H14084   0.826   4.506  16.487  0.6867  0.0659 -0.6820
    4MPD1    H114085   1.054   4.687  16.801 -0.6885  0.3266  0.1871
    4MPD1    H214086   1.004   0.152  16.428  0.7610 -0.3648  0.3702
    4MPD1    H314087   1.085   0.149  16.649 -0.4422  1.2524 -1.0309
    4MPD1     N14088   0.901   4.475  16.738 -0.0064 -0.2410 -0.7851
    4MPD1    H514089   0.830   4.411  16.705 -0.5864  1.2070 -2.3291
    4MPD1    N114090   0.862   4.673  16.311  0.1125 -0.4775 -0.4634
    4MPD1    H614091   0.854   4.577  16.278 -0.2963  0.5709 -3.4069
    4MPD1    H714092   0.919   4.729  16.248 -0.6071  0.8088  0.0337
    1TCq1    O114093   1.939   3.894  11.497 -0.0968  0.0177  0.1692
    1TCq1    C114094   1.928   3.963  11.377  0.4418 -0.8292  0.3707
    1TCq1    O214095   1.860   3.931  11.279  0.3953 -0.3221  0.5862
    1TCq1    C214096   1.990   4.096  11.392  0.4227  0.0321  0.2599
    1TCq1    C314097   2.051   4.142  11.506  0.8585  0.1630 -0.5929
    1TCq1    C414098   2.163   4.218  11.502 -0.2425 -0.6217 -0.2396
    1TCq1    C514099   2.222   4.248  11.385 -0.4959 -0.1137  0.4081
    1TCq1    C614100   2.146   4.232  11.272 -0.1926 -0.6879 -0.2545
    1TCq1    C714101   2.037   4.152  11.275 -0.2762 -0.7888  0.0104
    1TCq1    C814102   2.213   4.235  11.143  0.8325  1.0782 -0.3453
    1TCq1    O414103   2.329   4.262  11.139  0.6162 -0.1561 -0.1562
    1TCq1    C914104   2.243   4.215  11.623  0.2749 -0.4333 -0.0612
    1TCq1    O514105   2.363   4.173  11.605  0.2478  0.2776  0.3176
    1TCq1    O614106   2.187   4.227  11.736  0.3772 -0.2378 -0.2171
    1TCq1    H114107   2.015   3.910  11.557 -1.4448 -0.7716  2.0711
    1TCq1    H214108   2.040   4.096  11.604 -0.1925 -0.8151 -1.1717
    1TCq1    H314109   2.321   4.293  11.378 -0.5871  0.0090 -0.1261
    1TCq1    H414110   1.996   4.112  11.183  3.1992  1.0959 -2.3520
    2MPD1     C14111   2.287   4.105  10.648 -0.3950 -0.1765 -0.2864
    2MPD1    C114112   2.370   4.096  10.756 -1.0306 -0.9440  0.0791
    2MPD1    C214113   2.319   4.141  10.882 -0.7899 -0.2570  0.5308
    2MPD1    C314114   2.193   4.197  10.901  0.4908 -0.1626 -0.0723
    2MPD1    C414115   2.114   4.198  10.791 -0.3090  0.7160 -0.2046
    2MPD1    C514116   2.162   4.155  10.667  0.0824 -0.4504 -0.3919
    2MPD1     H14117   2.390   4.137  10.964  1.0265  0.8962 -1.0002
    2MPD1    H114118   2.009   4.223  10.798 -0.4940  0.3096 -1.5214
    2MPD1    H214119   2.305   4.074  10.545 -1.5613  2.9047 -1.4194
    2MPD1    H314120   2.095   4.152  10.582  0.4682 -1.2760 -0.6643
    2MPD1     N14121   2.138   4.208  11.030  0.1562  0.4140  0.0240
    2MPD1    H514122   2.036   4.202  11.032  0.1341  0.8428  0.1202
    2MPD1    N114123   2.505   4.059  10.742  0.0853 -0.1156  0.6820
    2MPD1    H614124   2.517   3.998  10.662  0.0776 -0.8470  1.2448
    2MPD1    H714125   2.545   4.017  10.825 -1.1947 -1.2926  0.6989
    1TMC1    C114126   0.919   0.286   0.881 -0.5500 -0.3275  0.6562
    1TMC1    C214127   0.847   0.381   0.959 -0.1344 -0.2931  0.0301
    1TMC1    C314128   0.792   0.488   0.893 -0.6350  0.0840  0.7246
    1TMC1    C414129   0.951   0.315   0.752 -0.1116 -0.0925  0.6882
    1TMC1    C514130   0.910   0.438   0.701  0.2587 -0.1978  0.3272
    1TMC1    C614131   0.826   0.524   0.764 -0.6425 -0.1192 -0.1374
    1TMC1     C14132   0.912   0.142   0.912  0.2045 -0.8422  0.2566
    1TMC1     O14133   0.987   0.063   0.853  0.0311  0.7774 -0.3662
    1TMC1     H14134   0.834   0.364   1.065  0.5010 -0.7272  0.0337
    1TMC1    H114135   1.007   0.243   0.693  1.0293  1.7409 -0.4536
    1TMC1    H214136   0.801   0.621   0.723 -1.0709 -0.8048 -1.4776
    1TMC1    C714137   0.945   0.480   0.563 -0.2483 -0.4522 -0.1286
    1TMC1    C814138   0.708   0.576   0.972 -0.2929  0.7373  0.8569
    1TMC1    O114139   0.878   0.548   0.485  0.0452 -0.2675 -0.4383
    1TMC1    O214140   0.724   0.597   1.092  0.0190 -0.1799 -0.2225
    1TMC1    O314141   1.080   0.468   0.549 -0.1706  0.3951  0.2702
    1TMC1    H314142   1.126   0.413   0.615 -0.2046 -0.8551 -0.7661
    1TMC1    O514143   0.605   0.616   0.894 -0.5226  0.4142  0.6638
    1TMC1    H514144   0.603   0.579   0.803 -1.8788  2.7328 -0.2646
    2MPD1     C14145   0.811   4.514   1.254 -0.4885  0.2757  0.0482
    2MPD1    C114146   0.715   4.617   1.278  0.0081  0.2016 -0.0356
    2MPD1    C214147   0.722   4.728   1.196 -0.4368 -0.2442  0.5003
    2MPD1    C314148   0.820   4.734   1.102 -0.0783  0.2998 -1.0774
    2MPD1    C414149   0.907   4.630   1.075  0.8441 -0.3853 -0.0493
    2MPD1    C514150   0.900   4.518   1.154 -0.0086 -0.3051 -0.3547
    2MPD1     H14151   0.664   0.079   1.209 -1.1093 -0.4269 -1.1651
    2MPD1    H114152   0.989   4.631   1.004 -0.8479  1.2255 -1.9595
    2MPD1    H214153   0.817   4.425   1.316 -1.7020  0.3694  0.3162
    2MPD1    H314154   0.968   4.436   1.136 -1.4534 -1.5118 -0.2938
    2MPD1     N14155   0.822   0.112   1.021  0.5686 -0.5337 -0.8982
    2MPD1    H514156   0.759   0.189   1.042  1.8814 -0.5313  3.0557
    2MPD1    N114157   0.625   4.604   1.387  0.1476 -0.3104  0.2506
    2MPD1    H614158   0.603   4.507   1.411  1.8362 -0.2195  2.1525
    2MPD1    H714159   0.538   4.653   1.370  0.2665  0.2263  1.2089
    1MPD1     C14160   4.306   4.168  12.546  0.7364 -0.8829  0.0516
    1MPD1    C114161   4.404   4.214  12.466  0.2643 -1.4246  0.2420
    1MPD1    C214162   4.392   4.191  12.328  0.2516  0.1344 -0.0070
    1MPD1    C314163   4.276   4.140  12.272  0.1400  0.3573 -0.1054
    1MPD1    C414164   4.180   4.080  12.358 -0.2751  0.1197  0.2133
    1MPD1    C514165   4.201   4.090  12.495  0.0800 -0.4976  0.3517
    1MPD1     H14166   4.481   4.215  12.270  0.7238 -0.5766  0.4228
    1MPD1    H114167   4.082   4.044  12.329 -0.5922 -0.4634  1.9718
    1MPD1    H214168   4.308   4.161  12.654  0.7581 -0.1971  0.0950
    1MPD1    H314169   4.133   4.061  12.574 -0.5682 -1.6086 -0.6283
    1MPD1     N14170   4.240   4.149  12.132 -0.5239 -0.0023  0.2893
    1MPD1    H514171   4.153   4.100  12.112 -0.2612 -1.1153  1.7801
    1MPD1    N114172   4.523   4.262  12.527 -0.3476  0.4002 -0.3573
    1MPD1    H614173   4.515   4.296  12.622  3.1999 -0.4088  0.2185
    1MPD1    H714174   4.567   4.340  12.479 -1.6811  2.3705  1.6172
    2MPD1     C14175   3.093   4.703  10.939 -0.0124  0.3500 -0.0130
    2MPD1    C114176   3.082   0.039  10.828  0.2841 -1.0319  0.5037
    2MPD1    C214177   3.195   0.065  10.753  0.8449 -0.0881  0.2451
    2MPD1    C314178   3.312   4.733  10.775  0.2876  0.0100 -0.4576
    2MPD1    C414179   3.318   4.651  10.876 -0.1316  0.0804  0.0219
    2MPD1    C514180   3.210   4.633  10.955  0.8878  0.1396 -0.3326
    2MPD1     H14181   3.185   0.131  10.667 -2.2541 -0.0777  0.6068
    2MPD1    H114182   3.411   4.607  10.910  0.3633  1.3811  0.3183
    2MPD1    H214183   3.013   4.698  11.013  0.8185  0.3059  0.8829
    2MPD1    H314184   3.218   4.574  11.046  0.5522  1.7240  0.7473
    2MPD1     N14185   3.426   0.013  10.694  0.0348  0.1374 -0.3200
    2MPD1    H514186   3.506   4.697  10.722  0.8655  1.5262  0.0367
    2MPD1    N114187   2.967   0.118  10.806 -0.2878  0.0509  0.0132
    2MPD1    H614188   2.947   0.128  10.706 -1.6935 -1.4774  0.1362
    2MPD1    H714189   2.887   0.062  10.836 -0.1177 -1.0737 -1.6471
    3MPD1     C14190   3.419   0.191   9.714  0.1149 -0.2402 -0.1289
    3MPD1    C114191   3.323   0.204   9.812 -0.4351  0.0015  0.4559
    3MPD1    C214192   3.375   0.236   9.937 -0.3987 -0.0266  0.3054
    3MPD1    C314193   3.510   0.224   9.972 -0.0114 -0.0143  0.2099
    3MPD1    C414194   3.601   0.206   9.870 -0.5075 -0.0464  0.8851
    3MPD1    C514195   3.552   0.202   9.739  0.8202 -0.3661  0.2235
    3MPD1     H14196   3.306   0.261  10.017  1.9854 -1.5136  2.8266
    3MPD1    H114197   3.708   0.207   9.887 -0.7900 -0.6303  2.7123
    3MPD1    H214198   3.394   0.177   9.609 -0.6625  0.7530 -0.0828
    3MPD1    H314199   3.629   0.195   9.663  0.3983 -2.2234 -0.0169
    3MPD1     N14200   3.544   0.222  10.108 -0.4695  0.6392  0.5294
    3MPD1    H514201   3.463   0.240  10.165 -2.9629  0.7046 -3.0401
    3MPD1    N114202   3.192   0.230   9.769  0.4617 -0.5152  0.0174
    3MPD1    H614203   3.166   0.187   9.681 -2.8418  1.0031  0.2524
    3MPD1    H714204   3.132   0.201   9.846  0.4089  0.6629  0.4137
    4MPD2     C14205   3.890   4.615  11.717 -0.0959  0.2323  0.1926
    4MPD2    C114206   4.009   4.551  11.674 -0.6346 -0.2985  0.7717
    4MPD2    C214207   4.103   4.616  11.601 -0.2252 -0.0046 -0.7552
    4MPD2    C314208   4.091   0.008  11.576 -0.0967  0.3333 -0.2305
    4MPD2    C414209   3.979   0.078  11.633 -0.6093  0.1392 -0.2666
    4MPD2    C514210   3.887   0.008  11.710  0.0115 -0.0902 -0.1042
    4MPD2     H14211   4.193   4.567  11.567 -0.6286 -1.9183  0.9438
    4MPD2    H114212   3.949   0.179  11.608 -0.2377  0.9725  2.5709
    4MPD2    H214213   3.821   4.576  11.792 -0.1921 -0.7801 -0.4257
    4MPD2    H314214   3.798   0.053  11.752  0.1430 -0.4380  0.5410
    4MPD2     N14215   4.180   0.071  11.493 -0.1525  0.1842 -0.0666
    4MPD2    H514216   4.248   0.007  11.452  0.5480  1.2067 -0.4791
    4MPD2    N114217   4.036   4.416  11.688 -0.5607  0.2047 -0.4009
    4MPD2    H714218   4.125   4.387  11.648  1.4012  2.1559  2.6372
    5TMC3    C114219   4.055   4.214  11.779  0.4239 -0.3374 -0.3406
    5TMC3    C214220   4.118   4.196  11.895 -0.7300  1.1593  0.1388
    5TMC3    C314221   4.255   4.183  11.903 -0.3109  0.2893 -0.2347
    5TMC3    C414222   4.136   4.195  11.671 -0.2945  0.3503  0.4471
    5TMC3    C514223   4.275   4.186  11.679  0.1555 -0.3537  0.1910
    5TMC3    C614224   4.332   4.167  11.794  1.0409  0.0820  0.7526
    5TMC3     C14225   3.976   4.333  11.772  0.2658  0.1514 -1.0374
    5TMC3     O14226   3.886   4.337  11.859  0.0246  0.1677 -0.2092
    5TMC3     H14227   4.057   4.226  11.980 -3.2375  0.4950 -1.4298
    5TMC3    H114228   4.096   4.214  11.572  3.3997 -0.9272 -1.3066
    5TMC3    H214229   4.440   4.178  11.803  1.3854 -1.2333 -1.7569
    5TMC3    C714230   4.341   4.272  11.577 -0.5487 -0.1183 -0.1864
    5TMC3    C814231   4.326   4.193  12.034 -0.1101 -0.3783 -0.8331
    5TMC3    O114232   4.267   4.351  11.521 -0.4617 -0.6370 -0.4572
    5TMC3    O214233   4.436   4.245  12.037  0.3434 -0.1245 -0.5288
    6TMC3    C114234   3.552   0.090  10.503  0.2600 -0.6778 -0.0134
    6TMC3    C214235   3.543   0.117  10.373 -0.4147 -0.3658 -0.7863
    6TMC3    C314236   3.659   0.155  10.310 -0.9144 -0.5385 -0.0933
    6TMC3    C414237   3.670   0.098  10.575 -0.1461  0.4160 -0.0127
    6TMC3    C514238   3.783   0.130  10.509  0.3958  0.1010  0.1830
    6TMC3    C614239   3.779   0.167  10.377 -0.6489  0.1181 -0.5314
    6TMC3     C14240   3.426   0.084  10.575 -0.0459  0.1451 -0.0931
    6TMC3     O14241   3.335   0.130  10.504 -0.0347 -0.3006 -0.1320
    6TMC3     H14242   3.449   0.103  10.321  0.9749 -0.2633 -3.2904
    6TMC3    H114243   3.671   0.094  10.684  0.6578 -0.6668 -0.0652
    6TMC3    H214244   3.866   0.203  10.324 -0.0127 -1.1483 -0.3288
    6TMC3    C714245   3.903   0.156  10.583  0.1790  0.0823 -0.2349
    6TMC3    C814246   3.663   0.182  10.165 -0.2455 -0.4316 -0.6509
    6TMC3    O114247   3.893   0.150  10.707 -0.6172 -0.2670  0.0429
    6TMC3    O214248   3.764   0.139  10.113  0.2481  0.6770  0.1216
    7MPD2     C14249   0.003   4.439  11.316 -0.2349  0.4152 -0.5175
    7MPD2    C114250   4.613   4.480  11.312  0.9740  0.4588  0.1576
    7MPD2    C214251   4.523   4.417  11.395  0.2788 -1.2394 -0.4935
    7MPD2    C314252   4.551   4.299  11.453 -0.2554  0.1330 -0.0268
    7MPD2    C414253   4.679   4.253  11.440 -0.0108 -0.8336  0.4904
    7MPD2    C514254   0.037   4.328  11.388 -0.1440  0.4089 -0.1612
    7MPD2     H14255   4.429   4.464  11.419  0.0648 -1.1335 -1.5341
    7MPD2    H114256   4.709   4.175  11.509  0.0298 -2.1547 -1.0446
    7MPD2    H214257   0.083   4.489  11.261 -0.1354  0.4317 -0.3595
    7MPD2    H314258   0.141   4.300  11.379 -0.9876 -2.7408 -0.2737
    7MPD2     N14259   4.464   4.222  11.534  0.6972 -0.1562 -0.2119
    7MPD2    H514260   4.499   4.134  11.571 -0.2900 -0.1470  0.7560
    7MPD2    N114261   4.579   4.608  11.253  0.6346  0.1239  0.2209
    7MPD2    H714262   4.651   4.667  11.213  0.4517 -0.0313 -0.3356
    8TMC3    C114263   4.467   0.073  11.257  0.4937  0.3461 -0.4912
    8TMC3    C214264   4.430   0.119  11.132  0.8248  0.3145  0.4058
    8TMC3    C314265   4.319   0.205  11.125  1.0879 -0.2547 -0.5344
    8TMC3    C414266   4.392   0.129  11.363  0.0796 -0.5221 -0.4205
    8TMC3    C514267   4.293   0.221  11.351 -0.0590  0.6932  0.5999
    8TMC3    C614268   4.250   0.260  11.228  0.1298 -0.3353  0.1879
    8TMC3     C14269   4.455   4.671  11.273  0.6067  0.2117 -0.0104
    8TMC3     O14270   4.349   4.639  11.316  0.4154 -0.6055  0.3421
    8TMC3     H14271   4.469   0.070  11.043 -1.8063 -2.4968  0.8201
    8TMC3    H114272   4.414   0.082  11.458  0.4119 -0.2128 -0.3458
    8TMC3    H214273   4.180   0.342  11.217 -2.3902 -2.4641  0.4743
    8TMC3    C714274   4.179   0.199  11.440  0.8208 -0.0357  0.4298
    8TMC3    C814275   4.249   0.222  10.999 -0.6589  0.6936 -0.2744
    8TMC3    O114276   4.100   0.290  11.466  0.3759 -0.2167  0.2855
    8TMC3    O214277   4.128   0.221  10.996 -0.1303  0.0495  0.8595
    9MPD2     C14278   4.413   0.206  10.667  0.3362 -0.3747  0.2338
    9MPD2    C114279   4.302   0.197  10.756 -0.5221  0.2214 -0.9501
    9MPD2    C214280   4.176   0.189  10.701 -1.2937  0.1721  0.1110
    9MPD2    C314281   4.152   0.174  10.565  0.8485  0.3005  0.0799
    9MPD2    C414282   4.267   0.175  10.480 -0.0829 -0.2762  0.4180
    9MPD2    C514283   4.394   0.176  10.539 -0.2237  0.3242  0.7529
    9MPD2     H14284   4.094   0.180  10.771  0.4751  1.4870  2.3597
    9MPD2    H114285   4.259   0.160  10.373  3.4486 -0.0380  0.0979
    9MPD2    H214286   4.512   0.233  10.702  0.2756  2.0339 -1.4046
    9MPD2    H314287   4.473   0.181  10.464 -0.0714  2.6830  1.0911
    9MPD2     N14288   4.018   0.167  10.505 -0.6006 -0.1442 -0.1442
    9MPD2    H514289   4.022   0.170  10.404 -1.0428 -4.0909 -0.3084
    9MPD2    N114290   4.334   0.210  10.892 -0.2177 -0.0570  0.8977
    9MPD2    H714291   4.431   0.236  10.905 -0.1222  0.1339 -0.2139
    1MPD1     C14292   3.186   2.328  16.554  0.1906 -0.8794 -0.5325
    1MPD1    C114293   3.218   2.237  16.447  0.1068 -0.2644  0.3337
    1MPD1    C214294   3.192   2.289  16.319  0.8297 -0.6598 -0.0237
    1MPD1    C314295   3.165   2.425  16.288  0.3823 -0.2894  0.3475
    1MPD1    C414296   3.140   2.509  16.392  0.4747 -0.2308  0.0056
    1MPD1    C514297   3.151   2.458  16.520 -0.1380 -0.1908  0.0359
    1MPD1     H14298   3.210   2.216  16.241 -0.3606 -2.1630  1.0980
    1MPD1    H114299   3.120   2.614  16.375  0.4700 -0.1895  0.2702
    1MPD1    H214300   3.192   2.300  16.659  1.3895 -0.0921 -0.4015
    1MPD1    H314301   3.133   2.523  16.604 -0.5056 -0.0773 -0.1318
    1MPD1     N14302   3.170   2.480  16.161  0.2274  0.3272 -0.0037
    1MPD1    H514303   3.134   2.575  16.150 -0.1022  0.0654 -1.2044
    1MPD1    N114304   3.245   2.103  16.468  0.0919  0.2345 -0.2498
    1MPD1    H614305   3.288   2.044  16.397  0.0729 -1.1693  0.8837
    1MPD1    H714306   3.298   2.096  16.555  0.5607  2.8815 -0.3381
    2TMC2    C114307   3.114   2.703  15.809 -0.5176  0.0928 -0.4932
    2TMC2    C214308   3.161   2.656  15.690 -0.3375  0.2657 -0.3588
    2TMC2    C314309   3.205   2.525  15.691  0.1905  0.2228 -0.3295
    2TMC2    C414310   3.128   2.627  15.924  0.4735 -0.1346 -0.1097
    2TMC2    C514311   3.175   2.500  15.924  0.0525 -0.3371  0.1539
    2TMC2    C614312   3.217   2.446  15.801 -0.1145  0.0740  0.0577
    2TMC2     C14313   3.019   2.815  15.799 -0.1522 -0.3812 -0.1397
    2TMC2     O14314   3.024   2.867  15.688 -0.5153  0.4661 -0.0887
    2TMC2     H14315   3.163   2.708  15.594  1.9868 -2.9304 -2.0485
    2TMC2    H114316   3.111   2.668  16.022 -0.9306  0.4530 -0.5952
    2TMC2    H214317   3.253   2.344  15.795 -0.2630  0.0126  0.2188
    2TMC2    C714318   3.199   2.413  16.044  0.2624 -0.1144  0.7654
    2TMC2    C814319   3.298   2.497  15.585  0.3390  0.5216 -0.2873
    2TMC2    O114320   3.213   2.289  16.022  0.4576 -0.0408 -0.3263
    2TMC2    O214321   3.373   2.584  15.550  0.7248 -0.4975  0.0063
    2TMC2    O514322   3.225   2.419  15.509  0.0906 -0.0431 -0.4388
    2TMC2    H514323   3.129   2.418  15.531  0.1851  0.7785  0.0183
    3MPD1     C14324   2.551   2.987  15.886  0.0603  0.2096 -0.0385
    3MPD1    C114325   2.587   2.899  15.988 -0.5277  0.2075 -0.4595
    3MPD1    C214326   2.712   2.841  15.990 -0.7098 -0.4418 -0.0708
    3MPD1    C314327   2.801   2.866  15.887 -1.1063 -0.2252 -0.1554
    3MPD1    C414328   2.765   2.945  15.780  0.4012  0.2258 -0.4654
    3MPD1    C514329   2.640   2.999  15.787 -0.4728 -0.0532  0.0074
    3MPD1     H14330   2.747   2.781  16.073 -1.3263 -1.9133 -0.8737
    3MPD1    H114331   2.825   2.973  15.695  1.9188 -0.4837  0.3704
    3MPD1    H214332   2.452   3.029  15.872  0.6376  1.5211 -0.1595
    3MPD1    H314333   2.606   3.061  15.705 -0.4304 -1.5696 -1.1433
    3MPD1     N14334   2.925   2.806  15.895  0.1146  0.0278 -0.0714
    3MPD1    H514335   2.936   2.744  15.975  2.0041  1.0603  0.4659
    3MPD1    N114336   2.492   2.861  16.076  0.4095  0.5622 -0.1413
    3MPD1    H614337   2.428   2.938  16.098 -1.9109 -1.9257  1.7237
    3MPD1    H714338   2.538   2.809  16.150  1.1592 -1.2513 -1.9068
    1TMC1    C114339   1.119   2.010  13.524  0.2059  0.6372  0.3655
    1TMC1    C214340   1.172   1.988  13.644 -0.1901 -0.5731  0.0075
    1TMC1    C314341   1.102   2.035  13.750  0.1545  0.7153  0.4951
    1TMC1    C414342   0.997   2.066  13.506 -0.6914  1.1944  0.3365
    1TMC1    C514343   0.928   2.101  13.622  0.3932  0.0169  0.3919
    1TMC1    C614344   0.976   2.086  13.745  0.4230 -0.2195  0.0727
    1TMC1     C14345   1.205   2.014  13.404 -0.5667  0.4459 -1.0506
    1TMC1     O14346   1.141   2.026  13.298  0.2701 -0.5632  0.0491
    1TMC1     H14347   1.265   1.933  13.653  0.5131  0.4543 -0.9230
    1TMC1    H114348   0.966   2.098  13.407 -1.0781  0.2006  0.1299
    1TMC1    H214349   0.928   2.142  13.825 -1.8616  0.8844 -2.0599
    1TMC1    C714350   0.834   2.215  13.610 -0.4507  0.0669 -0.7163
    1TMC1    C814351   1.160   2.031  13.879  0.1191 -0.0358  0.5084
    1TMC1    O114352   0.883   2.316  13.662 -0.6098 -0.1435 -0.2605
    1TMC1    O214353   1.280   2.020  13.904  0.5582  0.4685  0.5461
    1TMC1    O314354   0.777   2.206  13.486  0.1473  0.2817  0.1434
    1TMC1    H314355   0.750   2.116  13.459 -3.0360  0.9443  1.1823
    1TMC1    O514356   1.066   1.986  13.962 -0.5491 -0.8480  0.1441
    1TMC1    H514357   0.988   1.972  13.904  0.3008  0.5248 -1.3063
    2MPD2     C14358   1.402   2.087  13.199 -0.0431 -0.0135 -0.6024
    2MPD2    C114359   1.435   2.064  13.332  0.9282  0.1493  0.2719
    2MPD2    C214360   1.571   2.074  13.365 -0.1551 -0.1175  0.1709
    2MPD2    C314361   1.666   2.130  13.275  0.5851  0.7511  0.2095
    2MPD2    C414362   1.620   2.162  13.149 -0.8844 -0.1683  0.1590
    2MPD2    C514363   1.489   2.135  13.103  0.4558 -0.3075 -0.0858
    2MPD2     H14364   1.603   2.046  13.465  1.3746  0.4513 -0.1671
    2MPD2    H114365   1.675   2.210  13.068  0.5389 -1.0595  0.5996
    2MPD2    H214366   1.301   2.073  13.162 -1.0382  0.9858  1.7187
    2MPD2    H314367   1.458   2.150  13.000  2.6611  0.2985 -0.6650
    2MPD2     N14368   1.795   2.154  13.324 -0.3287 -0.0632  0.5570
    2MPD2    H514369   1.812   2.148  13.424 -1.1770  2.0559  0.8316
    2MPD2    N114370   1.343   2.025  13.430  0.3438  0.0198 -0.2511
    2MPD2    H714371   1.371   2.029  13.527  1.9036 -0.0277 -0.6969
    3TCq1    O114372   2.472   2.224  13.278 -0.3832 -0.1736 -0.2184
    3TCq1    C114373   2.375   2.177  13.192  0.2246  0.0994 -0.6760
    3TCq1    O214374   2.354   2.217  13.080  0.1569 -0.0885 -0.0971
    3TCq1    C214375   2.261   2.138  13.270  0.3099 -0.2634 -0.2122
    3TCq1    C314376   2.274   2.085  13.396 -0.1638 -0.4109 -0.5401
    3TCq1    C414377   2.173   2.100  13.490  0.5384 -0.1965  0.0885
    3TCq1    C514378   2.054   2.148  13.444  0.2379 -0.6605 -1.1555
    3TCq1    C614379   2.035   2.186  13.313 -0.4748  1.0248  0.4374
    3TCq1    C714380   2.139   2.180  13.221  0.1438  0.2201  0.4618
    3TCq1    C814381   1.903   2.187  13.247 -0.1604  0.3246 -0.2631
    3TCq1    O414382   1.904   2.178  13.126 -0.0372 -0.2155  0.3541
    3TCq1    C914383   2.178   2.060  13.632 -0.2651  0.0776  0.6174
    3TCq1    O514384   2.108   2.129  13.711 -0.2347  0.0375 -0.4282
    3TCq1    O614385   2.247   1.950  13.651  0.6486  0.0032 -0.6319
    3TCq1    H114386   2.492   2.165  13.354  0.4131 -0.7026 -0.8374
    3TCq1    H214387   2.366   2.044  13.437 -0.0892 -0.0065 -0.2962
    3TCq1    H314388   1.978   2.151  13.521  0.3289 -3.4145 -0.9556
    3TCq1    H414389   2.126   2.209  13.117  2.0722  0.9085  0.4221
    1MPD2     C14390   0.520   3.311  15.012  0.8140  0.4456 -0.2245
    1MPD2    C114391   0.457   3.217  14.938  0.8834  0.2971  0.0046
    1MPD2    C214392   0.524   3.100  14.896 -0.2348 -0.7521  0.5849
    1MPD2    C314393   0.654   3.080  14.929 -0.0111 -0.4048 -0.3955
    1MPD2    C414394   0.713   3.174  15.019 -0.1549 -0.6767 -0.5217
    1MPD2    C514395   0.645   3.292  15.049 -0.0976  0.3986 -0.0019
    1MPD2     H14396   0.474   3.023  14.839 -2.8170  0.0406  1.7461
    1MPD2    H114397   0.817   3.167  15.050  0.1630  1.5564 -1.0046
    1MPD2    H214398   0.465   3.401  15.034 -0.7902 -0.1286 -1.9562
    1MPD2    H314399   0.701   3.362  15.109  0.1624  0.3786 -0.2218
    1MPD2     N14400   0.733   2.967  14.880 -0.1497  0.1810  0.1900
    1MPD2    H514401   0.823   2.939  14.918 -0.6566  1.1403  2.1475
    1MPD2    N114402   0.324   3.246  14.893  1.0147  0.3201 -0.2789
    1MPD2    H714403   0.292   3.338  14.922 -1.2068 -0.4781 -0.2167
    2TMC3    C114404   0.158   3.256  14.721 -0.6099  0.3080 -0.4440
    2TMC3    C214405   0.071   3.178  14.652  0.1451  0.4916 -0.3207
    2TMC3    C314406   0.038   3.200  14.520 -0.1986  0.5036  0.6680
    2TMC3    C414407   0.208   3.368  14.667 -0.2151 -0.2402  0.0155
    2TMC3    C514408   0.174   3.390  14.531  0.1530 -0.2360 -0.1350
    2TMC3    C614409   0.090   3.308  14.458 -0.3913  0.1093  0.4433
    2TMC3     C14410   0.247   3.173  14.807  0.7421 -0.0903 -0.3529
    2TMC3     O14411   0.247   3.049  14.790 -0.4706  0.0940 -0.4416
    2TMC3     H14412   0.027   3.091  14.698 -1.0737  1.0933 -0.3582
    2TMC3    H114413   0.275   3.429  14.727  1.1146 -0.8385 -0.8757
    2TMC3    H214414   0.075   3.319  14.351  1.5565  1.5918  0.3138
    2TMC3    C714415   0.213   3.513  14.464  0.4594 -0.3748 -0.6838
    2TMC3    C814416   0.039   3.073  14.450 -0.3197 -0.1501  0.2191
    2TMC3    O114417   0.146   3.546  14.368  0.5424 -0.1397 -0.0904
    2TMC3    O214418   4.679   3.042  14.390 -0.7293 -0.3781 -0.1197
    3TCq1    O114419   1.129   4.297  14.722 -0.7179  0.2921 -0.0241
    3TCq1    C114420   1.183   4.175  14.712 -0.3592  0.1573  0.8653
    3TCq1    O214421   1.300   4.150  14.727  0.2093 -0.3627 -0.6199
    3TCq1    C214422   1.082   4.071  14.716  0.2083  0.0620 -0.0078
    3TCq1    C314423   1.102   3.981  14.818 -0.1648  0.1655  0.4048
    3TCq1    C414424   1.001   3.895  14.845  0.2337  0.7886 -0.9985
    3TCq1    C514425   0.897   3.885  14.755 -0.0216  0.1514  0.0444
    3TCq1    C614426   0.876   3.986  14.663 -0.2136 -0.0365  0.6110
    3TCq1    C714427   0.976   4.076  14.639  0.2763 -0.2954 -0.0762
    3TCq1    C814428   0.763   3.992  14.569 -0.0604  0.2807  0.2377
    3TCq1    O414429   0.745   4.096  14.504  0.9022  0.0559 -0.0177
    3TCq1    C914430   1.018   3.798  14.951  0.3898  0.6160  0.3065
    3TCq1    O514431   0.939   3.697  14.957 -0.8317  0.4815  0.3543
    3TCq1    O614432   1.125   3.798  15.013  1.0005  0.1855 -0.0932
    3TCq1    H114433   1.035   4.302  14.747 -0.5587 -0.9981  0.7969
    3TCq1    H214434   1.192   3.963  14.876  0.6234  0.6231 -0.6873
    3TCq1    H314435   0.824   3.812  14.788 -0.5244  0.0817 -1.2226
    3TCq1    H414436   0.963   4.153  14.563 -0.3463 -2.4763 -2.1775
    4MPD2     C14437   0.522   3.923  14.398  0.6328 -0.6573  0.8704
    4MPD2    C114438   0.570   3.850  14.507 -0.3455 -0.2563 -0.2190
    4MPD2    C214439   0.507   3.728  14.540  0.4389  0.2764  0.3490
    4MPD2    C314440   0.395   3.692  14.477  0.4196  0.1525  0.5156
    4MPD2    C414441   0.347   3.766  14.368 -0.5015 -0.3207  0.0677
    4MPD2    C514442   0.410   3.883  14.328  0.7468 -0.0147 -0.1969
    4MPD2     H14443   0.559   3.672  14.617  2.2663 -1.2601 -2.0117
    4MPD2    H114444   0.262   3.731  14.310  0.4621  0.5176 -1.8563
    4MPD2    H214445   0.578   4.005  14.354 -0.9425 -0.0648 -0.0392
    4MPD2    H314446   0.380   3.922  14.232 -1.7445 -0.8258  0.2661
    4MPD2     N14447   0.327   3.570  14.513 -0.3206  0.0786  0.4974
    4MPD2    H514448   0.369   3.513  14.585  0.0463 -0.4378 -0.1209
    4MPD2    N114449   0.690   3.877  14.577 -0.4885  0.1113  0.3225
    4MPD2    H714450   0.711   3.806  14.647  1.5985 -1.3600 -1.8131
    5TMC2    C114451   0.654   2.569  14.684  0.7323  0.0964 -0.2586
    5TMC2    C214452   0.676   2.510  14.803 -0.5709 -0.1588  0.0139
    5TMC2    C314453   0.760   2.575  14.890  0.2391 -0.1306 -0.5846
    5TMC2    C414454   0.693   2.696  14.654  0.0850 -0.3034 -0.5232
    5TMC2    C514455   0.765   2.763  14.750 -0.1334  0.2121  0.1995
    5TMC2    C614456   0.804   2.703  14.863 -0.8032 -0.0510 -0.5259
    5TMC2     C14457   0.516   2.554  14.642 -0.7720  0.0704 -0.2036
    5TMC2     O14458   0.478   2.436  14.638 -0.3617 -0.2888  0.3442
    5TMC2     H14459   0.635   2.411  14.823  0.2746 -0.6328 -0.5631
    5TMC2    H114460   0.664   2.744  14.562  4.0756  0.1016 -1.5400
    5TMC2    H214461   0.861   2.747  14.944  0.2507  0.8005 -1.7099
    5TMC2    C714462   0.690   2.886  14.778 -0.7766 -0.0210 -0.4281
    5TMC2    C814463   0.756   2.545  15.029  0.1288 -0.0632 -0.0833
    5TMC2    O114464   0.594   2.900  14.699 -0.2868  0.1921 -0.5202
    5TMC2    O214465   0.755   2.635  15.115  0.2749 -0.1828  0.0222
    5TMC2    O514466   0.794   2.416  15.045 -0.3732  0.4246  0.9024
    5TMC2    H514467   0.786   2.362  14.963  0.1987  1.5090  0.1385
    6MPD2     C14468   0.075   2.768  14.439 -0.3009 -0.2026 -0.1103
    6MPD2    C114469   0.171   2.863  14.483 -0.6463 -0.2711  0.6254
    6MPD2    C214470   0.289   2.823  14.543  0.0867 -0.6425 -0.2597
    6MPD2    C314471   0.323   2.695  14.566  0.4737 -1.2201 -0.3577
    6MPD2    C414472   0.229   2.600  14.520  1.0713 -0.2905  0.1298
    6MPD2    C514473   0.101   2.637  14.474  0.4709  0.4129  0.2276
    6MPD2     H14474   0.362   2.899  14.565 -0.6657 -0.4381  1.5319
    6MPD2    H114475   0.243   2.495  14.542  1.7782 -0.0442  0.8694
    6MPD2    H214476   4.717   2.793  14.396 -0.2469 -1.8972 -1.2244
    6MPD2    H314477   0.028   2.561  14.446  0.3430  0.8190 -0.5487
    6MPD2     N14478   0.453   2.673  14.616 -0.0301 -0.6812 -0.6109
    6MPD2    H514479   0.501   2.759  14.642 -0.5796 -0.1658 -1.2818
    6MPD2    N114480   0.147   2.996  14.488  0.4066 -0.2224 -0.4857
    6MPD2    H714481   0.221   3.054  14.526 -0.0139  0.4754 -0.7198
  945NH3     N114482   4.585   2.920   3.660 -0.4111  0.0262 -0.3296
  945NH3     H214483   4.670   2.969   3.686  0.1692 -1.8820  1.3899
  945NH3     H314484   4.578   2.842   3.725  0.0460  0.0343 -0.2676
  945NH3     H414485   4.512   2.970   3.709 -0.1908 -0.9295  0.9907
  946SOD     NA14486   2.402   4.494   8.353  0.1286  0.0882 -0.5346
  947SOD     NA14487   1.067   4.232  13.165 -0.3919  0.1090 -0.1595
  948SOD     NA14488   1.192   3.606  15.090  0.1144 -0.5477  0.3712
  949SOD     NA14489   4.241   3.440   9.161  0.0024 -0.0914 -0.0910
  950SOD     NA14490   3.390   4.562   8.378  0.7388  0.1544  0.0369
  951SOD     NA14491   2.602   3.135  17.657 -0.3683 -0.0927 -0.2778
  952SOD     NA14492   3.909   4.473  11.229 -0.1606  0.0294 -0.2492
  953SOD     NA14493   2.704   1.348  16.889  0.1317  0.0445 -0.1472
  954SOL     OW14494   3.826   3.981  10.932  0.6705 -0.2408 -0.2425
  954SOL    HW114495   3.910   3.992  10.977  1.5099 -2.6585 -1.2173
  954SOL    HW214496   3.823   4.060  10.878 -2.5058 -0.5989 -0.5918
  955SOL     OW14497   2.323   3.688   5.536  0.1346 -0.1703 -0.2114
  955SOL    HW114498   2.342   3.778   5.563 -0.9857 -0.3346  1.1626
  955SOL    HW214499   2.394   3.670   5.474  1.1986  2.1560  0.3305
  956SOL     OW14500   2.228   3.901   0.836  0.1476  0.0178  0.4082
  956SOL    HW114501   2.171   3.862   0.903 -0.9365  2.7826  1.0739
  956SOL    HW214502   2.306   3.867   0.881  0.4978 -0.0948 -0.2898
  957SOL     OW14503   2.848   3.438   5.870  0.6249 -0.8429 -0.0868
  957SOL    HW114504   2.925   3.381   5.877  0.1142 -1.5916 -0.5444
  957SOL    HW214505   2.782   3.369   5.872  0.8562 -1.0512  0.3360
  958SOL     OW14506   0.949   3.150   1.115 -0.3690 -0.0810  0.1307
  958SOL    HW114507   0.860   3.180   1.133  0.4732  0.8805  2.7599
  958SOL    HW214508   1.013   3.201   1.165  0.5950 -0.8964 -0.2545
  959SOL     OW14509   4.728   2.801   8.158 -0.1415  0.2324 -0.1996
  959SOL    HW114510   0.055   2.739   8.189 -0.8978 -0.6620 -0.3882
  959SOL    HW214511   4.730   2.787   8.063 -1.9794  0.0044 -0.2013
  960SOL     OW14512   2.271   1.020  11.309  0.3253 -0.0799  0.2169
  960SOL    HW114513   2.300   0.968  11.234 -0.4283 -1.8383  1.1615
  960SOL    HW214514   2.353   1.066  11.323  1.0016 -1.4985  0.9249
  961SOL     OW14515   1.045   2.674   3.871  0.4638  0.3239 -0.4701
  961SOL    HW114516   1.083   2.588   3.891 -1.8312 -0.5905  0.0640
  961SOL    HW214517   1.005   2.700   3.954  1.1334 -1.4206  0.4174
  962SOL     OW14518   3.912   2.782   0.444 -0.0742 -0.0102 -0.4031
  962SOL    HW114519   3.857   2.860   0.444 -1.0522 -0.7038 -0.6826
  962SOL    HW214520   3.966   2.806   0.519  1.1119  1.1593 -1.6054
  963SOL     OW14521   2.979   4.593   5.083 -0.3821 -0.3538  0.0465
  963SOL    HW114522   2.996   4.643   5.003 -0.5609  2.0029  1.4668
  963SOL    HW214523   3.025   4.653   5.143  1.4827 -0.4076 -1.3611
  964SOL     OW14524   0.356   2.582   1.815  0.4794  0.1829 -0.0685
  964SOL    HW114525   0.431   2.541   1.858 -0.3599 -1.5025 -0.1889
  964SOL    HW214526   0.298   2.507   1.797 -1.5897  1.2193  2.2690
  965SOL     OW14527   2.622   0.685   9.231 -0.2800 -0.1121 -0.7390
  965SOL    HW114528   2.620   0.594   9.200  1.2834  0.3790 -2.2823
  965SOL    HW214529   2.699   0.688   9.288 -0.4905  0.0278 -0.4654
  966SOL     OW14530   2.501   3.603  11.822 -0.1501  0.3137  0.6320
  966SOL    HW114531   2.521   3.645  11.738  0.6486 -0.1919  0.5692
  966SOL    HW214532   2.472   3.677  11.875  0.0803  0.7548  0.1311
  967SOL     OW14533   2.874   4.228   5.976 -0.0047  0.4832  0.1668
  967SOL    HW114534   2.884   4.293   6.045  0.8178  2.3492 -1.7314
  967SOL    HW214535   2.926   4.154   6.009 -1.4065 -1.7035 -2.5886
  968SOL     OW14536   0.198   4.560   7.940 -0.1054 -0.3602 -0.2929
  968SOL    HW114537   0.127   4.501   7.915  0.0464 -1.4738  1.9505
  968SOL    HW214538   0.201   4.534   8.032 -0.7687 -1.9889 -0.7503
  969SOL     OW14539   2.389   4.428  10.937 -0.5954 -0.2238  0.5898
  969SOL    HW114540   2.356   4.351  10.984 -0.4758 -0.6951 -0.1041
  969SOL    HW214541   2.414   4.476  11.016 -0.3245 -0.1607  0.4636
  970SOL     OW14542   0.444   0.900   9.941 -0.6853  0.0246 -0.2438
  970SOL    HW114543   0.438   0.944  10.026 -0.1670  1.5210 -0.9701
  970SOL    HW214544   0.537   0.876   9.938 -0.1559  1.9461  0.3367
  971SOL     OW14545   2.260   2.725  11.718 -0.1335 -0.6656  0.0692
  971SOL    HW114546   2.201   2.772  11.777 -0.8579 -0.2760 -0.9618
  971SOL    HW214547   2.192   2.665  11.688 -0.2522 -0.4119 -0.1702
  972SOL     OW14548   1.101   2.319   1.201  0.1530 -0.4008 -0.1139
  972SOL    HW114549   1.038   2.327   1.272  0.8872  3.5510  0.0960
  972SOL    HW214550   1.108   2.223   1.198 -1.8905 -0.5731  0.6628
  973SOL     OW14551   4.421   4.539   5.092 -0.0874  0.1452  0.1699
  973SOL    HW114552   4.404   4.585   5.175  1.0914 -0.7044  0.8883
  973SOL    HW214553   4.401   4.448   5.113  0.2232  0.8106  3.3597
  974SOL     OW14554   4.109   0.528   6.540  0.3327  0.2926  0.7358
  974SOL    HW114555   4.057   0.454   6.508  0.2159  1.2190 -1.2194
  974SOL    HW214556   4.168   0.539   6.465 -1.5475 -1.1264 -0.9549
  975SOL     OW14557   0.603   3.511   9.626 -0.3429  0.0367 -0.2533
  975SOL    HW114558   0.627   3.443   9.689 -0.2441 -1.5954 -2.0551
  975SOL    HW214559   0.510   3.532   9.635 -0.0324  0.9360  0.7478
  976SOL     OW14560   0.084   4.493   6.338  0.2869  0.6611 -0.0302
  976SOL    HW114561   0.169   4.469   6.375 -0.3751 -1.0841  0.3473
  976SOL    HW214562   0.088   4.586   6.360 -0.7658  0.4253  1.1328
  977SOL     OW14563   1.132   3.984  12.149  0.5202 -0.4947 -0.1448
  977SOL    HW114564   1.044   3.998  12.114 -0.3064  2.1225  2.9275
  977SOL    HW214565   1.150   4.053  12.213 -0.0814 -1.1674  0.7626
  978SOL     OW14566   3.606   4.317  13.159 -0.3623  0.6402 -0.0081
  978SOL    HW114567   3.589   4.237  13.210 -1.1042  1.4156  0.9603
  978SOL    HW214568   3.700   4.328  13.170 -0.3518 -1.0415  1.6083
  979SOL     OW14569   2.908   0.899   3.961  0.7735 -0.3050 -0.2703
  979SOL    HW114570   2.920   0.821   3.907 -0.5804 -0.3968 -0.4545
  979SOL    HW214571   2.993   0.900   4.004  1.1246  0.7516 -0.9621
  980SOL     OW14572   4.675   3.790   5.867 -0.0535  0.0635  0.7703
  980SOL    HW114573   4.590   3.834   5.869 -0.7012 -1.1435 -0.6760
  980SOL    HW214574   4.732   3.865   5.883 -0.6553  0.3031  1.7887
  981SOL     OW14575   1.527   2.429   7.579  0.2007 -0.2691 -0.1262
  981SOL    HW114576   1.520   2.446   7.673  3.6367  0.8892 -0.0916
  981SOL    HW214577   1.590   2.359   7.563  0.3470 -0.2997  0.5904
  982SOL     OW14578   1.990   3.119   2.823  0.3928 -0.2210  0.1342
  982SOL    HW114579   2.026   3.063   2.892  2.6565 -0.1878 -1.0129
  982SOL    HW214580   1.971   3.193   2.881 -0.2373 -1.7224  1.8220
  983SOL     OW14581   1.962   2.955  17.521 -0.0537  0.2819  0.4687
  983SOL    HW114582   2.050   2.984  17.546 -0.1703  0.0157  1.1851
  983SOL    HW214583   1.937   2.891  17.588 -1.3739 -0.1101 -0.4181
  984SOL     OW14584   1.890   1.731  15.665 -0.1801 -0.7529 -0.3459
  984SOL    HW114585   1.826   1.746  15.596 -0.6974  2.7531  0.9148
  984SOL    HW214586   1.884   1.637  15.684 -2.2062 -0.3474  1.0053
  985SOL     OW14587   3.128   0.509   4.389 -0.0318 -0.2283  0.2662
  985SOL    HW114588   3.127   0.519   4.294 -1.2788 -1.3414  0.1616
  985SOL    HW214589   3.201   0.564   4.419  0.5234  0.3789 -2.1682
  986SOL     OW14590   1.531   0.965   2.952 -0.4091 -0.2291  0.4242
  986SOL    HW114591   1.453   0.958   2.897  1.0599  0.4134 -1.7210
  986SOL    HW214592   1.496   1.024   3.019  0.6838  0.2071  0.6105
  987SOL     OW14593   0.024   4.047   3.924 -0.2045  0.0524 -0.4019
  987SOL    HW114594   0.045   4.129   3.878 -1.4953  0.5082 -0.1637
  987SOL    HW214595   4.667   4.057   3.924 -0.1550  0.1815  3.4029
  988SOL     OW14596   3.622   1.336   2.279  0.2293  0.3003 -0.2769
  988SOL    HW114597   3.569   1.285   2.217  1.6930 -2.7125  0.9637
  988SOL    HW214598   3.626   1.425   2.243 -2.4659  1.3324  2.0159
  989SOL     OW14599   3.274   2.312  12.821  0.0438 -0.0262 -0.0378
  989SOL    HW114600   3.264   2.405  12.837  0.7505  0.0160  0.1615
  989SOL    HW214601   3.249   2.309  12.728 -0.8504 -0.0604  0.2066
  990SOL     OW14602   4.570   0.653   2.052 -0.0724 -0.2586  0.5903
  990SOL    HW114603   4.546   0.691   2.137 -0.4446 -1.0357  0.8368
  990SOL    HW214604   4.663   0.673   2.060  0.0965 -0.7541 -0.1349
  991SOL     OW14605   1.804   3.802  17.265  0.4340 -0.0178 -0.0335
  991SOL    HW114606   1.825   3.824  17.356 -0.5571 -1.1309  0.4604
  991SOL    HW214607   1.753   3.724  17.287 -2.9242  2.0190 -0.5897
  992SOL     OW14608   2.268   0.995   2.211 -0.1459 -0.4405 -0.4017
  992SOL    HW114609   2.213   1.073   2.219 -0.7753 -1.0587  1.3100
  992SOL    HW214610   2.238   0.947   2.135  0.5351  0.0555 -0.9783
  993SOL     OW14611   1.099   3.444  16.009  0.1154 -0.1420 -0.0400
  993SOL    HW114612   1.163   3.404  15.950 -0.5332  0.5599 -1.2253
  993SOL    HW214613   1.065   3.522  15.964  2.5301  0.8162 -0.2111
  994SOL     OW14614   4.530   2.982   7.818  0.4417  0.1046  0.0738
  994SOL    HW114615   4.462   2.923   7.851 -2.5930  2.8238 -1.2342
  994SOL    HW214616   4.485   3.057   7.779  1.8602  0.8864 -0.0427
  995SOL     OW14617   1.985   0.230   4.789 -0.5783 -0.0121 -0.1419
  995SOL    HW114618   2.001   0.309   4.840  0.8476  0.0824 -0.7382
  995SOL    HW214619   1.992   0.260   4.699 -1.2504 -0.4615 -0.3398
  996SOL     OW14620   2.031   4.342   2.040 -0.4813  0.2439  1.0333
  996SOL    HW114621   2.099   4.399   2.004  0.8227 -1.8774  0.1543
  996SOL    HW214622   2.058   4.261   1.997  2.7018 -0.0684  3.7004
  997SOL     OW14623   3.594   2.140   7.972  0.4142  0.4266  0.3555
  997SOL    HW114624   3.642   2.061   7.996  0.3367  0.9088  2.1227
  997SOL    HW214625   3.557   2.164   8.057  2.7955 -2.7787  2.2881
  998SOL     OW14626   0.133   3.931   9.719  0.2354 -0.6936 -0.3338
  998SOL    HW114627   0.205   3.896   9.770 -1.0565 -1.8573  0.6932
  998SOL    HW214628   0.172   4.015   9.697 -0.7609  0.1498  1.1708
  999SOL     OW14629   3.311   1.137   7.790 -0.3882  0.3757  0.3190
  999SOL    HW114630   3.259   1.205   7.833 -1.6314  0.9828 -2.1376
  999SOL    HW214631   3.361   1.104   7.864 -0.5533 -0.6687 -0.0338
 1000SOL     OW14632   2.551   2.080   7.806  0.0768  0.7283  0.3172
 1000SOL    HW114633   2.463   2.075   7.843 -0.4670 -1.8870 -1.3082
 1000SOL    HW214634   2.595   2.136   7.869  0.4895  1.7151 -0.8369
 1001SOL     OW14635   2.327   1.279   6.052 -0.5159  0.2022 -0.0962
 1001SOL    HW114636   2.366   1.313   5.972 -1.9905  0.3260 -0.7727
 1001SOL    HW214637   2.301   1.366   6.082 -3.2879 -0.2218 -1.2927
 1002SOL     OW14638   2.563   3.377   1.788 -0.6488  0.2748 -0.2765
 1002SOL    HW114639   2.547   3.354   1.880  2.3528  2.0195  0.6711
 1002SOL    HW214640   2.568   3.287   1.756  1.3605 -0.2119  1.3987
 1003SOL     OW14641   4.007   1.523   5.905 -0.1530  0.5864  0.1651
 1003SOL    HW114642   3.933   1.558   5.856 -1.5117 -0.7231  1.2940
 1003SOL    HW214643   4.025   1.445   5.852  1.2906  0.5604  0.6934
 1004SOL     OW14644   1.696   2.146  17.738  0.0439  0.0896  0.6792
 1004SOL    HW114645   1.782   2.148  17.696 -1.0866  0.2715 -1.6089
 1004SOL    HW214646   1.668   2.237  17.736 -0.4798 -0.1588 -2.2075
 1005SOL     OW14647   0.574   3.592  11.190 -0.0088 -0.7872  0.9652
 1005SOL    HW114648   0.575   3.519  11.252  1.2575 -2.5007 -1.0647
 1005SOL    HW214649   0.580   3.661  11.256 -0.1631 -0.1455  0.3190
 1006SOL     OW14650   0.299   1.999   0.779 -0.5431 -0.3203  0.3004
 1006SOL    HW114651   0.387   1.987   0.813 -0.2442  1.2521  0.1083
 1006SOL    HW214652   0.271   1.910   0.760  0.1026 -0.9327  2.1550
 1007SOL     OW14653   4.304   2.499  10.472 -0.0189  0.1907 -0.0359
 1007SOL    HW114654   4.301   2.472  10.563  1.7196  2.6042  0.7342
 1007SOL    HW214655   4.211   2.502  10.448  0.0423 -1.6497 -0.5064
 1008SOL     OW14656   2.383   4.032   3.175  0.2760  0.6342 -0.3209
 1008SOL    HW114657   2.396   4.119   3.211 -1.3808  1.2789 -1.2853
 1008SOL    HW214658   2.467   3.999   3.143  0.0313  0.7983 -1.1503
 1009SOL     OW14659   2.397   1.142   6.371  0.0753  0.1330 -0.2771
 1009SOL    HW114660   2.395   1.224   6.420 -0.1092  0.7163 -1.2551
 1009SOL    HW214661   2.456   1.164   6.298  1.4786  1.6436  1.3104
 1010SOL     OW14662   1.245   0.371   8.899  0.5850 -0.7048  0.0729
 1010SOL    HW114663   1.259   0.338   8.811  0.1532 -0.3213 -0.1334
 1010SOL    HW214664   1.264   0.465   8.908  1.4942 -0.7499 -1.4699
 1011SOL     OW14665   1.123   1.539   2.153 -0.0963  0.7156  0.0323
 1011SOL    HW114666   1.217   1.546   2.142 -0.2821 -1.8155 -3.1337
 1011SOL    HW214667   1.098   1.498   2.070 -1.2825 -1.6923  1.5486
 1012SOL     OW14668   2.589   4.705   7.114 -0.2928 -0.1319 -0.5697
 1012SOL    HW114669   2.679   4.707   7.147 -0.7207 -0.8289  0.6243
 1012SOL    HW214670   2.612   4.697   7.021  1.1792 -2.6064  0.0013
 1013SOL     OW14671   2.691   3.126   3.098 -0.5468  0.1718  0.5490
 1013SOL    HW114672   2.622   3.160   3.155 -2.3093 -0.0666 -1.4383
 1013SOL    HW214673   2.718   3.051   3.150 -1.8471 -0.6782 -0.0165
 1014SOL     OW14674   0.625   2.412  17.068  0.2387 -0.2690 -0.0735
 1014SOL    HW114675   0.577   2.440  17.146 -0.3297  3.2679 -1.7430
 1014SOL    HW214676   0.580   2.472  17.009 -0.5012 -3.0755 -2.3592
 1015SOL     OW14677   0.730   0.563  11.000  0.4538  0.4001 -0.0423
 1015SOL    HW114678   0.716   0.564  11.095  1.0711 -2.8402  0.0910
 1015SOL    HW214679   0.777   0.479  11.002  1.1778  0.8176  0.4266
 1016SOL     OW14680   1.292   2.381   6.431  0.1808 -0.1774 -0.5211
 1016SOL    HW114681   1.234   2.381   6.507 -0.8298 -1.5763 -1.2855
 1016SOL    HW214682   1.297   2.476   6.426 -0.9344 -0.0272  1.2048
 1017SOL     OW14683   2.307   1.369   3.496 -0.4506 -0.1345 -0.5833
 1017SOL    HW114684   2.245   1.362   3.423 -0.2281 -1.6267 -0.6362
 1017SOL    HW214685   2.376   1.433   3.481  1.0966 -1.5782  0.3624
 1018SOL     OW14686   1.919   0.950  17.661 -0.1095  0.2034  0.2749
 1018SOL    HW114687   1.906   0.867  17.616 -2.0898  0.7095 -0.1156
 1018SOL    HW214688   1.836   0.958  17.709 -0.7247  1.0880 -0.9218
 1019SOL     OW14689   1.162   0.636   9.169 -0.6979 -0.4861 -0.5469
 1019SOL    HW114690   1.241   0.622   9.222  0.2737  3.5710 -0.9107
 1019SOL    HW214691   1.118   0.695   9.230  0.6667 -0.1922  0.1656
 1020SOL     OW14692   1.603   0.156   0.838 -0.6191 -0.2736  0.6379
 1020SOL    HW114693   1.672   0.174   0.902  0.1912 -1.8307  0.2206
 1020SOL    HW214694   1.624   0.068   0.805  0.9189 -0.1629  1.2930
 1021SOL     OW14695   0.015   1.739   4.778 -0.3072 -0.2831  0.1727
 1021SOL    HW114696   4.679   1.797   4.797 -1.7545 -0.4887 -4.8314
 1021SOL    HW214697   0.041   1.741   4.871  0.0314 -0.3714  0.0784
 1022SOL     OW14698   3.768   4.030   3.418 -0.0767 -0.2991  0.5558
 1022SOL    HW114699   3.739   3.941   3.400 -0.3217  0.0650 -0.8150
 1022SOL    HW214700   3.727   4.079   3.347 -1.8278 -2.3822  0.1362
 1023SOL     OW14701   3.263   1.282   1.627  0.0507  0.0059  0.3992
 1023SOL    HW114702   3.320   1.205   1.631 -0.4942 -0.4990 -1.4317
 1023SOL    HW214703   3.196   1.244   1.570 -0.6661  0.5694  0.8745
 1024SOL     OW14704   0.520   0.585   7.598 -0.1482  0.0169 -1.2348
 1024SOL    HW114705   0.471   0.553   7.674 -1.2181 -1.9406 -2.7450
 1024SOL    HW214706   0.518   0.680   7.609 -1.4642  0.0182 -1.5486
 1025SOL     OW14707   0.920   3.943  15.766  0.0047 -0.2093  0.1091
 1025SOL    HW114708   0.896   3.941  15.673  0.2776 -0.9134  0.0494
 1025SOL    HW214709   0.845   3.984  15.808  1.0334 -1.8320  3.4905
 1026SOL     OW14710   0.437   4.151   6.542 -0.1119  0.2347 -0.6790
 1026SOL    HW114711   0.433   4.152   6.638 -1.1634 -0.2859 -0.7142
 1026SOL    HW214712   0.412   4.241   6.521 -3.3544 -0.5656 -0.2220
 1027SOL     OW14713   2.820   4.293   3.001  0.6253  0.1365  0.4288
 1027SOL    HW114714   2.804   4.209   2.958 -0.0775 -0.2649  1.4929
 1027SOL    HW214715   2.753   4.346   2.957 -0.4276 -0.3310  1.4954
 1028SOL     OW14716   4.581   3.210  10.701  0.7013  0.4007 -0.2380
 1028SOL    HW114717   4.522   3.140  10.674  0.4332  0.4284  0.2776
 1028SOL    HW214718   4.604   3.262  10.624 -1.3379  0.7430 -0.6161
 1029SOL     OW14719   4.260   0.539   9.427  0.0583 -0.5436 -0.0104
 1029SOL    HW114720   4.257   0.519   9.520  2.2647 -0.0067  0.1621
 1029SOL    HW214721   4.192   0.479   9.396  0.6441 -0.9380 -0.5178
 1030SOL     OW14722   4.449   3.001   5.582  0.1475  0.7202  0.5433
 1030SOL    HW114723   4.476   3.092   5.567 -0.1033  0.3866 -1.9052
 1030SOL    HW214724   4.480   2.954   5.505  0.8425  4.1939 -1.3199
 1031SOL     OW14725   1.566   1.497   8.244 -0.5651 -0.0375  0.3723
 1031SOL    HW114726   1.507   1.496   8.169 -1.2337 -0.1423  0.8965
 1031SOL    HW214727   1.555   1.589   8.267  2.0987  0.8524 -2.0358
 1032SOL     OW14728   1.271   1.549   6.160 -0.0871 -0.4699 -0.2908
 1032SOL    HW114729   1.321   1.528   6.081  0.9474  0.6267  0.0713
 1032SOL    HW214730   1.288   1.465   6.203  0.3029 -1.5137 -2.5012
 1033SOL     OW14731   0.222   4.682   6.984 -0.2921  0.3489 -0.6925
 1033SOL    HW114732   0.158   4.709   6.918 -2.0810 -2.0127  0.1097
 1033SOL    HW214733   0.307   4.700   6.943 -0.6868  2.0130 -0.8027
 1034SOL     OW14734   0.011   0.303   4.382  0.6519 -0.2421  0.6266
 1034SOL    HW114735   0.082   0.320   4.444  1.3808  0.1941 -0.3306
 1034SOL    HW214736   4.685   0.370   4.401  0.3597 -0.0549 -1.0321
 1035SOL     OW14737   2.860   1.844  11.962 -0.5606 -0.6165  0.0469
 1035SOL    HW114738   2.952   1.860  11.981  0.0064 -2.6543 -1.0428
 1035SOL    HW214739   2.838   1.794  12.041 -2.4666 -1.4914 -1.0480
 1036SOL     OW14740   2.170   2.239   1.359  0.1383 -0.2016  0.2931
 1036SOL    HW114741   2.117   2.215   1.282  0.2205 -2.9964  1.0979
 1036SOL    HW214742   2.110   2.232   1.433  0.2019 -2.1517  0.1626
 1037SOL     OW14743   2.805   4.272  10.507  0.4358  0.0336 -0.2537
 1037SOL    HW114744   2.789   4.177  10.503 -0.2504  0.2106 -1.6171
 1037SOL    HW214745   2.867   4.277  10.579 -0.7331  0.7354  0.7058
 1038SOL     OW14746   3.531   4.123  14.018  0.3315 -0.2913  0.0631
 1038SOL    HW114747   3.565   4.209  14.042 -2.5043  1.2231 -1.4278
 1038SOL    HW214748   3.582   4.061  14.069  1.5830  1.4270  0.9076
 1039SOL     OW14749   0.510   0.148   9.103 -0.5083  0.3418  0.2361
 1039SOL    HW114750   0.465   0.209   9.162 -0.6802  1.2314 -0.8101
 1039SOL    HW214751   0.597   0.143   9.142  0.1919 -0.4696 -1.4570
 1040SOL     OW14752   0.555   2.219   1.829 -0.7028  0.0462 -0.4786
 1040SOL    HW114753   0.517   2.186   1.748 -0.3521 -0.4539 -0.4353
 1040SOL    HW214754   0.641   2.181   1.814 -0.0491  0.4234  2.2610
 1041SOL     OW14755   0.574   2.870   6.604 -0.2091  0.2091 -0.2933
 1041SOL    HW114756   0.546   2.780   6.589  1.2034 -0.4369  0.9546
 1041SOL    HW214757   0.500   2.925   6.580  0.7446  1.1635 -1.0805
 1042SOL     OW14758   0.322   0.945  14.692 -0.5548 -0.2573  0.4942
 1042SOL    HW114759   0.380   0.965  14.765  0.8282 -2.1387 -0.0897
 1042SOL    HW214760   0.236   0.926  14.730 -1.1405 -0.3767 -0.8760
 1043SOL     OW14761   1.791   0.802   9.013 -0.1564 -0.1173  0.0178
 1043SOL    HW114762   1.762   0.774   8.927 -2.8782  1.0526  0.5774
 1043SOL    HW214763   1.763   0.891   8.993 -0.1795 -0.3865 -1.1609
 1044SOL     OW14764   1.246   2.737   2.407  0.6034 -0.1764  0.4333
 1044SOL    HW114765   1.217   2.822   2.441  1.8597  1.0661 -1.5878
 1044SOL    HW214766   1.327   2.762   2.364  0.5481 -3.0003 -1.2400
 1045SOL     OW14767   4.246   3.111   4.665 -0.0174  0.3377 -0.1239
 1045SOL    HW114768   4.205   3.059   4.596  0.6486 -0.3283 -0.0134
 1045SOL    HW214769   4.259   3.198   4.626 -0.5234  0.6750  0.4483
 1046SOL     OW14770   1.899   0.124  14.903 -0.0632  0.2525  0.1651
 1046SOL    HW114771   1.994   0.113  14.899 -0.1387  0.5572 -2.7717
 1046SOL    HW214772   1.873   0.058  14.839  1.1252 -1.3832  1.3816
 1047SOL     OW14773   2.175   4.677  17.016  0.4017 -0.1360 -0.4468
 1047SOL    HW114774   2.145   0.023  16.984 -0.7366  0.0684  1.1750
 1047SOL    HW214775   2.263   4.704  17.043  1.4860 -3.2831 -0.8655
 1048SOL     OW14776   0.815   0.739  16.289  0.3679  0.4361  0.8758
 1048SOL    HW114777   0.762   0.802  16.338  0.8031  0.1798  1.6720
 1048SOL    HW214778   0.774   0.747  16.203 -0.6660 -1.9101  1.1620
 1049SOL     OW14779   2.837   1.946   7.366  0.1121 -0.1923 -0.3307
 1049SOL    HW114780   2.903   2.010   7.393 -0.4193 -0.4725  1.6145
 1049SOL    HW214781   2.853   1.877   7.431  1.3287 -1.3991 -1.9157
 1050SOL     OW14782   1.799   2.799   4.204  0.3916  0.4553 -0.2629
 1050SOL    HW114783   1.839   2.871   4.155 -0.1632  2.0048  1.5692
 1050SOL    HW214784   1.815   2.727   4.143  2.0929  0.7692 -0.1781
 1051SOL     OW14785   0.387   4.541   2.092  0.3707  0.8192 -0.4838
 1051SOL    HW114786   0.319   4.530   2.159  1.0146  1.2680  0.2444
 1051SOL    HW214787   0.326   4.566   2.023  0.3363 -0.9234 -1.0985
 1052SOL     OW14788   0.187   2.326   3.831  0.4424  0.4256 -0.0857
 1052SOL    HW114789   0.104   2.362   3.799 -0.2453 -0.2307  0.9446
 1052SOL    HW214790   0.242   2.335   3.753  1.4504 -2.8256  0.2712
 1053SOL     OW14791   4.313   1.278   3.299  0.0718  0.7960 -0.4282
 1053SOL    HW114792   4.318   1.343   3.229 -1.2205  0.4130 -0.8732
 1053SOL    HW214793   4.405   1.272   3.323 -0.0987  2.5461  0.6234
 1054SOL     OW14794   2.210   1.666   8.986  0.0233 -0.1871  0.0134
 1054SOL    HW114795   2.131   1.660   9.040  0.4451 -0.8714  0.5597
 1054SOL    HW214796   2.256   1.588   9.018 -1.1355 -0.6490  0.5322
 1055SOL     OW14797   1.295   1.237   5.982  0.1502  0.1644  0.6287
 1055SOL    HW114798   1.213   1.191   5.964  0.0821  1.4991 -2.4937
 1055SOL    HW214799   1.296   1.318   5.930  1.3512 -0.3892 -0.2119
 1056SOL     OW14800   4.274   4.399   7.202 -0.2018 -0.1746 -0.1983
 1056SOL    HW114801   4.328   4.439   7.271  2.4050 -1.1575 -1.6894
 1056SOL    HW214802   4.231   4.482   7.179  1.7176  0.0660 -2.8515
 1057SOL     OW14803   4.666   2.031   9.653  0.2507  0.0294 -0.1456
 1057SOL    HW114804   4.651   2.074   9.569 -1.3115  1.2351  0.7315
 1057SOL    HW214805   4.619   1.948   9.646  1.7724 -0.9832  1.6139
 1058SOL     OW14806   3.097   2.229   3.022 -0.6778  1.0707 -0.7824
 1058SOL    HW114807   3.074   2.259   2.934 -1.0754  3.2845  0.0913
 1058SOL    HW214808   3.191   2.250   3.020 -0.2677 -0.7124  0.1802
 1059SOL     OW14809   4.550   2.948  14.709 -0.1323  0.2302 -0.1746
 1059SOL    HW114810   4.635   2.908  14.725  0.0262  0.2659 -0.9129
 1059SOL    HW214811   4.486   2.890  14.751  0.2346 -0.5148 -0.6522
 1060SOL     OW14812   1.789   1.695   9.246 -0.2400  0.4876  0.3908
 1060SOL    HW114813   1.802   1.726   9.157  1.9125  0.6635  0.7577
 1060SOL    HW214814   1.736   1.617   9.232 -0.5990  0.4534  1.9433
 1061SOL     OW14815   0.051   0.883   7.338  0.0145  0.7122 -0.2119
 1061SOL    HW114816   4.717   0.851   7.283 -1.7534 -0.2139  2.6707
 1061SOL    HW214817   0.019   0.861   7.425  0.6738  1.3451  0.1843
 1062SOL     OW14818   3.338   4.336   8.131 -0.4771  0.2750  0.0325
 1062SOL    HW114819   3.431   4.357   8.130 -0.5174  0.4560  0.5552
 1062SOL    HW214820   3.352   4.248   8.167 -0.3204  0.1452 -0.3360
 1063SOL     OW14821   3.610   4.347  17.504  0.0478 -0.0495  0.5876
 1063SOL    HW114822   3.594   4.410  17.434 -3.0216  0.6424  1.8939
 1063SOL    HW214823   3.698   4.361  17.537 -0.2221  0.1714  1.2201
 1064SOL     OW14824   3.061   3.274   2.369 -0.2862  0.1534 -0.2233
 1064SOL    HW114825   3.121   3.210   2.331 -0.5930 -0.3371  0.1268
 1064SOL    HW214826   2.987   3.264   2.309 -0.6681 -0.6304  0.3782
 1065SOL     OW14827   4.729   4.106   0.597 -0.0951  0.0588  0.3713
 1065SOL    HW114828   0.026   4.179   0.546 -0.8946  1.1439  1.3661
 1065SOL    HW214829   0.011   4.042   0.530 -0.4701  0.7071 -0.3668
 1066SOL     OW14830   4.737   0.486   3.350 -0.3003 -0.3007  0.7381
 1066SOL    HW114831   4.723   0.455   3.440 -3.3789 -0.5563  0.1534
 1066SOL    HW214832   0.041   0.570   3.370 -1.1456  0.3552 -0.1975
 1067SOL     OW14833   1.784   1.482   7.072 -0.1587  0.1991  0.3954
 1067SOL    HW114834   1.712   1.478   7.009  2.1578 -1.2844 -2.1115
 1067SOL    HW214835   1.855   1.528   7.029 -0.8621  1.0511  0.1464
 1068SOL     OW14836   3.199   1.565   5.815 -0.1658  0.1820  0.1635
 1068SOL    HW114837   3.250   1.632   5.771  1.2259 -1.1671 -0.2682
 1068SOL    HW214838   3.151   1.535   5.738 -0.0970 -1.8516  0.8951
 1069SOL     OW14839   2.852   0.585   1.099 -0.2752  0.3310 -0.1559
 1069SOL    HW114840   2.934   0.541   1.077  0.5732  0.7540  2.0779
 1069SOL    HW214841   2.791   0.527   1.054 -2.3910  2.0561  0.5048
 1070SOL     OW14842   4.509   3.919   3.147  0.0334  0.2772  0.0330
 1070SOL    HW114843   4.419   3.920   3.180 -0.2810  0.6072 -0.8401
 1070SOL    HW214844   4.495   3.987   3.080 -0.0553  0.3985  0.1739
 1071SOL     OW14845   2.254   4.528   7.730 -0.3563 -0.4209 -0.6390
 1071SOL    HW114846   2.179   4.584   7.712  0.9778  0.5681 -3.1753
 1071SOL    HW214847   2.242   4.478   7.649  1.7865 -0.3302 -1.0048
 1072SOL     OW14848   0.066   2.192   7.025  0.0284  1.1469 -0.2653
 1072SOL    HW114849   0.130   2.140   6.978  0.9421  1.5980  0.4969
 1072SOL    HW214850   4.722   2.147   7.008 -0.3775  2.1186 -0.9380
 1073SOL     OW14851   1.199   3.878   7.317  0.5990 -0.0639 -0.0333
 1073SOL    HW114852   1.148   3.862   7.237 -0.7767  0.6764  0.6948
 1073SOL    HW214853   1.240   3.961   7.296 -2.4528  1.7779  1.3105
 1074SOL     OW14854   3.855   0.502   9.580  0.0798  0.2637 -0.4228
 1074SOL    HW114855   3.879   0.512   9.488  1.2013 -4.3042 -0.6563
 1074SOL    HW214856   3.884   0.412   9.596 -3.0502 -0.8756 -1.0646
 1075SOL     OW14857   2.559   2.772   1.103 -0.4366 -0.2795  0.1444
 1075SOL    HW114858   2.532   2.683   1.082  2.2901 -0.9314 -0.5787
 1075SOL    HW214859   2.517   2.782   1.188  1.4371 -0.3971  1.0704
 1076SOL     OW14860   1.957   2.014   4.954  0.0391  0.1630 -0.1700
 1076SOL    HW114861   1.966   1.955   4.880  0.4517 -0.4286  0.3530
 1076SOL    HW214862   1.863   2.027   4.963 -0.0493 -1.7012  1.4763
 1077SOL     OW14863   3.978   0.699   6.232  0.8263  0.2181 -0.1119
 1077SOL    HW114864   3.931   0.709   6.314  4.2227 -0.7548  1.9725
 1077SOL    HW214865   4.052   0.759   6.245  0.4058  0.4484  1.1028
 1078SOL     OW14866   2.315   3.302   5.920 -0.3848  0.0608 -0.2694
 1078SOL    HW114867   2.233   3.350   5.911 -0.2288  0.3734 -0.0272
 1078SOL    HW214868   2.363   3.350   5.853 -0.6060 -0.7523 -1.0070
 1079SOL     OW14869   0.881   3.235   4.504  0.2726 -0.4376  0.2501
 1079SOL    HW114870   0.860   3.270   4.417 -0.1845  0.2068  0.6199
 1079SOL    HW214871   0.941   3.164   4.482  0.6468  0.0495 -0.3032
 1080SOL     OW14872   2.935   4.501   6.196  0.0535  0.5478  0.2636
 1080SOL    HW114873   2.926   4.578   6.141  0.6972 -0.0272 -0.6367
 1080SOL    HW214874   3.021   4.465   6.174  0.0100  2.2687 -2.7495
 1081SOL     OW14875   2.905   3.411  14.920 -0.3779 -0.2249 -0.4506
 1081SOL    HW114876   2.833   3.475  14.917 -0.7081 -0.6455 -1.8326
 1081SOL    HW214877   2.859   3.330  14.895  0.8135 -1.2156  0.6200
 1082SOL     OW14878   2.491   1.569   3.508  0.0776  0.2587 -0.2240
 1082SOL    HW114879   2.574   1.602   3.474  0.9632 -0.6383  1.0658
 1082SOL    HW214880   2.442   1.651   3.504  0.2292  0.4066  0.9892
 1083SOL     OW14881   0.248   0.969   2.835  0.0907  0.1009 -0.1516
 1083SOL    HW114882   0.313   0.987   2.767  0.7399 -1.2561  0.0973
 1083SOL    HW214883   0.164   0.975   2.790  0.3005 -1.1091 -0.7066
 1084SOL     OW14884   0.216   2.842   9.731  0.2140 -0.5538  0.0305
 1084SOL    HW114885   0.267   2.923   9.731 -3.6933  1.9079 -0.7920
 1084SOL    HW214886   0.263   2.797   9.802 -0.2006 -0.6978  0.2158
 1085SOL     OW14887   1.798   4.176  14.888  0.0251  0.0691 -0.0545
 1085SOL    HW114888   1.779   4.122  14.812  0.8335  1.8734 -1.5448
 1085SOL    HW214889   1.710   4.194  14.921  0.1985 -2.2499  1.6413
 1086SOL     OW14890   4.731   1.468   3.662 -0.4485 -0.5836  0.3334
 1086SOL    HW114891   0.045   1.542   3.633 -1.0475 -0.5542 -0.6836
 1086SOL    HW214892   4.671   1.472   3.588 -0.0624 -0.9236  0.0017
 1087SOL     OW14893   0.878   1.139   4.937  0.4611 -0.4827 -0.0104
 1087SOL    HW114894   0.940   1.070   4.961  0.1347 -1.0000 -0.6353
 1087SOL    HW214895   0.791   1.108   4.965  0.6719 -0.7706  0.3225
 1088SOL     OW14896   2.697   0.317   9.343  0.1966  0.6597  0.4433
 1088SOL    HW114897   2.619   0.339   9.291  1.5320  0.2906 -1.7087
 1088SOL    HW214898   2.736   0.404   9.330 -1.3991  1.3294  0.0943
 1089SOL     OW14899   3.644   1.266  11.049  0.1972 -0.0102 -0.4237
 1089SOL    HW114900   3.585   1.240  10.978 -1.2131  1.1793  0.2876
 1089SOL    HW214901   3.639   1.187  11.102  4.1123  1.3665  1.9803
 1090SOL     OW14902   2.492   0.889   5.615 -0.0796  0.1215 -0.3598
 1090SOL    HW114903   2.547   0.965   5.593  0.2258  1.0147  3.4899
 1090SOL    HW214904   2.410   0.922   5.577 -2.4031 -1.6765  3.1588
 1091SOL     OW14905   3.364   2.960   7.679 -0.2107  0.0471 -0.1331
 1091SOL    HW114906   3.419   2.948   7.601 -0.1695 -1.6456  0.1628
 1091SOL    HW214907   3.339   2.877   7.718  1.0312  0.0409  0.6499
 1092SOL     OW14908   1.519   0.180   5.394  0.2126 -0.1416 -0.1700
 1092SOL    HW114909   1.429   0.160   5.418 -0.4434  1.2334 -1.4807
 1092SOL    HW214910   1.549   0.091   5.376  0.8971  0.7066 -3.2899
 1093SOL     OW14911   3.928   3.362   7.908  0.7529  0.0111  0.1377
 1093SOL    HW114912   3.964   3.294   7.851  2.1564  2.4736 -1.8718
 1093SOL    HW214913   3.861   3.400   7.851  0.1508  0.1901  0.9663
 1094SOL     OW14914   3.852   1.729   7.526 -1.0732  0.2785  0.2802
 1094SOL    HW114915   3.851   1.689   7.439  0.9409 -0.7909  0.7304
 1094SOL    HW214916   3.912   1.801   7.509 -0.6576  0.8662  4.1736
 1095SOL     OW14917   0.832   0.679   3.953 -0.3714  0.9508  0.2578
 1095SOL    HW114918   0.794   0.766   3.968 -0.5960  0.8169  0.4566
 1095SOL    HW214919   0.757   0.629   3.922  0.2701 -0.3289  0.7900
 1096SOL     OW14920   2.513   2.760   3.182  0.2624 -0.2907 -0.2856
 1096SOL    HW114921   2.499   2.725   3.094  0.1268 -0.6605 -0.1174
 1096SOL    HW214922   2.423   2.754   3.214  0.4666  0.4953  0.4490
 1097SOL     OW14923   0.438   0.870  16.226  0.0332  0.0253 -0.1126
 1097SOL    HW114924   0.371   0.828  16.280 -0.4005 -0.9219 -1.3516
 1097SOL    HW214925   0.483   0.923  16.291  2.0772 -1.8428  0.0024
 1098SOL     OW14926   3.443   0.836   2.553 -0.2610  0.0794  0.3093
 1098SOL    HW114927   3.525   0.792   2.576 -0.3288 -0.2012  0.0178
 1098SOL    HW214928   3.433   0.810   2.461 -1.3319  1.3768  0.0529
 1099SOL     OW14929   4.373   1.160   6.635 -0.0245  0.1499  0.4697
 1099SOL    HW114930   4.310   1.230   6.621 -2.6821 -2.1853  0.7822
 1099SOL    HW214931   4.318   1.091   6.673  1.2902 -0.1713  1.8072
 1100SOL     OW14932   3.210   0.820   3.631  0.5749  0.0140 -0.0443
 1100SOL    HW114933   3.168   0.781   3.555  1.0352  2.0728 -1.3676
 1100SOL    HW214934   3.140   0.876   3.667  0.5856  0.8196 -1.2776
 1101SOL     OW14935   2.604   3.018   2.528  0.8604  0.2880 -0.0448
 1101SOL    HW114936   2.539   3.084   2.547 -0.7612 -1.2963 -0.0793
 1101SOL    HW214937   2.621   3.030   2.434 -2.5554  1.3680 -0.5198
 1102SOL     OW14938   3.801   3.264  17.100 -0.0775 -0.0728  0.2157
 1102SOL    HW114939   3.804   3.331  17.033 -0.8172 -0.4151 -0.1655
 1102SOL    HW214940   3.886   3.277  17.141 -1.6244 -0.7929  3.7130
 1103SOL     OW14941   1.491   1.742   3.935 -0.0188  0.2858 -0.1217
 1103SOL    HW114942   1.420   1.744   4.000  1.8723 -0.5969  1.9699
 1103SOL    HW214943   1.493   1.837   3.921 -2.3338  0.6904  2.1176
 1104SOL     OW14944   2.878   4.543  16.916 -0.5142 -0.2613  0.0022
 1104SOL    HW114945   2.896   4.449  16.915 -0.7153 -0.2869 -1.1240
 1104SOL    HW214946   2.794   4.543  16.870 -0.7335 -0.3814  0.3978
 1105SOL     OW14947   3.216   0.652  12.471 -0.2572  0.4408  0.1203
 1105SOL    HW114948   3.164   0.593  12.526 -0.1272  1.3941  1.2710
 1105SOL    HW214949   3.147   0.698  12.424  1.8339  0.6430 -2.7448
 1106SOL     OW14950   1.605   3.007  17.533 -0.3111  0.0063  0.1833
 1106SOL    HW114951   1.677   3.063  17.561 -0.7109 -0.3522  1.9288
 1106SOL    HW214952   1.639   2.984  17.446  0.9272  0.8994  0.4458
 1107SOL     OW14953   2.722   2.644  17.478  0.1989 -0.0047  0.4797
 1107SOL    HW114954   2.811   2.679  17.479  0.8968 -1.7911  0.8813
 1107SOL    HW214955   2.738   2.555  17.445  0.9959  0.3945 -0.1863
 1108SOL     OW14956   0.631   4.341   4.901 -0.4462  0.9794 -0.8526
 1108SOL    HW114957   0.712   4.388   4.921  0.9231 -1.1377 -1.4638
 1108SOL    HW214958   0.593   4.340   4.989  0.5898  2.3129 -0.3928
 1109SOL     OW14959   1.742   4.344   1.781  0.4578  0.1588 -0.4096
 1109SOL    HW114960   1.656   4.349   1.823  0.9871 -0.2889  0.7328
 1109SOL    HW214961   1.751   4.434   1.750  2.6320  1.0947  2.9474
 1110SOL     OW14962   3.567   2.587   8.066 -0.0402  0.4633 -0.0561
 1110SOL    HW114963   3.631   2.532   8.021 -1.0399 -0.8879  0.1830
 1110SOL    HW214964   3.496   2.523   8.074 -0.5075  0.6661 -2.6622
 1111SOL     OW14965   4.031   2.083  13.466  0.1551  1.2010  0.0920
 1111SOL    HW114966   4.074   2.140  13.530 -1.3004 -0.0384  2.1407
 1111SOL    HW214967   4.024   2.139  13.389 -0.1095 -1.6340 -1.9393
 1112SOL     OW14968   4.016   2.500  11.875 -0.0959 -0.0790  0.1239
 1112SOL    HW114969   4.002   2.453  11.793  2.0115  2.2572 -1.5849
 1112SOL    HW214970   3.967   2.577  11.848 -1.9210 -0.9966  0.8105
 1113SOL     OW14971   1.827   4.312   6.738  0.7098 -0.0571  0.0438
 1113SOL    HW114972   1.849   4.405   6.730 -1.6988  0.3612 -1.9565
 1113SOL    HW214973   1.741   4.308   6.696  0.6699 -1.7947  0.2952
 1114SOL     OW14974   1.872   0.551   6.235  0.5555  0.2411  0.4451
 1114SOL    HW114975   1.926   0.629   6.222 -2.4464  1.6366 -3.4892
 1114SOL    HW214976   1.788   0.597   6.244 -0.4127 -1.0989 -1.7403
 1115SOL     OW14977   2.988   1.512   3.986 -0.0605  0.2301 -0.5240
 1115SOL    HW114978   2.913   1.465   3.950  1.3511 -2.5905  0.2087
 1115SOL    HW214979   2.965   1.604   3.972  0.7326  0.5771  0.4622
 1116SOL     OW14980   4.072   0.435   7.287  0.5805  0.0885 -0.4618
 1116SOL    HW114981   4.096   0.456   7.377  1.6956 -1.0012 -0.5031
 1116SOL    HW214982   4.150   0.384   7.264  0.7942  0.6180 -0.9044
 1117SOL     OW14983   2.851   2.456   1.772  0.6531  0.4019 -0.3529
 1117SOL    HW114984   2.793   2.483   1.843  0.7052 -0.3551 -0.0165
 1117SOL    HW214985   2.910   2.531   1.780  1.5518 -0.2137 -1.2667
 1118SOL     OW14986   2.075   1.012  16.550 -0.0643 -0.1474  0.0747
 1118SOL    HW114987   2.009   1.077  16.575  0.2030 -0.6232  1.9788
 1118SOL    HW214988   2.009   0.949  16.521  0.8168 -0.4331 -1.3183
 1119SOL     OW14989   4.123   1.021   5.076 -0.5369 -0.1736 -0.2163
 1119SOL    HW114990   4.182   1.045   5.147 -1.5212 -0.6726  0.7527
 1119SOL    HW214991   4.101   0.934   5.110 -0.2896  0.1550  0.7635
 1120SOL     OW14992   1.949   0.101  17.577  0.6449 -0.8296 -0.0021
 1120SOL    HW114993   1.924   0.009  17.591 -0.9015 -0.0373  2.4915
 1120SOL    HW214994   1.884   0.164  17.608  1.0026 -0.1025 -0.7473
 1121SOL     OW14995   3.253   3.576   5.609  0.2676  0.2518  0.2402
 1121SOL    HW114996   3.210   3.661   5.613 -0.2870 -0.0021 -0.3448
 1121SOL    HW214997   3.260   3.586   5.514 -1.6846 -0.0207  0.0559
 1122SOL     OW14998   3.859   3.307   2.969 -0.1398  0.7714 -0.1523
 1122SOL    HW114999   3.839   3.345   2.883  0.4337  1.9088  0.2169
 1122SOL    HW215000   3.797   3.235   2.962 -0.0620  0.4977  1.9775
 1123SOL     OW15001   2.045   3.529   9.820  0.1713 -0.0404 -0.0090
 1123SOL    HW115002   2.052   3.624   9.833  0.1097 -0.3799  2.5303
 1123SOL    HW215003   2.067   3.512   9.911 -1.3514  1.9506  0.7213
 1124SOL     OW15004   0.805   1.389   5.505 -0.0308  0.1776  0.0215
 1124SOL    HW115005   0.885   1.337   5.493 -0.7971 -1.1343  0.5595
 1124SOL    HW215006   0.838   1.459   5.561 -0.8629  2.1013 -1.8970
 1125SOL     OW15007   4.685   3.072  16.169 -0.7304 -0.4329  0.2978
 1125SOL    HW115008   4.614   3.103  16.226 -2.2147 -1.5112 -0.9453
 1125SOL    HW215009   4.692   2.983  16.203  1.4379 -0.9059 -1.4161
 1126SOL     OW15010   1.509   2.066   2.044  0.0787  0.0543 -0.0647
 1126SOL    HW115011   1.544   2.052   1.956 -0.2600 -0.3099 -0.1418
 1126SOL    HW215012   1.438   2.125   2.020  2.3140  3.3193  1.2755
 1127SOL     OW15013   4.007   0.311   0.811 -0.0356  0.8449 -0.1973
 1127SOL    HW115014   4.056   0.362   0.748 -0.4356  0.5745 -0.7237
 1127SOL    HW215015   3.926   0.363   0.806 -0.4164  0.3854  0.9819
 1128SOL     OW15016   3.950   0.637   1.768  0.2835 -0.3377  0.3605
 1128SOL    HW115017   3.954   0.584   1.688 -3.0436 -0.4653  0.2844
 1128SOL    HW215018   3.857   0.654   1.783  0.3264  1.1884 -1.0967
 1129SOL     OW15019   3.604   4.105   6.117 -0.0765  0.0594 -0.5373
 1129SOL    HW115020   3.678   4.103   6.056 -0.3225 -1.0358 -0.8090
 1129SOL    HW215021   3.530   4.106   6.056 -0.6517  1.6568  0.1941
 1130SOL     OW15022   1.534   4.035   5.516  0.4386 -0.0697  0.4470
 1130SOL    HW115023   1.510   3.952   5.475 -0.9642  0.7753 -0.4632
 1130SOL    HW215024   1.614   4.007   5.560 -1.0116  0.9918  3.7382
 1131SOL     OW15025   1.971   1.646   6.966 -0.1804  0.0300  0.2391
 1131SOL    HW115026   1.964   1.727   7.018  2.6193 -0.6205  1.6411
 1131SOL    HW215027   1.991   1.686   6.881 -3.3159  0.7669 -0.1280
 1132SOL     OW15028   4.161   2.538   8.532  0.1167  0.3233  0.2185
 1132SOL    HW115029   4.251   2.521   8.505  0.1189  1.2692 -0.3554
 1132SOL    HW215030   4.174   2.621   8.576 -0.3219 -0.7999  2.4620
 1133SOL     OW15031   0.812   1.513  10.242 -0.0134 -0.1383 -0.4266
 1133SOL    HW115032   0.737   1.530  10.186 -1.1992 -0.0040  1.1955
 1133SOL    HW215033   0.803   1.421  10.266  1.0043 -0.2916 -0.6089
 1134SOL     OW15034   4.255   3.321   7.958 -0.0374 -0.1162  0.0267
 1134SOL    HW115035   4.320   3.251   7.959 -0.6037 -0.6144  1.5034
 1134SOL    HW215036   4.290   3.382   8.023 -3.1540 -0.6100  2.1939
 1135SOL     OW15037   0.903   1.009  13.855 -0.0996  0.0494  0.0771
 1135SOL    HW115038   0.821   0.989  13.810  0.6790 -2.6288 -0.1318
 1135SOL    HW215039   0.921   1.094  13.813 -0.1724  0.8013  1.5940
 1136SOL     OW15040   1.189   0.387   6.755 -0.0023  0.1938 -0.1850
 1136SOL    HW115041   1.147   0.322   6.812  0.6955  0.9180  1.1607
 1136SOL    HW215042   1.281   0.367   6.769 -0.1786 -2.5700 -3.3070
 1137SOL     OW15043   0.486   0.581   2.299  0.4320  0.4210  0.0448
 1137SOL    HW115044   0.564   0.634   2.317 -0.0675  0.8208  1.0256
 1137SOL    HW215045   0.483   0.518   2.371 -0.3851 -0.0493 -0.3977
 1138SOL     OW15046   1.667   2.401   6.587 -0.5221 -0.9499  0.5141
 1138SOL    HW115047   1.597   2.409   6.651 -0.5760 -0.6181  0.4118
 1138SOL    HW215048   1.618   2.399   6.505 -0.7404 -2.1117  0.6747
 1139SOL     OW15049   2.241   4.560   3.799 -0.3953  0.2607  0.2314
 1139SOL    HW115050   2.206   4.649   3.798  0.4643  0.6298  2.6835
 1139SOL    HW215051   2.154   4.519   3.789 -1.1905  1.8816  0.5324
 1140SOL     OW15052   3.274   3.263   3.996  0.0192 -0.0543 -0.2347
 1140SOL    HW115053   3.210   3.282   4.065  0.0601 -0.3014 -0.1297
 1140SOL    HW215054   3.328   3.342   3.999 -0.9858  0.6712 -1.2287
 1141SOL     OW15055   3.523   0.582   3.809 -0.3619 -0.1599 -0.1374
 1141SOL    HW115056   3.518   0.547   3.720 -1.0884  0.1252 -0.2078
 1141SOL    HW215057   3.531   0.674   3.784  0.9569 -0.4937 -0.9636
 1142SOL     OW15058   3.414   1.077   1.193  0.5861 -0.3413  0.0105
 1142SOL    HW115059   3.449   1.154   1.239 -1.6694  1.1368 -0.7234
 1142SOL    HW215060   3.471   1.001   1.202  1.2022  0.2600  1.2948
 1143SOL     OW15061   2.797   1.418   2.538 -0.1313  0.1746 -0.3487
 1143SOL    HW115062   2.856   1.386   2.606  0.7597  1.6769 -0.4180
 1143SOL    HW215063   2.825   1.505   2.507  1.4869 -1.1164 -2.5845
 1144SOL     OW15064   0.710   1.046   8.762 -0.4817 -0.0835  0.3529
 1144SOL    HW115065   0.794   1.057   8.716  1.2858  0.8578  3.8504
 1144SOL    HW215066   0.714   1.136   8.793 -0.0438  0.4145 -1.1636
 1145SOL     OW15067   2.294   4.633   8.790 -0.0784  0.1885 -0.0180
 1145SOL    HW115068   2.224   4.634   8.855 -0.0161 -3.2178  0.0763
 1145SOL    HW215069   2.369   4.615   8.846 -0.6793 -2.4474 -0.0860
 1146SOL     OW15070   1.060   0.802   2.605 -0.1876  0.2124 -0.0733
 1146SOL    HW115071   0.970   0.836   2.607  0.2831  1.3417  1.7252
 1146SOL    HW215072   1.097   0.839   2.525 -0.5662  1.1820  0.2011
 1147SOL     OW15073   1.863   1.791   1.461  0.7671  0.3824 -0.4922
 1147SOL    HW115074   1.942   1.748   1.428  0.1374 -0.1218 -1.3199
 1147SOL    HW215075   1.797   1.725   1.482  0.0960  1.6142  1.2584
 1148SOL     OW15076   0.996   4.261   7.586  0.1799 -0.4171 -0.4379
 1148SOL    HW115077   0.954   4.294   7.506 -0.6280  0.3531  0.3001
 1148SOL    HW215078   1.002   4.172   7.552  0.9403 -1.2683  1.9527
 1149SOL     OW15079   2.207   0.108   2.883  0.1833  0.5717  0.2476
 1149SOL    HW115080   2.153   0.033   2.857 -0.4482  0.9737  0.4151
 1149SOL    HW215081   2.271   0.116   2.812  0.2230 -4.0821 -0.2478
 1150SOL     OW15082   4.240   0.532   6.282 -0.2476 -0.0524  0.1000
 1150SOL    HW115083   4.211   0.447   6.248 -1.7141  0.7910 -0.7214
 1150SOL    HW215084   4.330   0.527   6.249 -1.1584 -0.0928 -2.3973
 1151SOL     OW15085   4.534   1.390   6.255 -0.0524 -0.0990  0.0370
 1151SOL    HW115086   4.569   1.377   6.166  1.7811  1.2033  0.5543
 1151SOL    HW215087   4.509   1.300   6.275  3.9147 -1.9138 -2.9392
 1152SOL     OW15088   0.153   0.184   9.461 -0.0427 -0.1885 -0.1464
 1152SOL    HW115089   0.067   0.187   9.421  0.1958  2.7429 -0.4809
 1152SOL    HW215090   0.131   0.250   9.527  2.2005  1.3169 -0.8945
 1153SOL     OW15091   3.631   0.991   2.426  0.1893 -0.0276  0.4579
 1153SOL    HW115092   3.553   1.047   2.429  0.1293 -0.1268  0.7347
 1153SOL    HW215093   3.651   0.989   2.519 -0.2684 -0.9558  0.5437
 1154SOL     OW15094   3.159   2.049  10.798 -0.0580 -0.1673 -0.6206
 1154SOL    HW115095   3.111   2.131  10.815  3.4895  1.6192  0.9438
 1154SOL    HW215096   3.089   1.985  10.802  0.3819 -0.6412 -0.5447
 1155SOL     OW15097   4.112   1.800  16.205 -0.1410 -0.5210 -0.2339
 1155SOL    HW115098   4.070   1.733  16.150  0.6727 -0.1977 -1.2684
 1155SOL    HW215099   4.195   1.808  16.157  0.8984  0.3633  1.7077
 1156SOL     OW15100   1.986   4.056   6.861  0.1243  0.0761 -0.2651
 1156SOL    HW115101   2.011   4.032   6.772  2.4446  0.1281  0.3481
 1156SOL    HW215102   1.976   4.147   6.834  0.2008  0.3310  0.5535
 1157SOL     OW15103   1.068   2.557   7.268  0.6387 -0.8441  0.3225
 1157SOL    HW115104   0.988   2.523   7.227  0.3939 -1.1281  1.0309
 1157SOL    HW215105   1.053   2.648   7.296  1.9629 -0.5675  0.1290
 1158SOL     OW15106   3.261   3.839   9.252 -0.3350 -0.3457  0.7965
 1158SOL    HW115107   3.345   3.874   9.279 -0.6941  1.0883  0.0476
 1158SOL    HW215108   3.277   3.744   9.255  1.2720 -0.0649  1.0786
 1159SOL     OW15109   2.742   3.339  13.389 -0.3095 -0.3413 -0.2503
 1159SOL    HW115110   2.687   3.389  13.450  2.1324  0.5279  1.2735
 1159SOL    HW215111   2.692   3.258  13.388  0.6826 -0.9544 -0.0046
 1160SOL     OW15112   3.666   1.771  15.963  0.2570  0.1091 -0.0558
 1160SOL    HW115113   3.734   1.823  15.920 -0.3778 -0.4808 -1.7709
 1160SOL    HW215114   3.678   1.796  16.055  1.0471  0.6192 -0.2892
 1161SOL     OW15115   3.804   0.252   2.819  0.4233 -0.2427  0.3855
 1161SOL    HW115116   3.885   0.250   2.767  0.5174 -0.6064  0.5469
 1161SOL    HW215117   3.846   0.240   2.904  0.6937 -1.3850  0.0891
 1162SOL     OW15118   3.239   2.300   9.550  0.2980 -0.2161  0.0017
 1162SOL    HW115119   3.270   2.389   9.533 -0.0353 -0.3021 -1.0439
 1162SOL    HW215120   3.324   2.261   9.569 -0.2447 -0.9633  0.9415
 1163SOL     OW15121   3.147   4.375   3.430  0.3433 -0.4975  0.6563
 1163SOL    HW115122   3.135   4.328   3.347  1.0443 -1.4451  1.0947
 1163SOL    HW215123   3.075   4.337   3.480  0.6876 -1.3141  0.5396
 1164SOL     OW15124   2.380   2.824   6.892  0.0174  0.2824  0.3240
 1164SOL    HW115125   2.426   2.747   6.926  0.7000 -0.0161 -1.2441
 1164SOL    HW215126   2.435   2.857   6.821 -1.0789 -1.1803 -1.2077
 1165SOL     OW15127   1.292   2.220   1.956  0.2274 -0.2415  0.3023
 1165SOL    HW115128   1.217   2.263   1.997 -1.0108 -3.8941  1.8666
 1165SOL    HW215129   1.341   2.297   1.928  0.1314 -0.4526 -0.4584
 1166SOL     OW15130   3.699   0.028   7.778  0.1953 -0.4146 -0.0367
 1166SOL    HW115131   3.661   4.704   7.840  2.3383  1.8342  3.5757
 1166SOL    HW215132   3.646   0.016   7.699  1.7397  0.8504 -1.2636
 1167SOL     OW15133   0.457   0.138   6.593  0.7654 -0.8931  0.0571
 1167SOL    HW115134   0.519   0.211   6.586  0.0961 -0.1750  1.4997
 1167SOL    HW215135   0.468   0.107   6.683 -2.0260 -1.5353  0.1925
 1168SOL     OW15136   2.063   2.553   5.209  0.1867  0.3475  0.6259
 1168SOL    HW115137   2.014   2.492   5.265 -0.5771  1.2949  0.9750
 1168SOL    HW215138   1.994   2.611   5.178  1.0207 -1.1187 -3.9160
 1169SOL     OW15139   0.727   4.593   3.092  0.1923 -0.3107 -0.7477
 1169SOL    HW115140   0.662   4.562   3.156  0.4999 -0.2355 -0.3981
 1169SOL    HW215141   0.774   4.661   3.141 -3.4272  0.1666  2.0778
 1170SOL     OW15142   1.215   2.142   5.821  0.0792  0.1425  0.3517
 1170SOL    HW115143   1.221   2.053   5.787  1.1000  0.9134 -1.5095
 1170SOL    HW215144   1.272   2.144   5.897 -0.1303  1.3571  0.4825
 1171SOL     OW15145   0.098   2.722   6.971  0.2755 -0.0259  0.0531
 1171SOL    HW115146   0.056   2.646   7.012 -1.6337  0.4519 -1.0144
 1171SOL    HW215147   0.033   2.792   6.971  0.5242  0.1963 -2.7241
 1172SOL     OW15148   4.277   1.103   3.837  0.3325 -0.2251 -0.2536
 1172SOL    HW115149   4.312   1.154   3.910 -1.4960  0.1674  0.3524
 1172SOL    HW215150   4.307   1.013   3.846  1.9478  0.2411 -1.0023
 1173SOL     OW15151   1.591   0.021   4.137  0.0489 -0.1491 -0.0055
 1173SOL    HW115152   1.650   0.069   4.079  1.8871 -2.6865 -0.2612
 1173SOL    HW215153   1.550   0.092   4.186  0.1594 -0.6591  0.8237
 1174SOL     OW15154   2.413   3.544   4.150  0.0288  0.8538  0.1246
 1174SOL    HW115155   2.421   3.636   4.126  0.7131  0.6342 -0.4927
 1174SOL    HW215156   2.482   3.546   4.216  0.7541  3.8867 -0.7212
 1175SOL     OW15157   3.683   2.153   6.117 -0.3055 -0.6392  0.2366
 1175SOL    HW115158   3.598   2.153   6.161 -0.1318  1.6191  0.5614
 1175SOL    HW215159   3.713   2.241   6.096  0.8263 -0.7572  1.4024
 1176SOL     OW15160   1.443   3.336   4.202  0.0723 -0.1152  0.0788
 1176SOL    HW115161   1.509   3.382   4.150  0.3420  1.9404  2.2042
 1176SOL    HW215162   1.385   3.408   4.230  0.4059 -0.3524  1.3605
 1177SOL     OW15163   2.024   4.217   5.034  0.1657  0.5163  0.1789
 1177SOL    HW115164   1.955   4.164   4.993  2.0294 -0.2869 -1.9713
 1177SOL    HW215165   2.004   4.297   4.986 -0.4480  1.5526  2.1673
 1178SOL     OW15166   1.744   2.254  15.431  0.1286  0.9317  0.1110
 1178SOL    HW115167   1.677   2.252  15.363  1.0634  1.4461 -0.8146
 1178SOL    HW215168   1.804   2.184  15.405 -0.4946  0.2621  0.4640
 1179SOL     OW15169   0.408   0.867  13.156 -0.1069  0.0759  0.2372
 1179SOL    HW115170   0.443   0.903  13.075 -1.9330 -1.1028 -1.0696
 1179SOL    HW215171   0.449   0.921  13.224 -0.2709 -0.6689  0.9272
 1180SOL     OW15172   1.348   3.234  14.953 -0.0843  0.0312  0.2126
 1180SOL    HW115173   1.335   3.313  15.005  0.3774 -0.1676  0.6246
 1180SOL    HW215174   1.419   3.188  14.998 -1.2602 -0.7348  1.2731
 1181SOL     OW15175   2.301   2.514   5.344 -0.3951 -0.1652  0.4778
 1181SOL    HW115176   2.236   2.515   5.414 -1.3436 -0.4125 -0.3952
 1181SOL    HW215177   2.244   2.533   5.269 -1.0995  1.7960  1.5256
 1182SOL     OW15178   3.602   2.977  11.541  0.4734  0.1881  0.3980
 1182SOL    HW115179   3.622   2.965  11.448 -1.1791 -0.5490  0.1443
 1182SOL    HW215180   3.685   2.952  11.583 -0.1036 -1.9834  0.2384
 1183SOL     OW15181   3.810   0.230  16.355 -0.2874 -0.4158 -0.6017
 1183SOL    HW115182   3.861   0.299  16.313 -0.8082 -0.4263 -1.2397
 1183SOL    HW215183   3.845   0.159  16.302  2.7472 -0.1486  1.0542
 1184SOL     OW15184   3.730   3.980  14.124 -0.5048 -0.0802  0.1390
 1184SOL    HW115185   3.806   3.941  14.168 -1.7408 -2.4999  0.1638
 1184SOL    HW215186   3.767   4.067  14.108 -0.2511  0.0265  1.2996
 1185SOL     OW15187   2.940   2.199   5.236 -0.4025 -0.8209  0.0724
 1185SOL    HW115188   2.926   2.135   5.306 -0.1072  0.9126  1.7287
 1185SOL    HW215189   2.885   2.177   5.161  0.1402 -0.9401 -0.2942
 1186SOL     OW15190   1.665   3.203   3.525  0.4345  0.0454 -0.0088
 1186SOL    HW115191   1.640   3.235   3.612 -0.3951 -0.2632 -0.1323
 1186SOL    HW215192   1.760   3.197   3.530  0.4112  0.1101  0.5476
 1187SOL     OW15193   1.839   0.507  12.132  0.1259 -0.6058  0.1154
 1187SOL    HW115194   1.918   0.460  12.160  2.1840  1.3092 -2.5014
 1187SOL    HW215195   1.772   0.463  12.184 -1.2419  0.8999 -0.3627
 1188SOL     OW15196   3.926   3.578   5.501 -0.6694  0.1779  0.0701
 1188SOL    HW115197   3.874   3.499   5.490 -0.3163  0.2138 -1.8312
 1188SOL    HW215198   3.859   3.645   5.511  0.7659  1.3570  1.7617
 1189SOL     OW15199   2.480   0.770   8.969 -0.5857  0.1250  0.5140
 1189SOL    HW115200   2.416   0.810   9.028 -0.2731 -0.1354  1.0217
 1189SOL    HW215201   2.543   0.743   9.036 -0.9544  1.7215  1.4976
 1190SOL     OW15202   0.201   3.525   8.165 -0.2238 -0.6166  0.3380
 1190SOL    HW115203   0.156   3.488   8.241  0.9101 -0.9149  0.8689
 1190SOL    HW215204   0.120   3.550   8.120 -0.4188 -2.0644 -0.1179
 1191SOL     OW15205   3.707   4.704   6.920  0.3355 -0.1771  0.7102
 1191SOL    HW115206   3.661   0.048   6.911  1.2667  0.0502 -1.7374
 1191SOL    HW215207   3.630   4.648   6.920  1.6524 -1.9949 -0.1814
 1192SOL     OW15208   1.707   1.042   4.122 -0.5001 -0.2318 -0.6262
 1192SOL    HW115209   1.671   1.124   4.157 -0.0610 -0.0258 -0.6587
 1192SOL    HW215210   1.626   1.004   4.090 -1.4031  0.4229  0.8693
 1193SOL     OW15211   3.716   0.344  11.541  0.6205 -0.3559 -0.0779
 1193SOL    HW115212   3.644   0.284  11.560  1.6043 -1.4134  0.3340
 1193SOL    HW215213   3.744   0.369  11.629  4.0456 -0.3894 -1.1659
 1194SOL     OW15214   0.015   1.786   0.998 -0.0662 -0.0169  0.5076
 1194SOL    HW115215   0.006   1.846   1.072 -0.5472  0.0833  0.3656
 1194SOL    HW215216   4.667   1.748   0.984 -0.9273  1.7259  1.2678
 1195SOL     OW15217   3.516   2.107   2.133  0.3868  0.2179  0.2315
 1195SOL    HW115218   3.449   2.054   2.089  0.8623 -1.8031  1.9370
 1195SOL    HW215219   3.455   2.147   2.196 -1.0964  0.7704 -1.5411
 1196SOL     OW15220   1.378   0.938   2.440  0.3037  0.0992  0.4888
 1196SOL    HW115221   1.386   1.002   2.511  0.4468  0.6768 -0.0416
 1196SOL    HW215222   1.401   0.997   2.368  1.8761 -1.0780  0.0385
 1197SOL     OW15223   3.252   1.476   7.616  0.2059  0.1755  0.6358
 1197SOL    HW115224   3.165   1.471   7.656 -0.8213 -1.5279 -1.8151
 1197SOL    HW215225   3.286   1.563   7.634 -0.1771  0.3104  0.6885
 1198SOL     OW15226   2.296   0.176   8.750  0.2664 -0.6122 -0.9214
 1198SOL    HW115227   2.294   0.080   8.754  0.2220 -0.5053  1.5177
 1198SOL    HW215228   2.205   0.198   8.771  0.6179 -0.8800  0.9330
 1199SOL     OW15229   2.349   1.929   7.591  0.5399  0.1398  0.4225
 1199SOL    HW115230   2.438   1.920   7.624  0.7599  1.4864  0.2070
 1199SOL    HW215231   2.350   1.857   7.527 -1.0175  0.5410 -0.0694
 1200SOL     OW15232   0.771   1.973   8.436 -0.0299 -0.3165  0.5296
 1200SOL    HW115233   0.825   1.963   8.515 -0.3785  0.3234  0.8511
 1200SOL    HW215234   0.783   2.066   8.420 -2.1784 -0.5470 -2.3294
 1201SOL     OW15235   3.818   3.544  17.234  0.0227  0.0841  0.2840
 1201SOL    HW115236   3.797   3.601  17.161 -1.8295 -1.9232 -0.7227
 1201SOL    HW215237   3.738   3.543  17.286  1.1078  0.6936  1.9821
 1202SOL     OW15238   0.912   4.454  15.243 -0.5880 -0.1813  0.1278
 1202SOL    HW115239   0.885   4.525  15.302  2.6640  0.0878  1.3177
 1202SOL    HW215240   0.930   4.395  15.316 -1.1401 -0.1071  0.3241
 1203SOL     OW15241   1.286   4.117   4.312  0.3151 -0.8035  0.0593
 1203SOL    HW115242   1.231   4.041   4.292 -0.1410  0.3894 -3.1082
 1203SOL    HW215243   1.286   4.109   4.408 -0.0843 -0.5055  0.0826
 1204SOL     OW15244   3.351   2.397   2.702  0.5986 -0.4224  0.4364
 1204SOL    HW115245   3.391   2.311   2.715 -0.9440 -0.9738  1.7184
 1204SOL    HW215246   3.324   2.421   2.791  0.0065 -2.5073  0.8108
 1205SOL     OW15247   0.301   0.288   6.433 -0.0625 -0.4178 -0.1383
 1205SOL    HW115248   0.208   0.304   6.449  0.3724 -0.0259  1.9562
 1205SOL    HW215249   0.330   0.250   6.515 -0.6244  0.4317  0.4557
 1206SOL     OW15250   1.050   0.965   4.192 -0.2732 -0.4637 -0.4004
 1206SOL    HW115251   0.991   1.039   4.179  0.4971  0.5641  1.9115
 1206SOL    HW215252   1.074   0.992   4.281  0.2771 -0.9659 -0.3979
 1207SOL     OW15253   0.503   1.938   0.064  0.3066 -0.8410  0.5943
 1207SOL    HW115254   0.568   1.904   0.125  0.8573 -2.9304 -1.1764
 1207SOL    HW215255   0.505   2.029   0.093 -1.9150 -0.4460 -0.5240
 1208SOL     OW15256   4.475   4.598   8.950  0.2084  0.0718  0.5956
 1208SOL    HW115257   4.487   4.687   8.983 -3.5659 -0.2765  2.9549
 1208SOL    HW215258   4.545   4.546   8.991  0.0834 -1.4776 -1.1076
 1209SOL     OW15259   0.106   0.861   2.380  0.2834 -0.2601  0.1660
 1209SOL    HW115260   0.151   0.840   2.298  0.6482 -1.0745  0.5742
 1209SOL    HW215261   0.089   0.954   2.363  0.2559 -0.2408  0.2979
 1210SOL     OW15262   1.129   1.630   9.006  0.2117  0.0771  0.0541
 1210SOL    HW115263   1.171   1.664   9.085  2.1363  0.3100 -1.0728
 1210SOL    HW215264   1.037   1.619   9.030  0.1726  0.3729  0.0383
 1211SOL     OW15265   4.651   4.325   9.899 -0.0841  0.4816 -0.1608
 1211SOL    HW115266   4.557   4.314   9.912 -0.0211  0.4232  0.2532
 1211SOL    HW215267   4.674   4.235   9.878  0.7572  0.8225 -0.7106
 1212SOL     OW15268   3.697   0.741   2.287  0.0143  0.2878 -0.1671
 1212SOL    HW115269   3.779   0.758   2.334 -0.1530 -0.6363  0.4515
 1212SOL    HW215270   3.662   0.830   2.295  1.2106  0.9340 -2.2504
 1213SOL     OW15271   1.350   0.636   3.302 -0.3394 -0.3998 -0.0799
 1213SOL    HW115272   1.315   0.553   3.334  0.4170  0.0257  1.8491
 1213SOL    HW215273   1.390   0.606   3.221  0.8932  1.4494 -0.1608
 1214SOL     OW15274   0.127   0.066  13.312  0.4081  0.0264  0.7601
 1214SOL    HW115275   0.136   0.092  13.220 -0.2592 -1.7431  0.1999
 1214SOL    HW215276   0.040   0.099  13.334  0.4034  0.9873 -0.6826
 1215SOL     OW15277   2.250   2.509   1.270  0.2150 -0.6088  1.0228
 1215SOL    HW115278   2.223   2.433   1.322  1.4178  0.5067  3.3063
 1215SOL    HW215279   2.270   2.475   1.183 -0.1355  2.6657 -0.3275
 1216SOL     OW15280   3.062   1.965   6.840 -0.2236  0.0987 -0.3561
 1216SOL    HW115281   3.036   1.971   6.748 -3.8303  1.1201  0.7339
 1216SOL    HW215282   3.118   2.042   6.846 -2.6727  2.0095 -2.1932
 1217SOL     OW15283   3.413   0.613   6.356 -0.1821  0.2541 -0.1016
 1217SOL    HW115284   3.477   0.644   6.419  1.3538 -0.4303 -1.3312
 1217SOL    HW215285   3.405   0.522   6.385  1.5790  0.0322 -0.3273
 1218SOL     OW15286   0.614   3.450   5.358 -0.1756 -0.2016 -0.2425
 1218SOL    HW115287   0.696   3.498   5.346  0.3383 -0.6006  1.5958
 1218SOL    HW215288   0.607   3.402   5.276 -0.3376 -5.2323  2.7056
 1219SOL     OW15289   3.064   4.361   2.178 -0.7726  0.4254 -0.4335
 1219SOL    HW115290   2.988   4.378   2.232 -0.2645 -0.8677  0.6805
 1219SOL    HW215291   3.115   4.442   2.185  0.0747 -0.1871  0.5266
 1220SOL     OW15292   3.271   3.781   7.322 -0.1420  0.1875  0.1903
 1220SOL    HW115293   3.275   3.876   7.331 -0.1647  0.4986 -2.8245
 1220SOL    HW215294   3.181   3.752   7.312 -0.3231  1.0563 -0.6731
 1221SOL     OW15295   3.964   1.324   5.710  0.3646  0.0885 -0.5319
 1221SOL    HW115296   3.986   1.316   5.617 -0.5996  1.1580 -0.8495
 1221SOL    HW215297   3.883   1.275   5.721  0.5808  0.1929  1.6412
 1222SOL     OW15298   0.605   3.470  11.437 -0.4644  0.3147  0.4383
 1222SOL    HW115299   0.692   3.508  11.428 -0.6313  0.2493 -1.5582
 1222SOL    HW215300   0.612   3.375  11.441  0.3703  0.4253  1.5242
 1223SOL     OW15301   1.982   3.185   2.115 -0.2887 -0.0614 -0.2306
 1223SOL    HW115302   1.922   3.190   2.040  0.3469  1.1216 -0.6508
 1223SOL    HW215303   1.923   3.181   2.190 -1.0024 -0.1440 -0.7891
 1224SOL     OW15304   0.192   4.566   9.799  0.1043  0.2744  0.1601
 1224SOL    HW115305   0.173   4.472   9.788  0.1988  0.5354 -2.2640
 1224SOL    HW215306   0.108   4.592   9.836 -0.5890 -2.5388  0.5961
 1225SOL     OW15307   3.804   1.722   4.205 -0.1725  0.3109  0.1852
 1225SOL    HW115308   3.889   1.765   4.204 -0.7413  1.4457  0.3889
 1225SOL    HW215309   3.806   1.677   4.290 -0.2776  1.7946  0.9798
 1226SOL     OW15310   4.494   0.787   0.717 -0.2524 -0.0530 -0.4013
 1226SOL    HW115311   4.449   0.777   0.801  0.2643 -0.4037 -0.1665
 1226SOL    HW215312   4.581   0.818   0.742 -0.3896  0.4397 -0.5420
 1227SOL     OW15313   2.858   1.670  12.188 -0.1524  0.6497  0.0641
 1227SOL    HW115314   2.788   1.661  12.253 -0.7948 -1.3680 -0.9205
 1227SOL    HW215315   2.941   1.640  12.224  0.2725  0.6015 -0.9611
 1228SOL     OW15316   0.797   1.700   2.704 -1.2214 -0.1479  0.4814
 1228SOL    HW115317   0.849   1.713   2.625 -2.4702 -0.0595 -0.3343
 1228SOL    HW215318   0.783   1.792   2.726  1.4077  0.5783 -0.8668
 1229SOL     OW15319   0.231   0.539   5.769  0.0180 -0.4312 -0.2690
 1229SOL    HW115320   0.261   0.548   5.859  1.6721 -4.8158 -0.3619
 1229SOL    HW215321   0.155   0.597   5.771  1.0833  1.0286 -1.7776
 1230SOL     OW15322   3.300   2.886   1.425 -0.2763  0.2127 -0.5198
 1230SOL    HW115323   3.264   2.798   1.434  2.5197 -0.8917 -0.3027
 1230SOL    HW215324   3.395   2.877   1.414 -0.6654 -0.9606 -2.7692
 1231SOL     OW15325   4.238   1.661   1.636 -1.0312  0.4866 -0.2889
 1231SOL    HW115326   4.270   1.577   1.604  0.0256  0.7093  0.1802
 1231SOL    HW215327   4.228   1.645   1.730 -2.0887  1.1449 -0.2728
 1232SOL     OW15328   3.619   0.521   6.770 -0.0297 -0.0423  0.0321
 1232SOL    HW115329   3.685   0.569   6.820 -1.7517  3.1304 -0.7859
 1232SOL    HW215330   3.554   0.590   6.771 -2.1437 -2.0649  1.2812
 1233SOL     OW15331   2.479   1.706  13.832  0.3802 -0.7364 -0.3459
 1233SOL    HW115332   2.481   1.702  13.928 -1.2628 -1.4902 -0.3520
 1233SOL    HW215333   2.553   1.651  13.806 -0.9811 -2.7432  0.0431
 1234SOL     OW15334   3.528   2.027   2.995 -0.3990 -0.1379 -0.6013
 1234SOL    HW115335   3.623   2.036   2.998 -0.5211  1.0477 -0.5781
 1234SOL    HW215336   3.513   1.933   3.008  0.6545 -0.3674 -1.0255
 1235SOL     OW15337   3.442   3.485   4.049 -0.0915  0.2238 -0.2232
 1235SOL    HW115338   3.447   3.509   4.142  0.0694 -0.3227 -0.0905
 1235SOL    HW215339   3.364   3.536   4.028 -0.7120 -0.8355 -0.4808
 1236SOL     OW15340   1.505   3.963   3.050 -0.2325  0.0208  0.3537
 1236SOL    HW115341   1.490   4.001   3.137  0.1609 -0.2538  0.5384
 1236SOL    HW215342   1.478   3.873   3.067  1.2113 -0.0862  1.9840
 1237SOL     OW15343   1.281   4.403   4.351 -0.2988 -0.0292 -0.0787
 1237SOL    HW115344   1.280   4.309   4.334  0.2341  0.0859 -0.7595
 1237SOL    HW215345   1.303   4.426   4.261 -1.5122  0.2211 -0.3093
 1238SOL     OW15346   3.590   2.898   6.232  0.0345  0.3216  0.0264
 1238SOL    HW115347   3.679   2.922   6.257  0.0257 -0.2002  0.5496
 1238SOL    HW215348   3.538   2.944   6.298 -0.2664 -0.6893  0.4878
 1239SOL     OW15349   2.813   2.172  13.275  0.0458 -0.5197  0.2573
 1239SOL    HW115350   2.756   2.248  13.278  1.9648  0.9207  0.1082
 1239SOL    HW215351   2.848   2.169  13.364 -0.6530  3.9390  0.6812
 1240SOL     OW15352   3.679   2.032   8.373 -0.3798 -0.1930 -0.1264
 1240SOL    HW115353   3.595   2.074   8.387 -0.0500  0.5438 -0.3640
 1240SOL    HW215354   3.723   2.039   8.458  0.4018 -2.2108 -0.3671
 1241SOL     OW15355   2.414   4.519   1.519  0.3974  0.2650  0.0967
 1241SOL    HW115356   2.460   4.490   1.440 -0.7170 -1.9747  0.2957
 1241SOL    HW215357   2.476   4.494   1.588 -1.4640 -1.0867  1.2816
 1242SOL     OW15358   3.576   3.139  10.602 -0.0030  0.0805  0.4380
 1242SOL    HW115359   3.512   3.186  10.654 -1.5620  0.0129 -1.4201
 1242SOL    HW215360   3.516   3.076  10.561  0.5076  0.2643 -0.5896
 1243SOL     OW15361   0.721   3.197   8.685 -0.2756  0.0894 -0.3005
 1243SOL    HW115362   0.774   3.192   8.765  0.6286 -1.5803 -1.0006
 1243SOL    HW215363   0.753   3.130   8.624  0.2398 -0.0200  0.0858
 1244SOL     OW15364   0.653   3.385   2.684 -0.4256  0.1888  0.0088
 1244SOL    HW115365   0.580   3.362   2.742  1.1405 -3.5160  0.5240
 1244SOL    HW215366   0.721   3.331   2.726  0.5682 -0.2508 -2.1554
 1245SOL     OW15367   1.253   4.376  15.234  0.0277 -0.2256 -0.2578
 1245SOL    HW115368   1.207   4.355  15.315 -1.6243  1.1714 -0.8507
 1245SOL    HW215369   1.194   4.345  15.164  0.0040  0.2351 -0.4453
 1246SOL     OW15370   1.747   2.549   3.580 -0.7378  0.1490  0.0919
 1246SOL    HW115371   1.775   2.554   3.672 -2.4630  2.0303  0.5001
 1246SOL    HW215372   1.657   2.520   3.591 -1.3102  1.7024 -0.5657
 1247SOL     OW15373   1.623   0.104  12.092  0.0732 -0.2707  0.3404
 1247SOL    HW115374   1.561   0.034  12.073  0.5188 -0.4866 -0.3133
 1247SOL    HW215375   1.700   0.052  12.069 -1.4537 -2.4982  0.3246
 1248SOL     OW15376   0.604   1.484  12.346  0.1078 -0.1907 -0.0328
 1248SOL    HW115377   0.539   1.494  12.415  0.7317 -1.0719  0.6860
 1248SOL    HW215378   0.556   1.502  12.265  0.9590 -1.5494 -0.8458
 1249SOL     OW15379   3.237   2.352   3.729  0.6129  0.7659 -0.3210
 1249SOL    HW115380   3.208   2.364   3.820 -2.9453 -1.6898 -1.1205
 1249SOL    HW215381   3.165   2.291   3.713  0.0710  0.5615  2.9639
 1250SOL     OW15382   3.969   4.402   9.923  0.2660 -0.3372  0.2654
 1250SOL    HW115383   3.961   4.497   9.913  0.1429 -0.1818  1.7645
 1250SOL    HW215384   3.957   4.360   9.838  0.6050  0.5329 -0.2131
 1251SOL     OW15385   3.166   1.235   3.831 -0.1393 -0.2098  0.1922
 1251SOL    HW115386   3.205   1.317   3.862 -0.2688 -0.0082 -0.1774
 1251SOL    HW215387   3.110   1.205   3.903  0.8740  1.4284  1.6463
 1252SOL     OW15388   0.909   2.440   3.178 -0.1764  0.1470  0.1407
 1252SOL    HW115389   0.829   2.399   3.146  0.4669 -0.4856 -0.6592
 1252SOL    HW215390   0.939   2.482   3.097 -0.6720 -1.9613 -1.1189
 1253SOL     OW15391   3.509   0.932   5.585  0.3679 -0.4197 -0.1556
 1253SOL    HW115392   3.496   0.839   5.602 -1.6619 -0.5473 -2.3099
 1253SOL    HW215393   3.465   0.976   5.658 -0.3825  0.0213 -0.8695
 1254SOL     OW15394   4.600   4.243   7.408  0.0275 -0.3269  0.1257
 1254SOL    HW115395   4.575   4.156   7.440  1.4330 -0.6927  0.2634
 1254SOL    HW215396   4.681   4.253   7.459 -1.3514  0.6471  2.1484
 1255SOL     OW15397   2.051   1.667  17.593 -0.1524  0.1171 -0.2821
 1255SOL    HW115398   2.098   1.602  17.541 -0.2413 -0.2670  0.1249
 1255SOL    HW215399   2.042   1.628  17.680 -0.0593  1.5966  0.4036
 1256SOL     OW15400   3.410   3.289  15.097  0.1342 -0.1165 -0.2245
 1256SOL    HW115401   3.414   3.343  15.176 -1.9085 -1.1501  0.5984
 1256SOL    HW215402   3.478   3.324  15.040 -1.3574  0.9741 -1.3327
 1257SOL     OW15403   3.678   3.993   8.294  0.3871 -0.3327  0.2103
 1257SOL    HW115404   3.653   3.922   8.352 -1.5859 -0.5878 -0.9449
 1257SOL    HW215405   3.771   3.996   8.315  0.6921 -3.0377 -0.7910
 1258SOL     OW15406   0.353   0.177   9.929 -0.6885 -0.8354 -0.2046
 1258SOL    HW115407   0.376   0.086   9.945 -1.3453 -0.5018  2.6012
 1258SOL    HW215408   0.440   0.214   9.915  0.1339 -2.0165  1.9130
 1259SOL     OW15409   2.237   3.347   6.761  0.1227 -0.0552  0.8124
 1259SOL    HW115410   2.297   3.329   6.833  0.8266  0.0953  0.2592
 1259SOL    HW215411   2.248   3.267   6.711 -0.3051 -0.7791  1.8754
 1260SOL     OW15412   0.096   1.026   8.284 -0.5984  0.2509 -0.7180
 1260SOL    HW115413   0.183   1.062   8.266 -0.6646  0.0394 -1.4670
 1260SOL    HW215414   0.066   1.082   8.356  0.2953 -0.5246  0.2619
 1261SOL     OW15415   2.522   0.042   6.280 -0.1362  0.0916  0.2948
 1261SOL    HW115416   2.485   0.127   6.260 -0.4144 -0.0637  0.1545
 1261SOL    HW215417   2.617   0.049   6.268  0.0293 -1.7637  0.4014
 1262SOL     OW15418   0.934   1.633   4.992 -0.2244  0.2168 -0.0839
 1262SOL    HW115419   0.898   1.604   5.076 -0.8680 -1.2964 -0.8679
 1262SOL    HW215420   0.944   1.547   4.950  1.3315  1.1835 -1.7034
 1263SOL     OW15421   2.729   3.947   7.570 -0.2582  0.9124  0.3230
 1263SOL    HW115422   2.761   3.875   7.516 -1.6872 -0.6413  1.5494
 1263SOL    HW215423   2.721   3.896   7.651  1.2717  1.2553  0.6899
 1264SOL     OW15424   0.374   0.837   7.687  0.1209  0.1921 -0.1257
 1264SOL    HW115425   0.432   0.866   7.758 -2.2186  1.4260  1.3011
 1264SOL    HW215426   0.357   0.746   7.713 -0.1432 -0.5362 -2.8774
 1265SOL     OW15427   2.612   1.560  17.449  0.0844  0.0517  1.0771
 1265SOL    HW115428   2.547   1.539  17.516 -2.7788  2.5654 -0.9066
 1265SOL    HW215429   2.648   1.637  17.493  0.0089 -0.0619  1.3399
 1266SOL     OW15430   0.131   3.247  13.749 -0.5907  0.2730  0.7286
 1266SOL    HW115431   0.130   3.342  13.751 -0.9392  0.2630  1.0676
 1266SOL    HW215432   0.154   3.227  13.840  0.6329  1.3128  0.6465
 1267SOL     OW15433   4.293   4.531   8.144 -0.2611 -0.0199 -0.4263
 1267SOL    HW115434   4.365   4.520   8.081 -1.0473  3.0752 -1.8807
 1267SOL    HW215435   4.257   4.611   8.104 -0.3234  0.0775 -0.1742
 1268SOL     OW15436   1.512   4.011   7.292 -0.5162  0.5628  0.3916
 1268SOL    HW115437   1.544   3.991   7.204 -0.7339  1.0944  0.1918
 1268SOL    HW215438   1.506   3.924   7.331  0.3195  1.8302  3.3185
 1269SOL     OW15439   4.036   3.649  15.895 -0.1277 -0.2892 -0.7611
 1269SOL    HW115440   4.043   3.690  15.981 -0.1036 -1.7978 -0.0351
 1269SOL    HW215441   3.944   3.656  15.871 -0.0521  2.2019 -0.2835
 1270SOL     OW15442   3.244   4.139   1.396  0.3565 -0.1568 -0.0053
 1270SOL    HW115443   3.286   4.098   1.320  0.3824 -2.7545  1.3919
 1270SOL    HW215444   3.317   4.183   1.440 -0.0888 -0.0894  0.6720
 1271SOL     OW15445   1.524   1.092   9.102 -0.0851 -0.2700 -0.2831
 1271SOL    HW115446   1.577   1.062   9.029 -1.5205  1.8215 -2.1852
 1271SOL    HW215447   1.443   1.107   9.053  0.8921  1.1663 -1.4715
 1272SOL     OW15448   2.814   1.339   1.416 -0.4770  0.0095 -0.3176
 1272SOL    HW115449   2.728   1.343   1.375  0.1633  0.9322 -1.5648
 1272SOL    HW215450   2.799   1.262   1.472  1.5198  1.7227  2.5461
 1273SOL     OW15451   2.732   0.024   5.071 -0.3484 -0.1461  0.1213
 1273SOL    HW115452   2.684   4.703   5.013 -0.4852 -0.0588  0.1457
 1273SOL    HW215453   2.675   0.022   5.147  1.0981 -0.4321  1.1975
 1274SOL     OW15454   3.282   0.231   4.420 -0.2321  0.1282 -0.0301
 1274SOL    HW115455   3.323   0.243   4.505  0.0462  0.6947 -0.2430
 1274SOL    HW215456   3.227   0.310   4.419  3.0472  2.4011  1.0964
 1275SOL     OW15457   2.875   2.322   0.547 -0.0806 -0.1189 -0.1965
 1275SOL    HW115458   2.850   2.349   0.458 -0.4457  0.2584  0.0207
 1275SOL    HW215459   2.943   2.258   0.523  1.0457  0.9503  0.1676
 1276SOL     OW15460   4.013   2.900   6.958  0.0855 -0.2311 -0.4259
 1276SOL    HW115461   4.024   2.982   7.007  0.2428  0.0264 -0.8930
 1276SOL    HW215462   4.104   2.881   6.937 -0.6164 -3.4299 -0.5368
 1277SOL     OW15463   0.816   2.352   5.560  0.1513 -0.2144  0.2748
 1277SOL    HW115464   0.865   2.352   5.642  0.8916  0.6749 -0.1794
 1277SOL    HW215465   0.872   2.387   5.491  0.0660  0.4938  0.5658
 1278SOL     OW15466   0.231   0.569   1.732  0.1203 -0.2521 -0.0395
 1278SOL    HW115467   0.200   0.659   1.736  0.7137 -0.0538  0.0867
 1278SOL    HW215468   0.157   0.522   1.693 -3.3171  2.4655  3.1972
 1279SOL     OW15469   0.900   0.514   7.965 -0.2240  0.1351  0.6307
 1279SOL    HW115470   0.912   0.490   7.873 -0.0286  0.0957  0.6666
 1279SOL    HW215471   0.859   0.436   8.002  2.0763 -2.6688 -2.6746
 1280SOL     OW15472   2.348   1.453   6.392  0.3797 -0.0094 -0.4344
 1280SOL    HW115473   2.295   1.532   6.380  1.3148  0.8864  1.4289
 1280SOL    HW215474   2.428   1.485   6.349 -0.7317  2.7334 -0.4769
 1281SOL     OW15475   3.238   3.550   7.847 -0.0879 -0.1127 -0.5413
 1281SOL    HW115476   3.161   3.557   7.791 -0.3055  1.4600 -0.0486
 1281SOL    HW215477   3.194   3.508   7.921 -0.7436 -1.6037 -1.7805
 1282SOL     OW15478   1.693   3.889   3.736 -0.5628 -0.0420 -0.1994
 1282SOL    HW115479   1.712   3.879   3.829 -1.6543 -0.6705 -0.0437
 1282SOL    HW215480   1.628   3.959   3.740 -0.5023  0.0550 -0.8857
 1283SOL     OW15481   4.299   0.752   6.134  0.1247 -0.0383  0.1082
 1283SOL    HW115482   4.252   0.673   6.162 -0.0578  0.7100  1.8991
 1283SOL    HW215483   4.329   0.791   6.216 -0.3370 -2.3885  1.3796
 1284SOL     OW15484   2.170   2.878   4.545  0.2878 -0.2878 -0.7605
 1284SOL    HW115485   2.135   2.913   4.463 -0.1396  0.3024 -0.3306
 1284SOL    HW215486   2.241   2.935   4.573  0.0458 -0.2119 -0.3024
 1285SOL     OW15487   2.490   4.050   7.520 -0.1614 -0.0392 -0.2342
 1285SOL    HW115488   2.579   4.018   7.534  0.4754  1.8450 -0.0753
 1285SOL    HW215489   2.496   4.103   7.441 -0.3678 -0.3832 -0.4814
 1286SOL     OW15490   1.689   4.104   4.413 -0.1307  0.1277  0.0273
 1286SOL    HW115491   1.636   4.061   4.480 -0.3929 -0.2065 -0.3919
 1286SOL    HW215492   1.754   4.135   4.476  0.8491  0.5180 -1.1856
 1287SOL     OW15493   1.298   0.009  15.099  0.0213 -0.2586 -0.0875
 1287SOL    HW115494   1.379   0.059  15.083 -1.1754  0.3142 -4.4271
 1287SOL    HW215495   1.280   4.730  15.007 -1.7199 -0.3770  0.2753
 1288SOL     OW15496   1.931   3.365   8.476 -0.0665 -0.2192  0.4714
 1288SOL    HW115497   1.861   3.361   8.541 -0.3710  0.5783  0.1941
 1288SOL    HW215498   1.925   3.456   8.446 -1.1373 -1.1672 -2.1928
 1289SOL     OW15499   0.254   1.251   2.426  0.1730 -0.3812 -0.1561
 1289SOL    HW115500   0.224   1.325   2.479  1.8545 -1.1593  1.8960
 1289SOL    HW215501   0.172   1.229   2.383  0.4832 -0.7576 -0.5599
 1290SOL     OW15502   3.612   2.901  11.983  0.0287 -0.2162  0.4635
 1290SOL    HW115503   3.566   2.908  11.900  1.1660  1.4115 -0.0170
 1290SOL    HW215504   3.554   2.835  12.022  0.3101 -0.1763  0.9493
 1291SOL     OW15505   3.142   3.399  14.011  0.8635 -0.2152  0.2006
 1291SOL    HW115506   3.074   3.464  14.030  0.7028 -0.2250 -0.3334
 1291SOL    HW215507   3.217   3.456  13.993  2.3577 -2.3031 -0.1454
 1292SOL     OW15508   2.797   1.056   1.222  0.8921 -0.9268  0.3528
 1292SOL    HW115509   2.846   1.135   1.197  4.4223 -3.1909  0.2386
 1292SOL    HW215510   2.723   1.110   1.251  1.5023 -0.2482  0.6377
 1293SOL     OW15511   4.188   0.088   9.538  0.0008  0.1780  0.3570
 1293SOL    HW115512   4.199   0.063   9.629  1.2678 -0.5046  0.0110
 1293SOL    HW215513   4.240   0.025   9.489 -1.5703 -1.0417  0.2695
 1294SOL     OW15514   4.666   1.101   4.211 -0.3577 -0.0441 -0.4666
 1294SOL    HW115515   0.003   1.065   4.164  1.8052  2.3325  1.1671
 1294SOL    HW215516   4.590   1.061   4.170  0.6734 -0.9353 -1.5042
 1295SOL     OW15517   2.797   0.471   9.945  0.9704 -0.4132 -0.7629
 1295SOL    HW115518   2.788   0.478  10.040 -0.0724 -0.0825 -0.8781
 1295SOL    HW215519   2.708   0.491   9.917  1.3792 -0.3173 -1.9854
 1296SOL     OW15520   1.289   4.633  14.854  0.0316 -0.2598  0.1284
 1296SOL    HW115521   1.212   4.578  14.841  1.4157 -1.7967 -1.5002
 1296SOL    HW215522   1.351   4.574  14.895  0.7407  1.0912  1.0098
 1297SOL     OW15523   1.477   3.006   6.731  0.2625 -0.3697  0.3821
 1297SOL    HW115524   1.557   3.055   6.711 -0.1693 -0.2648 -1.1131
 1297SOL    HW215525   1.494   2.970   6.818 -2.2778  0.1465  1.1079
 1298SOL     OW15526   1.799   2.172   3.014  0.3889  0.0000  0.4090
 1298SOL    HW115527   1.894   2.166   3.013  0.4412  1.4056 -3.2536
 1298SOL    HW215528   1.806   2.200   3.105 -2.6465 -0.6590  0.8614
 1299SOL     OW15529   3.140   3.265   1.556 -0.0907 -0.5384 -0.5397
 1299SOL    HW115530   3.192   3.233   1.482  0.8113  0.5861 -0.3987
 1299SOL    HW215531   3.129   3.173   1.581 -0.0683 -0.4870 -0.3354
 1300SOL     OW15532   0.348   2.862   3.894 -0.3595  0.6628  0.9059
 1300SOL    HW115533   0.356   2.874   3.989  1.5640 -0.4827  0.8844
 1300SOL    HW215534   0.440   2.858   3.869 -0.6173 -0.1121  0.0918
 1301SOL     OW15535   2.624   1.629   6.719  0.0927 -0.0495 -0.1948
 1301SOL    HW115536   2.670   1.610   6.637 -1.2976  1.9696 -1.4593
 1301SOL    HW215537   2.535   1.611   6.688  0.1062  0.8308 -0.7352
 1302SOL     OW15538   2.949   0.915   9.620 -0.3560  0.0848 -0.2516
 1302SOL    HW115539   2.898   0.850   9.667 -1.9242  0.6796 -1.1181
 1302SOL    HW215540   2.898   0.996   9.626 -0.8614 -0.4506  2.3787
 1303SOL     OW15541   1.557   0.707   6.598  0.6192 -0.5464 -0.1330
 1303SOL    HW115542   1.478   0.717   6.650  0.5047 -0.9283 -0.2350
 1303SOL    HW215543   1.618   0.728   6.669  0.4798 -2.0696  0.4470
 1304SOL     OW15544   0.603   1.748   8.742 -0.3088  0.4746  0.1442
 1304SOL    HW115545   0.530   1.749   8.803  0.1725 -1.5445  0.7511
 1304SOL    HW215546   0.678   1.739   8.800 -1.3610 -0.1766  1.4074
 1305SOL     OW15547   2.237   0.311   4.405 -0.3095  1.1111 -0.9489
 1305SOL    HW115548   2.270   0.384   4.457 -0.5344 -0.5616  1.5537
 1305SOL    HW215549   2.228   0.366   4.328 -0.6812  1.6404 -0.5282
 1306SOL     OW15550   0.231   3.358   3.424 -0.0472  0.7082 -0.1482
 1306SOL    HW115551   0.283   3.284   3.456  1.1742  0.7725 -1.9553
 1306SOL    HW215552   0.149   3.340   3.470  1.3694  0.3844  2.2479
 1307SOL     OW15553   0.363   0.633  10.322  0.3465 -0.2815 -0.1983
 1307SOL    HW115554   0.339   0.541  10.332 -1.9023  0.3987  0.6492
 1307SOL    HW215555   0.457   0.633  10.340  0.2703 -0.3258  0.1889
 1308SOL     OW15556   2.389   0.525  16.279  0.3906 -0.1663  0.1316
 1308SOL    HW115557   2.334   0.598  16.248  0.4118 -1.0243 -1.8736
 1308SOL    HW215558   2.346   0.452  16.235  0.9813 -0.6090  0.2882
 1309SOL     OW15559   2.302   3.858  16.500  0.0533 -0.0579 -0.1089
 1309SOL    HW115560   2.376   3.836  16.442 -1.1508 -2.3781 -0.7501
 1309SOL    HW215561   2.277   3.773  16.535  1.4427  0.0396  1.1222
 1310SOL     OW15562   0.249   3.354   1.913  0.1083  0.1889  0.1400
 1310SOL    HW115563   0.163   3.314   1.904  0.7249 -1.4332  1.2867
 1310SOL    HW215564   0.235   3.438   1.869  1.1141 -0.0199 -0.5716
 1311SOL     OW15565   4.348   0.797   7.202 -0.6383  0.0935  0.0817
 1311SOL    HW115566   4.272   0.854   7.218  0.5990  1.9060 -0.4988
 1311SOL    HW215567   4.413   0.865   7.183 -0.5717 -0.5513 -1.8936
 1312SOL     OW15568   3.159   1.563  12.812  0.6993 -0.1895 -0.2267
 1312SOL    HW115569   3.244   1.574  12.855 -1.0860  2.0020  2.7781
 1312SOL    HW215570   3.157   1.470  12.833  0.1280 -0.2152 -0.4084
 1313SOL     OW15571   2.488   1.529   2.888  0.3573  0.7300  0.1869
 1313SOL    HW115572   2.465   1.539   2.796 -1.2432  0.2173  0.5430
 1313SOL    HW215573   2.583   1.539   2.878  0.3233  0.0636 -0.7617
 1314SOL     OW15574   1.686   4.586   1.667 -0.3617  0.7945  0.5463
 1314SOL    HW115575   1.627   4.623   1.733 -0.1880 -0.5747  1.4615
 1314SOL    HW215576   1.629   4.606   1.593  0.5232  3.6025  0.6077
 1315SOL     OW15577   2.114   4.322   9.040  0.2390 -0.1254  0.1833
 1315SOL    HW115578   2.157   4.264   9.103 -2.0545 -0.8081  1.1252
 1315SOL    HW215579   2.039   4.267   9.017 -0.9242  1.3228  0.5091
 1316SOL     OW15580   3.671   2.273   1.978  0.2447 -0.7347  0.0016
 1316SOL    HW115581   3.607   2.208   2.006 -1.5276 -0.2219 -2.8951
 1316SOL    HW215582   3.635   2.350   2.023 -0.4241 -0.8776 -0.2948
 1317SOL     OW15583   0.704   1.709   1.644 -0.5782 -0.2188  0.2326
 1317SOL    HW115584   0.722   1.746   1.730  0.9055 -1.1620  0.3325
 1317SOL    HW215585   0.786   1.665   1.621 -0.5662 -0.5571  0.9330
 1318SOL     OW15586   1.143   1.773   5.262 -0.1557  0.3162 -0.1399
 1318SOL    HW115587   1.118   1.825   5.186  0.1071 -2.7879 -2.3487
 1318SOL    HW215588   1.052   1.764   5.290 -0.3391 -0.5866 -1.0446
 1319SOL     OW15589   2.076   1.192   2.225 -0.7374  0.0043  0.4495
 1319SOL    HW115590   2.090   1.215   2.317  1.3481 -1.8633  0.6039
 1319SOL    HW215591   2.096   1.277   2.186  2.2358  0.0888  2.1435
 1320SOL     OW15592   4.691   2.838  12.475 -0.0578 -0.2762 -0.2569
 1320SOL    HW115593   0.024   2.876  12.424 -0.2394 -0.5954 -0.7403
 1320SOL    HW215594   4.624   2.903  12.455 -0.6737 -0.4393  1.2607
 1321SOL     OW15595   4.021   0.524  15.294  0.0986  0.0966  0.3493
 1321SOL    HW115596   4.007   0.491  15.383  0.7617 -2.1980 -0.4043
 1321SOL    HW215597   4.066   0.446  15.261 -1.2411 -0.2603 -0.6108
 1322SOL     OW15598   0.498   4.251  11.273  0.5947  0.2623 -0.0790
 1322SOL    HW115599   0.410   4.275  11.303  0.2867 -0.6887 -0.2204
 1322SOL    HW215600   0.524   4.184  11.336  0.2320  0.9569  0.8144
 1323SOL     OW15601   3.609   4.446   1.631  0.1438  0.3106 -0.2112
 1323SOL    HW115602   3.554   4.522   1.650 -1.5642 -0.8976 -0.2745
 1323SOL    HW215603   3.672   4.477   1.566  1.3813  1.1752  1.3947
 1324SOL     OW15604   0.229   3.302   7.625 -0.0990 -0.0190  0.2254
 1324SOL    HW115605   0.287   3.281   7.699 -1.1307 -0.9595  0.7662
 1324SOL    HW215606   0.146   3.323   7.668  1.0220  1.0197  1.8721
 1325SOL     OW15607   2.857   1.128   3.841  0.0235 -0.4641 -0.4782
 1325SOL    HW115608   2.849   1.051   3.898 -0.9950  1.0742  1.4617
 1325SOL    HW215609   2.927   1.101   3.782  0.0075 -1.0780 -0.2133
 1326SOL     OW15610   3.050   4.344   5.002 -0.4044 -0.5000 -0.5846
 1326SOL    HW115611   3.143   4.361   4.992 -0.9055  0.1552 -3.9960
 1326SOL    HW215612   3.010   4.428   5.024  2.0827  0.0206  1.9187
 1327SOL     OW15613   0.659   3.132   7.834  0.4949 -0.3506 -0.0593
 1327SOL    HW115614   0.646   3.038   7.824 -0.6235 -0.3561  1.5597
 1327SOL    HW215615   0.737   3.137   7.890 -0.4251 -2.1901  1.3808
 1328SOL     OW15616   2.863   2.485   2.133  0.1939 -0.3729  0.0025
 1328SOL    HW115617   2.815   2.406   2.107  1.8107 -1.0740 -0.8381
 1328SOL    HW215618   2.822   2.499   2.219 -1.1647  0.7972 -0.8511
 1329SOL     OW15619   2.257   1.587   9.447 -0.5036 -0.4369 -0.2153
 1329SOL    HW115620   2.231   1.597   9.355 -0.8730  4.1803  0.4239
 1329SOL    HW215621   2.224   1.672   9.476  1.4064  0.2756 -0.1303
 1330SOL     OW15622   1.514   4.395   1.437  0.1705 -0.1569 -0.4699
 1330SOL    HW115623   1.453   4.407   1.510  4.1260 -0.7089  2.9451
 1330SOL    HW215624   1.491   4.304   1.419 -1.0443 -0.5651  3.1242
 1331SOL     OW15625   2.671   4.167  14.152  0.1043 -0.3698  0.0324
 1331SOL    HW115626   2.740   4.213  14.105 -0.1066  0.8638  0.9130
 1331SOL    HW215627   2.710   4.180  14.238 -0.5982 -1.9350  0.5736
 1332SOL     OW15628   4.330   2.199   7.756 -0.0991  0.2426  0.2738
 1332SOL    HW115629   4.391   2.194   7.830 -1.1312  1.5205  1.2178
 1332SOL    HW215630   4.387   2.190   7.680  0.2821  2.8115  0.2479
 1333SOL     OW15631   2.884   1.710   7.548  0.0812  0.1068 -0.2982
 1333SOL    HW115632   2.958   1.654   7.573  1.8344  2.7889  0.4966
 1333SOL    HW215633   2.824   1.636   7.540 -3.3937  3.2100 -2.5539
 1334SOL     OW15634   1.541   1.242   4.933  0.3864 -0.3497 -0.0218
 1334SOL    HW115635   1.580   1.166   4.891  0.0853  0.3156 -1.4845
 1334SOL    HW215636   1.448   1.225   4.946 -0.1308  3.6639  1.5687
 1335SOL     OW15637   3.609   4.388   6.942 -0.1166 -0.2455  0.1897
 1335SOL    HW115638   3.561   4.417   7.020 -0.8563  3.1037 -1.5231
 1335SOL    HW215639   3.659   4.313   6.974  0.6510 -0.7197 -2.1551
 1336SOL     OW15640   4.606   0.075   0.942  0.0729  0.3324 -0.4802
 1336SOL    HW115641   4.572   0.005   0.888 -1.5979 -0.4060  1.5103
 1336SOL    HW215642   4.699   0.057   0.931 -0.1009  0.3805 -1.9331
 1337SOL     OW15643   3.759   0.786  12.206  0.5557  0.7708  0.1957
 1337SOL    HW115644   3.683   0.774  12.263  0.8956 -0.1603  0.4637
 1337SOL    HW215645   3.768   0.695  12.178  1.7341  1.1196 -0.5296
 1338SOL     OW15646   0.059   0.246   9.202 -0.4653 -0.4505  0.2317
 1338SOL    HW115647   0.116   0.323   9.198 -0.1908 -0.7147 -1.3173
 1338SOL    HW215648   0.001   0.263   9.128 -1.5371  0.7443  1.3486
 1339SOL     OW15649   0.102   3.251   9.714 -0.3020  0.1204 -0.1012
 1339SOL    HW115650   0.159   3.199   9.771 -1.6384 -2.1369 -0.8349
 1339SOL    HW215651   0.092   3.198   9.635 -0.6838  1.8590 -1.2176
 1340SOL     OW15652   0.124   0.070   8.472  0.6743 -0.1200 -0.4083
 1340SOL    HW115653   0.146   0.057   8.565 -0.5518  1.7611  0.1524
 1340SOL    HW215654   0.145   0.162   8.454 -2.4797  0.4862 -0.9338
 1341SOL     OW15655   0.915   2.035   4.844  0.5194  0.6334 -0.5675
 1341SOL    HW115656   0.936   2.115   4.795 -0.0402  0.5837 -0.8863
 1341SOL    HW215657   0.851   2.068   4.908 -0.7933  1.0970 -2.1141
 1342SOL     OW15658   4.328   3.306   9.017  0.4724 -0.6368  0.0737
 1342SOL    HW115659   4.399   3.271   8.963 -0.8709 -3.3996  0.0741
 1342SOL    HW215660   4.256   3.313   8.955  1.0036 -1.0607 -0.5923
 1343SOL     OW15661   4.039   2.783   4.164  0.0309 -0.0703  0.6228
 1343SOL    HW115662   4.041   2.689   4.179  2.6996 -0.0997  0.0767
 1343SOL    HW215663   3.970   2.823   4.217 -1.2348 -1.1899 -0.1990
 1344SOL     OW15664   3.262   3.827   2.058 -0.0942 -0.0493  0.0064
 1344SOL    HW115665   3.249   3.896   2.123 -5.3272  0.8053 -1.9399
 1344SOL    HW215666   3.258   3.744   2.106 -1.0173 -0.0186 -0.0110
 1345SOL     OW15667   2.719   2.879   4.868  0.5467  0.9286 -0.1416
 1345SOL    HW115668   2.649   2.830   4.825 -1.7366  3.7449  0.3457
 1345SOL    HW215669   2.787   2.811   4.866 -1.6603 -1.3173  1.4034
 1346SOL     OW15670   4.608   0.338  17.688 -0.6188  0.4284  0.1549
 1346SOL    HW115671   4.524   0.375  17.659 -2.2296 -3.7446 -0.4851
 1346SOL    HW215672   4.620   0.373   0.023 -1.6822  0.8369  0.1389
 1347SOL     OW15673   1.006   0.271   1.407  0.4645 -0.1062  0.3247
 1347SOL    HW115674   1.006   0.178   1.385 -1.0302  0.3599 -1.7347
 1347SOL    HW215675   0.957   0.276   1.489  1.0721 -1.9983  0.8155
 1348SOL     OW15676   3.614   0.659   4.152 -0.2783  0.5180 -0.1372
 1348SOL    HW115677   3.650   0.618   4.230 -0.2166  1.4956  0.3446
 1348SOL    HW215678   3.554   0.594   4.114 -0.7501  0.6630  0.3815
 1349SOL     OW15679   1.809   2.445   1.684  0.0935  0.0551  0.1581
 1349SOL    HW115680   1.804   2.455   1.779 -1.7873  2.7070 -0.2218
 1349SOL    HW215681   1.718   2.426   1.663 -0.8076  4.2250  0.4208
 1350SOL     OW15682   4.730   0.787   3.850 -0.0210  0.2671 -0.4734
 1350SOL    HW115683   4.714   0.732   3.927  0.3779 -2.3999 -2.2951
 1350SOL    HW215684   0.080   0.765   3.825 -0.0117 -0.3684  0.1355
 1351SOL     OW15685   3.812   0.603   5.453  0.4673 -0.0058 -0.2498
 1351SOL    HW115686   3.771   0.643   5.530  1.3832  3.2083 -1.4378
 1351SOL    HW215687   3.774   0.514   5.453 -0.2261  0.2777 -2.3273
 1352SOL     OW15688   3.832   1.160   3.856  0.5892  0.0569  0.5052
 1352SOL    HW115689   3.744   1.178   3.889  0.1595 -1.2334  0.0688
 1352SOL    HW215690   3.879   1.238   3.884  3.2632 -1.1479 -0.6264
 1353SOL     OW15691   3.944   3.483   5.074  0.6896 -0.5265  0.3765
 1353SOL    HW115692   3.996   3.557   5.107  1.8883 -0.8847 -0.6858
 1353SOL    HW215693   3.862   3.523   5.046  0.3073 -0.3836  1.7297
 1354SOL     OW15694   0.709   3.230   8.198 -0.2528 -0.5038 -0.0973
 1354SOL    HW115695   0.705   3.239   8.293  0.0143 -1.2260 -0.0189
 1354SOL    HW215696   0.632   3.280   8.170 -0.3380 -0.2566  0.5877
 1355SOL     OW15697   0.789   0.963   6.843 -0.0501 -0.3101 -0.0663
 1355SOL    HW115698   0.791   0.975   6.748  2.7730  1.0125  0.1483
 1355SOL    HW215699   0.708   1.009   6.867  0.0079 -0.2244 -0.0319
 1356SOL     OW15700   2.737   1.520   2.219 -0.0450 -0.0461 -0.2629
 1356SOL    HW115701   2.817   1.471   2.203  1.0858  1.3387  1.1119
 1356SOL    HW215702   2.750   1.599   2.167  0.9410  0.0020  0.0642
 1357SOL     OW15703   0.229   2.275  12.602 -0.2551 -0.0134  1.4574
 1357SOL    HW115704   0.225   2.318  12.688 -1.0064  1.1149  0.8652
 1357SOL    HW215705   0.170   2.200  12.615  0.8996 -0.7951  2.1637
 1358SOL     OW15706   2.066   0.808   7.774  0.3155  0.4685 -0.3529
 1358SOL    HW115707   2.056   0.858   7.693  0.9645  1.8729  0.4372
 1358SOL    HW215708   2.041   0.869   7.843  3.8744  1.6742 -0.1134
 1359SOL     OW15709   1.034   3.716   4.743 -0.2828  0.5998  0.1647
 1359SOL    HW115710   1.121   3.754   4.729 -0.1866  0.2968 -0.0711
 1359SOL    HW215711   1.047   3.703   4.836 -2.7087  0.6911  0.5047
 1360SOL     OW15712   4.212   0.374  16.288 -0.4608 -0.0711 -0.7785
 1360SOL    HW115713   4.219   0.351  16.381  1.7818  1.0810 -0.6562
 1360SOL    HW215714   4.142   0.312  16.267 -3.2085  2.6520  0.4413
 1361SOL     OW15715   1.761   2.589   8.227  0.1486  0.2921 -0.0303
 1361SOL    HW115716   1.779   2.605   8.135 -2.0654  1.3693 -0.2742
 1361SOL    HW215717   1.810   2.660   8.268  2.3989 -1.0917 -0.2917
 1362SOL     OW15718   3.234   3.590  15.604 -0.2384 -0.1531 -0.3201
 1362SOL    HW115719   3.237   3.569  15.510  1.7167 -0.7630 -0.1299
 1362SOL    HW215720   3.317   3.639  15.607 -1.1572  1.3701  0.2137
 1363SOL     OW15721   3.263   3.715  10.838  0.0123  0.0315  0.1228
 1363SOL    HW115722   3.301   3.797  10.808 -1.5633  0.3320 -1.0726
 1363SOL    HW215723   3.207   3.702  10.761 -0.4027  1.2202  0.2271
 1364SOL     OW15724   3.016   4.712  14.093 -0.1794  0.5055  0.4227
 1364SOL    HW115725   2.958   4.698  14.168 -0.9178 -0.5485 -0.3421
 1364SOL    HW215726   2.963   4.669  14.025  0.1651 -0.1180  0.5481
 1365SOL     OW15727   3.200   4.524   8.507  0.2529  0.1710 -0.0027
 1365SOL    HW115728   3.152   4.512   8.589  1.0641  1.0869  0.5987
 1365SOL    HW215729   3.175   4.443   8.462  2.3242 -0.4682 -0.0004
 1366SOL     OW15730   3.298   2.992  16.905 -0.3282 -0.2746  0.3952
 1366SOL    HW115731   3.245   3.022  16.832  0.2285  0.7854  0.4247
 1366SOL    HW215732   3.264   3.042  16.979  1.1959  0.7052  0.4306
 1367SOL     OW15733   3.903   3.579   9.213 -0.7347  0.3483 -0.0923
 1367SOL    HW115734   3.833   3.611   9.269  2.2730  0.8067  3.4120
 1367SOL    HW215735   3.899   3.484   9.227 -0.8739  0.1438 -1.5372
 1368SOL     OW15736   2.091   2.511   9.194 -0.2074  0.3212 -0.0973
 1368SOL    HW115737   2.065   2.584   9.251 -1.3761 -0.6332  0.5885
 1368SOL    HW215738   2.018   2.454   9.215  0.3020  0.0585  1.0010
 1369SOL     OW15739   1.353   1.418   6.899  0.0169 -0.0756  0.2951
 1369SOL    HW115740   1.292   1.382   6.964  0.9867 -1.6503  0.3216
 1369SOL    HW215741   1.354   1.339   6.845 -1.0365 -0.8157  1.3445
 1370SOL     OW15742   0.802   4.227   1.457  0.1763 -0.0652 -0.3646
 1370SOL    HW115743   0.823   4.135   1.465  2.4122  0.4340 -0.6866
 1370SOL    HW215744   0.807   4.259   1.547  1.4355 -0.0751 -0.4384
 1371SOL     OW15745   2.223   0.500   6.117 -0.5976  0.4433 -0.1141
 1371SOL    HW115746   2.177   0.581   6.094 -0.5419  0.3627 -0.5143
 1371SOL    HW215747   2.260   0.485   6.030 -3.2234 -1.1745 -0.9947
 1372SOL     OW15748   0.397   4.420   7.635 -0.0743 -0.0026 -0.5990
 1372SOL    HW115749   0.474   4.389   7.587  0.8631  2.7755 -0.9359
 1372SOL    HW215750   0.382   4.512   7.613  2.2023  1.2477  3.0399
 1373SOL     OW15751   1.509   2.965   1.250 -0.1926  0.2526  0.3266
 1373SOL    HW115752   1.584   2.949   1.193 -0.6962  0.2357 -0.3264
 1373SOL    HW215753   1.479   2.874   1.253 -2.3647  0.9560  0.1527
 1374SOL     OW15754   0.719   1.262   9.281 -0.4384 -0.4766  0.0834
 1374SOL    HW115755   0.693   1.189   9.337 -0.1458  0.0725  0.9315
 1374SOL    HW215756   0.651   1.326   9.304 -0.9162 -1.0341  0.2212
 1375SOL     OW15757   3.647   4.294   0.077  0.5222 -0.3846  0.3440
 1375SOL    HW115758   3.706   4.279   0.004  1.1167  1.3165  0.4919
 1375SOL    HW215759   3.595   4.366   0.043  0.1854 -0.8530 -0.1445
 1376SOL     OW15760   1.390   0.370  10.147  0.3141  0.4156  0.1329
 1376SOL    HW115761   1.394   0.303  10.079  1.4584  0.4127  0.1993
 1376SOL    HW215762   1.373   0.459  10.117  0.5841  0.6954  0.8077
 1377SOL     OW15763   0.627   2.543   9.029  0.3550  0.4453  0.2915
 1377SOL    HW115764   0.534   2.559   9.048  0.0889 -1.3758  0.4821
 1377SOL    HW215765   0.634   2.467   9.087 -1.6816  0.6216  0.7601
 1378SOL     OW15766   4.074   1.744   2.323 -0.1973 -0.0142  0.1475
 1378SOL    HW115767   4.041   1.830   2.351  3.0073  0.7708  1.4612
 1378SOL    HW215768   3.992   1.698   2.305 -1.4280  1.8562  0.9346
 1379SOL     OW15769   0.743   1.460  11.497 -0.5757  0.3604  0.2440
 1379SOL    HW115770   0.753   1.382  11.551 -0.9381  0.6576  0.7359
 1379SOL    HW215771   0.812   1.513  11.537 -0.8178 -1.2846  2.7832
 1380SOL     OW15772   1.317   4.248  12.752  0.5887 -0.0113 -0.2424
 1380SOL    HW115773   1.256   4.296  12.696  0.0339  0.5223  0.8253
 1380SOL    HW215774   1.353   4.181  12.694 -0.1615 -0.3871 -0.2645
 1381SOL     OW15775   4.669   2.057   1.964  0.0578 -0.0705  1.0697
 1381SOL    HW115776   4.731   2.081   2.033 -0.2785 -0.6779  1.5810
 1381SOL    HW215777   4.589   2.081   2.010 -0.9039 -0.8660 -0.1748
 1382SOL     OW15778   1.116   1.835  12.745  0.1448 -0.2432  0.3925
 1382SOL    HW115779   1.074   1.826  12.660  0.1917 -1.0969  0.4626
 1382SOL    HW215780   1.211   1.828  12.731  0.3188  0.6950  1.0256
 1383SOL     OW15781   0.401   2.668   6.072 -0.0953 -0.6361  0.3849
 1383SOL    HW115782   0.356   2.728   6.131 -0.8498 -1.2527  0.4245
 1383SOL    HW215783   0.330   2.608   6.051 -1.1038  0.8291 -0.3800
 1384SOL     OW15784   1.631   0.944   5.747  0.6607 -0.0257 -0.2362
 1384SOL    HW115785   1.628   1.030   5.706 -0.1827 -0.4557 -1.0625
 1384SOL    HW215786   1.573   0.895   5.690  0.7506 -1.1382  0.6031
 1385SOL     OW15787   4.057   3.535   6.450 -0.4729  0.2316  0.6672
 1385SOL    HW115788   4.120   3.592   6.406 -1.0419 -0.3566 -0.9448
 1385SOL    HW215789   3.992   3.529   6.380  0.4534  4.5169 -0.5413
 1386SOL     OW15790   0.882   1.804   5.321 -0.0460 -0.2604 -0.4429
 1386SOL    HW115791   0.801   1.856   5.322 -0.7806 -1.4234  0.1962
 1386SOL    HW215792   0.844   1.717   5.317 -0.6467 -0.0903  1.3026
 1387SOL     OW15793   4.326   1.447   3.893  0.3374  0.5868 -0.3797
 1387SOL    HW115794   4.330   1.362   3.938 -0.2022  0.9475  0.3563
 1387SOL    HW215795   4.304   1.425   3.802 -1.7298 -0.4722  0.3711
 1388SOL     OW15796   2.184   3.383   2.292  0.0815  0.1806 -0.1601
 1388SOL    HW115797   2.247   3.315   2.270 -0.1636 -0.3301  0.7133
 1388SOL    HW215798   2.118   3.356   2.227  0.0248  0.3016 -0.1522
 1389SOL     OW15799   2.286   2.684  16.777  0.3636  0.4853  0.0166
 1389SOL    HW115800   2.313   2.596  16.753 -1.5629  0.3945 -1.7628
 1389SOL    HW215801   2.363   2.737  16.754  2.6134 -1.8290  2.1917
 1390SOL     OW15802   0.811   4.050   2.773 -0.1551  0.0172  0.4242
 1390SOL    HW115803   0.837   3.990   2.703  0.3857  0.7960 -0.0430
 1390SOL    HW215804   0.839   4.135   2.740 -0.2980 -0.0835  0.0364
 1391SOL     OW15805   4.312   3.186   7.017  0.1037  0.4627  0.1255
 1391SOL    HW115806   4.222   3.175   7.047  1.0718 -1.0844  2.3926
 1391SOL    HW215807   4.361   3.208   7.097 -1.0652 -0.4332  1.0726
 1392SOL     OW15808   4.563   2.546  10.945 -0.0994  0.2312  0.5278
 1392SOL    HW115809   4.604   2.630  10.965  2.0956 -0.0918 -2.5045
 1392SOL    HW215810   4.626   2.479  10.971  2.0589  1.7351 -0.8094
 1393SOL     OW15811   2.542   2.704   4.747  0.2224  0.0608  0.1572
 1393SOL    HW115812   2.492   2.732   4.825  0.1381 -0.1554  0.1806
 1393SOL    HW215813   2.473   2.674   4.689 -1.1144  1.0137  1.2371
 1394SOL     OW15814   1.695   1.594   2.334 -0.0801  0.2371  0.4541
 1394SOL    HW115815   1.710   1.532   2.263  0.6051  0.6603  0.2404
 1394SOL    HW215816   1.680   1.679   2.293 -1.2189 -0.3844 -0.4076
 1395SOL     OW15817   4.137   2.954   4.454  0.7486  0.2862  0.6200
 1395SOL    HW115818   4.054   2.999   4.437  0.2763 -0.3949  1.1565
 1395SOL    HW215819   4.111   2.863   4.465  0.9822  0.1768  0.2433
 1396SOL     OW15820   3.480   0.440   5.853  0.3598  0.4080 -0.6982
 1396SOL    HW115821   3.501   0.462   5.943  4.2516 -0.5793 -1.3251
 1396SOL    HW215822   3.385   0.442   5.863  0.3818  0.8908 -0.6068
 1397SOL     OW15823   2.642   3.463  16.820 -0.0694  0.6305  0.1785
 1397SOL    HW115824   2.707   3.533  16.826 -0.2011  0.7524  0.1724
 1397SOL    HW215825   2.614   3.464  16.728 -1.1484  0.2193  0.5074
 1398SOL     OW15826   3.759   2.315   9.647  0.6292 -0.1908  0.3420
 1398SOL    HW115827   3.785   2.369   9.721  0.2244  0.2077  0.1874
 1398SOL    HW215828   3.664   2.327   9.646  0.8094  1.3258  1.6324
 1399SOL     OW15829   1.696   1.349   3.940  0.1386  0.1589 -0.4334
 1399SOL    HW115830   1.789   1.357   3.962  0.7466 -1.6397 -2.4391
 1399SOL    HW215831   1.701   1.314   3.851  2.6150 -1.6037  0.3960
 1400SOL     OW15832   2.851   0.392  13.430  0.4299  0.6250  0.0466
 1400SOL    HW115833   2.817   0.303  13.425 -2.4345  1.6802  1.0367
 1400SOL    HW215834   2.783   0.429  13.486  1.2684 -0.5096  1.8180
 1401SOL     OW15835   3.690   2.262   8.911 -0.8116 -0.3221  0.6090
 1401SOL    HW115836   3.706   2.356   8.910 -1.2431 -0.2568  0.1125
 1401SOL    HW215837   3.645   2.250   8.827  0.5276 -0.7219 -0.0646
 1402SOL     OW15838   3.954   4.321   6.147  0.8075 -0.8746 -0.6649
 1402SOL    HW115839   4.023   4.326   6.081  0.8359  0.2978 -0.5480
 1402SOL    HW215840   3.893   4.258   6.111 -0.0690 -0.1088 -0.5283
 1403SOL     OW15841   2.709   3.512   2.365  0.1818  0.4942  0.3631
 1403SOL    HW115842   2.663   3.586   2.324  1.3901  1.1018  0.1218
 1403SOL    HW215843   2.785   3.561   2.395  0.2194  1.6894 -1.6374
 1404SOL     OW15844   2.991   0.535   5.110 -0.3539 -0.3030  0.0225
 1404SOL    HW115845   2.920   0.472   5.102 -2.0998  1.4947  1.4837
 1404SOL    HW215846   2.959   0.607   5.056 -0.5282  1.1619  2.0860
 1405SOL     OW15847   1.750   3.711  12.043  0.1330 -0.2417  0.5128
 1405SOL    HW115848   1.775   3.759  12.122  1.4012  2.1162 -1.3001
 1405SOL    HW215849   1.733   3.635  12.098 -1.2756  0.2687  0.7896
 1406SOL     OW15850   2.891   3.655   4.132  0.2240  0.3277 -0.3316
 1406SOL    HW115851   2.863   3.722   4.194 -0.6871 -0.7979  0.4834
 1406SOL    HW215852   2.883   3.694   4.045  0.8734  0.1955 -0.4558
 1407SOL     OW15853   3.654   1.370  13.688  0.3033 -0.0467 -0.2469
 1407SOL    HW115854   3.737   1.338  13.652  0.2168 -0.4212 -0.1151
 1407SOL    HW215855   3.663   1.356  13.782 -1.0768 -0.4389 -0.1704
 1408SOL     OW15856   1.614   3.532  12.237 -0.7525 -0.0809 -0.4419
 1408SOL    HW115857   1.610   3.447  12.194 -0.8560 -1.5362  2.4354
 1408SOL    HW215858   1.646   3.495  12.320  1.6052  1.2184 -0.7660
 1409SOL     OW15859   1.068   1.584   3.799  0.1892 -0.1961  0.2470
 1409SOL    HW115860   0.977   1.591   3.768  0.4377  0.4995 -0.3192
 1409SOL    HW215861   1.110   1.667   3.777 -0.9814  1.1596  2.9948
 1410SOL     OW15862   2.448   1.471   1.796 -0.1065 -0.5177  0.1764
 1410SOL    HW115863   2.530   1.477   1.845  0.2865  1.8784 -0.7950
 1410SOL    HW215864   2.420   1.383   1.820  0.1851 -0.6005  0.2130
 1411SOL     OW15865   0.640   2.170  13.901 -0.2537 -0.4703 -0.5126
 1411SOL    HW115866   0.556   2.141  13.866 -1.2719  0.1339  1.4459
 1411SOL    HW215867   0.616   2.233  13.969  0.4463 -1.2343  0.4390
 1412SOL     OW15868   3.281   0.307   2.155  0.2692 -0.6100  0.6139
 1412SOL    HW115869   3.250   0.245   2.090 -0.3807  0.3380  0.0307
 1412SOL    HW215870   3.374   0.286   2.170 -0.1476 -3.1234 -0.3967
 1413SOL     OW15871   2.824   1.811   0.045  0.1620  0.0894 -0.1685
 1413SOL    HW115872   2.890   1.742   0.053  0.7679  0.7146  0.2449
 1413SOL    HW215873   2.767   1.801   0.121  2.2941  0.3034  1.4864
 1414SOL     OW15874   2.689   3.432   4.795  0.7783 -0.3602 -0.0773
 1414SOL    HW115875   2.714   3.431   4.702  1.8212  0.2846  0.1969
 1414SOL    HW215876   2.657   3.343   4.805 -3.1211  0.6808 -3.2473
 1415SOL     OW15877   3.149   2.376   5.447  0.5892 -0.0414 -0.5085
 1415SOL    HW115878   3.242   2.393   5.461  0.8816 -0.8202 -1.5681
 1415SOL    HW215879   3.126   2.452   5.395  1.1639 -0.4519 -1.3608
 1416SOL     OW15880   0.376   3.182  14.421  0.0020  0.0592 -0.1213
 1416SOL    HW115881   0.463   3.165  14.458 -0.4502 -2.5260 -0.2896
 1416SOL    HW215882   0.400   3.227  14.340 -0.0801  1.0083  0.3736
 1417SOL     OW15883   2.813   0.922   2.158 -0.2114 -0.3904  0.0924
 1417SOL    HW115884   2.861   0.851   2.114 -0.0513  0.4495 -1.1047
 1417SOL    HW215885   2.762   0.872   2.221 -0.7242  1.2143  0.9463
 1418SOL     OW15886   3.006   3.868   9.221  0.1818  0.1988  0.4651
 1418SOL    HW115887   3.099   3.872   9.244  0.0284  0.7237  0.9943
 1418SOL    HW215888   2.962   3.898   9.301  0.2137 -1.6340  1.1654
 1419SOL     OW15889   1.950   1.129   1.962  0.0605  0.1983 -0.1633
 1419SOL    HW115890   2.013   1.135   2.034 -0.7244 -1.2493  0.6226
 1419SOL    HW215891   1.869   1.113   2.010  0.2324 -2.5236 -0.8016
 1420SOL     OW15892   1.290   2.874   7.265  0.3678 -0.5281 -0.2042
 1420SOL    HW115893   1.234   2.803   7.295 -0.9792 -0.0481 -1.6009
 1420SOL    HW215894   1.253   2.948   7.313  1.9922  0.3023 -0.2399
 1421SOL     OW15895   0.827   1.512   2.946  0.1591  0.3132 -0.3529
 1421SOL    HW115896   0.808   1.570   2.872  0.0902  0.0906 -0.5111
 1421SOL    HW215897   0.802   1.565   3.021 -1.2581  0.4740 -0.9340
 1422SOL     OW15898   3.856   4.589   3.566  0.1485 -0.0711  0.3908
 1422SOL    HW115899   3.951   4.574   3.568  0.5655  2.4467 -0.1708
 1422SOL    HW215900   3.849   4.632   3.651  0.7946 -1.1481  0.9966
 1423SOL     OW15901   1.141   2.454  15.073  0.6784 -0.6946 -0.0941
 1423SOL    HW115902   1.117   2.518  15.141 -0.7576 -0.2577 -1.0216
 1423SOL    HW215903   1.088   2.377  15.092 -1.0399  0.2881 -0.9840
 1424SOL     OW15904   2.297   0.565   7.245  0.1155  0.2210 -0.1287
 1424SOL    HW115905   2.256   0.536   7.163 -1.8381  0.8079  0.6408
 1424SOL    HW215906   2.389   0.567   7.220 -0.0443 -0.9722 -0.8016
 1425SOL     OW15907   1.560   0.077   4.544  0.1974 -0.0309 -0.3919
 1425SOL    HW115908   1.644   0.032   4.558 -0.1465 -0.1263  1.3038
 1425SOL    HW215909   1.593   0.167   4.547  1.0094 -0.3661  0.6669
 1426SOL     OW15910   2.430   3.967   6.610  0.6655  0.0432 -0.5489
 1426SOL    HW115911   2.490   4.016   6.553  2.0921 -0.4890  0.5066
 1426SOL    HW215912   2.391   3.901   6.553 -0.1200 -1.1626  1.3943
 1427SOL     OW15913   2.420   2.605   8.351 -0.6425 -0.1733  0.6560
 1427SOL    HW115914   2.465   2.520   8.356  0.3808  0.4578  2.2254
 1427SOL    HW215915   2.330   2.576   8.367 -0.9253  0.9984  1.2095
 1428SOL     OW15916   2.924   0.512   9.258 -0.7849  0.3251  0.0639
 1428SOL    HW115917   2.941   0.486   9.168  0.5600  1.7547 -0.1003
 1428SOL    HW215918   3.008   0.553   9.279 -0.2706 -1.4480  1.4228
 1429SOL     OW15919   0.059   4.469   5.447 -0.3102 -0.6208 -0.2948
 1429SOL    HW115920   0.060   4.554   5.490  1.2484  0.2200 -1.9697
 1429SOL    HW215921   0.074   4.405   5.516  0.1376 -0.9918 -0.7282
 1430SOL     OW15922   2.578   3.117   8.007  0.0258 -0.2057  0.4043
 1430SOL    HW115923   2.591   3.184   7.940  1.0244 -2.1753 -1.3573
 1430SOL    HW215924   2.589   3.161   8.091  1.2191  2.0119 -0.9229
 1431SOL     OW15925   3.089   2.874  16.647 -0.2339 -0.1603  0.5666
 1431SOL    HW115926   3.092   2.800  16.586  0.9331  1.0295 -0.8049
 1431SOL    HW215927   3.170   2.920  16.629  0.3139 -0.1274  3.1227
 1432SOL     OW15928   1.738   3.020   3.870 -0.5492  0.3019 -0.1109
 1432SOL    HW115929   1.700   2.940   3.906 -0.2370  0.0513 -0.3382
 1432SOL    HW215930   1.779   2.980   3.793 -0.2593  1.5551 -0.6039
 1433SOL     OW15931   0.081   1.729   6.565  0.0685 -0.2778  0.1193
 1433SOL    HW115932   0.014   1.661   6.578 -1.1969  1.5990  3.3456
 1433SOL    HW215933   0.156   1.670   6.556 -0.4616 -0.3497 -4.0529
 1434SOL     OW15934   3.813   0.890  11.487  0.2561  0.4476 -0.5637
 1434SOL    HW115935   3.865   0.910  11.410  1.2575 -0.3834 -0.1119
 1434SOL    HW215936   3.852   0.954  11.546  1.3643 -1.8401  1.1930
 1435SOL     OW15937   1.152   3.270  12.296  0.5064  0.5689 -0.5129
 1435SOL    HW115938   1.168   3.225  12.379 -1.5321 -2.0134 -1.5499
 1435SOL    HW215939   1.233   3.269  12.245 -0.4736 -0.7526 -2.0203
 1436SOL     OW15940   1.225   4.591   2.114  0.5327  0.1468  0.0181
 1436SOL    HW115941   1.206   4.560   2.202 -0.5665  1.0726  0.1243
 1436SOL    HW215942   1.141   4.633   2.094 -0.1820 -2.3869 -2.1656
 1437SOL     OW15943   2.330   4.616   5.724 -0.3847 -0.2997 -0.0153
 1437SOL    HW115944   2.381   4.653   5.796 -0.0726 -1.2963  0.2783
 1437SOL    HW215945   2.405   4.587   5.671  0.1713 -0.7554  1.0119
 1438SOL     OW15946   2.077   0.032   0.958  0.1334 -0.5804 -0.7485
 1438SOL    HW115947   2.115   0.053   1.043  1.1851 -1.0058 -1.1113
 1438SOL    HW215948   2.119   4.686   0.941  1.4278 -0.0921  0.0529
 1439SOL     OW15949   3.666   2.343   1.706  0.2306 -0.3204  0.6839
 1439SOL    HW115950   3.639   2.319   1.795 -1.1128 -2.0700 -0.1915
 1439SOL    HW215951   3.588   2.388   1.674  0.2502 -2.4763 -2.4384
 1440SOL     OW15952   1.074   0.686  15.451 -0.0580  0.4968  0.7251
 1440SOL    HW115953   1.081   0.774  15.488  1.2230  0.5617  0.3650
 1440SOL    HW215954   1.005   0.641  15.498 -1.7042  1.3840 -0.8417
 1441SOL     OW15955   3.450   1.474   3.398  0.2620  0.3172 -0.8755
 1441SOL    HW115956   3.517   1.511   3.342  1.0742  0.5143  0.2214
 1441SOL    HW215957   3.508   1.423   3.455 -0.3878 -1.5516 -1.9156
 1442SOL     OW15958   4.121   4.546   3.695 -0.2290 -0.6153  0.4626
 1442SOL    HW115959   4.118   4.497   3.777 -0.8267 -0.4667  0.5294
 1442SOL    HW215960   4.152   4.631   3.726 -0.3236 -0.4678  0.1571
 1443SOL     OW15961   1.428   1.473   7.593  0.4856 -0.2321  0.3216
 1443SOL    HW115962   1.468   1.555   7.566 -1.3145  0.1264 -1.2215
 1443SOL    HW215963   1.335   1.496   7.590 -0.0201 -2.3098  0.2537
 1444SOL     OW15964   4.492   0.575   9.008 -0.4603 -0.0117  1.0094
 1444SOL    HW115965   4.548   0.501   8.987 -2.2277 -0.9781 -0.2499
 1444SOL    HW215966   4.536   0.594   9.091  1.9160 -2.4955  0.3034
 1445SOL     OW15967   0.254   0.101  17.652  0.1161  0.0843 -0.0602
 1445SOL    HW115968   0.322   0.077  17.590 -1.7251 -0.7124 -1.7529
 1445SOL    HW215969   0.201   0.023  17.666  1.6668 -1.2232 -1.6279
 1446SOL     OW15970   0.073   3.079   5.375 -1.0489 -0.3347 -0.0003
 1446SOL    HW115971   0.111   2.993   5.356 -0.2656  0.4163 -1.8366
 1446SOL    HW215972   0.074   3.068   5.470  0.2923  2.3487  0.3032
 1447SOL     OW15973   4.132   4.209   6.595 -0.6248 -0.7823 -0.4539
 1447SOL    HW115974   4.186   4.142   6.637  2.8651  1.3077 -1.5596
 1447SOL    HW215975   4.186   4.287   6.586  1.6333 -2.3237 -0.2824
 1448SOL     OW15976   1.398   2.300  14.804  0.1645  0.2891  0.2916
 1448SOL    HW115977   1.435   2.244  14.872 -0.7205  0.1723  0.6846
 1448SOL    HW215978   1.367   2.378  14.851  1.6938  1.7990 -1.2034
 1449SOL     OW15979   2.890   3.424   3.360 -0.8910  0.2648  0.1499
 1449SOL    HW115980   2.928   3.446   3.275  2.4279 -1.7021  1.0825
 1449SOL    HW215981   2.948   3.455   3.430  0.5226  2.4448 -1.9948
 1450SOL     OW15982   2.996   1.049   8.853  0.0354 -0.2213  0.3781
 1450SOL    HW115983   2.908   1.011   8.851  0.6384 -1.6164  0.6531
 1450SOL    HW215984   2.976   1.143   8.860 -1.0465 -0.4948  0.9954
 1451SOL     OW15985   2.339   3.208   1.513 -0.4688 -0.3971  0.0452
 1451SOL    HW115986   2.345   3.304   1.518 -1.3930 -0.3415  0.1731
 1451SOL    HW215987   2.302   3.185   1.598 -1.1797  0.3105 -0.0708
 1452SOL     OW15988   3.566   4.025   2.225 -0.2820 -0.0394  0.2241
 1452SOL    HW115989   3.554   4.120   2.224  2.0451  0.2615  0.2833
 1452SOL    HW215990   3.521   4.001   2.306  0.2967  1.1890  0.9010
 1453SOL     OW15991   0.968   0.988   8.610 -0.3023 -0.7042 -1.0375
 1453SOL    HW115992   1.052   1.017   8.575  0.5831 -1.2990  0.6012
 1453SOL    HW215993   0.908   0.983   8.536 -0.0787  1.0719 -1.3216
 1454SOL     OW15994   2.021   0.604   5.758  0.5669  0.0775 -0.1155
 1454SOL    HW115995   1.953   0.543   5.785 -0.0759  0.8816  0.1021
 1454SOL    HW215996   2.028   0.598   5.663  1.1925  0.4480 -0.0967
 1455SOL     OW15997   4.466   0.886   3.596  0.3282 -0.0474  0.5900
 1455SOL    HW115998   4.444   0.880   3.689 -0.6112  0.8259  0.4234
 1455SOL    HW215999   4.379   0.901   3.558 -1.0639  0.2707  3.8494
 1456SOL     OW16000   3.652   1.841   8.008  0.4116 -0.1830  0.2025
 1456SOL    HW116001   3.636   1.846   7.914 -1.3575  2.8339  0.6812
 1456SOL    HW216002   3.739   1.802   7.999  0.1312 -0.5805 -0.8181
 1457SOL     OW16003   2.521   0.563   4.389  0.1876 -0.3139  0.4288
 1457SOL    HW116004   2.433   0.580   4.355 -0.2278 -0.7241  1.2809
 1457SOL    HW216005   2.580   0.558   4.314 -0.6390 -0.3694 -0.2224
 1458SOL     OW16006   0.323   4.122   2.435 -0.0004  0.3544 -0.1018
 1458SOL    HW116007   0.401   4.069   2.423  0.1995  0.5802  0.1952
 1458SOL    HW216008   0.306   4.117   2.530 -0.6186  0.0186 -0.2312
 1459SOL     OW16009   3.577   3.585   1.734 -0.5549  0.1094 -0.9893
 1459SOL    HW116010   3.546   3.666   1.693  1.0790  0.5761 -1.3158
 1459SOL    HW216011   3.544   3.588   1.824 -1.6920  0.8649 -1.4316
 1460SOL     OW16012   3.095   4.656   7.773  0.2819 -0.2876 -0.0269
 1460SOL    HW116013   3.159   4.622   7.836  0.7327  0.3261 -0.1456
 1460SOL    HW216014   3.016   4.663   7.827  0.1627 -1.6377 -0.0432
 1461SOL     OW16015   3.104   4.383  10.127 -0.2508  0.5646 -0.8310
 1461SOL    HW116016   3.034   4.318  10.118  1.3431 -1.4597  1.3301
 1461SOL    HW216017   3.061   4.448  10.182 -1.0190 -2.6136  2.3295
 1462SOL     OW16018   3.671   2.793   8.692 -0.1119  0.2741  0.0366
 1462SOL    HW116019   3.611   2.792   8.767  1.4723  0.4467  1.2960
 1462SOL    HW216020   3.645   2.877   8.654  0.0301  0.6125  0.6927
 1463SOL     OW16021   3.308   0.322   2.885  0.2578  0.2237  0.4012
 1463SOL    HW116022   3.303   0.402   2.833 -2.2999  1.2031  2.1728
 1463SOL    HW216023   3.323   0.359   2.972  1.6448 -0.2096  0.3565
 1464SOL     OW16024   0.440   2.329   8.445  0.2961  0.1390 -0.2367
 1464SOL    HW116025   0.510   2.375   8.399  1.2422 -2.2630 -1.2170
 1464SOL    HW216026   0.412   2.389   8.514  1.1065 -0.2647  0.4455
 1465SOL     OW16027   0.650   3.080   5.529 -0.4966 -0.1677 -0.1236
 1465SOL    HW116028   0.572   3.117   5.572  0.9871  3.3478 -0.5551
 1465SOL    HW216029   0.713   3.095   5.599  1.9846  2.2662 -2.9106
 1466SOL     OW16030   0.491   2.393   4.483 -0.0649  0.3386 -0.5462
 1466SOL    HW116031   0.472   2.413   4.575 -1.5973  0.7593 -0.9508
 1466SOL    HW216032   0.570   2.445   4.476  0.4413 -0.1647  1.3042
 1467SOL     OW16033   2.263   2.170   8.538 -0.3484  0.3187 -0.7671
 1467SOL    HW116034   2.198   2.104   8.564  0.1061 -0.1254 -0.7755
 1467SOL    HW216035   2.346   2.152   8.581 -0.5582 -0.6438 -0.7776
 1468SOL     OW16036   1.904   1.748   6.182 -0.1616 -0.1414 -0.8642
 1468SOL    HW116037   1.809   1.751   6.193 -0.2603  0.2062 -1.8332
 1468SOL    HW216038   1.917   1.782   6.094  1.8502  3.1161  0.6815
 1469SOL     OW16039   0.932   4.170   5.044 -0.2760 -0.0896 -0.5332
 1469SOL    HW116040   0.902   4.242   5.100  0.1528 -1.3897  1.3714
 1469SOL    HW216041   0.849   4.123   5.036 -1.2050  1.2528  1.4125
 1470SOL     OW16042   3.872   0.649   8.766 -0.6775 -0.0158  0.3619
 1470SOL    HW116043   3.852   0.557   8.781 -0.1601 -0.5985 -2.3861
 1470SOL    HW216044   3.858   0.664   8.672 -0.8906 -0.4298  0.3292
 1471SOL     OW16045   2.419   0.694   9.435  0.5304 -0.0814  0.7078
 1471SOL    HW116046   2.361   0.768   9.415 -1.0920 -1.7166 -0.7320
 1471SOL    HW216047   2.482   0.706   9.364 -0.1678 -0.8784 -0.0564
 1472SOL     OW16048   4.052   0.047  15.802 -0.5966  0.3581  0.1746
 1472SOL    HW116049   4.119   0.072  15.738  1.1879 -2.1846  1.0431
 1472SOL    HW216050   4.073   4.693  15.812  0.4236  0.3917 -1.6404
 1473SOL     OW16051   4.086   2.995  11.551 -0.5055 -0.0146  0.0981
 1473SOL    HW116052   4.131   2.927  11.601 -0.9398 -0.6654 -0.3829
 1473SOL    HW216053   4.158   3.051  11.524  0.0230 -1.3625 -1.3042
 1474SOL     OW16054   2.183   2.034  12.146 -0.0868 -0.0070 -0.6785
 1474SOL    HW116055   2.180   2.089  12.068 -1.2884  0.6279 -0.1960
 1474SOL    HW216056   2.203   2.102  12.211  1.1170 -2.6466  1.7236
 1475SOL     OW16057   0.699   3.740  16.929 -0.1390  0.3113  0.3933
 1475SOL    HW116058   0.657   3.823  16.948  1.3755  0.9333  0.9623
 1475SOL    HW216059   0.648   3.679  16.983  0.4788  1.4081  2.1893
 1476SOL     OW16060   2.614   3.956  14.980  0.0163  0.3076 -0.2697
 1476SOL    HW116061   2.640   4.007  15.056  0.6208 -1.7922  0.9459
 1476SOL    HW216062   2.695   3.924  14.939 -0.2056  0.7087 -1.0243
 1477SOL     OW16063   2.256   2.763  10.263 -0.1478 -0.3004  1.1465
 1477SOL    HW116064   2.237   2.669  10.256  1.1372 -0.5296  0.7132
 1477SOL    HW216065   2.208   2.793  10.185  0.1667  1.9015  1.8058
 1478SOL     OW16066   4.014   0.220   4.408  0.0257 -0.2743  0.2906
 1478SOL    HW116067   4.076   0.236   4.337 -1.4179  1.6405 -0.5628
 1478SOL    HW216068   3.936   0.206   4.353  0.3094  2.2070 -0.7327
 1479SOL     OW16069   3.519   1.758   8.802 -0.0373  0.8230  0.6661
 1479SOL    HW116070   3.541   1.763   8.708  2.3234  0.1787  1.1686
 1479SOL    HW216071   3.426   1.738   8.808  0.1517 -0.1137  0.4856
 1480SOL     OW16072   3.442   0.157   8.172  0.4937  0.2084  0.9334
 1480SOL    HW116073   3.528   0.115   8.173 -0.5493 -1.9217  0.5490
 1480SOL    HW216074   3.444   0.228   8.107  2.6310  0.0436  0.7993
 1481SOL     OW16075   0.859   3.965  11.813 -0.0604  0.1997 -0.4220
 1481SOL    HW116076   0.897   4.037  11.864 -0.5189  1.4921 -1.9041
 1481SOL    HW216077   0.933   3.914  11.779 -0.6612 -0.9895  0.0696
 1482SOL     OW16078   2.396   4.578  15.931 -0.1889 -0.0101  0.0145
 1482SOL    HW116079   2.484   4.573  15.968 -0.2054 -3.9493 -0.4943
 1482SOL    HW216080   2.364   4.665  15.954 -2.1980 -0.6125 -0.5688
 1483SOL     OW16081   3.196   3.552   9.929  0.4634  0.1228 -0.0466
 1483SOL    HW116082   3.159   3.605   9.858  0.5340 -0.1322 -0.2718
 1483SOL    HW216083   3.134   3.578   9.998 -0.1116 -1.0304 -0.1325
 1484SOL     OW16084   0.037   3.450   2.190  0.2678 -0.1440  0.2242
 1484SOL    HW116085   4.722   3.389   2.140  0.3080 -1.3039  1.5901
 1484SOL    HW216086   0.109   3.394   2.219 -2.6178 -3.1867  1.4328
 1485SOL     OW16087   2.291   0.461   4.636  0.2690 -0.2126 -0.0266
 1485SOL    HW116088   2.288   0.390   4.700 -1.0969 -0.8697 -0.8029
 1485SOL    HW216089   2.327   0.535   4.685  1.3631 -1.2555  0.7415
 1486SOL     OW16090   1.212   3.157   9.032  0.2199  0.0993  0.0263
 1486SOL    HW116091   1.251   3.103   8.963 -0.1122 -0.4259  0.2469
 1486SOL    HW216092   1.283   3.152   9.096  0.9973  0.9843 -0.7526
 1487SOL     OW16093   3.601   3.404   3.751 -0.4595  0.5050 -0.1678
 1487SOL    HW116094   3.624   3.461   3.824  1.6869 -2.2680  1.3385
 1487SOL    HW216095   3.516   3.437   3.723 -0.0253  1.3184 -0.5163
 1488SOL     OW16096   1.972   4.589   9.889  0.2206  0.9366  0.5407
 1488SOL    HW116097   1.968   4.652   9.961  2.6073 -0.9265  2.3234
 1488SOL    HW216098   1.934   4.515   9.937 -0.9476  1.0392 -0.2346
 1489SOL     OW16099   0.704   2.925   4.622 -0.3697 -0.2773 -0.9455
 1489SOL    HW116100   0.642   2.997   4.612  0.3757  0.1042 -2.7593
 1489SOL    HW216101   0.782   2.971   4.651 -1.3945  0.3578  0.8597
 1490SOL     OW16102   3.759   2.745   5.261  0.0462  0.0187 -0.0621
 1490SOL    HW116103   3.849   2.778   5.265  0.1242 -0.2305  0.2451
 1490SOL    HW216104   3.740   2.703   5.177 -2.4541 -1.6802  1.3618
 1491SOL     OW16105   1.017   3.010   4.419 -0.2381  0.0425  0.2121
 1491SOL    HW116106   0.948   2.953   4.386  1.6286 -3.1114  1.7575
 1491SOL    HW216107   1.088   2.982   4.361 -0.6525  1.0898 -0.8030
 1492SOL     OW16108   0.966   2.877   1.152 -0.1667 -0.1214 -0.4352
 1492SOL    HW116109   1.005   2.940   1.091  0.2863  2.1183  2.1673
 1492SOL    HW216110   0.909   2.934   1.205 -0.6826 -2.0689  1.0905
 1493SOL     OW16111   0.600   3.292  10.748  0.6180 -0.2264  0.2964
 1493SOL    HW116112   0.680   3.240  10.736 -0.7934 -2.4966  0.7407
 1493SOL    HW216113   0.567   3.294  10.658  1.1886  1.1896  0.1281
 1494SOL     OW16114   3.629   0.729   6.207 -0.1593  0.3027 -0.1744
 1494SOL    HW116115   3.674   0.644   6.202  1.2631  0.9889  0.9040
 1494SOL    HW216116   3.572   0.717   6.283  0.6559  1.0839  0.5507
 1495SOL     OW16117   1.348   3.554   1.382  0.1674 -0.1159 -0.0315
 1495SOL    HW116118   1.302   3.604   1.315 -1.5680  0.9655  1.9616
 1495SOL    HW216119   1.395   3.481   1.342  1.3702  0.1278  0.8989
 1496SOL     OW16120   2.222   4.384   5.931 -0.5773  0.1278 -0.0641
 1496SOL    HW116121   2.258   4.464   5.893  1.1571 -0.5266  0.2056
 1496SOL    HW216122   2.220   4.327   5.853 -1.9380 -0.2278  0.2316
 1497SOL     OW16123   2.050   4.221   1.772 -0.1976  0.5321  0.0548
 1497SOL    HW116124   2.134   4.265   1.757 -1.6068  2.8678 -1.0092
 1497SOL    HW216125   1.999   4.281   1.716 -0.9721  0.4380  0.6676
 1498SOL     OW16126   3.050   1.733   2.168  0.0525 -0.1078  0.4675
 1498SOL    HW116127   2.993   1.724   2.092  1.1038 -0.2399 -0.3097
 1498SOL    HW216128   3.027   1.824   2.183 -2.0085 -0.3683 -1.0771
 1499SOL     OW16129   0.223   3.999   4.429 -0.0799  0.6037  0.2469
 1499SOL    HW116130   0.218   3.957   4.343 -0.0487  1.2823 -0.0918
 1499SOL    HW216131   0.192   4.085   4.400  0.6006 -0.4977 -3.8383
 1500SOL     OW16132   2.293   2.540  10.936  0.3912  0.3069 -0.1994
 1500SOL    HW116133   2.376   2.517  10.979  0.1641  0.0653  0.1051
 1500SOL    HW216134   2.256   2.594  11.005  0.0276 -0.8403  0.5110
 1501SOL     OW16135   1.351   2.191   4.087  0.5529  0.3423 -0.4751
 1501SOL    HW116136   1.292   2.139   4.033  0.4110  0.8624 -0.8232
 1501SOL    HW216137   1.413   2.123   4.111 -0.6502 -0.7386 -0.4266
 1502SOL     OW16138   0.083   4.737   5.327 -0.1881  0.2054  0.1717
 1502SOL    HW116139   0.077   0.089   5.358  0.9001  0.2402  0.2840
 1502SOL    HW216140   0.005   4.698   5.367  0.2411 -0.8045  0.0175
 1503SOL     OW16141   4.588   1.551   2.409 -0.2140  0.0550  0.0705
 1503SOL    HW116142   4.544   1.489   2.466  0.3558 -0.2239  0.2135
 1503SOL    HW216143   4.574   1.526   2.317 -0.9797  0.2089  0.1503
 1504SOL     OW16144   4.013   1.508  12.359  0.1188  0.5550  0.4425
 1504SOL    HW116145   4.100   1.489  12.396 -0.8541 -0.9999  1.9296
 1504SOL    HW216146   3.989   1.423  12.323  0.0656  1.0737 -0.7696
 1505SOL     OW16147   0.174   3.724  16.966 -0.0352  0.1439  0.6317
 1505SOL    HW116148   0.264   3.743  16.940  0.0641  1.4316  1.9061
 1505SOL    HW216149   0.145   3.674  16.889  0.1811 -0.2964  0.8365
 1506SOL     OW16150   3.155   1.725   6.004  0.1122  0.2112  0.0616
 1506SOL    HW116151   3.241   1.764   6.021  0.1896 -0.6879  1.7250
 1506SOL    HW216152   3.172   1.655   5.942  0.6100  0.2425  0.1623
 1507SOL     OW16153   0.545   1.428   5.654 -0.2098  0.1819  0.1681
 1507SOL    HW116154   0.581   1.516   5.642 -3.1975  1.1282 -1.8021
 1507SOL    HW216155   0.596   1.386   5.584 -0.8895 -0.7205  0.2162
 1508SOL     OW16156   3.459   0.835   8.345 -0.2264 -0.0750  0.2745
 1508SOL    HW116157   3.428   0.909   8.294  0.9807 -0.6251 -1.2428
 1508SOL    HW216158   3.521   0.798   8.282 -0.9636 -0.3813 -0.2831
 1509SOL     OW16159   3.459   0.106   3.795  0.0836  0.5640 -0.7198
 1509SOL    HW116160   3.535   0.163   3.784  1.2586 -0.9236 -0.3313
 1509SOL    HW216161   3.479   0.021   3.755 -1.5656 -0.2066  0.0763
 1510SOL     OW16162   4.373   0.098   5.710  0.3647  0.6207 -0.2636
 1510SOL    HW116163   4.431   0.172   5.694 -1.3352  2.1008  0.4222
 1510SOL    HW216164   4.287   0.135   5.694  0.1749 -0.0817 -0.8555
 1511SOL     OW16165   3.667   1.503   8.631  0.1612 -0.0767  0.3092
 1511SOL    HW116166   3.740   1.517   8.691 -0.0620 -1.0218  0.8154
 1511SOL    HW216167   3.698   1.423   8.588  0.8143  0.5949 -0.4583
 1512SOL     OW16168   1.847   3.755   2.476 -0.0798  0.0117  0.1811
 1512SOL    HW116169   1.877   3.703   2.550  0.5456  0.6841  0.3916
 1512SOL    HW216170   1.752   3.767   2.487 -0.3476 -2.6575  0.6891
 1513SOL     OW16171   0.850   2.601   2.532  0.0444 -0.2684 -0.8666
 1513SOL    HW116172   0.828   2.691   2.506  0.1196  0.6022  2.1061
 1513SOL    HW216173   0.916   2.620   2.599 -2.4417 -1.2165  1.8120
 1514SOL     OW16174   3.447   0.575   7.213  0.0786  0.5855 -0.0765
 1514SOL    HW116175   3.384   0.646   7.198 -0.5243 -0.0432 -0.5141
 1514SOL    HW216176   3.396   0.494   7.210 -0.8919  1.0986  2.0190
 1515SOL     OW16177   4.657   1.471   4.994  0.0320  0.1087  0.3597
 1515SOL    HW116178   4.671   1.479   4.900 -1.2750 -0.5390  0.1170
 1515SOL    HW216179   0.002   1.454   5.038  0.9485 -1.0525 -1.8873
 1516SOL     OW16180   4.279   2.869   6.887 -0.2132 -0.5414 -0.6487
 1516SOL    HW116181   4.355   2.928   6.887  0.4282 -1.3800  0.5509
 1516SOL    HW216182   4.318   2.782   6.894  1.3574  0.4770  3.0325
 1517SOL     OW16183   0.646   3.069   9.392  0.5773 -0.0236 -0.7233
 1517SOL    HW116184   0.642   3.099   9.483  1.3806 -1.7890 -0.1132
 1517SOL    HW216185   0.690   2.985   9.406  2.5192  0.7788 -2.1019
 1518SOL     OW16186   2.781   3.784   8.936 -0.4936  0.2804  0.5013
 1518SOL    HW116187   2.739   3.724   8.874  1.9484  0.4488 -1.3171
 1518SOL    HW216188   2.713   3.846   8.961  0.1170  0.1864  2.4423
 1519SOL     OW16189   0.521   2.032  10.003 -0.4857  0.4962 -0.0218
 1519SOL    HW116190   0.547   1.952   9.957 -2.9371  0.1856 -0.8499
 1519SOL    HW216191   0.585   2.094   9.967 -2.3056  1.9259 -0.7664
 1520SOL     OW16192   3.378   4.232   0.556  0.1351  0.0039 -0.5612
 1520SOL    HW116193   3.454   4.228   0.615 -0.5748  0.1722  0.3601
 1520SOL    HW216194   3.411   4.207   0.470  0.1013 -2.5427  0.1786
 1521SOL     OW16195   2.684   4.697   6.821  0.5114 -0.0435 -0.1716
 1521SOL    HW116196   2.623   4.719   6.751 -0.5813 -1.0794  0.4524
 1521SOL    HW216197   2.746   4.636   6.781 -0.5310 -0.0616 -1.7297
 1522SOL     OW16198   4.322   1.216   8.981  0.5904 -0.2413  0.4919
 1522SOL    HW116199   4.308   1.129   8.944  0.5461  0.6970 -1.6906
 1522SOL    HW216200   4.235   1.243   9.009  0.3283  2.3812 -2.8216
 1523SOL     OW16201   3.233   2.239   7.558  0.2253 -0.6788 -0.1891
 1523SOL    HW116202   3.321   2.240   7.595 -0.2160 -0.8550  0.8702
 1523SOL    HW216203   3.203   2.324   7.590  0.2407  0.1077 -2.2521
 1524SOL     OW16204   1.846   2.959   6.297 -0.2935  0.0105  0.2970
 1524SOL    HW116205   1.900   3.037   6.315 -0.2586 -0.3231  1.6268
 1524SOL    HW216206   1.805   2.944   6.382  0.5966 -2.1612  0.3327
 1525SOL     OW16207   4.407   4.508  14.827  0.4653 -0.6098  0.3034
 1525SOL    HW116208   4.428   4.600  14.817  1.6394 -0.9557 -0.3890
 1525SOL    HW216209   4.462   4.458  14.767  0.6258  0.0545 -0.0945
 1526SOL     OW16210   3.862   2.796   1.227 -0.2292  0.0692 -0.3756
 1526SOL    HW116211   3.921   2.822   1.298 -1.6918 -2.1537  1.6504
 1526SOL    HW216212   3.925   2.752   1.170 -0.0647 -0.1877  0.0072
 1527SOL     OW16213   2.270   2.427   0.213 -0.3320  0.1661  0.3247
 1527SOL    HW116214   2.180   2.457   0.199 -0.1140 -0.5388 -2.5045
 1527SOL    HW216215   2.264   2.385   0.299  0.6902 -0.3746  0.1212
 1528SOL     OW16216   3.768   2.739   2.608  0.0979  0.5002 -0.1689
 1528SOL    HW116217   3.697   2.675   2.610  0.6673 -0.1265  0.0731
 1528SOL    HW216218   3.717   2.819   2.614  3.3317  2.5906 -0.4207
 1529SOL     OW16219   1.924   1.929  11.184 -0.0486  0.3022 -0.4128
 1529SOL    HW116220   1.858   1.869  11.219 -0.0577  0.1038 -0.7702
 1529SOL    HW216221   1.891   2.012  11.221 -1.2639 -0.0061 -0.8069
 1530SOL     OW16222   2.696   2.444   4.141 -0.1088 -0.3180  0.0354
 1530SOL    HW116223   2.666   2.492   4.218  0.6884  0.4259 -0.1180
 1530SOL    HW216224   2.617   2.392   4.127  1.0315 -2.7297  2.6398
 1531SOL     OW16225   2.595   0.775   5.957 -0.2651  0.2968  0.1162
 1531SOL    HW116226   2.679   0.802   5.922 -0.5759 -1.0688 -1.6579
 1531SOL    HW216227   2.540   0.848   5.930 -2.0685 -1.3743 -0.7445
 1532SOL     OW16228   1.077   1.006   6.082  0.4635  0.7769 -0.4683
 1532SOL    HW116229   1.088   0.960   6.166  0.7156  1.4893 -0.1187
 1532SOL    HW216230   1.143   0.967   6.024 -0.0832  0.1000 -0.6487
 1533SOL     OW16231   2.075   4.083   0.683  0.3678  0.6607 -0.0481
 1533SOL    HW116232   2.128   4.005   0.672 -1.0490 -0.0550 -1.7841
 1533SOL    HW216233   2.075   4.089   0.779  1.7974  0.5770 -0.0448
 1534SOL     OW16234   0.442   3.799   8.654 -0.3697 -0.1495  0.0206
 1534SOL    HW116235   0.438   3.856   8.577  1.5080  0.7579  0.5851
 1534SOL    HW216236   0.406   3.868   8.709 -0.6448  0.3599 -0.7858
 1535SOL     OW16237   3.341   1.985  12.147  0.4861  0.0735  0.0777
 1535SOL    HW116238   3.403   2.048  12.183  1.0921  0.2860 -1.3530
 1535SOL    HW216239   3.325   1.946  12.233  1.1944  1.1795  0.7117
 1536SOL     OW16240   4.299   0.399   8.919  0.6392  0.9778  0.4467
 1536SOL    HW116241   4.281   0.452   8.841 -0.2696  0.9807  0.6552
 1536SOL    HW216242   4.353   0.461   8.967  0.3119  1.0549  0.7125
 1537SOL     OW16243   3.825   0.611   8.409  0.0441 -0.3682  0.0110
 1537SOL    HW116244   3.782   0.696   8.416 -0.3816 -0.6543  0.8942
 1537SOL    HW216245   3.767   0.559   8.353  0.6879 -0.2816 -0.7360
 1538SOL     OW16246   3.147   2.396   8.755 -0.0372  0.4418  0.3517
 1538SOL    HW116247   3.064   2.379   8.709  1.6855 -3.3221 -1.4048
 1538SOL    HW216248   3.117   2.406   8.845  1.1560 -0.4763  0.8408
 1539SOL     OW16249   0.594   0.354  14.848 -0.2362  0.0055  0.0405
 1539SOL    HW116250   0.628   0.274  14.806 -1.9433 -1.1100  0.7774
 1539SOL    HW216251   0.578   0.324  14.938 -2.0431 -0.4355 -0.4316
 1540SOL     OW16252   2.499   4.225   8.829 -0.3674 -0.0189 -0.2105
 1540SOL    HW116253   2.568   4.288   8.810  0.4593 -1.1292 -0.8398
 1540SOL    HW216254   2.427   4.281   8.801  0.1720 -0.0894 -1.6963
 1541SOL     OW16255   2.022   1.181   8.904  0.8215 -0.2770  0.2708
 1541SOL    HW116256   2.013   1.276   8.908  4.4520  0.0109  1.8887
 1541SOL    HW216257   2.081   1.166   8.831  1.2854  0.5936  0.4694
 1542SOL     OW16258   3.909   3.850   9.447  0.6677  0.0522  0.2070
 1542SOL    HW116259   3.827   3.858   9.496  1.8469  0.4655  2.1253
 1542SOL    HW216260   3.885   3.796   9.371  1.2786  0.7956 -0.5220
 1543SOL     OW16261   3.466   4.469   4.695 -0.0563 -0.6395  0.0743
 1543SOL    HW116262   3.520   4.396   4.725  1.2199  0.2674  0.0142
 1543SOL    HW216263   3.529   4.537   4.720 -0.8328 -0.5368  1.7639
 1544SOL     OW16264   2.966   0.364   5.767 -0.4161 -0.1674 -0.1692
 1544SOL    HW116265   2.989   0.368   5.674  0.6545 -2.4913 -0.0071
 1544SOL    HW216266   2.871   0.372   5.761 -0.4450 -0.6242 -0.3173
 1545SOL     OW16267   2.713   1.594  13.726  0.2507  0.1354  0.2284
 1545SOL    HW116268   2.799   1.627  13.751  1.2533 -1.0507 -1.7666
 1545SOL    HW216269   2.701   1.609  13.633 -0.3410 -0.2230  0.2496
 1546SOL     OW16270   0.913   0.989   4.448 -0.0634  0.1776 -0.1072
 1546SOL    HW116271   0.820   1.010   4.441 -0.5293 -1.1768  1.8925
 1546SOL    HW216272   0.912   0.896   4.468  1.7343 -0.0597 -1.1425
 1547SOL     OW16273   2.892   3.049  16.895 -0.3963 -0.0528 -0.0432
 1547SOL    HW116274   2.902   3.081  16.985  0.8297 -0.5140 -0.0131
 1547SOL    HW216275   2.970   3.070  16.844 -1.0722 -1.0517 -1.4814
 1548SOL     OW16276   3.061   0.871   8.172  0.1371 -0.7549  0.4833
 1548SOL    HW116277   3.007   0.805   8.129 -0.6971 -0.3163  0.8512
 1548SOL    HW216278   3.036   0.843   8.260 -1.5907 -1.7047 -0.3227
 1549SOL     OW16279   1.029   1.906   3.993 -0.2104 -0.2658  0.1021
 1549SOL    HW116280   0.986   1.991   4.005 -1.9929 -1.0693 -0.6902
 1549SOL    HW216281   0.967   1.856   4.046  2.9193  0.0810  4.0679
 1550SOL     OW16282   2.325   2.819   7.644 -0.2249 -0.2951 -0.3021
 1550SOL    HW116283   2.420   2.813   7.643 -0.0339  2.5568 -0.6951
 1550SOL    HW216284   2.321   2.852   7.734 -0.0438  1.2473 -0.8524
 1551SOL     OW16285   0.273   4.216   9.808  0.2835 -0.6760  0.3679
 1551SOL    HW116286   0.310   4.233   9.721 -0.5656 -1.5353 -0.1557
 1551SOL    HW216287   0.345   4.159   9.835  1.1953 -0.6386 -1.9024
 1552SOL     OW16288   3.679   2.059   5.667  0.5393  0.2526  0.4921
 1552SOL    HW116289   3.753   2.031   5.721 -1.8077 -3.6529  1.7021
 1552SOL    HW216290   3.725   2.141   5.650  3.2387 -1.0203  1.6576
 1553SOL     OW16291   2.912   2.029   3.967  0.2165 -0.4442  0.3312
 1553SOL    HW116292   2.911   1.935   3.947  1.1304 -0.2711 -0.5017
 1553SOL    HW216293   2.836   2.016   4.025  1.2617  1.7790  2.1897
 1554SOL     OW16294   0.978   0.237  16.962 -0.1775 -0.0406  0.8579
 1554SOL    HW116295   1.058   0.188  16.943 -0.6947 -0.5445 -0.0244
 1554SOL    HW216296   0.989   0.274  17.050 -1.1439 -0.9194  1.3450
 1555SOL     OW16297   4.539   1.498   2.866 -0.0984  0.3256 -0.1719
 1555SOL    HW116298   4.518   1.439   2.793 -0.7940  0.4159 -0.0441
 1555SOL    HW216299   4.453   1.533   2.889  0.2314 -0.0910  1.6912
 1556SOL     OW16300   2.802   0.791  16.299  0.0354  0.0542 -0.0667
 1556SOL    HW116301   2.866   0.728  16.331 -1.1836 -1.5993 -0.9063
 1556SOL    HW216302   2.792   0.769  16.207  3.4801  2.1244 -0.9361
 1557SOL     OW16303   4.375   1.252  12.129 -0.6224 -0.2236  0.3063
 1557SOL    HW116304   4.333   1.286  12.050 -0.2070 -0.6619 -0.1016
 1557SOL    HW216305   4.415   1.337  12.145 -2.2292  0.2697  1.6462
 1558SOL     OW16306   2.606   3.144  13.814  0.5061 -0.4542  0.1405
 1558SOL    HW116307   2.693   3.169  13.843  1.8599 -1.2916 -3.2061
 1558SOL    HW216308   2.548   3.180  13.882 -0.9641 -0.4458 -1.0950
 1559SOL     OW16309   3.790   0.539   2.739  0.3072  0.1267  0.3388
 1559SOL    HW116310   3.866   0.542   2.797  1.0673  0.2078 -0.6691
 1559SOL    HW216311   3.765   0.446   2.744 -1.0996  0.4512 -0.7829
 1560SOL     OW16312   2.599   2.648  16.733  0.1104  0.2734  0.3726
 1560SOL    HW116313   2.653   2.720  16.700 -2.4088  0.4264 -3.3642
 1560SOL    HW216314   2.632   2.577  16.677 -2.3564 -0.2345 -0.4243
 1561SOL     OW16315   0.694   1.374   2.477  0.0691  0.2036  0.6115
 1561SOL    HW116316   0.789   1.382   2.469 -0.0266  2.8198  2.2717
 1561SOL    HW216317   0.674   1.374   2.570  0.1392  1.4638  0.6221
 1562SOL     OW16318   1.939   3.857  11.027  0.3210 -0.1293 -0.5073
 1562SOL    HW116319   1.934   3.852  11.123 -0.5054  0.8501 -0.4947
 1562SOL    HW216320   1.867   3.917  11.007  0.5202 -0.3103 -1.7634
 1563SOL     OW16321   4.075   0.720   2.005 -0.1879  0.5077 -0.1912
 1563SOL    HW116322   4.037   0.676   1.929  0.0008  1.8045 -1.0409
 1563SOL    HW216323   4.021   0.799   2.004 -1.4348 -0.2864  2.8154
 1564SOL     OW16324   2.286   0.911   1.953  0.2836 -0.1649  0.0661
 1564SOL    HW116325   2.274   1.005   1.941 -2.8642 -0.4090  1.2536
 1564SOL    HW216326   2.319   0.889   1.866  0.8712  1.0803 -0.0236
 1565SOL     OW16327   1.353   2.927   5.171 -0.1233  0.3093 -0.6811
 1565SOL    HW116328   1.402   3.007   5.153  0.2364  0.6075  1.7500
 1565SOL    HW216329   1.330   2.909   5.079  1.5917 -1.3863 -0.7814
 1566SOL     OW16330   1.665   0.428   7.340  0.4796 -0.4470  0.0417
 1566SOL    HW116331   1.664   0.338   7.308 -0.0101  0.0545 -1.3262
 1566SOL    HW216332   1.730   0.465   7.281  0.9413 -0.6400  0.4254
 1567SOL     OW16333   3.728   1.514  11.031  0.6364  0.0154 -0.4256
 1567SOL    HW116334   3.703   1.422  11.028 -0.1164  0.1784  0.9881
 1567SOL    HW216335   3.800   1.502  11.092  0.0747  0.0530  0.2442
 1568SOL     OW16336   0.045   3.828   6.199 -0.3431  0.8548 -0.3730
 1568SOL    HW116337   0.042   3.742   6.158 -0.6201 -0.2032  1.8753
 1568SOL    HW216338   0.124   3.821   6.253  0.8149 -1.3190 -2.3611
 1569SOL     OW16339   3.739   2.051  13.130  0.0527  0.2467 -0.0114
 1569SOL    HW116340   3.704   2.126  13.082 -1.5981 -0.4808  0.0760
 1569SOL    HW216341   3.772   1.985  13.070 -0.7963  0.0464 -0.2620
 1570SOL     OW16342   2.225   1.750   2.162 -0.4729  0.2952 -1.1137
 1570SOL    HW116343   2.240   1.722   2.071  0.0122 -2.2501 -0.2665
 1570SOL    HW216344   2.296   1.698   2.200  0.1462  0.7553 -1.6447
 1571SOL     OW16345   1.979   0.765   8.739  0.4673  0.1424  0.0910
 1571SOL    HW116346   2.072   0.779   8.755  0.6198 -0.2992 -0.3759
 1571SOL    HW216347   1.975   0.672   8.717  0.4979  0.2232 -0.2626
 1572SOL     OW16348   3.839   0.118  16.824 -0.5049  0.4841 -0.1230
 1572SOL    HW116349   3.781   0.065  16.770 -1.3901  0.6609  0.6688
 1572SOL    HW216350   3.896   0.156  16.756 -1.4395  2.4832  0.1992
 1573SOL     OW16351   1.415   3.257  13.600  0.4336 -0.2768  0.0197
 1573SOL    HW116352   1.395   3.191  13.534  1.5092  1.8586 -2.4424
 1573SOL    HW216353   1.409   3.201  13.678 -0.4109 -0.2370 -0.0170
 1574SOL     OW16354   2.425   3.451   2.883  0.4951  0.2523  0.1217
 1574SOL    HW116355   2.454   3.540   2.868  0.6543  0.4139  1.3791
 1574SOL    HW216356   2.509   3.417   2.914  1.5886  0.0737 -3.0953
 1575SOL     OW16357   0.473   2.178   2.859  0.1082 -0.0893 -0.4688
 1575SOL    HW116358   0.423   2.256   2.882  1.8532  1.1912 -0.9743
 1575SOL    HW216359   0.429   2.161   2.776  1.2180 -0.3668 -1.0088
 1576SOL     OW16360   0.764   0.749   8.531  0.1316 -0.0406  0.2939
 1576SOL    HW116361   0.812   0.696   8.467 -0.5286 -0.9708  0.5677
 1576SOL    HW216362   0.817   0.730   8.608 -1.0750 -0.7020  0.9589
 1577SOL     OW16363   0.806   1.442  13.309  0.3485  0.6333 -0.1068
 1577SOL    HW116364   0.792   1.535  13.327 -0.1732  0.3366  1.0788
 1577SOL    HW216365   0.718   1.406  13.316 -0.4120  2.4322 -0.5508
 1578SOL     OW16366   2.097   1.926   9.200  0.6880  0.5244 -1.0558
 1578SOL    HW116367   2.110   1.831   9.206  0.9085  0.6231  0.0663
 1578SOL    HW216368   2.019   1.923   9.144 -0.3322 -0.1188  0.4201
 1579SOL     OW16369   0.264   4.476  15.466 -0.3006  0.3358 -0.0167
 1579SOL    HW116370   0.265   4.556  15.413  0.3907  0.1976 -0.2067
 1579SOL    HW216371   0.203   4.424  15.414 -0.4700  2.3183 -1.8127
 1580SOL     OW16372   4.511   0.659   0.482  0.0654  0.3349 -0.0687
 1580SOL    HW116373   4.524   0.742   0.437  1.7657 -0.0918 -0.3850
 1580SOL    HW216374   4.484   0.691   0.568  1.3130 -0.1160  0.4951
 1581SOL     OW16375   4.702   2.390   1.559  0.2364  0.3920  0.5595
 1581SOL    HW116376   0.040   2.389   1.617 -2.3213 -1.7922  3.9055
 1581SOL    HW216377   4.648   2.342   1.622 -0.9675  0.3533 -0.5087
 1582SOL     OW16378   1.720   1.580   3.692 -0.0586  0.1736  1.1287
 1582SOL    HW116379   1.797   1.635   3.712 -0.0765 -0.7805  3.8114
 1582SOL    HW216380   1.743   1.498   3.736 -0.4090 -1.0799 -1.0280
 1583SOL     OW16381   1.685   1.604  14.606  0.3896 -0.4687 -0.2964
 1583SOL    HW116382   1.711   1.695  14.624 -0.8614 -0.3436  0.9127
 1583SOL    HW216383   1.596   1.622  14.576 -0.2706 -0.0657  1.8939
 1584SOL     OW16384   2.683   3.794  14.050  0.3809  0.2139 -0.1260
 1584SOL    HW116385   2.637   3.772  14.131 -0.5464 -1.2040 -1.0396
 1584SOL    HW216386   2.732   3.715  14.027 -0.7902 -0.4215 -0.3844
 1585SOL     OW16387   3.661   4.087   3.175  0.2472  0.1290  0.1785
 1585SOL    HW116388   3.627   4.018   3.118  1.0019 -0.2500  0.1880
 1585SOL    HW216389   3.730   4.121   3.119  0.4742  2.0986  1.6751
 1586SOL     OW16390   0.716   2.849   7.823  0.2596  0.9268 -0.1166
 1586SOL    HW116391   0.627   2.818   7.841 -0.2307  1.8254 -1.0064
 1586SOL    HW216392   0.764   2.827   7.903 -1.2670  1.2551  0.8965
 1587SOL     OW16393   0.754   2.635  12.221 -0.4881 -0.3593  0.2069
 1587SOL    HW116394   0.832   2.674  12.181 -0.6782 -0.2259 -0.0296
 1587SOL    HW216395   0.789   2.595  12.301  1.4513  1.6370  0.3497
 1588SOL     OW16396   0.310   3.633   6.581 -0.3682  0.1301 -0.2394
 1588SOL    HW116397   0.279   3.709   6.631  0.0556  1.1920 -1.5668
 1588SOL    HW216398   0.242   3.606   6.519  0.0462  0.1074 -0.6876
 1589SOL     OW16399   3.722   2.328   0.359 -0.7759 -1.0206  0.7263
 1589SOL    HW116400   3.810   2.356   0.386 -0.5710  0.6522 -1.5974
 1589SOL    HW216401   3.738   2.249   0.307  3.4805  1.0092 -1.1161
 1590SOL     OW16402   1.112   3.543   1.083 -0.0389  0.1378  0.4097
 1590SOL    HW116403   1.195   3.497   1.097 -0.0742 -0.0223  0.0915
 1590SOL    HW216404   1.131   3.630   1.118  2.2047 -0.2804  0.2498
 1591SOL     OW16405   1.225   1.996   3.322 -0.2951  0.3415  0.5109
 1591SOL    HW116406   1.223   1.997   3.226  1.6945  1.6474  0.5032
 1591SOL    HW216407   1.146   1.947   3.348 -0.6385  1.4843  1.6160
 1592SOL     OW16408   1.814   1.343   6.150 -0.0296  0.1920 -0.1610
 1592SOL    HW116409   1.751   1.359   6.220 -0.9633 -0.8048 -0.7583
 1592SOL    HW216410   1.809   1.247   6.151  2.0170  0.1386  2.4915
 1593SOL     OW16411   0.452   0.594   3.830  0.1975 -0.2369 -0.2460
 1593SOL    HW116412   0.486   0.582   3.741  0.4312 -1.0464 -0.0463
 1593SOL    HW216413   0.464   0.511   3.876 -0.6537  0.2759  0.8902
 1594SOL     OW16414   2.331   1.090   1.304 -0.2561 -0.1046  0.0642
 1594SOL    HW116415   2.287   1.006   1.296 -0.2587 -0.2947  2.1820
 1594SOL    HW216416   2.397   1.055   1.363  1.3078  2.2161 -0.2851
 1595SOL     OW16417   4.698   0.033   7.510  0.6271 -0.1601  0.0881
 1595SOL    HW116418   4.624   0.081   7.548  1.0410  1.7591 -1.5968
 1595SOL    HW216419   0.018   0.032   7.586  1.2448 -1.0992 -0.4042
 1596SOL     OW16420   2.645   3.470   8.534 -0.1844  0.8051 -0.0058
 1596SOL    HW116421   2.712   3.403   8.543  0.3239  1.6383  2.2768
 1596SOL    HW216422   2.573   3.411   8.508 -0.8893  0.7366  2.1328
 1597SOL     OW16423   0.900   4.408  13.114 -0.0565 -0.3397  0.2836
 1597SOL    HW116424   0.855   4.489  13.092  1.0586  0.4780  0.9656
 1597SOL    HW216425   0.831   4.366  13.165 -1.6636  0.9326 -0.8420
 1598SOL     OW16426   0.791   2.245  15.290  0.3436  0.5523 -0.3824
 1598SOL    HW116427   0.846   2.196  15.229  0.3260 -0.2785  0.2580
 1598SOL    HW216428   0.824   2.217  15.375  1.1741 -0.0124 -0.9029
 1599SOL     OW16429   3.328   0.581   7.713 -0.3454 -0.2568 -0.0048
 1599SOL    HW116430   3.414   0.550   7.685 -0.5240 -1.5083  0.8675
 1599SOL    HW216431   3.351   0.629   7.793  0.3147  2.1809 -1.6436
 1600SOL     OW16432   1.048   1.009   8.903  0.1363  0.0064 -0.4221
 1600SOL    HW116433   0.991   0.998   8.828 -1.9628  0.7479  1.0546
 1600SOL    HW216434   1.074   0.918   8.918 -1.3205 -0.5560 -1.4037
 1601SOL     OW16435   1.900   0.049  13.433 -0.5043 -0.3611 -0.1482
 1601SOL    HW116436   1.822   0.040  13.488  1.5132  1.4733  2.9968
 1601SOL    HW216437   1.920   0.141  13.453  0.1092 -0.4137 -0.5093
 1602SOL     OW16438   0.220   1.110   6.173  0.5406 -0.2361  0.3568
 1602SOL    HW116439   0.258   1.189   6.135 -0.7438 -0.7378 -1.9954
 1602SOL    HW216440   0.295   1.067   6.214 -0.2524 -1.6009  0.3622
 1603SOL     OW16441   3.966   2.024   8.349  0.5157 -0.1059 -0.0176
 1603SOL    HW116442   3.981   2.098   8.291 -1.0744  0.6205  0.5245
 1603SOL    HW216443   3.874   2.037   8.371 -0.1195 -2.6011 -1.1099
 1604SOL     OW16444   1.544   2.991  10.460  0.3594  0.1503  0.4147
 1604SOL    HW116445   1.638   2.973  10.451  0.1221 -0.2489 -1.1694
 1604SOL    HW216446   1.539   3.086  10.460 -2.1561  0.0251  0.1263
 1605SOL     OW16447   1.647   1.021   1.305 -0.0301 -0.3440 -0.0969
 1605SOL    HW116448   1.557   1.051   1.296  0.0533  0.2890  1.0714
 1605SOL    HW216449   1.635   0.939   1.352  2.7981 -0.2313  0.8203
 1606SOL     OW16450   4.416   0.722   8.160 -0.2646  0.1823 -0.7276
 1606SOL    HW116451   4.488   0.784   8.171  0.1016 -0.2723 -0.5597
 1606SOL    HW216452   4.401   0.691   8.250  1.9402 -0.7599 -0.6762
 1607SOL     OW16453   0.265   4.719   4.431  0.0840  0.2428 -0.0300
 1607SOL    HW116454   0.299   0.062   4.467  2.0650  0.3925 -2.3137
 1607SOL    HW216455   0.341   4.664   4.449 -0.7370 -0.7668  0.3609
 1608SOL     OW16456   1.561   2.525   0.995 -0.1956  0.7021  0.4180
 1608SOL    HW116457   1.564   2.464   0.921 -0.5964  0.0544  0.9277
 1608SOL    HW216458   1.469   2.543   0.975 -1.0626 -3.3036  0.6786
 1609SOL     OW16459   0.795   3.090   6.242 -0.1858  0.2247 -0.2115
 1609SOL    HW116460   0.825   3.181   6.234  0.7081  0.0013  0.5875
 1609SOL    HW216461   0.874   3.037   6.234 -1.1126 -1.4971  2.2035
 1610SOL     OW16462   1.276   4.287   3.159 -0.0393 -0.0913 -0.0292
 1610SOL    HW116463   1.189   4.326   3.153  0.6705  1.7139  1.2521
 1610SOL    HW216464   1.257   4.209   3.107  0.7805 -0.0302 -0.4064
 1611SOL     OW16465   2.571   1.976   3.355  0.2592  0.2027 -0.3701
 1611SOL    HW116466   2.625   2.053   3.375 -1.1390  1.0220  0.2874
 1611SOL    HW216467   2.519   1.964   3.435  2.0718 -1.6505  0.5151
 1612SOL     OW16468   2.572   0.512   2.854  0.1962  0.1197  0.0163
 1612SOL    HW116469   2.630   0.584   2.829 -1.1036  0.8870 -0.7996
 1612SOL    HW216470   2.640   0.447   2.842 -0.5227 -0.3003 -1.8165
 1613SOL     OW16471   3.718   2.727   9.757 -0.0960  0.3390 -0.3326
 1613SOL    HW116472   3.788   2.786   9.784  1.9651 -1.9303 -0.7301
 1613SOL    HW216473   3.652   2.767   9.814  0.9640 -0.4578  1.4487
 1614SOL     OW16474   3.433   1.776   2.604  0.4078  0.5442  0.3382
 1614SOL    HW116475   3.407   1.806   2.516  2.2203 -0.0559 -0.4173
 1614SOL    HW216476   3.506   1.717   2.585  0.7960  1.4139 -0.9302
 1615SOL     OW16477   3.199   1.366   4.218 -0.5125  0.1084  0.4144
 1615SOL    HW116478   3.129   1.306   4.191 -0.0663 -0.7719  1.2280
 1615SOL    HW216479   3.157   1.449   4.239 -2.6579 -0.2335 -2.5235
 1616SOL     OW16480   1.977   2.262  16.541  0.5542  0.3375 -0.1143
 1616SOL    HW116481   2.045   2.287  16.604 -0.2334  2.5109 -0.1225
 1616SOL    HW216482   1.925   2.197  16.588  2.9614 -1.7007 -0.2947
 1617SOL     OW16483   2.368   1.135  16.151  0.3804 -0.0851 -0.7662
 1617SOL    HW116484   2.402   1.148  16.062 -3.4940  0.8549 -2.0657
 1617SOL    HW216485   2.445   1.097  16.195 -0.2218  0.2376  0.5591
 1618SOL     OW16486   1.429   0.068   3.826 -0.0744  0.6605  0.4408
 1618SOL    HW116487   1.424   0.053   3.920 -0.0546 -0.1421  0.3095
 1618SOL    HW216488   1.409   0.162   3.823 -1.4771  0.2760 -1.7857
 1619SOL     OW16489   4.237   2.604   3.312  0.6848 -0.1368 -0.4808
 1619SOL    HW116490   4.155   2.565   3.342  0.4339  0.9147  0.2212
 1619SOL    HW216491   4.219   2.658   3.236  1.9640  2.5801  1.1336
 1620SOL     OW16492   2.127   2.193  16.781 -0.0934  0.4736  0.7656
 1620SOL    HW116493   2.130   2.253  16.856 -2.6043  0.4220  0.9046
 1620SOL    HW216494   2.221   2.179  16.766 -0.2862  0.5494 -0.4600
 1621SOL     OW16495   1.512   0.980   4.800  0.1680 -0.2180 -0.0236
 1621SOL    HW116496   1.494   1.003   4.709 -0.2406 -2.3163 -0.4747
 1621SOL    HW216497   1.599   0.941   4.794  1.2737  1.9641  1.8143
 1622SOL     OW16498   3.565   3.127   5.635  1.4655 -0.2941 -0.1241
 1622SOL    HW116499   3.512   3.064   5.683  1.0219 -0.3701 -0.7167
 1622SOL    HW216500   3.595   3.087   5.553 -0.0762 -0.0418 -0.7962
 1623SOL     OW16501   3.190   1.439   6.995 -0.2567  0.3346  0.7365
 1623SOL    HW116502   3.147   1.510   6.946 -2.0369 -1.1197  0.1967
 1623SOL    HW216503   3.160   1.372   6.934 -2.0289  0.6125  1.2948
 1624SOL     OW16504   3.947   0.456  13.053 -0.5089 -0.1819  0.0479
 1624SOL    HW116505   3.914   0.440  13.141 -1.1444 -1.0165 -0.3445
 1624SOL    HW216506   3.916   0.547  13.049  2.4884  0.8352 -0.2654
 1625SOL     OW16507   2.737   0.947   8.857  0.1537  0.5568  0.0663
 1625SOL    HW116508   2.684   0.891   8.914 -1.1722  2.4219  0.6405
 1625SOL    HW216509   2.672   0.993   8.803  1.4971  1.8132 -0.4769
 1626SOL     OW16510   2.970   0.203   9.208 -0.3555 -0.1771 -0.1385
 1626SOL    HW116511   2.958   0.290   9.248  0.6045 -0.3791  0.5879
 1626SOL    HW216512   2.886   0.172   9.241 -0.0371 -0.8588  0.0246
 1627SOL     OW16513   1.698   2.300   9.450 -1.0400  0.1691  0.3522
 1627SOL    HW116514   1.634   2.363   9.486 -0.9566 -0.2332  1.2097
 1627SOL    HW216515   1.731   2.269   9.534  5.7487 -1.6599 -3.0831
 1628SOL     OW16516   3.741   0.769   3.649  0.1458  0.2288  0.0272
 1628SOL    HW116517   3.667   0.830   3.644 -0.2181 -0.1948  0.2217
 1628SOL    HW216518   3.812   0.833   3.650  0.8384 -0.5310 -1.4203
 1629SOL     OW16519   3.430   0.524  12.379  0.2765  0.4448  0.8038
 1629SOL    HW116520   3.488   0.600  12.389 -2.3142  2.7364 -1.3804
 1629SOL    HW216521   3.362   0.562  12.434 -1.2893  0.2351 -0.9919
 1630SOL     OW16522   0.378   3.979   7.994  0.7887  0.2063  0.0696
 1630SOL    HW116523   0.421   3.992   7.910 -1.5576 -0.6965 -1.2576
 1630SOL    HW216524   0.324   3.906   7.963 -2.2837  2.0930  0.9186
 1631SOL     OW16525   1.721   1.769   3.510 -0.3515 -0.4742 -0.2688
 1631SOL    HW116526   1.706   1.697   3.570  1.0965 -1.0935 -0.6565
 1631SOL    HW216527   1.636   1.811   3.493  0.6814  1.3055 -1.0574
 1632SOL     OW16528   4.490   0.994   3.174  0.3834  0.0196  0.3831
 1632SOL    HW116529   4.579   0.961   3.181  1.0285  1.3207 -1.8142
 1632SOL    HW216530   4.449   0.987   3.261  3.7462 -0.2619  1.9452
 1633SOL     OW16531   0.123   0.422   6.221  0.7658  0.1074  0.2137
 1633SOL    HW116532   0.096   0.499   6.271 -0.1578  0.5163 -0.9092
 1633SOL    HW216533   0.190   0.448   6.157  0.3926 -0.1811 -0.2954
 1634SOL     OW16534   4.683   4.206   4.185 -0.0345 -0.6185  0.5841
 1634SOL    HW116535   4.651   4.289   4.149 -4.1745 -1.6429  1.9024
 1634SOL    HW216536   4.628   4.147   4.134 -0.9481  0.9946 -0.3294
 1635SOL     OW16537   3.839   2.955  14.781 -0.1694  0.1590 -0.2638
 1635SOL    HW116538   3.787   3.035  14.791  3.1806  2.3363 -0.2944
 1635SOL    HW216539   3.930   2.983  14.782 -0.5658  1.4149  2.7357
 1636SOL     OW16540   2.173   1.900   4.768  0.3719  0.1672  0.2938
 1636SOL    HW116541   2.211   1.934   4.849  1.2757  0.8766 -0.4271
 1636SOL    HW216542   2.200   1.809   4.762  0.5207  0.1834  0.7383
 1637SOL     OW16543   2.768   0.079   4.251  0.5212 -0.3944 -0.5023
 1637SOL    HW116544   2.855   0.069   4.290  0.4004  0.4955 -0.0165
 1637SOL    HW216545   2.716   0.035   4.319  2.6229  0.2737  1.5588
 1638SOL     OW16546   3.473   1.038  14.963  0.3944  0.1429  0.1740
 1638SOL    HW116547   3.459   0.952  14.924 -1.0233  0.7141 -0.6004
 1638SOL    HW216548   3.475   1.088  14.881 -1.2646 -1.0488 -0.5934
 1639SOL     OW16549   0.495   4.686   2.590 -0.2036  0.2739 -0.4443
 1639SOL    HW116550   0.460   4.597   2.584 -2.7528  1.1933  0.7990
 1639SOL    HW216551   0.546   4.686   2.671 -0.4267 -0.0696 -0.3067
 1640SOL     OW16552   4.545   3.267   5.538  0.0960  0.0645 -0.0748
 1640SOL    HW116553   4.551   3.333   5.468 -0.0908 -0.0840 -0.2301
 1640SOL    HW216554   4.632   3.268   5.577  0.4097 -0.8538 -0.7421
 1641SOL     OW16555   3.584   0.825   2.916 -0.5342 -0.0049 -0.2231
 1641SOL    HW116556   3.504   0.834   2.969 -1.7040  1.6961 -2.2673
 1641SOL    HW216557   3.604   0.733   2.900  0.3069  0.2660 -0.7309
 1642SOL     OW16558   3.057   1.111   2.344  0.4084  0.0489  0.1687
 1642SOL    HW116559   2.967   1.116   2.312  0.8617  2.2192 -0.7426
 1642SOL    HW216560   3.095   1.090   2.259  0.6833 -0.8427  0.5156
 1643SOL     OW16561   1.834   2.802   0.245 -0.2728  0.1684  0.0336
 1643SOL    HW116562   1.811   2.868   0.180  1.4648  1.5742  0.8497
 1643SOL    HW216563   1.859   2.848   0.325 -0.0383  0.2931 -0.1120
 1644SOL     OW16564   1.202   3.440   4.475  0.1438 -0.1010 -0.2808
 1644SOL    HW116565   1.284   3.474   4.440  0.9053 -1.1018  0.5343
 1644SOL    HW216566   1.136   3.474   4.414 -1.6487 -1.6685  0.7829
 1645SOL     OW16567   1.745   3.099   6.761 -0.0353 -0.2623  0.4652
 1645SOL    HW116568   1.809   3.163   6.791 -0.8009  1.2361 -1.1264
 1645SOL    HW216569   1.774   3.015   6.798 -0.2309  0.5666  2.4867
 1646SOL     OW16570   0.033   4.050   2.520 -0.1090  0.1456  0.1937
 1646SOL    HW116571   0.117   4.089   2.496 -1.6028  1.3301 -3.1133
 1646SOL    HW216572   4.737   4.042   2.431 -0.3686  0.4041  0.2761
 1647SOL     OW16573   4.044   0.904   7.848  0.2711 -0.1396 -0.2103
 1647SOL    HW116574   3.999   0.989   7.842  2.0939  0.7669 -1.1597
 1647SOL    HW216575   4.073   0.906   7.939 -0.6524  0.1233  0.0768
 1648SOL     OW16576   2.629   1.452  11.772  0.6071  0.1141  0.1310
 1648SOL    HW116577   2.701   1.514  11.759  1.1019 -1.0266 -2.6400
 1648SOL    HW216578   2.559   1.504  11.812 -0.1516 -0.8812  0.1122
 1649SOL     OW16579   4.685   4.387   8.107 -0.1243 -0.7277  0.0489
 1649SOL    HW116580   4.644   4.472   8.089  1.3767 -0.1316 -0.5226
 1649SOL    HW216581   4.702   4.359   8.016  0.9016 -1.2873  0.4110
 1650SOL     OW16582   1.446   4.025  13.118 -0.2157  0.2528  0.3102
 1650SOL    HW116583   1.351   4.009  13.120 -0.1916  0.1103  0.2806
 1650SOL    HW216584   1.453   4.067  13.204  2.5468 -1.5074  0.9400
 1651SOL     OW16585   2.253   1.403   2.215 -0.1615  0.0161 -0.2366
 1651SOL    HW116586   2.302   1.339   2.164  0.4953 -0.0265  0.4384
 1651SOL    HW216587   2.324   1.451   2.260  0.6703 -2.9966  1.6515
 1652SOL     OW16588   0.531   0.495  16.228 -0.3791 -0.0323 -0.3944
 1652SOL    HW116589   0.616   0.451  16.239 -1.6869 -3.0900 -2.4280
 1652SOL    HW216590   0.489   0.434  16.289  1.3027 -0.4429  0.3754
 1653SOL     OW16591   2.785   1.206   9.037  0.1469 -0.1841  0.1677
 1653SOL    HW116592   2.744   1.119   9.032  0.8673 -0.5186  0.0787
 1653SOL    HW216593   2.865   1.180   9.083  1.7151 -0.3514 -2.6515
 1654SOL     OW16594   1.393   4.667   6.611  0.0904 -0.0299 -0.1556
 1654SOL    HW116595   1.469   4.720   6.635  0.3395 -1.1057  1.3981
 1654SOL    HW216596   1.410   4.647   6.519  0.4525 -1.6899  0.2775
 1655SOL     OW16597   3.102   0.502   6.072 -0.5497  0.2986  0.2517
 1655SOL    HW116598   3.191   0.527   6.097 -0.9245  1.6096  0.2730
 1655SOL    HW216599   3.068   0.515   6.161 -1.0849  1.1190 -0.0819
 1656SOL     OW16600   4.617   3.278   2.075 -0.2724 -0.3761  0.0512
 1656SOL    HW116601   4.524   3.295   2.088 -0.3206  0.1222 -0.9916
 1656SOL    HW216602   4.624   3.289   1.980  1.2503  2.7362  0.4966
 1657SOL     OW16603   1.459   2.932   1.865 -0.1681  0.2733 -0.4650
 1657SOL    HW116604   1.504   3.003   1.910  0.4002  1.0883 -2.3071
 1657SOL    HW216605   1.436   2.974   1.782 -2.0232  3.6405  1.7617
 1658SOL     OW16606   3.635   0.216  12.137 -0.1295 -0.4939 -0.3987
 1658SOL    HW116607   3.589   0.140  12.175  0.1582  0.7107  2.4069
 1658SOL    HW216608   3.707   0.172  12.092  1.4113  0.2787  1.3195
 1659SOL     OW16609   4.693   3.343   9.999  0.0710  0.1174  0.1326
 1659SOL    HW116610   4.734   3.313  10.080 -1.1547 -0.0763  0.6773
 1659SOL    HW216611   4.645   3.265   9.970  1.0396  0.4226 -2.2323
 1660SOL     OW16612   1.300   0.419   7.956  0.2796  0.2534  0.5254
 1660SOL    HW116613   1.384   0.446   7.919 -0.7761  1.4857 -0.9778
 1660SOL    HW216614   1.246   0.421   7.877  2.8943 -0.1252 -1.2813
 1661SOL     OW16615   4.558   0.027   9.701 -0.4062  0.0611  0.5432
 1661SOL    HW116616   4.552   0.122   9.691 -2.6630 -0.2929 -1.2247
 1661SOL    HW216617   4.633   0.004   9.646 -0.9352 -1.4919  0.4566
 1662SOL     OW16618   2.649   3.305   6.711 -0.3289 -0.2655  0.0023
 1662SOL    HW116619   2.734   3.348   6.717 -0.4296 -0.0943  0.2056
 1662SOL    HW216620   2.650   3.228   6.768  1.9728 -1.1426 -1.2322
 1663SOL     OW16621   1.130   3.448   8.921 -0.4004 -0.0910  0.3403
 1663SOL    HW116622   1.077   3.445   8.841  1.3069  1.6905 -0.8558
 1663SOL    HW216623   1.160   3.357   8.927  1.5606  0.3700 -2.3395
 1664SOL     OW16624   1.124   4.663   1.716  0.1776 -0.5058  0.4091
 1664SOL    HW116625   1.044   4.708   1.744 -0.1829 -1.7380  1.3239
 1664SOL    HW216626   1.079   4.599   1.662 -1.1313 -0.8276  1.8965
 1665SOL     OW16627   2.325   4.359   8.163 -0.2807  0.0418  0.3655
 1665SOL    HW116628   2.238   4.345   8.127 -0.3318 -1.1795  0.9542
 1665SOL    HW216629   2.371   4.306   8.099  2.0294  1.8714  0.4908
 1666SOL     OW16630   1.844   1.865   3.146 -0.5256  0.5314  0.4047
 1666SOL    HW116631   1.926   1.869   3.194  0.7152  0.8441 -1.7310
 1666SOL    HW216632   1.814   1.956   3.144 -2.5847 -0.1328  0.8000
 1667SOL     OW16633   2.435   3.895   7.265  0.6302 -0.2295  1.0531
 1667SOL    HW116634   2.402   3.933   7.346  2.1890  0.0820  1.5449
 1667SOL    HW216635   2.358   3.845   7.238  0.2140  1.9334 -1.8051
 1668SOL     OW16636   4.516   0.971   7.456  1.1976 -0.3251  0.1684
 1668SOL    HW116637   4.425   0.962   7.484  1.5747  1.2374  1.9030
 1668SOL    HW216638   4.557   0.905   7.512  0.6088 -1.1479 -0.3742
 1669SOL     OW16639   0.390   3.131   1.610  0.3601 -0.4875  0.1737
 1669SOL    HW116640   0.317   3.084   1.650  0.1093 -0.5801 -0.3958
 1669SOL    HW216641   0.425   3.181   1.684 -1.2323  0.9077  0.0005
 1670SOL     OW16642   2.577   4.376   1.321 -0.2027 -0.3410 -0.3028
 1670SOL    HW116643   2.590   4.282   1.330  1.5758 -0.0668  0.1759
 1670SOL    HW216644   2.669   4.404   1.318 -0.2253 -0.1400  0.8121
 1671SOL     OW16645   1.901   1.984   1.663 -0.3442  1.1090  0.4705
 1671SOL    HW116646   1.889   1.924   1.589 -2.4869 -0.0185  1.7478
 1671SOL    HW216647   1.886   1.925   1.737  1.1106  0.7728  0.5025
 1672SOL     OW16648   3.744   3.478   7.741  0.1206  0.5433  0.1284
 1672SOL    HW116649   3.757   3.569   7.768 -1.1646  0.6067  0.5393
 1672SOL    HW216650   3.650   3.470   7.722  0.1449  2.3135 -0.7457
 1673SOL     OW16651   0.856   1.461   4.248 -0.1154 -0.6706 -0.0572
 1673SOL    HW116652   0.793   1.418   4.190 -2.0971 -1.4067  2.6504
 1673SOL    HW216653   0.937   1.455   4.197  0.6782  1.4715  0.9917
 1674SOL     OW16654   0.947   3.436   0.915  0.7548 -0.1398 -0.0070
 1674SOL    HW116655   0.990   3.470   0.836  0.3079  2.5341  0.8961
 1674SOL    HW216656   1.005   3.458   0.989  0.4975 -2.5882  0.9364
 1675SOL     OW16657   4.069   2.361  16.222 -0.3635 -0.0078  0.0798
 1675SOL    HW116658   4.008   2.290  16.242 -0.1187 -0.1692  0.2564
 1675SOL    HW216659   4.143   2.318  16.265  0.8498  2.4236  0.4076
 1676SOL     OW16660   4.731   1.166   6.758 -0.5462 -0.0119 -0.0493
 1676SOL    HW116661   4.689   1.156   6.843 -1.2697  2.8147 -0.0956
 1676SOL    HW216662   4.683   1.240   6.722  1.5889 -0.6702 -4.3038
 1677SOL     OW16663   4.227   4.135   2.948  0.5793 -0.4475  0.3916
 1677SOL    HW116664   4.283   4.213   2.942  0.6809 -0.2730  3.9218
 1677SOL    HW216665   4.217   4.114   3.040 -1.1452 -2.5226 -0.2742
 1678SOL     OW16666   2.937   2.208  16.109  0.3922  0.2115 -0.4842
 1678SOL    HW116667   2.872   2.263  16.065  1.2492  1.4959 -0.1223
 1678SOL    HW216668   3.014   2.256  16.078  0.8534 -1.7441 -2.3892
 1679SOL     OW16669   3.075   4.465   6.584  0.4194 -0.2215  0.1034
 1679SOL    HW116670   3.103   4.377   6.557  1.1888  0.6493 -1.9324
 1679SOL    HW216671   3.156   4.504   6.616  0.3752 -0.6041  0.6695
 1680SOL     OW16672   4.042   2.969   7.897  0.5828  0.1748 -0.3851
 1680SOL    HW116673   4.023   3.026   7.822 -1.5692 -0.0946 -0.0132
 1680SOL    HW216674   4.086   2.892   7.861  1.5676  0.8222 -0.5865
 1681SOL     OW16675   2.562   1.279  11.574  0.4275 -0.3560 -0.3058
 1681SOL    HW116676   2.592   1.225  11.647 -0.0400  0.7353  0.6977
 1681SOL    HW216677   2.561   1.368  11.610 -1.5992 -1.0248  1.2914
 1682SOL     OW16678   3.391   2.522   9.468  0.2910  0.2948  0.2640
 1682SOL    HW116679   3.412   2.562   9.553  2.4345 -0.8514  0.2686
 1682SOL    HW216680   3.479   2.502   9.436 -0.2832 -2.7652  0.5518
 1683SOL     OW16681   0.229   0.548   8.255 -0.0536 -0.1653  1.0992
 1683SOL    HW116682   0.154   0.492   8.235  0.8926 -1.0266 -0.0914
 1683SOL    HW216683   0.291   0.482   8.287 -0.9356 -0.1671  2.7951
 1684SOL     OW16684   1.740   0.035   2.222 -0.3285 -0.1548 -0.0553
 1684SOL    HW116685   1.728   4.686   2.186 -0.2508 -0.4943  0.7457
 1684SOL    HW216686   1.688   0.028   2.302  0.9159  0.2003  0.7917
 1685SOL     OW16687   1.912   0.969  10.542  0.7280 -0.0037 -0.6539
 1685SOL    HW116688   1.939   0.974  10.633 -1.0999  1.0123 -0.1662
 1685SOL    HW216689   1.818   0.959  10.556  0.7403 -0.1511 -0.6750
 1686SOL     OW16690   2.816   1.275   5.470  0.3681 -0.2782 -0.5059
 1686SOL    HW116691   2.899   1.287   5.425 -0.4450  1.8625 -1.4320
 1686SOL    HW216692   2.788   1.366   5.481  2.7361  0.4096 -0.3480
 1687SOL     OW16693   3.481   0.458  14.809 -0.5346  0.7318 -0.4701
 1687SOL    HW116694   3.561   0.484  14.854 -0.1661 -1.2603  0.0478
 1687SOL    HW216695   3.421   0.530  14.826  0.1615  1.0946  0.4638
 1688SOL     OW16696   2.460   2.304   1.409 -0.3927  0.0780  0.1632
 1688SOL    HW116697   2.498   2.280   1.325 -1.2003 -0.5117 -0.0399
 1688SOL    HW216698   2.367   2.303   1.387 -0.5876 -0.3601  0.9810
 1689SOL     OW16699   4.247   0.255   5.378 -0.2276 -0.0597  0.1194
 1689SOL    HW116700   4.180   0.323   5.369  0.8268  0.9449 -0.0358
 1689SOL    HW216701   4.220   0.206   5.455 -1.3322  1.0757  0.4560
 1690SOL     OW16702   4.275   1.441  12.459  0.2929 -0.1217 -0.3485
 1690SOL    HW116703   4.292   1.473  12.547  0.7533 -0.6002 -0.2678
 1690SOL    HW216704   4.344   1.482  12.407 -0.4726  1.3194 -0.2422
 1691SOL     OW16705   1.286   3.710  15.267  0.2254  0.8684 -0.4980
 1691SOL    HW116706   1.258   3.801  15.272  1.6048  1.2561  0.2808
 1691SOL    HW216707   1.365   3.714  15.321  1.4750 -1.9703 -2.1051
 1692SOL     OW16708   3.199   1.639   0.429  0.0582  0.1549 -0.4401
 1692SOL    HW116709   3.137   1.672   0.365 -2.7348  1.2500  2.8867
 1692SOL    HW216710   3.217   1.546   0.409  0.6558 -0.0724  1.1729
 1693SOL     OW16711   0.158   0.649   4.313 -0.1024  0.3357  0.2515
 1693SOL    HW116712   0.136   0.601   4.393  1.2075 -1.2748 -0.3448
 1693SOL    HW216713   0.225   0.596   4.270  1.0655  1.8548  0.2356
 1694SOL     OW16714   1.172   0.350   4.793  0.1175 -0.1613  0.0805
 1694SOL    HW116715   1.092   0.332   4.842 -0.4920  1.1205 -0.4313
 1694SOL    HW216716   1.137   0.405   4.723  3.2053 -0.5567 -1.7572
 1695SOL     OW16717   1.476   0.667   2.399 -0.2317  0.1409 -0.0148
 1695SOL    HW116718   1.401   0.620   2.362  0.5905  1.2313 -3.0377
 1695SOL    HW216719   1.440   0.755   2.413 -0.2985  0.2154 -0.6593
 1696SOL     OW16720   4.678   1.751  12.942 -0.2856  0.5160  0.2512
 1696SOL    HW116721   4.691   1.845  12.952 -1.3670  0.4961  1.8318
 1696SOL    HW216722   4.615   1.740  13.014  0.7966 -0.1992  1.0901
 1697SOL     OW16723   2.424   3.784  12.028 -0.8280 -0.2633  0.0307
 1697SOL    HW116724   2.353   3.843  12.053  1.6288  1.5056  2.7046
 1697SOL    HW216725   2.477   3.780  12.107 -0.2065  1.4773 -0.3121
 1698SOL     OW16726   3.831   4.578   4.122  0.3813  0.6115 -0.0220
 1698SOL    HW116727   3.807   4.544   4.035  2.2233 -0.9948  0.0911
 1698SOL    HW216728   3.903   4.636   4.098  0.0890  1.8763  2.1654
 1699SOL     OW16729   4.481   3.927   5.335 -0.1411 -0.1536  0.0096
 1699SOL    HW116730   4.429   3.862   5.381  1.6985 -0.3722  1.7855
 1699SOL    HW216731   4.417   3.985   5.293  0.8639 -0.8916 -2.5581
 1700SOL     OW16732   2.052   4.124   3.025 -0.4677  0.2320  0.1077
 1700SOL    HW116733   2.069   4.033   3.047 -0.9024  0.1423  0.0627
 1700SOL    HW216734   2.014   4.113   2.938  1.0803  1.6765 -0.7642
 1701SOL     OW16735   1.054   1.454   4.061 -0.8319  0.1006  0.1709
 1701SOL    HW116736   1.046   1.509   3.983  1.9021 -0.0970 -0.2668
 1701SOL    HW216737   1.147   1.470   4.078  0.0027 -1.8927 -2.4048
 1702SOL     OW16738   0.361   4.310  12.283 -0.0564 -0.1362 -0.1289
 1702SOL    HW116739   0.422   4.279  12.216 -1.3646  2.1357 -2.3642
 1702SOL    HW216740   0.420   4.326  12.356 -0.6858  1.1854  0.0882
 1703SOL     OW16741   4.533   4.436   2.031  0.4308  0.3706 -0.4335
 1703SOL    HW116742   4.478   4.448   2.108  0.1489  0.6675 -0.6812
 1703SOL    HW216743   4.510   4.347   2.003  2.6907 -0.3469 -0.0435
 1704SOL     OW16744   0.394   4.039   5.517  0.3061 -0.0414  0.1903
 1704SOL    HW116745   0.451   4.020   5.442  0.5521 -2.5821  0.9962
 1704SOL    HW216746   0.443   4.000   5.589  0.9852  1.0373  0.3103
 1705SOL     OW16747   2.530   0.553   7.861  0.2011 -0.5033 -0.0167
 1705SOL    HW116748   2.550   0.476   7.914  1.0206 -0.0672  0.3108
 1705SOL    HW216749   2.614   0.592   7.838  0.3711 -1.9500 -1.7858
 1706SOL     OW16750   3.666   1.673  15.696 -0.4889  0.1913  0.4239
 1706SOL    HW116751   3.685   1.713  15.781  1.5620  0.2112 -0.0250
 1706SOL    HW216752   3.665   1.754  15.645 -1.3299 -0.0382  0.0802
 1707SOL     OW16753   3.105   0.879  13.535  0.3415 -0.4060  0.0649
 1707SOL    HW116754   3.015   0.857  13.559  0.4063  0.8330  1.4428
 1707SOL    HW216755   3.124   0.805  13.477 -1.8292 -0.1003 -1.0350
 1708SOL     OW16756   4.584   2.640   1.457  0.4133 -0.2963 -0.0328
 1708SOL    HW116757   4.618   2.555   1.484 -3.2631 -1.9360 -0.6059
 1708SOL    HW216758   4.495   2.622   1.487 -0.1395  1.9570 -0.3407
 1709SOL     OW16759   1.963   2.459   7.982  0.7413  0.2360 -0.1686
 1709SOL    HW116760   1.906   2.536   7.977 -0.1415 -0.4812 -1.1785
 1709SOL    HW216761   1.900   2.388   7.996  0.3610  0.7451  0.7475
 1710SOL     OW16762   2.717   2.835   9.522  0.2324  0.2671 -0.1257
 1710SOL    HW116763   2.676   2.827   9.609  1.1369 -0.3296  0.2418
 1710SOL    HW216764   2.663   2.775   9.470 -1.1122  0.4625  1.0364
 1711SOL     OW16765   0.106   1.141   9.897  0.6183 -0.2222  0.1620
 1711SOL    HW116766   0.169   1.211   9.913  2.5943 -2.3272  1.6616
 1711SOL    HW216767   0.055   1.139   9.978 -0.3651  1.0012 -0.4302
 1712SOL     OW16768   2.308   2.437   4.433 -0.6791 -0.0005 -0.4095
 1712SOL    HW116769   2.340   2.348   4.418  0.8965  0.3601  0.8734
 1712SOL    HW216770   2.219   2.418   4.465 -0.4597  2.4321  1.6117
 1713SOL     OW16771   2.398   2.130  16.799  0.0294 -0.0699  0.0788
 1713SOL    HW116772   2.408   2.088  16.885  0.1077  1.6398  0.9100
 1713SOL    HW216773   2.408   2.048  16.751 -1.6816 -0.9769  1.2450
 1714SOL     OW16774   1.327   3.844  13.432  0.1642  0.0943  0.3713
 1714SOL    HW116775   1.418   3.851  13.462  0.0294 -0.3657  0.8855
 1714SOL    HW216776   1.338   3.783  13.359 -0.0344  2.2549 -1.4774
 1715SOL     OW16777   2.323   1.013   8.470 -0.1610 -0.1940  0.1987
 1715SOL    HW116778   2.368   0.967   8.399 -1.5194 -1.3115  0.0517
 1715SOL    HW216779   2.349   1.105   8.465 -4.4028  0.9854  0.0125
 1716SOL     OW16780   3.857   4.070   3.676 -0.5389  0.2096  0.0661
 1716SOL    HW116781   3.842   4.045   3.585  1.2832 -0.0233 -0.1618
 1716SOL    HW216782   3.776   4.121   3.687 -0.8703 -0.6442  1.4837
 1717SOL     OW16783   0.450   0.141   2.408  0.0594  0.1053  0.1649
 1717SOL    HW116784   0.492   0.069   2.455  0.3139 -0.7277 -1.3305
 1717SOL    HW216785   0.470   0.114   2.319 -2.0304  0.5299 -0.4376
 1718SOL     OW16786   0.965   1.988   0.316 -0.6954 -0.1966  0.3603
 1718SOL    HW116787   1.019   2.032   0.250 -0.5562 -0.4169  0.3246
 1718SOL    HW216788   0.970   2.056   0.383  0.6745  0.2042 -0.1519
 1719SOL     OW16789   2.252   1.327   4.599 -0.0404 -0.2001 -0.2511
 1719SOL    HW116790   2.256   1.394   4.532  0.5504 -0.7485 -0.7647
 1719SOL    HW216791   2.166   1.347   4.635 -0.1198  2.9804 -2.2074
 1720SOL     OW16792   0.199   0.276   4.085 -1.0105 -0.8181  0.0166
 1720SOL    HW116793   0.143   0.313   4.017  0.2553 -0.3179 -0.7562
 1720SOL    HW216794   0.182   0.341   4.154 -0.1084 -0.4265 -0.1365
 1721SOL     OW16795   1.815   4.029   1.877 -0.1883  0.4712  0.1701
 1721SOL    HW116796   1.898   3.995   1.844 -0.3119 -0.4954  0.8772
 1721SOL    HW216797   1.818   4.122   1.853 -0.7399  0.9402  1.9458
 1722SOL     OW16798   0.202   4.575   2.571 -0.1069  0.1284 -0.2209
 1722SOL    HW116799   0.206   4.536   2.658 -1.6461 -1.1405 -0.7335
 1722SOL    HW216800   0.250   4.656   2.587  1.2467 -0.4891 -1.0903
 1723SOL     OW16801   0.472   2.622   8.296  0.0989  0.2774  0.4829
 1723SOL    HW116802   0.542   2.560   8.315 -0.2625  0.7819  3.6236
 1723SOL    HW216803   0.485   2.693   8.359  0.4334  1.1410 -0.5792
 1724SOL     OW16804   0.511   0.740   1.932 -0.2215 -0.3210  0.0962
 1724SOL    HW116805   0.600   0.775   1.921 -0.6761  0.3212 -1.5364
 1724SOL    HW216806   0.462   0.820   1.951  1.1176  0.0285  2.0527
 1725SOL     OW16807   3.036   2.309   9.011 -0.2587  0.7086  0.0887
 1725SOL    HW116808   3.029   2.214   9.004 -1.0332  0.9202 -2.3221
 1725SOL    HW216809   3.098   2.327   9.082 -1.8199  0.2501  1.5609
 1726SOL     OW16810   1.572   4.438   7.061 -0.2285 -0.4348 -0.3535
 1726SOL    HW116811   1.627   4.484   6.999 -0.9025  0.5525 -0.2243
 1726SOL    HW216812   1.498   4.412   7.005  0.7619 -0.3161 -1.7054
 1727SOL     OW16813   2.060   2.993   5.224  0.3125  0.0456  0.9051
 1727SOL    HW116814   2.015   3.076   5.240  0.0463 -0.0825  0.8239
 1727SOL    HW216815   2.007   2.939   5.283 -0.3607 -1.1852 -0.8297
 1728SOL     OW16816   1.952   3.858   5.023 -0.3169  0.4314  0.0423
 1728SOL    HW116817   1.890   3.810   5.079  0.8770 -0.9764  0.1786
 1728SOL    HW216818   1.905   3.872   4.941 -2.5613  0.4778  1.3163
 1729SOL     OW16819   2.517   2.933   6.693 -1.0302 -0.2948  0.2408
 1729SOL    HW116820   2.585   2.982   6.739 -1.9414  2.4778 -1.3430
 1729SOL    HW216821   2.560   2.906   6.612 -0.9408  1.1411 -0.1894
 1730SOL     OW16822   1.301   2.982   3.521  0.1190  0.0015  0.5032
 1730SOL    HW116823   1.297   2.887   3.533  0.0969 -0.2057 -1.0806
 1730SOL    HW216824   1.383   2.982   3.472 -1.3740 -1.0362 -1.9958
 1731SOL     OW16825   0.831   0.772   5.550  0.3541  0.2516  0.0837
 1731SOL    HW116826   0.829   0.768   5.455  0.2298 -1.4115  0.1464
 1731SOL    HW216827   0.805   0.684   5.578 -0.8535  0.8132  0.7286
 1732SOL     OW16828   1.799   1.035   8.547 -0.2152  0.0174 -0.0986
 1732SOL    HW116829   1.875   0.981   8.525  2.2929  3.2830  0.4977
 1732SOL    HW216830   1.736   1.021   8.476 -1.7409 -1.2851  1.4975
 1733SOL     OW16831   2.525   0.595   3.340  0.9889 -0.4553  0.3475
 1733SOL    HW116832   2.501   0.663   3.403 -1.9125 -0.1918 -1.0678
 1733SOL    HW216833   2.482   0.624   3.260  0.2509  0.1231  0.9496
 1734SOL     OW16834   3.643   2.896  16.617  0.5056 -0.4097 -0.0906
 1734SOL    HW116835   3.696   2.931  16.546  1.6047  0.8690  1.3746
 1734SOL    HW216836   3.554   2.920  16.593  0.4493 -0.2084  0.3184
 1735SOL     OW16837   1.924   3.063   8.205  0.1458  0.3332  0.1266
 1735SOL    HW116838   1.953   3.144   8.165  2.0349 -0.6267 -0.4513
 1735SOL    HW216839   2.000   3.042   8.260  0.5758  0.0208 -0.5886
 1736SOL     OW16840   0.318   2.856  11.272  0.5303  0.0081 -0.3578
 1736SOL    HW116841   0.230   2.844  11.234 -0.8040  0.1994  2.6644
 1736SOL    HW216842   0.299   2.846  11.365  0.3083  2.5593 -0.1475
 1737SOL     OW16843   2.187   0.158   6.727 -0.2075  0.2865 -0.1280
 1737SOL    HW116844   2.223   0.118   6.806 -0.7057 -1.2089 -0.6713
 1737SOL    HW216845   2.245   0.130   6.656 -0.0119 -0.0020  0.1482
 1738SOL     OW16846   2.976   4.184   0.282  0.2027 -0.1924 -0.2358
 1738SOL    HW116847   2.980   4.279   0.284  1.0069 -0.2430  1.0713
 1738SOL    HW216848   2.947   4.166   0.372 -0.8072  0.5263 -0.4296
 1739SOL     OW16849   3.575   1.724   8.544  0.2302  0.0801  0.4768
 1739SOL    HW116850   3.619   1.643   8.568 -2.2261 -0.7740  2.0621
 1739SOL    HW216851   3.595   1.737   8.452  0.3509  0.0187  0.4949
 1740SOL     OW16852   1.922   1.457   7.327 -0.2330  0.0886 -0.6719
 1740SOL    HW116853   2.005   1.480   7.286 -0.3330  0.6941 -0.5389
 1740SOL    HW216854   1.870   1.458   7.247 -1.8460  2.9784  0.3968
 1741SOL     OW16855   2.179   3.117  17.611  0.4528 -0.2274  1.0057
 1741SOL    HW116856   2.152   3.208  17.627  0.2657  0.1120 -1.2185
 1741SOL    HW216857   2.250   3.146  17.555 -0.5591  0.5011  0.0965
 1742SOL     OW16858   3.964   0.354   2.014  0.4300 -0.4386 -0.5748
 1742SOL    HW116859   3.974   0.446   1.989  0.6312 -0.6809 -1.3545
 1742SOL    HW216860   3.881   0.336   1.970 -0.3562 -1.4322  1.3170
 1743SOL     OW16861   2.948   0.273   9.945  0.3165  0.0552 -0.6194
 1743SOL    HW116862   2.899   0.192   9.957 -0.9127  0.9386  0.3326
 1743SOL    HW216863   2.888   0.347   9.937  1.8001  1.3684  0.5320
 1744SOL     OW16864   1.793   4.180  15.934  0.2702 -0.0059  0.2628
 1744SOL    HW116865   1.885   4.191  15.907  0.3777  1.7162  1.3349
 1744SOL    HW216866   1.750   4.246  15.879 -0.6048  0.2577  1.2781
 1745SOL     OW16867   4.469   2.796   3.440  0.4108 -0.4772  0.2136
 1745SOL    HW116868   4.518   2.828   3.515  1.6087  0.7727 -1.1149
 1745SOL    HW216869   4.381   2.803   3.477  0.0937 -1.3344 -0.3764
 1746SOL     OW16870   2.517   2.593   1.497  0.1038  0.1560 -0.2775
 1746SOL    HW116871   2.437   2.541   1.495 -0.9302  1.7585 -0.0680
 1746SOL    HW216872   2.581   2.538   1.451  1.0527  2.2577 -1.4564
 1747SOL     OW16873   3.247   3.048   5.138 -0.1556 -0.0726 -0.4960
 1747SOL    HW116874   3.325   3.058   5.193 -1.2475 -0.5371  1.1442
 1747SOL    HW216875   3.273   2.999   5.060 -2.1452 -0.5626 -0.8639
 1748SOL     OW16876   4.337   1.930   6.849 -0.3706  0.1121 -0.3983
 1748SOL    HW116877   4.297   1.860   6.900  0.0121 -1.1198 -1.8029
 1748SOL    HW216878   4.260   1.987   6.836 -0.7215 -0.1954  0.3141
 1749SOL     OW16879   3.187   4.431   4.641 -0.1861 -0.0531  0.0008
 1749SOL    HW116880   3.278   4.441   4.670 -0.1015  1.6961 -0.8997
 1749SOL    HW216881   3.197   4.379   4.561 -0.8278  1.0100 -0.7687
 1750SOL     OW16882   2.999   2.886  15.413  0.5012  0.2035  0.2692
 1750SOL    HW116883   2.918   2.850  15.378 -0.5902  1.1524  1.8044
 1750SOL    HW216884   2.985   2.879  15.508  1.3815 -3.3884  0.1357
 1751SOL     OW16885   4.540   4.433   1.647  0.0321 -0.0053 -0.4539
 1751SOL    HW116886   4.495   4.506   1.605  0.3398  1.2842  1.4504
 1751SOL    HW216887   4.612   4.468   1.699  0.7108 -3.0450  0.6917
 1752SOL     OW16888   2.283   2.516   4.861 -0.0956  0.4041 -0.7521
 1752SOL    HW116889   2.301   2.590   4.919  1.1358  0.2624 -0.9444
 1752SOL    HW216890   2.284   2.564   4.779 -0.1880 -1.4138 -1.8075
 1753SOL     OW16891   1.701   0.139   3.565  0.3278  0.2221  0.2493
 1753SOL    HW116892   1.790   0.152   3.599 -0.8263 -1.7330  3.9624
 1753SOL    HW216893   1.687   0.222   3.519  1.0081 -0.5190 -1.3145
 1754SOL     OW16894   4.545   1.452  10.857  0.1969 -0.2134  0.4233
 1754SOL    HW116895   4.610   1.382  10.853 -0.1976 -0.5248 -0.4080
 1754SOL    HW216896   4.585   1.530  10.896 -0.1372 -0.4595  1.2727
 1755SOL     OW16897   2.292   1.298   1.495  0.1496 -0.1081 -0.0842
 1755SOL    HW116898   2.317   1.221   1.444  1.3544  0.7686 -0.8227
 1755SOL    HW216899   2.319   1.373   1.442 -0.7256  0.8003  0.7460
 1756SOL     OW16900   0.755   4.627   9.386  0.2954  0.5561 -0.1439
 1756SOL    HW116901   0.756   4.709   9.337 -3.8514  0.7644  0.1140
 1756SOL    HW216902   0.682   4.651   9.443  0.9861  0.3737  0.8099
 1757SOL     OW16903   0.283   3.166  11.053 -0.1081  0.2095 -0.2535
 1757SOL    HW116904   0.219   3.101  11.023  3.1033 -2.8470 -0.4031
 1757SOL    HW216905   0.252   3.246  11.010 -0.6757 -1.2994 -2.6815
 1758SOL     OW16906   2.971   4.325   2.585 -0.6455 -0.1280  0.1864
 1758SOL    HW116907   2.971   4.364   2.497  0.9513  0.8071  0.5937
 1758SOL    HW216908   3.009   4.391   2.644  0.0405  0.3515 -0.7927
 1759SOL     OW16909   3.678   2.268  12.567 -0.1015 -0.1763 -0.6504
 1759SOL    HW116910   3.584   2.253  12.581 -0.2062 -0.7744 -1.9701
 1759SOL    HW216911   3.710   2.199  12.624 -0.1026  1.1636  0.9529
 1760SOL     OW16912   3.835   0.521  11.024 -0.3618  0.2630 -0.0561
 1760SOL    HW116913   3.765   0.577  10.991 -0.4223  0.4967  0.4745
 1760SOL    HW216914   3.803   0.486  11.107 -0.7321 -3.3032 -1.6958
 1761SOL     OW16915   2.763   4.540  15.159 -0.3111 -0.2763 -0.0207
 1761SOL    HW116916   2.729   4.482  15.091  0.0745 -0.1967 -0.2774
 1761SOL    HW216917   2.855   4.557  15.140 -0.2705  3.4072  3.3978
 1762SOL     OW16918   3.496   2.680  15.038 -0.2542  0.1921  0.2486
 1762SOL    HW116919   3.485   2.657  15.130  0.3103 -0.4809  0.1448
 1762SOL    HW216920   3.547   2.759  15.056 -1.3666  0.2092  3.3384
 1763SOL     OW16921   1.632   0.351   5.202  0.0130 -0.1506 -0.3959
 1763SOL    HW116922   1.712   0.326   5.248  0.4894  1.8398 -0.1373
 1763SOL    HW216923   1.572   0.279   5.220  0.3416 -0.4612 -0.5371
 1764SOL     OW16924   3.891   3.216   8.812  0.6013 -0.0705  0.2903
 1764SOL    HW116925   3.883   3.210   8.717  2.2339  0.3229  0.1393
 1764SOL    HW216926   3.875   3.124   8.831  2.3917 -0.5228 -0.4877
 1765SOL     OW16927   1.832   0.081   6.419 -0.0366 -0.3267  0.0023
 1765SOL    HW116928   1.824   0.091   6.324  3.0709 -0.8444 -0.2896
 1765SOL    HW216929   1.884   0.161   6.432 -0.3987 -0.6912  3.8395
 1766SOL     OW16930   1.247   4.546  11.457 -0.0325  0.3171  0.2827
 1766SOL    HW116931   1.170   4.577  11.411 -0.0962 -0.0368  0.1517
 1766SOL    HW216932   1.267   4.460  11.421 -2.3780 -0.6881  1.3706
 1767SOL     OW16933   3.311   1.836   2.357  0.3348 -0.8665 -0.4415
 1767SOL    HW116934   3.218   1.858   2.370  0.1079 -1.6915 -0.7155
 1767SOL    HW216935   3.321   1.856   2.264  1.6851  0.1304 -0.0819
 1768SOL     OW16936   0.355   3.007   5.327  0.3073  0.3623 -0.4432
 1768SOL    HW116937   0.335   2.925   5.283  1.5329  0.2053 -0.7212
 1768SOL    HW216938   0.345   3.071   5.256 -2.1429  2.2458  1.6017
 1769SOL     OW16939   2.965   2.225  10.746 -0.5699  0.5572 -0.1983
 1769SOL    HW116940   2.934   2.296  10.803  0.4498 -1.2383  2.5725
 1769SOL    HW216941   2.901   2.230  10.675 -1.9321 -1.2086  0.9233
 1770SOL     OW16942   3.672   4.637   4.326  0.0260 -0.3161  0.0034
 1770SOL    HW116943   3.631   4.718   4.297  1.1097  0.4875  0.6905
 1770SOL    HW216944   3.709   4.605   4.244  3.3777 -1.0391  1.7610
 1771SOL     OW16945   1.740   3.410   7.500  0.2134  0.5055  0.3247
 1771SOL    HW116946   1.836   3.408   7.498  0.2086 -1.5087  2.4541
 1771SOL    HW216947   1.738   3.316   7.480  2.0914  0.4529  0.3770
 1772SOL     OW16948   1.327   0.050   4.684 -0.2596 -0.2591  0.3304
 1772SOL    HW116949   1.400   0.062   4.625 -0.3370 -3.5485 -0.4113
 1772SOL    HW216950   1.336   0.129   4.738  1.3962  0.9224 -1.7066
 1773SOL     OW16951   0.432   1.973  15.598  0.3708  0.4488 -0.4212
 1773SOL    HW116952   0.512   1.931  15.629 -0.1762 -1.0121 -0.9691
 1773SOL    HW216953   0.372   1.900  15.584 -0.2693  0.5488  1.9243
 1774SOL     OW16954   0.192   2.054   7.937 -0.1132  0.1357 -0.3189
 1774SOL    HW116955   0.225   1.985   7.995  1.9310  1.2914 -0.1010
 1774SOL    HW216956   0.102   2.056   7.968  0.4021 -0.6790  1.2425
 1775SOL     OW16957   3.361   2.727  14.802 -0.2510 -0.3724  0.1736
 1775SOL    HW116958   3.420   2.656  14.777 -0.1021 -0.9788  2.3054
 1775SOL    HW216959   3.391   2.742  14.891 -1.3021 -0.8366  0.6071
 1776SOL     OW16960   1.491   1.047   7.668 -0.0772  0.2247  0.0438
 1776SOL    HW116961   1.453   1.102   7.600  0.1849 -0.8328 -0.9543
 1776SOL    HW216962   1.442   0.966   7.654  0.1035  0.1722 -0.2944
 1777SOL     OW16963   2.177   4.168   3.692  0.0605  0.2910  0.3189
 1777SOL    HW116964   2.129   4.232   3.745  0.9904  0.6535  0.7170
 1777SOL    HW216965   2.144   4.195   3.606  0.0758  0.7763  0.4687
 1778SOL     OW16966   3.351   3.294   6.125 -0.0228 -0.1121 -0.1206
 1778SOL    HW116967   3.425   3.249   6.166 -0.3137  0.2656  0.8007
 1778SOL    HW216968   3.287   3.223   6.112 -0.3549  0.0844  0.4596
 1779SOL     OW16969   1.106   1.498  11.165 -0.1097  0.6983  0.0535
 1779SOL    HW116970   1.024   1.535  11.135 -0.3717 -0.0644 -0.1812
 1779SOL    HW216971   1.094   1.504  11.260  2.0403 -0.8096  0.4378
 1780SOL     OW16972   1.490   3.061  15.507  0.6268 -0.4732 -0.0873
 1780SOL    HW116973   1.542   3.110  15.571 -0.0767 -0.7311  0.6764
 1780SOL    HW216974   1.441   2.998  15.560 -0.1190 -0.4599 -0.7644
 1781SOL     OW16975   1.326   4.100  10.558  0.1997  0.1326  0.1709
 1781SOL    HW116976   1.266   4.066  10.492 -0.1937  4.0978 -1.4697
 1781SOL    HW216977   1.389   4.148  10.503  1.4125 -1.6509 -0.0121
 1782SOL     OW16978   4.215   1.622   7.846  0.0668  0.2230  0.8134
 1782SOL    HW116979   4.227   1.672   7.766  3.0172 -1.5205  0.1777
 1782SOL    HW216980   4.305   1.591   7.858 -0.0528 -1.0405 -1.6134
 1783SOL     OW16981   3.976   0.549   5.095 -0.1466 -0.8786 -0.1998
 1783SOL    HW116982   4.038   0.610   5.135 -0.9826  0.4271 -0.8802
 1783SOL    HW216983   3.917   0.620   5.067 -0.5321 -1.2977 -0.4490
 1784SOL     OW16984   4.691   4.620  13.100 -0.2924  0.1191  0.0337
 1784SOL    HW116985   4.598   4.612  13.120 -0.6351 -2.0754 -2.3588
 1784SOL    HW216986   4.719   4.699  13.147 -0.1022 -1.3523  2.3824
 1785SOL     OW16987   0.472   3.610   3.093 -0.1849  0.1638  0.2161
 1785SOL    HW116988   0.507   3.674   3.030 -0.5906 -0.6899 -0.8811
 1785SOL    HW216989   0.449   3.669   3.165 -3.0158  0.2631 -0.7632
 1786SOL     OW16990   4.390   4.681   5.325  0.4565 -0.7117 -0.1080
 1786SOL    HW116991   4.429   0.024   5.355 -0.0558 -0.7078  0.5614
 1786SOL    HW216992   4.428   4.609   5.376 -1.0182 -1.0559  0.5141
 1787SOL     OW16993   0.802   2.447   4.469  0.0713 -0.1436 -0.1739
 1787SOL    HW116994   0.786   2.461   4.376  1.9942 -0.8420 -0.6130
 1787SOL    HW216995   0.814   2.538   4.494 -0.2899  0.5248 -2.4676
 1788SOL     OW16996   2.650   4.138   1.432 -0.4197  0.6101  0.3508
 1788SOL    HW116997   2.647   4.042   1.430 -0.3499  0.6341 -0.8163
 1788SOL    HW216998   2.655   4.163   1.524 -0.1663  0.6459  0.3264
 1789SOL     OW16999   0.090   2.550  10.797  0.0646  0.3480 -0.1807
 1789SOL    HW117000   0.067   2.473  10.849  1.3587  0.5955  0.7620
 1789SOL    HW217001   0.171   2.580  10.839  0.5552  1.4034 -1.8885
 1790SOL     OW17002   2.729   3.819   6.688 -0.2872  0.2776  0.8563
 1790SOL    HW117003   2.812   3.851   6.653 -0.9434  1.3315  0.2744
 1790SOL    HW217004   2.660   3.882   6.669 -1.9275 -1.3769  1.3686
 1791SOL     OW17005   2.273   3.350  14.252 -0.1547  0.1803  0.1407
 1791SOL    HW117006   2.186   3.387  14.238 -0.5575 -0.6215  0.5225
 1791SOL    HW217007   2.275   3.303  14.336  0.8589  1.1512  0.6694
 1792SOL     OW17008   0.545   3.097  10.946 -0.0491  0.2898  0.7777
 1792SOL    HW117009   0.478   3.151  10.987  2.0894  2.8059  0.9328
 1792SOL    HW217010   0.574   3.160  10.880 -0.8438  1.6476  1.7206
 1793SOL     OW17011   1.489   1.960   8.126  0.1595 -0.3746  0.3723
 1793SOL    HW117012   1.530   2.042   8.155 -1.0616 -0.3826  2.0725
 1793SOL    HW217013   1.562   1.918   8.080  1.3564 -0.1951  2.0832
 1794SOL     OW17014   2.162   4.472   4.137 -0.2727  0.6064  0.8863
 1794SOL    HW117015   2.228   4.540   4.120  1.8941 -1.1210  2.2999
 1794SOL    HW217016   2.086   4.510   4.093 -1.0018 -1.7743  0.0876
 1795SOL     OW17017   0.700   2.184  17.194  0.0759  0.1511 -0.1922
 1795SOL    HW117018   0.670   2.251  17.133 -0.4497  1.0912  1.1166
 1795SOL    HW217019   0.640   2.182  17.268  1.4989  0.2793  0.9819
 1796SOL     OW17020   2.337   4.308   7.537  0.6134  0.1619 -0.0520
 1796SOL    HW117021   2.399   4.336   7.470 -1.5516  0.8345 -1.7817
 1796SOL    HW217022   2.273   4.257   7.487 -0.3875  0.9763  0.3891
 1797SOL     OW17023   2.766   1.538   7.208 -0.1918  0.9756 -0.4259
 1797SOL    HW117024   2.698   1.602   7.229  0.5035  2.8298 -3.7576
 1797SOL    HW217025   2.716   1.481   7.150  1.7134 -0.8574 -0.2649
 1798SOL     OW17026   4.094   3.038   6.246 -0.0643  0.3296  0.8704
 1798SOL    HW117027   4.006   3.028   6.211 -0.9625 -0.3791  3.3316
 1798SOL    HW217028   4.128   3.111   6.193 -2.1553  0.4769 -0.2708
 1799SOL     OW17029   3.300   2.821  10.319  0.5678 -0.0438 -0.2072
 1799SOL    HW117030   3.315   2.757  10.389  1.3000  2.5401  2.0069
 1799SOL    HW217031   3.276   2.895  10.374 -0.3674  0.6059 -1.4997
 1800SOL     OW17032   4.333   0.906   7.845  0.1754  0.2893  0.5776
 1800SOL    HW117033   4.300   0.850   7.915 -0.0450  1.1989  1.2064
 1800SOL    HW217034   4.245   0.924   7.810  0.5332  0.0142 -0.4676
 1801SOL     OW17035   0.469   3.608   7.439 -0.1505 -0.2089 -0.0309
 1801SOL    HW117036   0.501   3.586   7.351  1.6122  0.2991  0.4853
 1801SOL    HW217037   0.376   3.627   7.422 -0.1894 -0.5224 -0.1681
 1802SOL     OW17038   0.273   1.895   8.509  0.6614 -0.2279 -0.4022
 1802SOL    HW117039   0.342   1.937   8.457 -1.1613  2.1447 -0.9041
 1802SOL    HW217040   0.319   1.828   8.561 -1.5361 -1.4880 -0.0992
 1803SOL     OW17041   1.383   1.963   7.330 -0.1114 -0.7004  0.2492
 1803SOL    HW117042   1.420   2.039   7.375 -1.2133  0.3471 -0.6339
 1803SOL    HW217043   1.345   1.998   7.249  0.0630 -1.6725 -0.2556
 1804SOL     OW17044   3.440   0.771   1.998 -0.0171 -0.7637 -0.1677
 1804SOL    HW117045   3.433   0.714   1.922  1.0427 -1.3126  0.1514
 1804SOL    HW217046   3.465   0.853   1.955  1.6109 -0.8922  0.5474
 1805SOL     OW17047   0.132   1.265   0.071  0.9858  0.0791 -0.3763
 1805SOL    HW117048   0.104   1.356   0.056  0.6001  0.0142 -0.0518
 1805SOL    HW217049   0.196   1.280   0.140  0.2998  0.9623  0.0680
 1806SOL     OW17050   2.811   0.632   9.494  0.4851 -0.3499  0.0317
 1806SOL    HW117051   2.882   0.656   9.552  1.3486 -0.9197 -0.7926
 1806SOL    HW217052   2.850   0.573   9.430  2.0992  0.7092  0.0427
 1807SOL     OW17053   3.879   3.017   2.863  0.3157  0.1099  0.1668
 1807SOL    HW117054   3.893   3.090   2.803 -2.3085 -1.4465 -2.3142
 1807SOL    HW217055   3.806   3.047   2.918  0.3018 -0.9666  0.7344
 1808SOL     OW17056   0.317   1.479   4.175 -1.0308  0.4369 -0.0670
 1808SOL    HW117057   0.354   1.554   4.128  0.9287  0.3600  1.3170
 1808SOL    HW217058   0.227   1.471   4.145 -0.5655 -1.1038 -1.0543
 1809SOL     OW17059   2.564   3.053   1.900  0.0384 -0.3718 -0.0721
 1809SOL    HW117060   2.513   3.104   1.963  0.3650  0.4408 -0.4657
 1809SOL    HW217061   2.573   2.964   1.934  2.0487  0.4896  1.6820
 1810SOL     OW17062   2.365   0.050   6.920  0.3829  0.4179 -0.4525
 1810SOL    HW117063   2.423   0.003   6.859  0.0681  0.2428 -0.6195
 1810SOL    HW217064   2.338   4.719   6.980  0.3902  0.6778 -0.1521
 1811SOL     OW17065   3.299   1.302   6.016  0.1515 -0.5551  0.3058
 1811SOL    HW117066   3.306   1.370   6.083  0.6858 -0.0185 -0.2967
 1811SOL    HW217067   3.320   1.354   5.939  1.7291 -2.0625 -0.2849
 1812SOL     OW17068   3.769   3.107  14.437  0.3741 -0.5429  0.3037
 1812SOL    HW117069   3.752   3.015  14.457 -1.3807 -0.2600  0.0672
 1812SOL    HW217070   3.718   3.110  14.356  0.4062  0.6826  0.3288
 1813SOL     OW17071   1.797   3.922  17.550  0.2549 -0.7559  0.1381
 1813SOL    HW117072   1.768   3.993  17.491  1.3203 -2.2639 -2.2147
 1813SOL    HW217073   1.752   3.940  17.632 -0.9375 -1.3676 -0.3819
 1814SOL     OW17074   2.879   2.557   4.570 -0.1232  0.8008  0.2123
 1814SOL    HW117075   2.872   2.498   4.494  1.0952  0.8357  0.0744
 1814SOL    HW217076   2.834   2.636   4.542 -0.9034  0.6047  0.9172
 1815SOL     OW17077   1.912   1.394   1.266  0.2912  0.8579 -0.2812
 1815SOL    HW117078   1.945   1.359   1.348  1.4640 -2.3625 -2.1288
 1815SOL    HW217079   1.858   1.325   1.228  0.6903  0.1188  0.4993
 1816SOL     OW17080   3.287   4.682   8.209  0.1000  0.0601  0.3488
 1816SOL    HW117081   3.278   4.654   8.118 -0.5871  2.1627 -0.2191
 1816SOL    HW217082   3.349   0.016   8.200  0.0544  0.4238  2.9141
 1817SOL     OW17083   0.101   2.393   2.005  0.5354  0.2658  0.3572
 1817SOL    HW117084   0.077   2.315   2.056 -2.9301  1.1240  0.0881
 1817SOL    HW217085   0.184   2.425   2.038 -0.1935  1.9366  0.5519
 1818SOL     OW17086   0.030   0.313   6.848 -0.0778 -0.2308  0.0606
 1818SOL    HW117087   4.698   0.313   6.912  0.9356 -3.1154  1.1909
 1818SOL    HW217088   0.094   0.378   6.877  0.9070 -1.2909  0.2473
 1819SOL     OW17089   2.237   3.617   2.110 -0.4554  0.0315  0.2417
 1819SOL    HW117090   2.206   3.568   2.186  0.4537  0.4365  0.8834
 1819SOL    HW217091   2.254   3.703   2.149  1.2741 -1.2851  2.4035
 1820SOL     OW17092   4.010   2.502   3.045 -0.0198 -0.2967 -0.8111
 1820SOL    HW117093   3.967   2.541   2.970  1.6522  2.1106 -0.5251
 1820SOL    HW217094   4.046   2.579   3.089 -0.6516  0.0742 -0.9438
 1821SOL     OW17095   1.826   0.139   8.582 -0.1162  0.5237  0.2515
 1821SOL    HW117096   1.775   0.215   8.609 -1.9848 -0.8676  0.6571
 1821SOL    HW217097   1.909   0.173   8.548  0.0099 -0.8010 -0.7468
 1822SOL     OW17098   0.824   1.033  10.190  0.4233  0.1337 -0.3679
 1822SOL    HW117099   0.757   0.967  10.174  2.2795 -1.9679  0.4632
 1822SOL    HW217100   0.843   1.068  10.103  0.5001  0.8469 -0.0666
 1823SOL     OW17101   1.103   3.008   6.550 -0.0233 -0.0353 -0.3334
 1823SOL    HW117102   1.163   3.074   6.584  0.4225 -0.1882 -0.8104
 1823SOL    HW217103   1.020   3.029   6.591  0.6380 -2.0307  2.0307
 1824SOL     OW17104   1.437   3.816   3.938 -0.1786 -0.1976  0.3790
 1824SOL    HW117105   1.437   3.893   3.994  0.7038  0.1098 -0.0328
 1824SOL    HW217106   1.424   3.842   3.847  1.9403  0.6961  0.3191
 1825SOL     OW17107   1.939   0.453   4.160  0.6369 -0.4573  0.2179
 1825SOL    HW117108   1.844   0.442   4.171  0.3610  1.6432 -0.0510
 1825SOL    HW217109   1.945   0.463   4.065  0.3794  1.0360  0.3616
 1826SOL     OW17110   3.246   1.542   3.909  0.0105 -0.2508  0.3165
 1826SOL    HW117111   3.276   1.612   3.968  1.9068  0.1390 -1.1302
 1826SOL    HW217112   3.168   1.526   3.962  0.4118 -0.9810  0.6770
 1827SOL     OW17113   1.315   0.795   2.091 -0.2498 -0.8594  0.0604
 1827SOL    HW117114   1.317   0.700   2.102  0.5806 -1.1053 -2.1394
 1827SOL    HW217115   1.249   0.817   2.157 -0.1087  0.1507 -0.1449
 1828SOL     OW17116   0.570   4.009   7.760  0.0191  0.1802 -0.2748
 1828SOL    HW117117   0.630   3.962   7.817 -0.2890  0.5492  0.3469
 1828SOL    HW217118   0.586   3.963   7.677  0.7090  2.1328 -1.2349
 1829SOL     OW17119   2.389   3.435   4.799 -0.2702 -0.1095  0.4356
 1829SOL    HW117120   2.388   3.497   4.727 -0.3547 -0.5401  0.0679
 1829SOL    HW217121   2.398   3.347   4.764  1.3451  0.7273 -1.2229
 1830SOL     OW17122   2.470   2.399   8.677  0.2204  0.1147  0.6294
 1830SOL    HW117123   2.550   2.451   8.671  0.1418  0.2352  0.6162
 1830SOL    HW217124   2.416   2.467   8.717  1.2331  2.2721 -1.6757
 1831SOL     OW17125   0.281   3.196   4.350 -0.0966  0.1951 -0.2097
 1831SOL    HW117126   0.250   3.142   4.276 -1.2297  1.7324 -0.8638
 1831SOL    HW217127   0.193   3.203   4.388 -0.4446 -0.4707 -0.8673
 1832SOL     OW17128   4.470   3.939   8.608 -0.2537  0.8653 -0.4856
 1832SOL    HW117129   4.427   3.891   8.678  0.6748 -0.2784 -0.6968
 1832SOL    HW217130   4.560   3.907   8.602 -1.9146 -3.8714  0.2563
 1833SOL     OW17131   3.772   4.381   0.526  0.0686  0.3007 -0.1582
 1833SOL    HW117132   3.763   4.465   0.571 -2.8980  0.3565 -0.8641
 1833SOL    HW217133   3.688   4.360   0.487 -0.1048  1.2448 -0.2973
 1834SOL     OW17134   4.163   3.728   5.189  0.6443  0.5431  0.2353
 1834SOL    HW117135   4.102   3.792   5.226 -0.0788 -0.5464  0.9294
 1834SOL    HW217136   4.156   3.751   5.096 -1.0054  0.2079  0.2761
 1835SOL     OW17137   4.188   2.141  14.723  0.3135 -0.6157 -0.2773
 1835SOL    HW117138   4.206   2.107  14.811 -1.8485 -1.0738 -0.0273
 1835SOL    HW217139   4.265   2.198  14.718  0.3281 -0.6665 -0.6336
 1836SOL     OW17140   3.745   1.145  13.186  0.6872 -0.2035 -0.2636
 1836SOL    HW117141   3.651   1.136  13.205  0.9033 -1.1216  0.4138
 1836SOL    HW217142   3.768   1.052  13.181  2.6385  0.3391 -1.5008
 1837SOL     OW17143   4.245   3.131  16.493 -0.1891 -0.0958 -0.2160
 1837SOL    HW117144   4.284   3.057  16.447 -1.4997 -3.3058  3.8338
 1837SOL    HW217145   4.305   3.198  16.460 -1.6236  0.3900 -1.8062
 1838SOL     OW17146   4.152   2.463   9.442 -0.6503 -0.3145  0.0680
 1838SOL    HW117147   4.200   2.541   9.415 -1.6370  0.0563 -0.6341
 1838SOL    HW217148   4.088   2.505   9.499 -1.1341 -2.2230  0.9497
 1839SOL     OW17149   3.043   1.136   4.155 -0.3053 -0.3458 -0.5502
 1839SOL    HW117150   3.078   1.048   4.139  1.5635  0.0317  1.4361
 1839SOL    HW217151   2.968   1.119   4.212  0.1189 -1.0564 -0.2089
 1840SOL     OW17152   0.229   3.926   6.635 -0.1104  0.0387 -0.0689
 1840SOL    HW117153   0.274   4.005   6.607 -2.5746  0.8248 -1.8380
 1840SOL    HW217154   0.162   3.909   6.568 -2.5242  1.1503  2.0830
 1841SOL     OW17155   4.346   3.367   9.676  0.6484 -0.0591 -0.5208
 1841SOL    HW117156   4.337   3.458   9.703  0.1675  0.2628 -1.7713
 1841SOL    HW217157   4.441   3.370   9.664  0.6913  0.8972  0.0732
 1842SOL     OW17158   1.167   4.430   6.233  0.2181 -0.1001 -0.0667
 1842SOL    HW117159   1.227   4.356   6.223 -0.8770 -0.9632 -0.2686
 1842SOL    HW217160   1.229   4.499   6.257 -0.9594  0.9959 -0.2020
 1843SOL     OW17161   3.039   4.334   8.422  0.4457 -0.3897  0.0443
 1843SOL    HW117162   3.049   4.281   8.343 -1.0075 -2.0953  1.0115
 1843SOL    HW217163   3.088   4.274   8.478 -1.6322 -1.6290  0.5366
 1844SOL     OW17164   4.095   3.314   9.277 -0.2621  0.6310 -0.0171
 1844SOL    HW117165   4.007   3.314   9.314  0.1300  0.9563  0.9006
 1844SOL    HW217166   4.106   3.219   9.268  1.1017  0.8838 -1.0055
 1845SOL     OW17167   1.317   2.175   3.759  0.5417  0.4760 -0.1325
 1845SOL    HW117168   1.289   2.190   3.668  2.7340 -1.3451 -1.1209
 1845SOL    HW217169   1.246   2.213   3.811 -1.5788 -2.3836 -0.9591
 1846SOL     OW17170   2.816   2.331   1.534  0.1673  0.0626  0.1295
 1846SOL    HW117171   2.842   2.389   1.463 -0.1405 -0.4975 -0.4403
 1846SOL    HW217172   2.823   2.385   1.613  0.3375 -0.4896  0.4974
 1847SOL     OW17173   0.859   1.117   8.394  0.2759  0.1488  0.1860
 1847SOL    HW117174   0.899   1.190   8.441  2.5095  0.3761 -2.0500
 1847SOL    HW217175   0.872   1.152   8.306 -1.3418 -0.5780 -0.3536
 1848SOL     OW17176   0.479   2.055   4.286 -0.5689 -0.0841  0.5198
 1848SOL    HW117177   0.473   2.022   4.196  5.2539 -1.1109  0.4988
 1848SOL    HW217178   0.520   1.976   4.322  1.8427  1.2784  0.7973
 1849SOL     OW17179   2.504   2.194   7.229 -0.1744 -0.1277 -0.1389
 1849SOL    HW117180   2.456   2.276   7.218  0.7348  0.3746 -0.3077
 1849SOL    HW217181   2.531   2.191   7.321  0.1047 -0.6253 -0.2415
 1850SOL     OW17182   3.876   1.222   6.003  0.7736  1.1163  0.0905
 1850SOL    HW117183   3.880   1.185   6.092 -1.7467  1.3848  0.3371
 1850SOL    HW217184   3.805   1.287   6.005 -1.0585 -0.8937 -0.0906
 1851SOL     OW17185   2.858   4.606  12.832 -0.5402 -0.5667  0.0339
 1851SOL    HW117186   2.910   4.549  12.776  0.9944  1.1027 -0.2256
 1851SOL    HW217187   2.772   4.564  12.840 -0.8789 -0.1253 -1.2748
 1852SOL     OW17188   1.146   3.008  17.047  0.0489  0.3873 -0.3053
 1852SOL    HW117189   1.135   3.101  17.066  0.4173  0.1003  1.2361
 1852SOL    HW217190   1.192   3.019  16.964 -0.6997 -1.2706 -0.9613
 1853SOL     OW17191   4.401   2.900   9.954 -0.2452  0.1069  0.2287
 1853SOL    HW117192   4.438   2.812   9.943 -0.4555  0.0252  0.1889
 1853SOL    HW217193   4.362   2.898  10.041 -0.4939  0.7798  0.1311
 1854SOL     OW17194   1.986   3.247   6.906  0.1753  0.1591 -0.2756
 1854SOL    HW117195   2.036   3.170   6.934  0.1215 -0.3838 -1.6870
 1854SOL    HW217196   2.047   3.313   6.874  2.6153 -1.3161  1.2848
 1855SOL     OW17197   0.749   3.576   9.203  0.6551 -0.4576  0.4601
 1855SOL    HW117198   0.836   3.551   9.236  0.5055 -1.1609  0.3129
 1855SOL    HW217199   0.707   3.491   9.214 -0.9655  0.4404  1.1131
 1856SOL     OW17200   1.663   1.439  13.050 -0.3992 -0.4398  0.5374
 1856SOL    HW117201   1.740   1.450  12.994  0.4772 -1.8262  1.4572
 1856SOL    HW217202   1.642   1.347  13.039 -0.7105 -0.2582 -0.4029
 1857SOL     OW17203   2.776   4.117   3.661  0.0171  0.0009 -0.1778
 1857SOL    HW117204   2.710   4.179   3.631  0.1607 -0.8223 -2.2217
 1857SOL    HW217205   2.717   4.057   3.707  0.0403 -0.3110 -0.5515
 1858SOL     OW17206   0.117   1.547   2.414  0.0317  0.0535 -0.7168
 1858SOL    HW117207   0.118   1.593   2.330  1.4614 -0.3424 -0.9213
 1858SOL    HW217208   0.025   1.562   2.434  0.1614 -0.7573  0.4851
 1859SOL     OW17209   3.960   1.366   4.490 -0.2453 -0.6581 -0.5878
 1859SOL    HW117210   4.007   1.292   4.449  2.1195  0.4138  0.2127
 1859SOL    HW217211   3.962   1.350   4.584 -0.2804  0.3358 -0.4282
 1860SOL     OW17212   4.556   3.107   6.015  0.1153 -0.0481 -0.5400
 1860SOL    HW117213   4.520   3.187   6.053  1.9292  0.1544  0.7536
 1860SOL    HW217214   4.477   3.060   5.988 -1.8530  1.1983  3.0344
 1861SOL     OW17215   1.463   3.727   6.843 -0.0440 -0.2205  0.0658
 1861SOL    HW117216   1.547   3.763   6.871 -0.6051  0.7962  0.4457
 1861SOL    HW217217   1.408   3.803   6.859  0.9485  0.1338  1.8189
 1862SOL     OW17218   0.077   1.425  10.988  0.1278 -0.4419 -0.0507
 1862SOL    HW117219   0.144   1.439  11.055 -1.6096 -2.5545  2.1574
 1862SOL    HW217220   0.111   1.464  10.907  0.0622 -0.2906 -0.0044
 1863SOL     OW17221   1.625   0.695   2.895 -0.4052 -0.0190  0.1600
 1863SOL    HW117222   1.590   0.778   2.927 -0.3640  0.8631 -2.0788
 1863SOL    HW217223   1.619   0.694   2.799 -1.4089  0.2244  0.2167
 1864SOL     OW17224   2.484   2.950   3.775 -0.0274  0.0284  0.0408
 1864SOL    HW117225   2.495   3.044   3.787  0.8053 -0.1505  0.6829
 1864SOL    HW217226   2.557   2.913   3.725  0.8880  0.7438  0.8593
 1865SOL     OW17227   0.329   1.533   6.470 -0.0032  0.5093  0.5756
 1865SOL    HW117228   0.289   1.473   6.408  1.5926 -0.2658  0.3047
 1865SOL    HW217229   0.298   1.489   6.550  1.3490 -1.7432 -0.1520
 1866SOL     OW17230   1.515   4.456   3.047  0.2032 -0.0161 -0.0345
 1866SOL    HW117231   1.565   4.481   3.124 -1.2504  0.3982  0.7668
 1866SOL    HW217232   1.441   4.404   3.078 -0.3735 -0.2807 -1.8057
 1867SOL     OW17233   4.587   2.274  16.415  0.5342 -0.3794 -0.1836
 1867SOL    HW117234   4.679   2.272  16.387 -0.6355 -1.0794 -3.9654
 1867SOL    HW217235   4.577   2.190  16.459  0.8806 -0.3057  0.0365
 1868SOL     OW17236   1.715   0.848   5.016  0.1332  0.7153  0.0991
 1868SOL    HW117237   1.780   0.782   5.041 -1.6341 -1.0256  0.1515
 1868SOL    HW217238   1.638   0.799   5.045  0.5710  0.3533  0.6587
 1869SOL     OW17239   0.228   1.315  12.572 -0.6011 -0.0209 -0.0639
 1869SOL    HW117240   0.275   1.245  12.527 -0.5178 -0.1676  0.2477
 1869SOL    HW217241   0.233   1.276  12.659 -0.7311  1.1815  0.4715
 1870SOL     OW17242   3.076   1.718  11.679 -0.0442 -0.1963 -0.2222
 1870SOL    HW117243   3.096   1.716  11.585  1.0922 -1.8884  0.0448
 1870SOL    HW217244   3.160   1.724  11.723 -0.0577  0.6541 -0.3318
 1871SOL     OW17245   3.488   1.155   2.898  0.3094 -0.2055 -0.0934
 1871SOL    HW117246   3.471   1.071   2.855 -1.8123  0.8228 -1.2810
 1871SOL    HW217247   3.576   1.171   2.862  0.5922 -1.3912  0.0884
 1872SOL     OW17248   2.306   1.594  15.354  0.2414  0.5703 -0.4420
 1872SOL    HW117249   2.316   1.684  15.383 -1.6969  0.7275 -0.2788
 1872SOL    HW217250   2.377   1.580  15.291  0.4001  1.3425 -0.4329
 1873SOL     OW17251   0.145   3.471   3.191  0.5589  0.2446  0.0557
 1873SOL    HW117252   0.182   3.437   3.110 -0.9438 -0.8190 -0.1989
 1873SOL    HW217253   0.209   3.443   3.256 -0.4502  0.0033  0.9582
 1874SOL     OW17254   0.545   1.736   6.534  0.0415  0.2459 -0.1656
 1874SOL    HW117255   0.494   1.654   6.538 -3.3888  2.3094 -1.3741
 1874SOL    HW217256   0.512   1.769   6.450 -0.3321 -0.8917 -0.4650
 1875SOL     OW17257   0.064   1.114   1.890  0.5334 -0.1079 -0.0614
 1875SOL    HW117258   0.132   1.074   1.837  1.5590 -0.4001  1.4573
 1875SOL    HW217259   0.012   1.141   1.815  1.8712  0.1139 -0.8910
 1876SOL     OW17260   1.662   4.413   2.759  0.4002 -0.2944  0.0927
 1876SOL    HW117261   1.644   4.323   2.784  0.1988  0.0460  1.1527
 1876SOL    HW217262   1.641   4.458   2.841  2.3260  0.3159  0.2615
 1877SOL     OW17263   0.009   3.254   1.830 -0.4011 -0.3590  0.1997
 1877SOL    HW117264   4.695   3.229   1.754  2.1357  1.7006 -2.2413
 1877SOL    HW217265   0.035   3.164   1.850  0.4014  0.5586  3.2404
 1878SOL     OW17266   4.721   4.272   5.854  0.2363 -0.6115  0.0538
 1878SOL    HW117267   4.737   4.179   5.871  1.2253 -1.0048 -3.0055
 1878SOL    HW217268   0.002   4.307   5.940  1.2545  0.7627 -0.7391
 1879SOL     OW17269   1.928   0.354  10.391  0.0161 -0.4645 -0.8764
 1879SOL    HW117270   1.841   0.380  10.358 -0.9422 -0.7504  1.4220
 1879SOL    HW217271   1.923   0.260  10.373  2.8237 -0.8387  0.4017
 1880SOL     OW17272   1.753   1.273   3.213  0.3419  0.5226  0.1106
 1880SOL    HW117273   1.789   1.355   3.247 -1.0820  0.1545  2.4699
 1880SOL    HW217274   1.824   1.248   3.154  0.0683 -1.0456  0.4449
 1881SOL     OW17275   0.399   4.244   7.334  0.1296  0.0638 -0.3556
 1881SOL    HW117276   0.373   4.175   7.394  0.8149 -0.4805 -0.6875
 1881SOL    HW217277   0.456   4.293   7.394  0.4571  0.0290 -0.6356
 1882SOL     OW17278   3.176   4.360   0.476 -0.2312  0.2952  0.1093
 1882SOL    HW117279   3.245   4.300   0.505 -1.4432 -0.5337  1.3371
 1882SOL    HW217280   3.188   4.432   0.538  1.1021  0.1296  0.0281
 1883SOL     OW17281   2.931   0.365   2.043 -1.0866 -0.6609 -0.7080
 1883SOL    HW117282   2.839   0.337   2.048 -0.6729 -1.9081 -0.2899
 1883SOL    HW217283   2.945   0.393   2.133 -0.9281 -1.2045 -0.5661
 1884SOL     OW17284   3.882   4.437  15.797  0.5132  0.3492 -0.4317
 1884SOL    HW117285   3.822   4.503  15.833  1.7160  0.8498  0.6399
 1884SOL    HW217286   3.955   4.495  15.773  0.3431  0.1266 -1.5210
 1885SOL     OW17287   2.400   0.321  15.464 -0.0795  0.5597 -0.1088
 1885SOL    HW117288   2.309   0.308  15.490 -0.1994  2.7126  0.5724
 1885SOL    HW217289   2.411   0.416  15.459  0.1037  0.4662 -1.4420
 1886SOL     OW17290   2.093   1.565   5.882  0.3233  0.0145 -0.6408
 1886SOL    HW117291   2.107   1.605   5.797 -1.3975 -0.0471 -0.9631
 1886SOL    HW217292   2.155   1.496   5.859 -1.9445 -2.1834 -0.2235
 1887SOL     OW17293   3.542   4.003   7.197 -0.1111  0.1731 -0.2247
 1887SOL    HW117294   3.619   4.049   7.230  0.5856  0.2990 -2.0208
 1887SOL    HW217295   3.474   4.045   7.251 -1.1704  1.2103 -2.3652
 1888SOL     OW17296   1.379   2.138   1.121  0.6531 -0.2620  0.6227
 1888SOL    HW117297   1.404   2.215   1.071  0.5321  0.5175  1.7463
 1888SOL    HW217298   1.299   2.111   1.076  1.0538  1.7074 -1.2245
 1889SOL     OW17299   1.309   1.297   6.257 -0.0182 -0.0790  0.1564
 1889SOL    HW117300   1.250   1.240   6.307 -0.8805 -0.1192 -0.9052
 1889SOL    HW217301   1.344   1.228   6.201 -0.8630 -0.5180  0.1580
 1890SOL     OW17302   1.573   4.676   7.362  0.1601 -0.2859  0.2361
 1890SOL    HW117303   1.593   0.007   7.425 -1.0746 -1.8628  2.3550
 1890SOL    HW217304   1.534   4.610   7.419 -0.9704  1.5236  1.5462
 1891SOL     OW17305   4.508   0.067   8.678  0.2887 -0.8255  0.2653
 1891SOL    HW117306   4.433   0.020   8.642 -0.6439  0.0012  1.1012
 1891SOL    HW217307   4.555   4.730   8.712  2.4073  0.6757  0.6776
 1892SOL     OW17308   2.884   0.613   8.362  0.6120 -0.1495  0.0555
 1892SOL    HW117309   2.825   0.618   8.438 -0.6794 -1.0624 -0.8789
 1892SOL    HW217310   2.951   0.674   8.392 -0.3422  1.2454 -0.6636
 1893SOL     OW17311   2.975   2.905   1.080  0.2072 -0.0646 -0.2534
 1893SOL    HW117312   2.901   2.900   1.020 -0.8738 -2.4522  1.2718
 1893SOL    HW217313   2.942   2.962   1.150  1.2305 -3.3243  2.8955
 1894SOL     OW17314   4.649   1.569   1.757 -0.2591 -0.5246  0.0777
 1894SOL    HW117315   4.612   1.617   1.683 -0.7362  0.2358  0.8064
 1894SOL    HW217316   4.694   1.497   1.713 -0.3840 -0.9295  0.6021
 1895SOL     OW17317   3.172   1.142   1.249 -0.2188 -0.0998 -0.6280
 1895SOL    HW117318   3.127   1.114   1.169 -0.7012 -2.2253  0.4111
 1895SOL    HW217319   3.260   1.109   1.233 -0.4113 -1.7341  1.6644
 1896SOL     OW17320   1.183   4.079   1.243  0.6660  0.0748 -0.0115
 1896SOL    HW117321   1.186   4.012   1.312 -2.4922  1.8564  1.8603
 1896SOL    HW217322   1.088   4.089   1.249  0.7329  1.6822 -1.5411
 1897SOL     OW17323   1.734   0.210   7.193  0.1378  0.2532 -0.5181
 1897SOL    HW117324   1.777   0.242   7.114  1.2074  0.8228  0.2982
 1897SOL    HW217325   1.806   0.177   7.247  0.4473  1.8816  0.0488
 1898SOL     OW17326   1.608   2.274   1.378 -0.1294 -0.3765  0.0781
 1898SOL    HW117327   1.649   2.188   1.381  0.4710 -0.0535  1.3011
 1898SOL    HW217328   1.582   2.297   1.467  0.5111 -0.8594  0.3921
 1899SOL     OW17329   3.002   0.464   6.422  0.2906  0.3324  0.3234
 1899SOL    HW117330   3.056   0.457   6.501  1.0865  0.3618 -0.2135
 1899SOL    HW217331   2.951   0.544   6.433  1.5531  1.2638 -0.5715
 1900SOL     OW17332   1.716   2.366   4.893  0.3460 -0.0941  0.4811
 1900SOL    HW117333   1.649   2.422   4.932 -0.6785 -0.3196 -0.9368
 1900SOL    HW217334   1.752   2.345   4.979 -0.6335  0.6504  1.0781
 1901SOL     OW17335   4.173   4.216  13.253  0.4119  0.0664  0.0443
 1901SOL    HW117336   4.139   4.166  13.179 -1.7170 -0.0756  1.1122
 1901SOL    HW217337   4.261   4.178  13.260  0.4789  0.2761  0.3209
 1902SOL     OW17338   0.098   3.271   3.807  0.1835  0.0176 -0.1422
 1902SOL    HW117339   0.132   3.186   3.780 -1.1736 -0.1450 -1.2954
 1902SOL    HW217340   0.017   3.277   3.757  1.0246  0.7737 -1.4087
 1903SOL     OW17341   2.115   3.887  12.351 -0.1024  0.5665 -0.2449
 1903SOL    HW117342   2.179   3.852  12.413 -1.8389 -0.7802  0.7897
 1903SOL    HW217343   2.170   3.875  12.274  2.0224 -1.8962  1.6752
 1904SOL     OW17344   4.459   4.291   0.869  0.0793 -0.2331  0.3218
 1904SOL    HW117345   4.469   4.265   0.778  0.0964  0.4722  0.1274
 1904SOL    HW217346   4.370   4.325   0.869  0.8483  1.7897 -0.4335
 1905SOL     OW17347   3.523   3.597   9.507  0.4312  0.1692 -0.3075
 1905SOL    HW117348   3.428   3.604   9.515  0.4994 -0.0444  0.8272
 1905SOL    HW217349   3.544   3.630   9.595  0.3511  0.1892 -0.2962
 1906SOL     OW17350   4.263   3.507   0.210  0.1442  0.0527 -0.5709
 1906SOL    HW117351   4.279   3.439   0.276  2.5285  1.1250 -0.0361
 1906SOL    HW217352   4.193   3.563   0.244 -2.0380 -0.9114 -3.5171
 1907SOL     OW17353   1.166   2.425  11.741 -0.8710 -0.4959  0.0202
 1907SOL    HW117354   1.170   2.330  11.746  2.2553 -0.4645 -1.8289
 1907SOL    HW217355   1.207   2.447  11.658  1.6403 -0.4800  1.2529
 1908SOL     OW17356   1.580   2.704   7.539  0.0745  0.2425  0.3078
 1908SOL    HW117357   1.526   2.677   7.614  0.6811 -0.5919  0.4459
 1908SOL    HW217358   1.590   2.799   7.537  1.2187  0.0661 -1.8583
 1909SOL     OW17359   0.945   4.714   2.513  0.7803 -0.0761 -0.2742
 1909SOL    HW117360   0.916   0.043   2.574 -1.1011 -1.4421  0.3288
 1909SOL    HW217361   0.895   4.635   2.531 -0.7617  0.9115 -0.2368
 1910SOL     OW17362   4.299   3.490  17.677  0.0878 -0.9700 -0.1494
 1910SOL    HW117363   4.218   3.453  17.642  0.0037  0.6815 -1.6914
 1910SOL    HW217364   4.287   3.481   0.019  1.7139  0.7059  0.2163
 1911SOL     OW17365   2.517   0.187  15.654 -0.4407 -0.3514  0.7585
 1911SOL    HW117366   2.472   0.233  15.583  2.8122 -0.1745 -1.1896
 1911SOL    HW217367   2.605   0.224  15.649 -0.0556 -1.5322 -1.2440
 1912SOL     OW17368   3.993   4.119  14.352 -0.1424 -0.2330 -0.7522
 1912SOL    HW117369   4.016   4.033  14.318  1.1684 -1.6584  3.8892
 1912SOL    HW217370   3.981   4.171  14.272 -0.2907  1.5009  0.3863
 1913SOL     OW17371   3.728   0.410  11.275 -0.2352  0.2397  0.0067
 1913SOL    HW117372   3.653   0.412  11.335  0.8580  1.6916  1.3122
 1913SOL    HW217373   3.799   0.420  11.337  1.3668  0.9266 -1.9292
 1914SOL     OW17374   2.062   0.712  16.912 -0.2395  0.0871 -0.2186
 1914SOL    HW117375   1.979   0.674  16.942  0.7120 -1.3290  0.6555
 1914SOL    HW217376   2.097   0.755  16.991 -0.2333  1.1048 -0.7748
 1915SOL     OW17377   0.773   1.528   7.086  0.0800 -0.4017  0.3133
 1915SOL    HW117378   0.709   1.596   7.107 -0.6973 -0.4925 -1.8002
 1915SOL    HW217379   0.790   1.552   6.995  0.4865  1.1921  0.8192
 1916SOL     OW17380   2.783   0.707   7.865 -0.2355  0.8445 -0.3759
 1916SOL    HW117381   2.845   0.770   7.830  2.6715 -1.9409 -0.1739
 1916SOL    HW217382   2.847   0.671   7.926  0.5221 -1.1484 -2.3606
 1917SOL     OW17383   3.529   2.408  15.033 -0.7569 -0.4393 -0.0737
 1917SOL    HW117384   3.531   2.501  15.058 -0.3030 -0.8471  1.4272
 1917SOL    HW217385   3.464   2.405  14.963 -0.2572 -0.7223 -0.5201
 1918SOL     OW17386   4.730   0.678   5.176 -0.6449 -0.7091 -0.4956
 1918SOL    HW117387   0.042   0.668   5.256 -0.8991  3.1099  0.1315
 1918SOL    HW217388   4.645   0.641   5.201 -0.8400  1.4327  1.9909
 1919SOL     OW17389   2.509   2.156   1.623  0.3243  0.0344  0.2334
 1919SOL    HW117390   2.419   2.127   1.638 -0.8031  3.1488 -0.6896
 1919SOL    HW217391   2.509   2.230   1.563 -0.2556 -0.9532 -0.9898
 1920SOL     OW17392   0.035   0.678   6.046  0.0138  0.6614  0.3720
 1920SOL    HW117393   0.040   0.647   6.137  1.0611  0.5437  0.2781
 1920SOL    HW217394   4.685   0.712   6.038 -1.3452 -2.8155  0.4453
 1921SOL     OW17395   2.549   3.793   4.542 -0.6648  0.1382  0.5907
 1921SOL    HW117396   2.624   3.807   4.600 -0.7201  0.6991  0.5263
 1921SOL    HW217397   2.509   3.880   4.539  1.7158  1.1718 -0.9229
 1922SOL     OW17398   0.336   3.604   8.867 -0.6865 -0.7134  0.5133
 1922SOL    HW117399   0.425   3.569   8.863  0.0079  0.8763  1.9696
 1922SOL    HW217400   0.339   3.680   8.925  3.5052 -1.0261  0.6881
 1923SOL     OW17401   2.905   3.168   8.334  0.6389 -0.2312 -0.7025
 1923SOL    HW117402   2.973   3.103   8.351 -2.1141 -2.0812  3.0879
 1923SOL    HW217403   2.938   3.231   8.398 -1.1395  0.9355 -0.9612
 1924SOL     OW17404   1.822   1.111   3.436 -0.3523 -0.0890  0.0406
 1924SOL    HW117405   1.895   1.050   3.436  0.6248  1.0715  1.5395
 1924SOL    HW217406   1.797   1.118   3.344  2.5490 -0.3076 -0.7602
 1925SOL     OW17407   3.056   1.319   9.771 -0.5566 -0.9455 -0.3150
 1925SOL    HW117408   3.106   1.243   9.741 -1.1568 -1.3253 -0.3597
 1925SOL    HW217409   3.126   1.367   9.814 -0.9491  1.6075 -2.5303
 1926SOL     OW17410   1.032   1.769   2.549  0.5270  0.5923 -0.1003
 1926SOL    HW117411   1.079   1.686   2.550  1.6270  1.2298  0.6766
 1926SOL    HW217412   1.093   1.822   2.601  1.0235  0.0504 -0.1336
 1927SOL     OW17413   3.553   3.829   7.745  0.6610  0.1028  0.0924
 1927SOL    HW117414   3.489   3.797   7.682 -0.1856 -0.1924  1.1030
 1927SOL    HW217415   3.506   3.804   7.824 -3.6372  1.5371 -2.0228
 1928SOL     OW17416   3.175   3.172   2.627  0.6447 -0.1120  0.3648
 1928SOL    HW117417   3.126   3.176   2.544  1.8540 -0.0288 -0.3399
 1928SOL    HW217418   3.102   3.149   2.685  0.1411 -1.4147 -0.7815
 1929SOL     OW17419   1.766   3.465   5.528 -0.0077 -0.3707  0.5414
 1929SOL    HW117420   1.722   3.550   5.529 -1.2567 -0.9822 -1.2617
 1929SOL    HW217421   1.842   3.471   5.470 -1.6536 -0.1016 -1.5886
 1930SOL     OW17422   0.801   3.260  14.694  0.7889  0.3203  0.1820
 1930SOL    HW117423   0.866   3.226  14.755 -1.1063 -2.6999  0.5009
 1930SOL    HW217424   0.840   3.346  14.676 -0.0662  1.1712  2.3512
 1931SOL     OW17425   0.277   2.169   9.947  0.6527  0.1866  0.3829
 1931SOL    HW117426   0.361   2.124   9.951  0.2135 -0.5097  1.8618
 1931SOL    HW217427   0.253   2.191  10.037  2.4325  0.1903  0.8498
 1932SOL     OW17428   0.487   0.235  10.258  0.5715 -0.2070 -0.0753
 1932SOL    HW117429   0.523   0.168  10.201 -1.4198 -1.2813 -0.0863
 1932SOL    HW217430   0.458   0.190  10.337 -1.8531  2.5177  0.5815
 1933SOL     OW17431   3.582   3.087  11.011  0.3284 -0.6009 -0.5785
 1933SOL    HW117432   3.592   3.140  11.090 -1.1895 -0.4311 -0.5003
 1933SOL    HW217433   3.536   3.142  10.947  1.3541  1.6365  0.5948
 1934SOL     OW17434   2.780   3.806   2.586  0.1398  0.1451  0.0989
 1934SOL    HW117435   2.870   3.779   2.569 -0.6766 -1.7731 -1.0635
 1934SOL    HW217436   2.788   3.902   2.587  2.5171 -0.0014 -2.6853
 1935SOL     OW17437   1.901   0.896  14.783  0.0830 -0.7913 -0.3334
 1935SOL    HW117438   1.929   0.898  14.874  1.1356  0.2962 -0.6734
 1935SOL    HW217439   1.918   0.803  14.769 -0.5173 -0.7855 -1.1451
 1936SOL     OW17440   3.650   1.620  11.360  0.1802 -0.4397 -0.1217
 1936SOL    HW117441   3.685   1.532  11.372 -2.7616 -1.2089  3.1267
 1936SOL    HW217442   3.730   1.672  11.364  0.0963 -0.1542 -2.3499
 1937SOL     OW17443   1.502   4.118  14.279 -0.1168 -0.2156  0.0951
 1937SOL    HW117444   1.508   4.124  14.184 -0.7313  1.1358  0.1312
 1937SOL    HW217445   1.514   4.211  14.301 -0.8525  0.3702 -1.9081
 1938SOL     OW17446   2.629   3.111   0.733 -0.0676  0.3775 -0.1526
 1938SOL    HW117447   2.724   3.114   0.729 -0.0193 -0.1106  0.5775
 1938SOL    HW217448   2.613   3.194   0.689  0.2525  0.1991 -0.6005
 1939SOL     OW17449   1.126   4.103   2.397  0.2716  0.2915 -0.2874
 1939SOL    HW117450   1.206   4.132   2.353  0.8481 -1.2208 -0.2390
 1939SOL    HW217451   1.139   4.150   2.479 -0.7102  1.0491 -0.5595
 1940SOL     OW17452   2.280   3.130  10.178  0.2542  0.1472  0.6173
 1940SOL    HW117453   2.282   3.081  10.260  2.9562 -0.3619  0.2542
 1940SOL    HW217454   2.250   3.216  10.206  0.1634 -1.2214  4.6603
 1941SOL     OW17455   4.387   1.518  12.057 -0.1565 -0.2174  0.4015
 1941SOL    HW117456   4.399   1.583  12.127  0.5428  1.4386 -1.2558
 1941SOL    HW217457   4.439   1.564  11.991  0.2877 -0.5563  0.5166
 1942SOL     OW17458   1.677   0.622   8.486  0.0821  0.2032 -0.0254
 1942SOL    HW117459   1.629   0.669   8.418 -0.3728 -1.7539 -1.0488
 1942SOL    HW217460   1.765   0.636   8.451 -0.0519 -1.3175 -0.9562
 1943SOL     OW17461   1.879   0.748   3.221 -0.2517 -0.2317  0.4784
 1943SOL    HW117462   1.918   0.793   3.296  1.2430 -1.0933  0.2086
 1943SOL    HW217463   1.786   0.749   3.245 -0.1209 -1.6467  1.0201
 1944SOL     OW17464   4.214   1.268   0.158 -0.4601 -0.4668 -0.3330
 1944SOL    HW117465   4.185   1.257   0.249  0.1585 -1.6228 -0.2706
 1944SOL    HW217466   4.221   1.176   0.132  4.4060 -0.0353 -0.6197
 1945SOL     OW17467   2.543   3.658   4.893  0.4781  0.0967 -0.0883
 1945SOL    HW117468   2.621   3.601   4.887 -0.2623 -1.1183  1.5481
 1945SOL    HW217469   2.476   3.592   4.876  0.5363 -0.4064  1.5471
 1946SOL     OW17470   4.639   4.098   5.000  0.2543 -0.2786  0.1217
 1946SOL    HW117471   4.636   4.162   5.071  0.5286  0.7404 -0.7780
 1946SOL    HW217472   4.667   4.157   4.930  0.4170  1.1485  1.3987
 1947SOL     OW17473   1.946   3.808   8.236  0.0643  0.0425 -0.8953
 1947SOL    HW117474   2.033   3.842   8.256 -0.7135  1.1978  0.4860
 1947SOL    HW217475   1.953   3.753   8.157 -3.3545  1.2197 -2.0551
 1948SOL     OW17476   1.324   1.572  14.775  0.0555 -0.1963 -0.0781
 1948SOL    HW117477   1.313   1.591  14.682  0.9476 -2.4659 -0.6507
 1948SOL    HW217478   1.406   1.620  14.792 -0.2976  0.0425  0.9836
 1949SOL     OW17479   2.867   2.952   6.604  0.0034  0.0974  0.4024
 1949SOL    HW117480   2.797   2.947   6.540 -1.9052 -1.2476  2.5995
 1949SOL    HW217481   2.916   2.877   6.570  1.0186  0.9465 -0.0273
 1950SOL     OW17482   0.712   1.318   6.328  0.1505 -0.1844  0.3999
 1950SOL    HW117483   0.726   1.408   6.300 -0.1148 -0.6398 -1.1586
 1950SOL    HW217484   0.785   1.268   6.291 -0.5356 -2.1218  1.6587
 1951SOL     OW17485   0.181   1.762   4.296  0.4050 -0.1635 -0.1367
 1951SOL    HW117486   0.109   1.734   4.354 -0.4825 -2.3889 -2.3083
 1951SOL    HW217487   0.230   1.813   4.361 -2.1936 -0.5762  2.1555
 1952SOL     OW17488   1.682   3.398   3.922 -0.2959  0.1435  0.8535
 1952SOL    HW117489   1.698   3.399   4.017  0.3003 -0.7176  0.7668
 1952SOL    HW217490   1.587   3.395   3.922 -0.1990 -2.2072 -0.8006
 1953SOL     OW17491   4.679   4.540   8.657  0.4961 -0.1291  0.3883
 1953SOL    HW117492   4.659   4.577   8.571 -1.4125  2.3556  1.9158
 1953SOL    HW217493   0.025   4.579   8.679  0.0293  1.4406 -0.6348
 1954SOL     OW17494   0.836   0.340   6.896 -0.0103  0.0079 -0.5780
 1954SOL    HW117495   0.927   0.340   6.926 -0.2823  0.5422  0.2485
 1954SOL    HW217496   0.841   0.394   6.818 -1.5329  1.6775  0.4687
 1955SOL     OW17497   3.886   4.267   9.713 -0.1400  0.1511 -0.2886
 1955SOL    HW117498   3.925   4.219   9.640 -2.3770 -0.7769 -0.8729
 1955SOL    HW217499   3.802   4.288   9.673  0.1063  2.2274  0.2358
 1956SOL     OW17500   2.664   0.337   4.472  0.3678 -0.0287 -0.4776
 1956SOL    HW117501   2.619   0.418   4.496  0.7304  0.4735 -1.4988
 1956SOL    HW217502   2.695   0.360   4.385 -0.8405  0.0560 -0.8870
 1957SOL     OW17503   2.285   2.017   3.676 -0.6776 -0.2686  0.1920
 1957SOL    HW117504   2.350   1.962   3.720 -1.3293 -0.5237  0.8337
 1957SOL    HW217505   2.334   2.099   3.684  0.2456 -0.8310  0.3304
 1958SOL     OW17506   0.661   1.448   1.460 -0.1228 -0.4280  0.1403
 1958SOL    HW117507   0.589   1.507   1.483 -0.6708 -0.1578 -2.2310
 1958SOL    HW217508   0.656   1.456   1.365 -0.2339 -2.2248 -0.0053
 1959SOL     OW17509   0.219   3.867   6.900  0.4800  0.5540  0.0130
 1959SOL    HW117510   0.256   3.888   6.814  0.1318 -1.3422 -0.5864
 1959SOL    HW217511   0.126   3.862   6.880  0.7128  0.0326 -0.9375
 1960SOL     OW17512   3.182   1.324   7.960  0.1402  0.1974  0.2981
 1960SOL    HW117513   3.115   1.258   7.975  0.1659  0.0891 -0.0582
 1960SOL    HW217514   3.161   1.402   8.011 -0.9295 -0.9765  1.6356
 1961SOL     OW17515   4.444   3.731   6.535 -0.6936  0.1649  0.1573
 1961SOL    HW117516   4.405   3.799   6.480 -0.2732 -0.0266 -0.3761
 1961SOL    HW217517   4.412   3.750   6.623  2.0398  2.5810  0.6283
 1962SOL     OW17518   2.853   4.284  15.577  0.2623  0.3530 -0.4511
 1962SOL    HW117519   2.766   4.247  15.562  0.8082  0.1612 -3.0229
 1962SOL    HW217520   2.890   4.271  15.490  0.8988  2.4298 -0.4994
 1963SOL     OW17521   2.632   3.615   6.873 -0.2839 -0.3981 -0.1005
 1963SOL    HW117522   2.647   3.676   6.801  1.4255 -1.1092 -0.3374
 1963SOL    HW217523   2.698   3.549   6.855  2.2048  2.3620 -1.1138
 1964SOL     OW17524   4.166   4.650   7.129  0.5933 -0.0309  0.1016
 1964SOL    HW117525   4.224   4.714   7.089  0.1920  0.4080  0.2199
 1964SOL    HW217526   4.104   4.708   7.174  0.3647 -0.3800  0.2342
 1965SOL     OW17527   4.507   2.684   3.034  0.0795 -0.1182  0.2102
 1965SOL    HW117528   4.498   2.643   3.121 -1.4009 -3.5797 -1.5513
 1965SOL    HW217529   4.515   2.777   3.055  2.5057  0.3933 -3.0156
 1966SOL     OW17530   0.424   2.148   1.111 -0.1921 -0.0543 -0.2850
 1966SOL    HW117531   0.430   2.242   1.126 -0.6579 -0.2956  1.4419
 1966SOL    HW217532   0.337   2.128   1.147  0.6087  1.0297  2.2228
 1967SOL     OW17533   0.535   3.974   2.702 -0.3596  0.2993  0.1012
 1967SOL    HW117534   0.550   3.888   2.661 -1.2032  0.8333 -1.3537
 1967SOL    HW217535   0.602   3.977   2.770 -0.6810  1.9396  0.3463
 1968SOL     OW17536   4.313   4.245  16.838 -0.4743 -0.2401  0.2176
 1968SOL    HW117537   4.310   4.165  16.891 -0.0581 -0.0094  0.5830
 1968SOL    HW217538   4.280   4.196  16.762  1.2452  1.3079 -1.5307
 1969SOL     OW17539   0.867   4.494   9.058  0.0717  0.8039 -0.1698
 1969SOL    HW117540   0.842   4.403   9.072  1.4476  0.2582 -1.3276
 1969SOL    HW217541   0.792   4.539   9.018  0.0618  2.1715  1.3793
 1970SOL     OW17542   0.532   4.470  15.512 -0.2357 -0.2337  1.2129
 1970SOL    HW117543   0.444   4.467  15.474 -0.0300  0.8957  0.6661
 1970SOL    HW217544   0.518   4.514  15.595  0.9831 -0.7545  1.7010
 1971SOL     OW17545   2.820   2.885   2.834  0.4394 -0.4291 -0.0107
 1971SOL    HW117546   2.799   2.798   2.867 -1.5782 -0.0301 -0.2886
 1971SOL    HW217547   2.737   2.927   2.854  0.1648 -1.3745  0.8802
 1972SOL     OW17548   0.424   0.482  12.092  0.2694  0.4324 -0.1375
 1972SOL    HW117549   0.336   0.503  12.059 -1.0312  0.6994  3.5529
 1972SOL    HW217550   0.435   0.392  12.062 -1.0862  0.0539  0.5109
 1973SOL     OW17551   1.477   1.897   3.454 -0.5383  0.4663  0.1117
 1973SOL    HW117552   1.386   1.876   3.476 -0.4132  2.2686  2.3985
 1973SOL    HW217553   1.463   1.935   3.367  0.4035  0.4211 -0.0614
 1974SOL     OW17554   2.728   1.059   2.560 -0.4622 -0.0097  0.0573
 1974SOL    HW117555   2.711   0.968   2.533  1.9183 -0.9437  1.6844
 1974SOL    HW217556   2.675   1.104   2.495  1.2788 -0.2988 -1.5206
 1975SOL     OW17557   1.873   3.994   2.851  0.0271  0.1178 -1.0325
 1975SOL    HW117558   1.850   3.919   2.906  1.3026  1.4317  1.3047
 1975SOL    HW217559   1.810   4.063   2.872  0.3945  0.4616 -1.0487
 1976SOL     OW17560   1.027   4.120  17.560  0.0752 -0.3436 -0.2666
 1976SOL    HW117561   1.040   4.172  17.481  0.3468  1.9259  1.2617
 1976SOL    HW217562   1.111   4.145  17.597 -0.6713  0.2933  0.9909
 1977SOL     OW17563   2.502   2.810  17.460  0.2868 -0.6368  0.1139
 1977SOL    HW117564   2.579   2.757  17.479 -0.5026 -1.4334  1.0961
 1977SOL    HW217565   2.524   2.882  17.519  0.9048 -1.2335  0.6087
 1978SOL     OW17566   1.207   4.342   1.163 -0.2807  0.0082  0.2484
 1978SOL    HW117567   1.225   4.250   1.181  0.0014  0.5555  2.7816
 1978SOL    HW217568   1.191   4.343   1.069  0.5134 -1.3763  0.0873
 1979SOL     OW17569   2.887   2.429   2.773 -0.0885 -0.0682 -0.7363
 1979SOL    HW117570   2.939   2.349   2.774 -0.0534 -0.0060  2.6282
 1979SOL    HW217571   2.824   2.411   2.703 -0.8204 -0.2391 -0.0269
 1980SOL     OW17572   0.371   3.962  12.406  0.0635 -0.3201 -0.3779
 1980SOL    HW117573   0.463   3.947  12.427  0.7805  1.5147 -2.1393
 1980SOL    HW217574   0.365   3.941  12.313 -0.6169  0.0762 -0.4262
 1981SOL     OW17575   3.987   4.252   7.219 -0.1813  0.0995  0.1206
 1981SOL    HW117576   4.077   4.235   7.245  0.7922  0.1470 -3.1793
 1981SOL    HW217577   3.970   4.329   7.273 -0.0674 -0.3823  0.8435
 1982SOL     OW17578   0.967   4.200  10.537 -0.8228  0.0156 -0.8045
 1982SOL    HW117579   0.987   4.122  10.485  1.6258  0.0832  0.0104
 1982SOL    HW217580   0.897   4.166  10.593 -0.6061  0.3545 -0.3295
 1983SOL     OW17581   3.303   4.630   5.456  0.1462 -0.0820  0.3597
 1983SOL    HW117582   3.298   4.703   5.394 -0.6343  0.3969  0.9941
 1983SOL    HW217583   3.235   4.572   5.422  1.7283 -0.6944 -1.7701
 1984SOL     OW17584   3.413   1.815   5.144 -0.2977 -0.9802 -0.1244
 1984SOL    HW117585   3.362   1.744   5.106 -1.3845  0.2906 -1.0530
 1984SOL    HW217586   3.349   1.874   5.184 -0.2334 -0.3328 -0.9713
 1985SOL     OW17587   1.302   2.263   3.097  0.1149  0.2985  0.5945
 1985SOL    HW117588   1.266   2.332   3.041  1.8289 -0.0183 -0.8931
 1985SOL    HW217589   1.326   2.309   3.178 -1.2545 -1.0859  1.7812
 1986SOL     OW17590   1.631   3.166   6.493 -0.0409  0.3163 -0.6644
 1986SOL    HW117591   1.686   3.192   6.567  0.3151  0.1659 -0.8818
 1986SOL    HW217592   1.668   3.082   6.466 -1.5477  0.3327 -2.7462
 1987SOL     OW17593   2.708   0.934   6.969  0.3735  0.3038  0.0044
 1987SOL    HW117594   2.723   0.989   7.045 -1.8006  3.0965 -1.5677
 1987SOL    HW217595   2.691   0.849   7.010 -1.8397 -0.2044 -1.9561
 1988SOL     OW17596   3.129   2.166  12.312  0.0094 -0.3614 -0.6477
 1988SOL    HW117597   3.127   2.218  12.231 -1.5890  0.9419  0.2226
 1988SOL    HW217598   3.188   2.095  12.288 -0.2318  0.1392 -2.7823
 1989SOL     OW17599   2.028   3.786   9.014  0.0018  0.4232 -0.1987
 1989SOL    HW117600   1.962   3.722   8.987 -0.2748  0.3856  0.5427
 1989SOL    HW217601   2.083   3.812   8.941 -0.1292 -1.4261 -0.9580
 1990SOL     OW17602   2.400   3.642   1.329 -0.1968 -0.6565 -0.4685
 1990SOL    HW117603   2.311   3.660   1.299 -0.2769 -0.6351 -0.2145
 1990SOL    HW217604   2.381   3.572   1.391  0.0961  0.5176  0.9652
 1991SOL     OW17605   0.353   4.397   5.453  0.4860 -0.0429 -0.2120
 1991SOL    HW117606   0.387   4.309   5.435  2.7226  0.7178  0.3109
 1991SOL    HW217607   0.280   4.380   5.513  1.7057  2.8497  2.0898
 1992SOL     OW17608   2.891   2.996   9.363  0.4569  0.5841  0.1019
 1992SOL    HW117609   2.912   2.942   9.286  2.4811  0.3842  0.7873
 1992SOL    HW217610   2.830   2.940   9.411  2.6051 -1.6143  0.2809
 1993SOL     OW17611   2.978   3.788   7.945  0.1943  0.8165  0.4943
 1993SOL    HW117612   3.038   3.862   7.940 -0.6226  1.3229 -1.7622
 1993SOL    HW217613   2.999   3.748   7.861 -3.2060 -0.3064  0.1722
 1994SOL     OW17614   3.611   0.668  10.907 -0.2973  0.2444  0.0386
 1994SOL    HW117615   3.532   0.647  10.957  0.0291 -1.8580 -0.3510
 1994SOL    HW217616   3.577   0.709  10.827 -1.3196 -1.5433 -0.4380
 1995SOL     OW17617   2.609   2.211  17.660 -0.1561 -0.5730 -0.4397
 1995SOL    HW117618   2.574   2.293  17.627  2.2431  0.2642 -0.9597
 1995SOL    HW217619   2.556   2.195  17.738  0.8148 -0.4008  0.2654
 1996SOL     OW17620   3.936   3.478   5.853  0.2388 -0.2824  0.7121
 1996SOL    HW117621   4.017   3.522   5.879  0.7670 -2.4847  2.6966
 1996SOL    HW217622   3.957   3.441   5.767 -0.5113  0.7517  0.0762
 1997SOL     OW17623   4.239   0.898   1.715 -0.1997  0.1598  0.1403
 1997SOL    HW117624   4.163   0.956   1.707 -1.3435 -1.3574  0.0480
 1997SOL    HW217625   4.264   0.906   1.808 -1.2911 -0.4060  0.4829
 1998SOL     OW17626   4.376   3.162   7.697  0.6856  0.1362  0.1223
 1998SOL    HW117627   4.323   3.232   7.658  0.6463  0.6263  1.0588
 1998SOL    HW217628   4.335   3.091   7.648 -1.6861  1.0679  0.7681
 1999SOL     OW17629   2.474   1.478   1.362  0.0182  0.2764 -0.0092
 1999SOL    HW117630   2.459   1.564   1.324  1.2600  0.0424 -1.0133
 1999SOL    HW217631   2.501   1.498   1.452  2.5729  1.1390 -0.9927
 2000SOL     OW17632   3.604   0.415   8.240 -0.4021  0.3888 -0.1286
 2000SOL    HW117633   3.628   0.438   8.150  0.8914 -1.1233 -0.1866
 2000SOL    HW217634   3.656   0.335   8.249 -1.3549  0.3162  4.4947
 2001SOL     OW17635   4.148   0.881  17.667 -0.5169  0.1707  0.0657
 2001SOL    HW117636   4.110   0.967  17.683  0.3688  0.5218  0.2857
 2001SOL    HW217637   4.238   0.882  17.701 -1.2204 -0.4649  1.9419
 2002SOL     OW17638   1.392   1.504   5.903  0.4530 -0.1008  0.4299
 2002SOL    HW117639   1.466   1.485   5.846 -0.9384  0.7679 -1.6745
 2002SOL    HW217640   1.373   1.592   5.870  4.2765  0.8728  0.8148
 2003SOL     OW17641   0.559   4.258  11.841  0.1746  0.1375  0.0388
 2003SOL    HW117642   0.631   4.243  11.781 -0.4300 -0.1066 -0.6164
 2003SOL    HW217643   0.510   4.331  11.803  1.0169  0.4884 -0.3623
 2004SOL     OW17644   3.605   0.727  12.438 -0.2668  0.4648 -0.1375
 2004SOL    HW117645   3.531   0.786  12.451 -0.5579  0.2952 -0.9926
 2004SOL    HW217646   3.639   0.719  12.527 -0.3460 -3.4856 -0.5036
 2005SOL     OW17647   3.154   2.261  12.558  0.3745  0.2420 -0.1714
 2005SOL    HW117648   3.092   2.327  12.528 -0.3942 -0.7313 -0.6824
 2005SOL    HW217649   3.169   2.226  12.471 -1.8041 -0.6670 -0.1737
 2006SOL     OW17650   3.082   4.493   9.137 -0.0778  0.3470 -0.2189
 2006SOL    HW117651   3.097   4.541   9.218  2.8862  2.3291 -1.9024
 2006SOL    HW217652   3.071   4.400   9.152 -3.7780  0.6753 -1.0259
 2007SOL     OW17653   2.433   0.894  12.523  0.3578  0.7439 -0.0330
 2007SOL    HW117654   2.381   0.858  12.595  0.4836  1.3184  0.3405
 2007SOL    HW217655   2.365   0.943  12.475  0.6016  1.3272  0.2168
 2008SOL     OW17656   4.087   3.159  11.900  0.0175 -0.6835 -0.0939
 2008SOL    HW117657   4.105   3.225  11.967  0.5523  1.2080 -2.0895
 2008SOL    HW217658   4.042   3.212  11.834 -0.2805  0.3570  0.9641
 2009SOL     OW17659   2.030   2.310   5.340 -0.6956  0.0734  0.0876
 2009SOL    HW117660   1.938   2.288   5.354 -1.0451  0.3890 -1.7959
 2009SOL    HW217661   2.074   2.262   5.410  1.3042 -0.7311 -1.7240
 2010SOL     OW17662   1.233   0.243   4.474 -0.2699  0.6182  0.5530
 2010SOL    HW117663   1.224   0.270   4.565 -1.5380  0.1228  0.5757
 2010SOL    HW217664   1.180   0.163   4.471 -0.5289  0.8216 -0.4920
 2011SOL     OW17665   3.485   1.926  12.853  1.0207  0.1558 -0.4630
 2011SOL    HW117666   3.495   1.894  12.943 -2.2032 -2.8010 -1.1494
 2011SOL    HW217667   3.520   2.015  12.859 -0.3731  0.5023  2.6090
 2012SOL     OW17668   3.874   0.685   3.100 -0.3737  0.2933  0.0658
 2012SOL    HW117669   3.898   0.739   3.176  0.2402 -1.0296  0.8120
 2012SOL    HW217670   3.957   0.680   3.052  0.3357 -0.0568  1.3186
 2013SOL     OW17671   0.237   2.106   9.196 -0.2033 -0.4868  0.6666
 2013SOL    HW117672   0.176   2.055   9.248 -1.6019  0.4575 -0.0445
 2013SOL    HW217673   0.183   2.162   9.141  0.3668  2.3982  3.0821
 2014SOL     OW17674   1.660   3.952   9.694  0.3050 -0.4838  0.3317
 2014SOL    HW117675   1.623   3.975   9.779 -0.2071  2.3003 -0.6500
 2014SOL    HW217676   1.720   4.026   9.691 -1.5008  1.0912  2.7866
 2015SOL     OW17677   1.008   4.065   2.156 -0.1227 -0.0758 -0.1535
 2015SOL    HW117678   1.044   3.977   2.159 -0.9976 -0.4133  0.4126
 2015SOL    HW217679   1.009   4.084   2.250  1.6873  3.0553 -0.7855
 2016SOL     OW17680   1.863   0.299   1.478  0.0558 -0.2519  0.3497
 2016SOL    HW117681   1.786   0.290   1.534 -0.6271 -0.0222 -0.5496
 2016SOL    HW217682   1.927   0.334   1.540  1.0252 -1.6278  0.1306
 2017SOL     OW17683   4.123   1.169   4.453 -0.2081  0.5910  0.0555
 2017SOL    HW117684   4.128   1.116   4.374  0.6562  0.8265 -0.0477
 2017SOL    HW217685   4.148   1.109   4.524  0.1163  0.1041 -0.4765
 2018SOL     OW17686   2.477   1.886   2.843  0.1316  0.6457 -0.3383
 2018SOL    HW117687   2.433   1.971   2.850 -0.6594  0.3639 -1.9220
 2018SOL    HW217688   2.564   1.917   2.816 -0.6167  0.3866 -3.0227
 2019SOL     OW17689   0.098   2.642   4.372  0.1153 -0.2641 -0.5990
 2019SOL    HW117690   0.144   2.559   4.360 -1.7026 -1.1929 -1.1697
 2019SOL    HW217691   0.088   2.676   4.283 -0.1963  0.7976 -0.1617
 2020SOL     OW17692   1.806   3.636   3.329  0.4165  0.4105  0.0729
 2020SOL    HW117693   1.754   3.583   3.390  1.9917  0.0903  1.1332
 2020SOL    HW217694   1.814   3.707   3.393  0.3317 -0.3649  0.9423
 2021SOL     OW17695   4.132   3.782   4.021  0.1846  0.2455  0.0972
 2021SOL    HW117696   4.118   3.836   4.100  0.7848  1.4631 -0.6256
 2021SOL    HW217697   4.074   3.828   3.960 -0.4689 -1.8516 -0.8659
 2022SOL     OW17698   0.139   3.558  10.698 -0.2776  0.0789  0.0970
 2022SOL    HW117699   0.172   3.517  10.617  1.4574 -1.4250  1.5578
 2022SOL    HW217700   0.052   3.580  10.665 -0.4062 -1.3241 -0.5126
 2023SOL     OW17701   2.826   0.819   4.371  0.1780 -0.4290 -0.2334
 2023SOL    HW117702   2.836   0.836   4.465 -0.2565  0.2561 -0.3160
 2023SOL    HW217703   2.890   0.748   4.360  0.8814 -0.0622  1.3765
 2024SOL     OW17704   1.482   2.043   5.563  0.4325  0.5043 -0.0736
 2024SOL    HW117705   1.405   2.072   5.612 -0.3816 -0.5962 -0.7039
 2024SOL    HW217706   1.441   1.972   5.514 -0.5646  0.7692  0.3786
 2025SOL     OW17707   2.489   3.362   2.323  0.1497 -0.0329 -0.3738
 2025SOL    HW117708   2.437   3.410   2.387 -1.0599 -0.1132 -1.3039
 2025SOL    HW217709   2.572   3.406   2.344  0.7944  0.4478 -4.0112
 2026SOL     OW17710   1.971   4.288   7.195  0.3341 -0.1876  0.3942
 2026SOL    HW117711   2.018   4.351   7.140  0.3449 -0.8511 -0.3525
 2026SOL    HW217712   1.879   4.311   7.181  0.4761  0.5285  0.6131
 2027SOL     OW17713   2.244   4.637   8.211  0.2809 -0.3139  0.0045
 2027SOL    HW117714   2.149   4.630   8.205  0.2410  0.5668 -0.3853
 2027SOL    HW217715   2.265   4.619   8.119 -1.2126  1.5039 -0.6746
 2028SOL     OW17716   2.050   2.692   1.265  0.3022  0.0869 -0.1213
 2028SOL    HW117717   2.125   2.632   1.270 -0.0726 -0.1364  2.9221
 2028SOL    HW217718   2.078   2.754   1.198 -1.8331  3.1221  1.7784
 2029SOL     OW17719   3.350   4.489   6.642 -0.8025  0.8213  0.0317
 2029SOL    HW117720   3.430   4.438   6.632 -0.1560  1.6352  0.9796
 2029SOL    HW217721   3.351   4.530   6.729 -0.7979 -0.6044  0.6984
 2030SOL     OW17722   1.178   1.720   7.975  0.5480  0.1467 -0.8247
 2030SOL    HW117723   1.105   1.723   7.914  0.8325  1.3698 -1.0989
 2030SOL    HW217724   1.174   1.806   8.017  0.9298  0.4854 -1.4768
 2031SOL     OW17725   1.583   2.278   3.761 -0.0100 -0.0200  0.4101
 2031SOL    HW117726   1.507   2.220   3.768  0.6878 -1.1450 -1.4094
 2031SOL    HW217727   1.550   2.359   3.722  0.4112 -1.8677 -3.8027
 2032SOL     OW17728   4.178   2.273  13.626 -0.8598 -0.0044  0.9061
 2032SOL    HW117729   4.267   2.277  13.660 -0.0199  0.1390 -1.3602
 2032SOL    HW217730   4.179   2.356  13.580 -1.3496 -0.1910  0.5576
 2033SOL     OW17731   4.566   0.392   1.460 -0.1212 -0.2075  0.0319
 2033SOL    HW117732   4.505   0.325   1.431 -1.1073  0.7198 -0.0359
 2033SOL    HW217733   4.530   0.470   1.418  2.0081  1.3335  1.0157
 2034SOL     OW17734   1.464   3.387   8.876 -0.0357 -0.4979 -0.6214
 2034SOL    HW117735   1.427   3.451   8.814 -1.1721  0.4661  1.0488
 2034SOL    HW217736   1.455   3.437   8.957 -1.2148  0.7667 -1.5240
 2035SOL     OW17737   1.602   2.908  14.592 -0.3305 -0.0836 -0.3111
 2035SOL    HW117738   1.570   2.860  14.516 -0.5026  3.6269 -2.5762
 2035SOL    HW217739   1.676   2.962  14.562 -2.5558  2.3817 -1.3305
 2036SOL     OW17740   2.152   1.501   7.745 -0.2436 -0.5737 -0.2112
 2036SOL    HW117741   2.100   1.529   7.670 -1.1468 -1.7875 -0.0422
 2036SOL    HW217742   2.220   1.445   7.707  1.1103 -0.1687  1.6214
 2037SOL     OW17743   2.359   2.436   6.350  0.0800  0.4554 -0.5679
 2037SOL    HW117744   2.429   2.489   6.388  0.5724 -0.5477 -0.0959
 2037SOL    HW217745   2.291   2.442   6.416 -1.3014 -0.0343 -1.9421
 2038SOL     OW17746   4.223   0.315  12.996 -0.1426  0.4635  0.8509
 2038SOL    HW117747   4.230   0.288  13.088 -0.7080 -2.5387  0.0063
 2038SOL    HW217748   4.140   0.360  13.004 -0.6035  0.3876 -3.4637
 2039SOL     OW17749   3.050   1.207   1.486 -0.2274  0.0325 -0.2471
 2039SOL    HW117750   2.987   1.274   1.457 -0.7237  0.7284  2.4432
 2039SOL    HW217751   3.089   1.179   1.403 -1.6577  0.0549 -0.9288
 2040SOL     OW17752   4.325   3.547   7.195 -0.3132  0.3287  0.4079
 2040SOL    HW117753   4.404   3.598   7.214  0.1851 -0.8179  1.4035
 2040SOL    HW217754   4.294   3.593   7.117  0.7321  1.4312  0.6380
 2041SOL     OW17755   3.563   0.494   7.572  0.2361 -0.0446 -0.3259
 2041SOL    HW117756   3.627   0.444   7.622 -1.4899 -1.9849 -0.0859
 2041SOL    HW217757   3.612   0.576   7.575  0.1600  0.0548 -1.6876
 2042SOL     OW17758   1.850   0.014   0.229  0.2247 -0.1649  0.1266
 2042SOL    HW117759   1.776   4.691   0.234  0.9699 -1.0459  0.3083
 2042SOL    HW217760   1.813   0.100   0.208 -2.4434 -1.1155  0.8599
 2043SOL     OW17761   1.189   4.555   2.433  0.0205 -0.7100 -0.0427
 2043SOL    HW117762   1.140   4.636   2.446 -0.3372 -0.7846 -0.9066
 2043SOL    HW217763   1.259   4.566   2.498  0.2529  2.8953 -0.9260
 2044SOL     OW17764   4.473   2.648   9.933 -0.0234 -0.2682  0.6537
 2044SOL    HW117765   4.450   2.555   9.932  0.1884 -0.3303  1.3976
 2044SOL    HW217766   4.538   2.652   9.864  1.2764  0.8789  1.9610
 2045SOL     OW17767   3.535   2.140   8.711  0.5239  0.5019 -0.3619
 2045SOL    HW117768   3.503   2.110   8.796  0.9712  0.0587 -0.3486
 2045SOL    HW217769   3.464   2.191   8.673 -0.2753  0.2678  0.8386
 2046SOL     OW17770   4.477   2.791   8.918  0.3242 -0.2637  0.0464
 2046SOL    HW117771   4.414   2.728   8.954  1.8510 -2.6437 -1.4948
 2046SOL    HW217772   4.555   2.749   8.954 -0.6517 -0.5945  1.8033
 2047SOL     OW17773   2.885   0.546  11.007  0.2061 -0.3632 -0.1300
 2047SOL    HW117774   2.853   0.568  11.094 -0.5376  1.7277 -0.9275
 2047SOL    HW217775   2.811   0.553  10.947 -0.5754  2.4113  1.1667
 2048SOL     OW17776   2.982   1.250   1.777 -0.1537  0.2424  0.3736
 2048SOL    HW117777   2.998   1.300   1.697 -1.4167 -0.2250 -0.1738
 2048SOL    HW217778   3.016   1.297   1.853 -1.4112  1.0188  0.4621
 2049SOL     OW17779   1.248   3.422   5.476 -0.5020  0.1822 -0.1473
 2049SOL    HW117780   1.254   3.330   5.450  3.2141  0.3557 -0.0046
 2049SOL    HW217781   1.254   3.461   5.390  0.2969 -1.6539 -0.9347
 2050SOL     OW17782   1.123   4.183   7.229  0.5073 -0.3383 -0.1439
 2050SOL    HW117783   1.073   4.143   7.300 -0.3937  0.5673 -0.2665
 2050SOL    HW217784   1.054   4.223   7.176 -1.8161 -0.6140  2.6682
 2051SOL     OW17785   1.853   3.997   1.428 -0.5474  0.5571  0.0946
 2051SOL    HW117786   1.832   4.037   1.512  1.0180 -0.6127  1.0366
 2051SOL    HW217787   1.848   4.069   1.364 -0.1143 -0.2558 -0.8573
 2052SOL     OW17788   3.537   3.392   2.962 -0.1237 -0.2661  0.7568
 2052SOL    HW117789   3.516   3.367   3.052  0.6844 -0.0997  0.9939
 2052SOL    HW217790   3.563   3.305   2.932  2.5626  0.0341  2.1903
 2053SOL     OW17791   2.302   2.235  12.619  0.0187  0.0080  0.2446
 2053SOL    HW117792   2.267   2.146  12.612 -0.7694  0.0943  2.9789
 2053SOL    HW217793   2.269   2.263  12.534  1.2982 -0.2488 -0.3401
 2054SOL     OW17794   3.834   0.451  13.320  0.7610 -0.3246 -0.2358
 2054SOL    HW117795   3.769   0.520  13.306  0.9929  1.1372  5.7750
 2054SOL    HW217796   3.793   0.385  13.375 -0.1047  0.0773 -0.3971
 2055SOL     OW17797   3.605   1.543   6.992 -0.1920 -0.0915  0.3674
 2055SOL    HW117798   3.551   1.507   6.922 -1.0542 -1.7414  1.8758
 2055SOL    HW217799   3.554   1.504   7.063  0.0491 -0.9400  0.0725
 2056SOL     OW17800   2.137   0.656   6.895  0.6356  0.7251 -0.1161
 2056SOL    HW117801   2.046   0.681   6.883  0.0632 -0.2121  2.2025
 2056SOL    HW217802   2.145   0.580   6.837 -0.2825 -0.4187  1.2440
 2057SOL     OW17803   0.612   3.562   8.252 -0.2324  0.8693  0.0258
 2057SOL    HW117804   0.574   3.530   8.171 -0.4135  0.5710  0.2251
 2057SOL    HW217805   0.583   3.497   8.316 -1.1893  1.5851  0.3188
 2058SOL     OW17806   0.083   3.948   0.387  0.0333 -0.3249 -0.2379
 2058SOL    HW117807   0.091   3.865   0.434 -2.3321  0.0554  0.8290
 2058SOL    HW217808   0.011   3.937   0.325  0.1891 -2.3653 -0.0601
 2059SOL     OW17809   4.093   2.975   4.942 -0.0922  0.6758 -0.6510
 2059SOL    HW117810   4.104   3.042   5.009 -0.2192 -0.6397  0.6990
 2059SOL    HW217811   4.182   2.947   4.922 -1.0323 -1.7049 -1.5265
 2060SOL     OW17812   1.448   2.194   4.998  0.0074  0.3042  0.1106
 2060SOL    HW117813   1.443   2.190   5.094 -2.3573  0.2284 -0.0275
 2060SOL    HW217814   1.422   2.286   4.985 -2.5987 -0.6081 -1.0760
 2061SOL     OW17815   3.017   4.142   9.781  0.3770  0.4064 -0.1159
 2061SOL    HW117816   2.943   4.082   9.781  1.6876 -1.2293  0.1928
 2061SOL    HW217817   3.091   4.087   9.753  0.1498 -0.1695  0.4187
 2062SOL     OW17818   0.222   3.466  10.457 -0.2308  0.1022 -0.6419
 2062SOL    HW117819   0.305   3.420  10.466  0.1880  0.8808 -0.5300
 2062SOL    HW217820   0.239   3.546  10.408  1.7678  0.0012 -0.1236
 2063SOL     OW17821   4.615   4.186   9.304 -0.0052  0.3212 -0.4490
 2063SOL    HW117822   4.561   4.180   9.383 -0.3142  0.1204 -0.6733
 2063SOL    HW217823   4.700   4.169   9.344  0.2712  1.7051 -0.4592
 2064SOL     OW17824   1.497   3.464   7.604 -0.4919 -0.0083  0.7961
 2064SOL    HW117825   1.469   3.553   7.624 -1.2138 -0.0513  0.0106
 2064SOL    HW217826   1.590   3.475   7.588 -0.7404  0.3700 -0.4026
 2065SOL     OW17827   0.826   1.033   1.628  0.2207 -0.0857  0.2790
 2065SOL    HW117828   0.844   1.000   1.540  1.7576  3.7848 -0.8143
 2065SOL    HW217829   0.764   1.102   1.604  0.2708 -0.7046 -1.5792
 2066SOL     OW17830   4.198   1.234   2.228 -0.4053  0.0700 -0.5902
 2066SOL    HW117831   4.148   1.234   2.146  0.4443 -2.7165 -1.1315
 2066SOL    HW217832   4.178   1.321   2.263 -1.9243 -0.9519  1.1590
 2067SOL     OW17833   4.132   1.566   6.805  0.2578 -0.1840 -0.5292
 2067SOL    HW117834   4.163   1.478   6.824  1.8172  0.7654  1.2460
 2067SOL    HW217835   4.079   1.555   6.726 -0.0343 -0.9879 -0.2261
 2068SOL     OW17836   1.281   4.020   5.238  0.8026  0.1626  0.1161
 2068SOL    HW117837   1.217   4.039   5.307 -0.0988 -4.0310  0.4508
 2068SOL    HW217838   1.295   3.928   5.259  0.1995 -0.0312 -0.3202
 2069SOL     OW17839   1.372   3.610   4.287 -0.2778  0.4135 -0.0299
 2069SOL    HW117840   1.466   3.618   4.269 -0.2426 -1.4386 -0.6396
 2069SOL    HW217841   1.343   3.692   4.246 -1.2596  0.2468  0.3406
 2070SOL     OW17842   3.593   1.609  10.752 -0.4263 -0.3773 -0.1470
 2070SOL    HW117843   3.526   1.662  10.796 -0.6838 -0.3648 -0.5448
 2070SOL    HW217844   3.627   1.573  10.833 -0.8226 -2.2542 -0.8189
 2071SOL     OW17845   0.814   4.141   7.949  0.6904 -0.7547 -0.9277
 2071SOL    HW117846   0.787   4.125   8.040 -1.7504  2.8877 -0.9983
 2071SOL    HW217847   0.906   4.116   7.958  0.3508 -1.3286  1.0479
 2072SOL     OW17848   0.108   1.672   8.220 -0.3940  0.1531  0.4268
 2072SOL    HW117849   0.127   1.668   8.313 -1.2272 -2.3059  0.4968
 2072SOL    HW217850   0.146   1.758   8.203  0.1421  0.0864  1.3356
 2073SOL     OW17851   0.557   2.071   6.263 -0.7009  0.1233 -0.1621
 2073SOL    HW117852   0.530   1.980   6.270 -1.3404  0.2963 -0.3390
 2073SOL    HW217853   0.511   2.114   6.336 -0.4507 -0.7779  0.5196
 2074SOL     OW17854   4.683   0.932   3.416  0.6706  0.0248  0.3069
 2074SOL    HW117855   4.722   0.862   3.467 -0.4919 -0.4195  0.5919
 2074SOL    HW217856   4.604   0.956   3.464  0.7652  1.0306 -0.0339
 2075SOL     OW17857   0.545   4.527  16.910 -0.7770 -0.4674 -0.5400
 2075SOL    HW117858   0.562   4.615  16.942 -0.5687 -1.0491  0.9220
 2075SOL    HW217859   0.561   4.521  16.815 -0.4518  2.0584 -0.6248
 2076SOL     OW17860   2.923   2.103   0.302 -0.6820 -0.3357 -0.1767
 2076SOL    HW117861   2.963   2.016   0.308  0.6170  0.2176 -0.9042
 2076SOL    HW217862   2.999   2.161   0.309 -1.4741  0.3231  2.9108
 2077SOL     OW17863   1.306   2.776   5.528 -0.0217 -0.7284 -0.3090
 2077SOL    HW117864   1.355   2.733   5.597  0.4798  1.1575  0.5043
 2077SOL    HW217865   1.225   2.726   5.522  0.8557 -2.0374 -1.1445
 2078SOL     OW17866   2.461   3.541   8.922  0.1647  0.7808 -0.6958
 2078SOL    HW117867   2.551   3.527   8.892  0.7171  0.0289  1.3325
 2078SOL    HW217868   2.471   3.548   9.017 -2.3686  1.8708 -0.5189
 2079SOL     OW17869   3.128   1.610  13.120 -0.3108 -0.7109  0.8888
 2079SOL    HW117870   3.155   1.621  13.029 -1.0957  3.9152  1.1722
 2079SOL    HW217871   3.212   1.581  13.155 -0.0675 -1.2733 -0.1670
 2080SOL     OW17872   4.702   2.603   2.865 -0.4024  0.2564 -0.3886
 2080SOL    HW117873   4.707   2.680   2.810 -1.7497  0.7420  0.1690
 2080SOL    HW217874   4.646   2.647   2.929  1.6137  0.1382  1.4529
 2081SOL     OW17875   2.841   4.400   7.025 -0.2484  0.0359  0.3816
 2081SOL    HW117876   2.902   4.450   6.970  0.4585 -0.8662  0.3500
 2081SOL    HW217877   2.867   4.427   7.113  3.1973 -1.0065 -0.3355
 2082SOL     OW17878   3.888   1.826  17.299  0.2608 -0.0084  0.7906
 2082SOL    HW117879   3.842   1.742  17.286 -0.0218  0.2847 -0.0886
 2082SOL    HW217880   3.884   1.860  17.210  2.1175 -0.7812  0.4188
 2083SOL     OW17881   4.382   2.616   2.795 -0.5230 -0.0841 -0.1786
 2083SOL    HW117882   4.425   2.632   2.880 -2.9096  1.2334  0.7841
 2083SOL    HW217883   4.370   2.706   2.765 -2.1738 -0.2825 -0.1242
 2084SOL     OW17884   1.608   0.719   3.320 -0.0372 -0.0918 -0.6257
 2084SOL    HW117885   1.565   0.779   3.382 -2.0853  0.2764 -2.4242
 2084SOL    HW217886   1.538   0.658   3.297 -1.0420  1.0482 -0.6212
 2085SOL     OW17887   2.776   2.673   5.560 -0.3857 -0.1276  0.0102
 2085SOL    HW117888   2.684   2.691   5.581 -1.3647 -1.4955 -3.0855
 2085SOL    HW217889   2.832   2.714   5.626  1.9021 -0.7401 -1.5488
 2086SOL     OW17890   0.676   2.516   2.750  0.0957 -0.0139  0.6373
 2086SOL    HW117891   0.685   2.428   2.784 -0.6086 -0.1063  0.5972
 2086SOL    HW217892   0.761   2.522   2.706  0.3277 -1.1124  0.9475
 2087SOL     OW17893   4.695   4.525   0.127  0.0367 -0.2609  0.0392
 2087SOL    HW117894   0.026   4.562   0.072 -1.4514  1.7970 -0.4257
 2087SOL    HW217895   4.731   4.436   0.137  0.2737 -0.5388 -3.2810
 2088SOL     OW17896   3.001   3.702   7.216  0.3965  0.2281  0.5154
 2088SOL    HW117897   3.025   3.618   7.177  0.1955  1.5709 -2.5360
 2088SOL    HW217898   2.979   3.754   7.138 -3.7870 -0.6185  1.1175
 2089SOL     OW17899   1.970   3.505   5.376  0.0874  0.0380  0.4554
 2089SOL    HW117900   1.943   3.597   5.383 -0.4061 -0.0242 -0.6946
 2089SOL    HW217901   2.023   3.506   5.296 -1.0673  2.7760 -0.2763
 2090SOL     OW17902   4.162   2.098   2.054 -0.3166 -0.3572 -0.4772
 2090SOL    HW117903   4.187   2.007   2.045  1.8199  0.3511 -1.6895
 2090SOL    HW217904   4.070   2.096   2.027 -1.1871  0.2163  2.4036
 2091SOL     OW17905   3.942   1.771  11.375  0.5379  0.2580  0.0439
 2091SOL    HW117906   3.958   1.802  11.464  0.4649 -0.6298  0.3673
 2091SOL    HW217907   4.014   1.813  11.328  1.7039 -1.5789  0.1935
 2092SOL     OW17908   1.846   1.390   7.915  0.2102 -0.3200  0.2340
 2092SOL    HW117909   1.757   1.370   7.885  0.1877  1.5343 -0.9665
 2092SOL    HW217910   1.894   1.395   7.833  1.9133  1.9084  1.3495
 2093SOL     OW17911   4.375   4.258   6.433 -0.2521 -0.1516 -0.2491
 2093SOL    HW117912   4.385   4.300   6.348  1.6539 -1.1226 -0.5098
 2093SOL    HW217913   4.453   4.290   6.478 -1.1010  3.2351 -1.1795
 2094SOL     OW17914   3.270   3.448   1.727  0.2421  0.2776 -0.2659
 2094SOL    HW117915   3.198   3.505   1.753 -0.7585 -0.4820 -1.3811
 2094SOL    HW217916   3.221   3.380   1.680  1.7509  0.5822 -2.2507
 2095SOL     OW17917   3.654   2.326   6.473  0.0010  0.5189  0.1815
 2095SOL    HW117918   3.704   2.251   6.505 -0.9639  0.2674  1.1215
 2095SOL    HW217919   3.595   2.339   6.548 -1.6334  2.0328 -1.3766
 2096SOL     OW17920   1.463   1.409  10.770  0.4107 -0.3177  0.2261
 2096SOL    HW117921   1.547   1.441  10.804 -0.5014 -0.8879  2.9857
 2096SOL    HW217922   1.406   1.426  10.845 -0.6832 -0.7173 -0.5089
 2097SOL     OW17923   2.480   1.276   6.633 -0.5350 -1.2303 -0.1676
 2097SOL    HW117924   2.558   1.330   6.628 -0.9519 -0.6733 -0.6823
 2097SOL    HW217925   2.493   1.218   6.709  0.4753  0.5486  0.9949
 2098SOL     OW17926   1.403   0.352   8.519  0.6142  0.2689 -0.1464
 2098SOL    HW117927   1.348   0.356   8.441  1.7488 -2.3343 -1.0730
 2098SOL    HW217928   1.336   0.324   8.582  0.3080 -0.3684 -0.7602
 2099SOL     OW17929   3.558   1.358  15.415 -0.5582  0.0893  0.0095
 2099SOL    HW117930   3.492   1.290  15.431 -1.4063  0.7740 -0.5150
 2099SOL    HW217931   3.616   1.351  15.490 -0.7691  0.3980  0.1972
 2100SOL     OW17932   1.664   1.507   4.463 -0.3117 -0.2243 -0.1980
 2100SOL    HW117933   1.701   1.431   4.419 -0.2066  0.1460 -0.7537
 2100SOL    HW217934   1.663   1.480   4.555  0.7124 -0.3371 -0.2153
 2101SOL     OW17935   4.495   3.083   6.848 -0.0153  0.0283  0.3030
 2101SOL    HW117936   4.508   3.102   6.755  1.3593  0.4587  0.5904
 2101SOL    HW217937   4.438   3.159   6.861 -0.3478 -0.0504 -0.6951
 2102SOL     OW17938   1.551   4.734   1.883  0.1499  0.6593 -0.6762
 2102SOL    HW117939   1.537   0.059   1.953  1.4530 -1.7916  1.8048
 2102SOL    HW217940   1.466   4.689   1.883 -0.5914  2.0752  0.4567
 2103SOL     OW17941   1.178   0.834   4.616  0.1291  0.1228  0.0826
 2103SOL    HW117942   1.214   0.840   4.527  3.3903  1.4888  1.4957
 2103SOL    HW217943   1.096   0.786   4.605 -0.0620  0.4265  0.2035
 2104SOL     OW17944   4.472   3.978   1.533 -0.2634  0.1838 -0.1895
 2104SOL    HW117945   4.533   4.047   1.506  0.3113 -0.2044  0.1117
 2104SOL    HW217946   4.525   3.936   1.601 -0.8779 -1.0232 -0.4686
 2105SOL     OW17947   1.366   1.392   5.489  0.3700  0.2246 -0.1600
 2105SOL    HW117948   1.324   1.440   5.417 -3.6315 -2.4131  0.4095
 2105SOL    HW217949   1.438   1.451   5.509  0.7263 -0.2028 -0.1903
 2106SOL     OW17950   2.533   1.533   5.279  0.7315 -0.2128 -0.1464
 2106SOL    HW117951   2.560   1.553   5.369  2.5196  0.2855 -0.7898
 2106SOL    HW217952   2.616   1.493   5.251  1.1044 -1.4374  2.6420
 2107SOL     OW17953   2.572   3.132   4.791  0.6784 -0.5934  0.2125
 2107SOL    HW117954   2.480   3.139   4.813  0.2269 -1.7868 -1.2694
 2107SOL    HW217955   2.599   3.063   4.852  0.8997 -0.5391  0.1774
 2108SOL     OW17956   0.993   2.739   4.124  0.1510  0.1000  0.0853
 2108SOL    HW117957   0.933   2.767   4.193  0.6229 -0.9711  0.9338
 2108SOL    HW217958   1.072   2.773   4.166  1.8048 -1.0744 -2.0392
 2109SOL     OW17959   2.528   3.539   6.576  0.2137 -0.1554  0.2660
 2109SOL    HW117960   2.458   3.577   6.629  0.9195  0.5980  0.6573
 2109SOL    HW217961   2.547   3.462   6.630 -1.4206 -0.6880  0.0859
 2110SOL     OW17962   1.321   2.564  17.598 -0.9122 -0.0730  0.1762
 2110SOL    HW117963   1.254   2.563  17.666 -2.0427 -2.7150 -1.0003
 2110SOL    HW217964   1.286   2.637  17.546  3.7467  1.9512 -0.0916
 2111SOL     OW17965   2.956   2.791  17.200 -0.2708 -0.1484  0.2764
 2111SOL    HW117966   2.955   2.876  17.244 -1.3523 -0.3499  0.6291
 2111SOL    HW217967   3.021   2.811  17.132 -2.3225  0.1008 -1.6364
 2112SOL     OW17968   2.712   0.060   5.528  0.3966 -0.3318  0.1205
 2112SOL    HW117969   2.688   0.033   5.617  1.7613 -1.4148  0.1697
 2112SOL    HW217970   2.621   0.064   5.498  0.5434  3.9597  0.2330
 2113SOL     OW17971   0.581   0.227   5.458  0.2880  0.7447 -0.5042
 2113SOL    HW117972   0.505   0.208   5.513  0.6650  1.6794  0.3454
 2113SOL    HW217973   0.654   0.198   5.512  0.1540  0.9457 -0.2126
 2114SOL     OW17974   4.535   0.916   9.727 -0.2088 -0.0921 -0.5615
 2114SOL    HW117975   4.527   0.989   9.789 -1.1917 -1.2820  0.6955
 2114SOL    HW217976   4.445   0.886   9.710 -0.4099  0.0888  0.2050
 2115SOL     OW17977   4.475   3.046   8.940 -0.0240 -0.5585  0.7948
 2115SOL    HW117978   4.563   3.070   8.969 -0.4296 -0.3264  1.8425
 2115SOL    HW217979   4.480   2.953   8.919 -0.4084 -0.2856 -0.5195
 2116SOL     OW17980   0.368   4.495  14.545 -0.3188  0.4232 -0.6363
 2116SOL    HW117981   0.419   4.423  14.583 -1.4945 -1.6699 -3.0633
 2116SOL    HW217982   0.435   4.556  14.514 -0.7160  0.9904 -0.3650
 2117SOL     OW17983   1.293   1.442   6.531  0.0854  0.5818 -0.1723
 2117SOL    HW117984   1.296   1.537   6.519  0.6178  0.6958  0.8715
 2117SOL    HW217985   1.270   1.413   6.443  0.9398 -2.4645  0.6158
 2118SOL     OW17986   0.697   4.557   6.098 -0.3011 -0.0950  0.2673
 2118SOL    HW117987   0.741   4.531   6.178 -0.7756  2.9524  1.5172
 2118SOL    HW217988   0.718   4.492   6.031 -3.1989 -1.1119  0.3446
 2119SOL     OW17989   0.067   3.008   2.559 -0.1560  0.2662  0.7310
 2119SOL    HW117990   0.029   2.933   2.604 -1.4046 -0.2471 -1.1540
 2119SOL    HW217991   0.086   2.971   2.473  2.4342 -0.1536  1.5043
 2120SOL     OW17992   4.270   3.228   4.288  0.0707 -0.5038  0.9306
 2120SOL    HW117993   4.254   3.134   4.280 -1.6771 -0.0151 -1.3195
 2120SOL    HW217994   4.181   3.258   4.311 -0.5081 -0.5236 -1.2872
 2121SOL     OW17995   0.151   4.311  14.518 -0.2683  0.3197  0.5548
 2121SOL    HW117996   0.225   4.372  14.522 -1.0409  1.3092 -0.5541
 2121SOL    HW217997   0.143   4.300  14.613 -0.2764  1.0521  0.6384
 2122SOL     OW17998   0.006   2.244   1.323  0.2913 -0.3117  0.5023
 2122SOL    HW117999   0.101   2.255   1.320  0.3760 -0.3633  2.8198
 2122SOL    HW218000   4.730   2.296   1.401 -0.3227 -1.8044  1.3969
 2123SOL     OW18001   2.546   2.270   3.885  0.2777  0.5521  0.0948
 2123SOL    HW118002   2.509   2.337   3.826 -1.3639 -0.1372  0.3417
 2123SOL    HW218003   2.472   2.251   3.944  1.0482 -0.2433  0.8004
 2124SOL     OW18004   2.749   2.403   2.550 -0.1955 -0.5601  0.2762
 2124SOL    HW118005   2.757   2.456   2.471 -0.9044  0.6209  0.9875
 2124SOL    HW218006   2.654   2.397   2.550 -0.2958  1.0603  0.4505
 2125SOL     OW18007   3.465   2.626  17.737  0.0620 -0.2547  0.1733
 2125SOL    HW118008   3.479   2.713   0.020 -0.0841 -0.2876  0.3101
 2125SOL    HW218009   3.540   2.572   0.007 -0.4695 -1.9269 -1.9420
 2126SOL     OW18010   2.342   1.378   3.864 -0.3116  0.1175 -0.7176
 2126SOL    HW118011   2.429   1.383   3.825 -0.2357  0.2966 -0.5292
 2126SOL    HW218012   2.295   1.351   3.785 -0.8187  0.6670 -0.6108
 2127SOL     OW18013   0.212   3.407  10.916  0.5826 -0.1425 -0.5204
 2127SOL    HW118014   0.183   3.464  10.845 -1.8939 -0.9655 -0.1912
 2127SOL    HW218015   0.302   3.437  10.927  0.7600 -1.2094  1.0739
 2128SOL     OW18016   1.592   0.626  10.956  0.4366 -0.0722 -0.1755
 2128SOL    HW118017   1.563   0.687  11.023 -1.9614 -0.6940 -0.6469
 2128SOL    HW218018   1.508   0.587  10.932  1.1080 -0.7759 -1.4288
 2129SOL     OW18019   3.716   1.237   8.534 -0.7554 -0.2491 -0.2881
 2129SOL    HW118020   3.728   1.191   8.618  1.0091 -0.3486 -0.6031
 2129SOL    HW218021   3.796   1.219   8.486 -1.6000  0.1164 -1.8158
 2130SOL     OW18022   1.141   4.273  12.957  0.3076 -0.2583 -0.1509
 2130SOL    HW118023   1.223   4.248  12.914  0.1225  0.3483 -0.8570
 2130SOL    HW218024   1.079   4.269  12.884  1.2913  0.4961 -1.0363
 2131SOL     OW18025   4.147   0.053   1.319  0.8793  0.4519 -0.1979
 2131SOL    HW118026   4.092   0.003   1.259 -0.5912  0.7827  0.8581
 2131SOL    HW218027   4.078   0.067   1.383  0.4531 -2.9320  0.1084
 2132SOL     OW18028   3.404   4.179  17.553 -0.3767 -0.0742 -0.1445
 2132SOL    HW118029   3.445   4.261  17.525  1.9691 -1.8029 -1.7367
 2132SOL    HW218030   3.474   4.115  17.543  1.3436  1.5721  1.4369
 2133SOL     OW18031   1.893   2.774  16.286  0.1955  0.0196  0.2224
 2133SOL    HW118032   1.867   2.715  16.357  2.1933  0.6668  1.4868
 2133SOL    HW218033   1.939   2.717  16.224  0.7665  1.7771 -0.9441
 2134SOL     OW18034   2.119   2.305   3.921 -0.4122  0.0101 -0.5961
 2134SOL    HW118035   2.125   2.213   3.947  1.1742  0.3298  0.1666
 2134SOL    HW218036   2.114   2.295   3.826 -1.6678 -0.0788 -0.5309
 2135SOL     OW18037   3.973   4.140   9.462  0.2422  0.3205  0.5071
 2135SOL    HW118038   3.883   4.151   9.432  0.0408 -2.5862  0.0333
 2135SOL    HW218039   3.973   4.044   9.461 -0.7120  0.3497 -1.5252
 2136SOL     OW18040   0.389   4.593   8.233  0.1251 -0.3835 -0.4685
 2136SOL    HW118041   0.410   4.536   8.159 -1.0425 -0.2249 -0.9291
 2136SOL    HW218042   0.445   4.670   8.225 -0.6859  0.2989  0.3202
 2137SOL     OW18043   3.476   0.041  16.145 -0.0670  0.4323 -0.5471
 2137SOL    HW118044   3.414   4.708  16.135  0.2455 -0.2514  2.3901
 2137SOL    HW218045   3.453   0.088  16.065 -3.7666 -0.8495 -0.2299
 2138SOL     OW18046   4.729   4.159   7.091  0.0241 -0.2250  0.0200
 2138SOL    HW118047   0.025   4.249   7.090  0.0146 -0.2762 -3.5217
 2138SOL    HW218048   4.658   4.158   7.155  0.5868 -1.0904  0.6226
 2139SOL     OW18049   3.833   3.668   4.211  0.3682  0.1898  0.5107
 2139SOL    HW118050   3.885   3.721   4.151 -0.0957  0.4367  0.3245
 2139SOL    HW218051   3.771   3.728   4.254  1.4399  0.9926  0.9262
 2140SOL     OW18052   0.717   2.835   2.534 -0.4488 -0.5798 -0.3293
 2140SOL    HW118053   0.637   2.868   2.492 -0.2609 -0.1890 -0.3769
 2140SOL    HW218054   0.680   2.822   2.622  0.0158 -1.0411 -0.2084
 2141SOL     OW18055   0.946   2.517   5.402  0.0632 -0.1344  0.4294
 2141SOL    HW118056   0.913   2.597   5.361  0.5317  0.6017  1.4691
 2141SOL    HW218057   0.965   2.465   5.324 -0.9697  1.2527 -0.7395
 2142SOL     OW18058   0.828   2.970  10.435 -0.0899 -0.0958 -0.4069
 2142SOL    HW118059   0.778   2.890  10.418  0.1659 -0.5113  0.7750
 2142SOL    HW218060   0.897   2.933  10.490  0.4443  0.2375 -0.8521
 2143SOL     OW18061   4.708   3.046   7.281  0.1195  0.5086 -0.0956
 2143SOL    HW118062   0.035   3.091   7.228  1.0737 -0.8904 -0.0743
 2143SOL    HW218063   4.712   3.095   7.363 -1.9035  0.6319 -0.0553
 2144SOL     OW18064   1.236   2.003  17.204 -0.5056 -0.3422 -0.2781
 2144SOL    HW118065   1.141   2.004  17.189 -0.5607  0.1593  0.1092
 2144SOL    HW218066   1.251   1.912  17.229 -1.7180  0.0323  1.7722
 2145SOL     OW18067   1.555   1.264   8.405 -0.6528 -0.1828 -0.0420
 2145SOL    HW118068   1.597   1.189   8.364  0.9507  0.1039  1.0732
 2145SOL    HW218069   1.572   1.328   8.336 -2.2489  1.8242  1.4197
 2146SOL     OW18070   1.287   1.618   8.336 -0.1064  0.0581  0.0072
 2146SOL    HW118071   1.268   1.708   8.309 -0.4380  0.7878  2.7102
 2146SOL    HW218072   1.323   1.592   8.251  0.2764  0.3143  0.0922
 2147SOL     OW18073   3.088   2.587   3.259 -0.2236 -0.5766 -0.0720
 2147SOL    HW118074   3.121   2.583   3.349  1.7334 -2.7471 -0.8722
 2147SOL    HW218075   3.073   2.495   3.237 -0.7756 -0.5301  0.1050
 2148SOL     OW18076   4.349   0.346   9.900  0.3530  0.5436  0.3236
 2148SOL    HW118077   4.418   0.282   9.883  1.3279  1.7879 -0.4593
 2148SOL    HW218078   4.401   0.418   9.935  0.3610  0.3728  0.6614
 2149SOL     OW18079   3.146   0.050  13.125  0.3036 -0.2747 -0.0010
 2149SOL    HW118080   3.172   0.023  13.037  1.1937 -3.2922  1.1803
 2149SOL    HW218081   3.059   0.010  13.120  0.1376  0.1377 -0.4571
 2150SOL     OW18082   1.429   0.955   4.026 -0.3115 -0.4781  0.4486
 2150SOL    HW118083   1.389   1.037   3.997 -1.6589 -1.0775  0.6100
 2150SOL    HW218084   1.359   0.899   3.995 -1.8954 -0.0770  3.2543
 2151SOL     OW18085   0.931   3.569  15.192  0.8903 -0.5322  0.1426
 2151SOL    HW118086   0.898   3.630  15.127 -0.1407  0.6094  1.7308
 2151SOL    HW218087   0.875   3.492  15.194 -0.1504  0.1826 -1.8308
 2152SOL     OW18088   1.460   2.830   1.572 -0.0930  0.4435  0.4429
 2152SOL    HW118089   1.482   2.826   1.479  1.8694 -1.3539  0.9801
 2152SOL    HW218090   1.372   2.791   1.568  0.1409 -0.1779  1.2401
 2153SOL     OW18091   3.987   0.374   5.356 -0.1369 -0.2589 -0.4099
 2153SOL    HW118092   3.895   0.362   5.382  0.2763  1.4650  1.9139
 2153SOL    HW218093   3.977   0.454   5.305  0.9360 -0.1428 -0.4222
 2154SOL     OW18094   0.421   2.085  12.032 -0.5056 -0.3056  0.4073
 2154SOL    HW118095   0.416   2.049  12.120  1.6958  2.8134  1.7944
 2154SOL    HW218096   0.392   2.174  12.050  1.3169  0.0068  1.7642
 2155SOL     OW18097   1.604   1.005  17.725  0.0926 -0.0306  0.2491
 2155SOL    HW118098   1.566   0.917  17.724 -0.1909  0.1145 -2.3450
 2155SOL    HW218099   1.527   1.059  17.707  0.2520 -0.3699 -1.5230
 2156SOL     OW18100   1.054   4.351  15.029  0.0251 -0.4140 -0.4213
 2156SOL    HW118101   1.061   4.427  14.970 -1.8091  0.3972  0.4085
 2156SOL    HW218102   0.982   4.375  15.088 -0.6287 -0.2813 -1.2705
 2157SOL     OW18103   2.846   0.380   1.477  0.7470 -0.1722 -0.0440
 2157SOL    HW118104   2.766   0.430   1.495  0.8805  0.0919 -0.1783
 2157SOL    HW218105   2.828   0.339   1.393  0.1739  1.9062 -0.9374
 2158SOL     OW18106   3.037   0.366   8.504 -0.2390  0.2082  0.5668
 2158SOL    HW118107   2.960   0.383   8.558 -0.6303  0.2552 -0.0078
 2158SOL    HW218108   3.003   0.401   8.422  2.3064 -0.1819 -0.6624
 2159SOL     OW18109   4.480   4.308  13.830 -1.0363 -0.3704 -1.0219
 2159SOL    HW118110   4.548   4.265  13.778  0.1601  1.8096 -1.2957
 2159SOL    HW218111   4.506   4.276  13.917 -0.1152  1.6749 -0.5263
 2160SOL     OW18112   0.738   2.013   7.797 -0.1537  0.5834 -0.0768
 2160SOL    HW118113   0.645   2.014   7.774 -0.0997 -2.0899 -0.4420
 2160SOL    HW218114   0.727   1.999   7.891 -1.0967 -2.9906 -0.7349
 2161SOL     OW18115   0.858   3.075  12.154  0.0792  0.1239 -0.5181
 2161SOL    HW118116   0.831   3.031  12.074 -1.6840 -2.1377  1.3484
 2161SOL    HW218117   0.920   3.137  12.115 -0.9230  0.5107 -1.4884
 2162SOL     OW18118   1.999   0.322   5.506  0.7087  0.3722 -0.0575
 2162SOL    HW118119   1.975   0.279   5.588  0.4496 -0.1425 -0.3960
 2162SOL    HW218120   2.082   0.281   5.483  0.1820 -1.3037  1.0255
 2163SOL     OW18121   4.487   1.106   1.119 -0.0389 -0.1211 -0.1291
 2163SOL    HW118122   4.536   1.034   1.080  0.0849 -0.2967  0.3580
 2163SOL    HW218123   4.535   1.112   1.202  2.0893  0.0730 -1.3587
 2164SOL     OW18124   3.164   4.235  17.734  0.1878 -0.0723 -0.6451
 2164SOL    HW118125   3.126   4.272  17.654  0.1882 -1.4892 -1.3057
 2164SOL    HW218126   3.255   4.228  17.706 -0.0433 -0.4311 -1.3177
 2165SOL     OW18127   4.102   3.238   5.111 -0.3647  0.2146 -0.1779
 2165SOL    HW118128   4.040   3.309   5.130 -1.0138 -0.5037  0.3293
 2165SOL    HW218129   4.148   3.272   5.033 -3.2924 -1.8789 -2.8155
 2166SOL     OW18130   2.974   2.874   8.875  0.4636  0.0055  0.5079
 2166SOL    HW118131   3.064   2.841   8.882  0.4887 -0.2419 -0.9510
 2166SOL    HW218132   2.951   2.859   8.967 -0.1936  2.2163  0.6848
 2167SOL     OW18133   1.900   1.846   5.461  0.9476  0.2134  0.0545
 2167SOL    HW118134   1.946   1.873   5.381 -0.8624  0.3853 -0.9145
 2167SOL    HW218135   1.824   1.801   5.425 -0.4717  2.0411  0.7721
 2168SOL     OW18136   1.509   1.168   3.198  0.0363 -0.2028 -0.1608
 2168SOL    HW118137   1.604   1.185   3.195 -0.3378  1.7171 -1.1756
 2168SOL    HW218138   1.488   1.189   3.289  1.6489 -1.8292  0.5772
 2169SOL     OW18139   4.571   4.658  14.593  1.1781 -0.3076  0.4873
 2169SOL    HW118140   4.511   4.710  14.647  2.4997  1.7202 -0.0027
 2169SOL    HW218141   4.518   4.654  14.514  2.4501 -1.2470 -0.3068
 2170SOL     OW18142   1.412   0.234   6.459 -0.2392  0.0061  0.2033
 2170SOL    HW118143   1.459   0.175   6.518 -1.4677 -1.1174  0.0621
 2170SOL    HW218144   1.449   0.318   6.484  0.5308 -0.6131  1.1278
 2171SOL     OW18145   3.569   3.549  17.365 -0.3789 -0.4762  0.1565
 2171SOL    HW118146   3.514   3.577  17.438 -1.6532 -2.2841 -0.1019
 2171SOL    HW218147   3.552   3.630  17.317 -1.3874 -0.2527  0.8877
 2172SOL     OW18148   3.136   4.186   7.241 -0.4210 -0.4929 -0.0455
 2172SOL    HW118149   3.074   4.205   7.171  0.4304  5.4350  0.7452
 2172SOL    HW218150   3.104   4.105   7.280  1.6656 -0.5566  1.5725
 2173SOL     OW18151   2.787   4.239   4.569  0.0018  0.4277  0.1730
 2173SOL    HW118152   2.831   4.186   4.636  1.0072  1.8076  0.6014
 2173SOL    HW218153   2.858   4.298   4.543 -0.7140  1.7957  1.2870
 2174SOL     OW18154   0.301   3.716   7.145  0.2776 -0.0621  0.2830
 2174SOL    HW118155   0.264   3.773   7.078 -0.3532 -1.8929 -0.9252
 2174SOL    HW218156   0.384   3.762   7.153 -1.0430  2.6201 -1.1976
 2175SOL     OW18157   2.018   1.294   1.496 -0.0749 -0.4301 -0.1032
 2175SOL    HW118158   2.110   1.312   1.515 -0.5118  0.5513  1.1106
 2175SOL    HW218159   1.984   1.296   1.586 -0.1749  1.3868 -0.1892
 2176SOL     OW18160   3.093   0.416  15.341 -0.4341  1.0104  0.3197
 2176SOL    HW118161   3.071   0.469  15.417  1.6350 -0.5317  2.0119
 2176SOL    HW218162   3.137   0.341  15.382  1.0365  0.2333 -2.6780
 2177SOL     OW18163   0.856   4.695  17.071 -0.2764  0.0749 -0.2206
 2177SOL    HW118164   0.899   0.031  17.030 -1.0688  0.4679 -0.3345
 2177SOL    HW218165   0.768   4.709  17.037 -0.2095  0.0070 -0.4214
 2178SOL     OW18166   1.444   0.947  15.866  0.1449 -0.3804 -0.2361
 2178SOL    HW118167   1.426   1.029  15.818 -0.1778 -0.4477 -0.2342
 2178SOL    HW218168   1.460   0.874  15.806  1.1739  0.9036 -1.5273
 2179SOL     OW18169   4.206   4.485   3.990  0.0157 -0.1316 -0.3468
 2179SOL    HW118170   4.273   4.552   3.992  0.7050 -0.7784 -1.7875
 2179SOL    HW218171   4.215   4.452   4.080 -2.0444 -0.4493 -0.2549
 2180SOL     OW18172   4.214   0.991   3.587  0.4563  0.1794 -0.9066
 2180SOL    HW118173   4.127   0.951   3.598 -0.0828  1.5657 -0.0890
 2180SOL    HW218174   4.214   1.053   3.660  3.6378  0.3551 -1.0567
 2181SOL     OW18175   0.149   3.758  11.116  0.0364 -0.4963 -0.0305
 2181SOL    HW118176   0.234   3.795  11.141  0.9805 -1.3278 -1.9650
 2181SOL    HW218177   0.102   3.840  11.106 -1.5589 -1.6247 -1.6921
 2182SOL     OW18178   3.922   1.850   2.818 -0.5180 -0.8141 -0.2880
 2182SOL    HW118179   3.862   1.855   2.744  0.0769  0.7331 -0.6681
 2182SOL    HW218180   3.867   1.885   2.888  0.7553 -1.1813  0.8980
 2183SOL     OW18181   0.193   0.229  12.598  0.0706 -0.2240  0.3876
 2183SOL    HW118182   0.131   0.211  12.528  2.2269 -3.2595 -0.7808
 2183SOL    HW218183   0.270   0.177  12.573  0.2313  0.1093  0.2004
 2184SOL     OW18184   4.161   1.066   3.205 -0.1994  0.5942 -0.2785
 2184SOL    HW118185   4.150   1.090   3.114  0.6080  1.1831 -0.2162
 2184SOL    HW218186   4.201   1.146   3.239 -2.4128  1.0019  1.4369
 2185SOL     OW18187   3.457   0.863   9.861 -0.3564 -0.4763  0.0242
 2185SOL    HW118188   3.458   0.838   9.953 -3.6760 -0.2202  0.1348
 2185SOL    HW218189   3.384   0.808   9.831  0.0816 -0.6003 -0.8063
 2186SOL     OW18190   0.757   2.528   6.622  0.3002  0.1903 -0.2907
 2186SOL    HW118191   0.726   2.474   6.550 -0.6343  0.4394 -0.0790
 2186SOL    HW218192   0.710   2.481   6.691 -2.2465  1.0088 -1.4642
 2187SOL     OW18193   4.493   1.887   7.539  0.2720 -0.1486  0.4124
 2187SOL    HW118194   4.563   1.823   7.544 -0.4628 -1.1284 -1.8604
 2187SOL    HW218195   4.418   1.836   7.569 -0.1085 -1.9815 -3.6424
 2188SOL     OW18196   0.451   2.605   6.633 -0.1830 -0.0410  0.0698
 2188SOL    HW118197   0.417   2.548   6.563  0.5890  0.7761 -0.9751
 2188SOL    HW218198   0.407   2.580   6.714  0.5612 -0.6596  0.2780
 2189SOL     OW18199   2.081   2.919  11.844  0.0086  0.0332 -0.3114
 2189SOL    HW118200   2.070   2.972  11.923  2.9695 -2.8675  2.0526
 2189SOL    HW218201   2.144   2.982  11.810 -0.3926 -0.6263 -2.2629
 2190SOL     OW18202   2.127   2.709   8.553  0.3247  0.1464  0.7754
 2190SOL    HW118203   2.160   2.629   8.512 -1.2176 -0.6389  1.0602
 2190SOL    HW218204   2.034   2.686   8.554  0.0203  1.3680  0.0011
 2191SOL     OW18205   1.648   2.168  10.897 -0.4380 -0.1210 -0.5642
 2191SOL    HW118206   1.704   2.164  10.819 -1.9533  0.3920 -1.6696
 2191SOL    HW218207   1.680   2.092  10.946 -0.3276  1.0351  1.1562
 2192SOL     OW18208   2.848   0.060  11.840 -0.4172 -0.5223  0.4407
 2192SOL    HW118209   2.923   0.111  11.870 -0.2526 -0.0544 -0.7467
 2192SOL    HW218210   2.859   0.079  11.746 -0.1847 -0.2078  0.5320
 2193SOL     OW18211   4.375   3.796   6.811 -0.0988  0.1175 -0.5786
 2193SOL    HW118212   4.314   3.767   6.879  1.5070  0.5224  1.0122
 2193SOL    HW218213   4.438   3.724   6.822 -0.8190 -0.8990 -3.0160
 2194SOL     OW18214   2.621   2.266  17.166 -0.4776  0.2751 -0.5165
 2194SOL    HW118215   2.526   2.271  17.172 -0.5340 -2.9502  0.9914
 2194SOL    HW218216   2.625   2.208  17.090  1.1425  1.1944 -1.1329
 2195SOL     OW18217   2.888   3.707   5.778 -0.1175 -0.1532 -0.4663
 2195SOL    HW118218   2.873   3.627   5.829  0.8951 -0.0660 -0.0313
 2195SOL    HW218219   2.979   3.717   5.804 -1.1438  1.4682  2.4715
 2196SOL     OW18220   2.074   1.660   7.965  0.1822 -0.1309 -0.0780
 2196SOL    HW118221   2.078   1.747   7.923  3.0139 -0.5507 -0.7162
 2196SOL    HW218222   2.094   1.604   7.890 -2.0106 -1.6952  0.5190
 2197SOL     OW18223   1.041   4.612   5.327  0.1629  0.3626  0.4358
 2197SOL    HW118224   1.118   4.602   5.270 -1.2582 -1.6580 -1.1348
 2197SOL    HW218225   0.996   4.689   5.295 -2.0673 -1.4030 -0.7067
 2198SOL     OW18226   3.330   2.809   4.923  0.2995  0.1765 -0.7417
 2198SOL    HW118227   3.318   2.746   4.995  0.0190  0.3936 -0.6002
 2198SOL    HW218228   3.422   2.794   4.900  0.8107 -0.6301  1.7777
 2199SOL     OW18229   0.813   4.636   1.659  0.3541 -0.1654 -0.9473
 2199SOL    HW118230   0.729   4.643   1.705  0.8798  0.1311 -0.0324
 2199SOL    HW218231   0.785   4.652   1.569 -0.0094 -0.0024 -0.8056
 2200SOL     OW18232   2.902   2.776   5.329 -0.2034  0.0143  0.6041
 2200SOL    HW118233   2.939   2.864   5.333 -1.6426  0.5760  1.6056
 2200SOL    HW218234   2.859   2.758   5.412 -0.1827 -1.2572  0.3413
 2201SOL     OW18235   2.728   2.603  17.151  0.0707  0.2823 -0.1565
 2201SOL    HW118236   2.736   2.547  17.229  0.3863 -0.9877 -1.0979
 2201SOL    HW218237   2.802   2.662  17.170  1.2515 -1.3439  0.2966
 2202SOL     OW18238   4.432   4.191   3.338 -0.4913  0.4419 -0.1319
 2202SOL    HW118239   4.517   4.209   3.299 -0.3709 -0.9075 -0.4948
 2202SOL    HW218240   4.399   4.274   3.371 -0.6365  0.3594 -0.0661
 2203SOL     OW18241   3.791   3.468  16.132  0.0434  0.0054 -0.1301
 2203SOL    HW118242   3.808   3.442  16.041 -0.2186 -0.2501 -0.1078
 2203SOL    HW218243   3.817   3.560  16.135 -1.4716  0.4125  0.6769
 2204SOL     OW18244   2.901   0.868   4.629 -0.3023  0.0961 -0.0214
 2204SOL    HW118245   2.901   0.952   4.676 -1.3207  0.9864 -1.5987
 2204SOL    HW218246   2.910   0.811   4.705 -0.1168 -3.5687 -2.8491
 2205SOL     OW18247   0.121   2.113   3.118  0.9899  0.1261 -0.2804
 2205SOL    HW118248   0.088   2.033   3.078  0.9913  0.0755 -0.1810
 2205SOL    HW218249   0.080   2.185   3.071  0.2538 -1.0206 -1.4120
 2206SOL     OW18250   3.311   3.394   7.485  0.7875  0.1317 -0.5929
 2206SOL    HW118251   3.346   3.372   7.399  0.4707  1.2205 -0.9956
 2206SOL    HW218252   3.267   3.316   7.519  0.8767 -0.4539 -1.8317
 2207SOL     OW18253   2.007   1.159   4.524  0.9152  0.3964  0.2620
 2207SOL    HW118254   1.924   1.121   4.495  0.5246  1.1454  0.4121
 2207SOL    HW218255   2.061   1.081   4.537  2.6334  1.4630 -0.6325
 2208SOL     OW18256   0.230   1.465   8.984 -0.2245 -0.3011  0.1653
 2208SOL    HW118257   0.272   1.381   9.001  0.4593 -0.2055 -1.0758
 2208SOL    HW218258   0.144   1.467   9.027 -1.2441  0.1855 -1.9062
 2209SOL     OW18259   1.453   2.675  15.445 -0.2153 -0.2042 -0.0821
 2209SOL    HW118260   1.435   2.599  15.389 -1.1444  0.0867 -0.1688
 2209SOL    HW218261   1.500   2.626  15.513  1.4818  0.0748 -1.0708
 2210SOL     OW18262   0.638   0.613   4.243 -0.0108  0.3695 -0.2306
 2210SOL    HW118263   0.702   0.615   4.314 -1.3789  0.5609  1.0164
 2210SOL    HW218264   0.665   0.528   4.208 -1.0164 -0.6542  1.4867
 2211SOL     OW18265   2.316   0.268   8.501  0.0268 -0.4572  0.0303
 2211SOL    HW118266   2.225   0.296   8.488  0.1020 -0.8505 -1.3272
 2211SOL    HW218267   2.308   0.243   8.593  0.3125  2.2636  0.7885
 2212SOL     OW18268   4.724   2.282   5.038 -0.7626  0.1145  0.0312
 2212SOL    HW118269   4.704   2.203   5.089 -0.9793  0.2993  0.2318
 2212SOL    HW218270   0.033   2.240   4.967 -1.4298  0.9554 -0.9112
 2213SOL     OW18271   4.166   0.721   8.373  0.6875  0.1145 -0.2253
 2213SOL    HW118272   4.123   0.638   8.352  1.3056  0.4634 -2.9091
 2213SOL    HW218273   4.104   0.766   8.430  1.2093 -1.8798  1.9217
 2214SOL     OW18274   4.643   2.113  10.142  0.1935  0.0901 -0.4262
 2214SOL    HW118275   4.572   2.099  10.204  1.8937 -1.3731  1.1872
 2214SOL    HW218276   4.593   2.084  10.065 -0.1563  0.4131 -0.3205
 2215SOL     OW18277   2.064   0.731   1.559 -0.4237 -0.3349  0.3497
 2215SOL    HW118278   1.985   0.678   1.567 -0.6940  0.2228  1.3899
 2215SOL    HW218279   2.046   0.797   1.626  0.7482  0.6844 -0.3398
 2216SOL     OW18280   1.641   1.721   6.237 -0.1776  0.0373  0.0862
 2216SOL    HW118281   1.554   1.749   6.267 -0.3106 -0.6479  0.3596
 2216SOL    HW218282   1.608   1.644   6.190 -0.6393 -1.2662  2.5364
 2217SOL     OW18283   3.634   2.947   5.415  0.1099  0.0790 -0.2818
 2217SOL    HW118284   3.653   2.867   5.366  2.0217  0.4952 -0.2585
 2217SOL    HW218285   3.716   2.955   5.464  0.6888  0.1236 -1.2527
 2218SOL     OW18286   3.158   3.986   3.035  0.0746  1.0246 -0.4365
 2218SOL    HW118287   3.119   3.984   2.948  1.7215 -1.2258 -1.1256
 2218SOL    HW218288   3.109   3.924   3.091 -0.7946  1.5282 -0.6367
 2219SOL     OW18289   2.001   3.717   2.945  0.0323 -0.3384  0.0117
 2219SOL    HW118290   1.938   3.763   3.000 -0.3466  1.7837 -2.2221
 2219SOL    HW218291   2.077   3.775   2.954 -0.5792  0.3989  0.3259
 2220SOL     OW18292   0.064   0.378   2.717  0.3623  0.3169  0.1773
 2220SOL    HW118293   0.048   0.467   2.686 -0.1897  0.0823 -0.2291
 2220SOL    HW218294   4.739   0.323   2.671  1.2944 -0.4322 -0.2333
 2221SOL     OW18295   2.874   3.087   3.449  0.0452 -0.2369  0.0826
 2221SOL    HW118296   2.811   3.140   3.497  0.6739  2.0320 -1.6005
 2221SOL    HW218297   2.827   3.071   3.368 -0.6959  0.7055  0.3305
 2222SOL     OW18298   4.584   4.129   6.611 -0.2819  0.1289 -0.2274
 2222SOL    HW118299   4.598   4.222   6.593 -2.6090  0.9372  2.1738
 2222SOL    HW218300   4.674   4.098   6.621 -0.4940 -0.6041 -0.6292
 2223SOL     OW18301   4.493   1.569   7.795 -0.3141  0.0382  0.7280
 2223SOL    HW118302   4.568   1.518   7.827  0.5615  1.0069  0.2143
 2223SOL    HW218303   4.528   1.614   7.718 -0.6495 -1.5603 -0.3499
 2224SOL     OW18304   0.437   2.078   8.340  1.1282 -0.1861  0.0408
 2224SOL    HW118305   0.514   2.111   8.386  1.4888 -2.1416  0.8491
 2224SOL    HW218306   0.385   2.159   8.339  1.3868  0.0058  2.1800
 2225SOL     OW18307   0.004   0.389   3.887 -0.0312 -0.7040  0.0907
 2225SOL    HW118308   4.671   0.406   3.948  0.0872 -0.8876  0.2871
 2225SOL    HW218309   4.691   0.369   3.809  0.3291  0.8995 -0.5576
 2226SOL     OW18310   1.334   0.867   5.674  0.4414 -0.5297  0.1480
 2226SOL    HW118311   1.312   0.792   5.618 -0.5965 -0.4944  0.5055
 2226SOL    HW218312   1.323   0.946   5.621 -0.1987 -0.2965  0.6299
 2227SOL     OW18313   2.887   3.262   5.208  0.1662 -0.1618 -0.2081
 2227SOL    HW118314   2.826   3.282   5.279  0.7265  0.2286  0.1670
 2227SOL    HW218315   2.894   3.347   5.164  2.1353 -0.2034  0.0128
 2228SOL     OW18316   3.996   1.412   9.613 -0.7198 -0.9960  0.4406
 2228SOL    HW118317   4.019   1.458   9.531 -0.1584 -1.4062  0.3732
 2228SOL    HW218318   3.913   1.459   9.621 -1.7832 -2.8710  0.2626
 2229SOL     OW18319   0.032   0.177  12.387 -0.3486 -0.1136  0.1962
 2229SOL    HW118320   4.709   0.236  12.344 -2.2455  0.4959  3.7243
 2229SOL    HW218321   0.115   0.194  12.344 -0.2923 -0.5625  0.1327
 2230SOL     OW18322   0.671   0.162   3.463 -0.1584  0.0885  0.4976
 2230SOL    HW118323   0.740   0.098   3.481  0.3363 -0.4976 -3.4892
 2230SOL    HW218324   0.724   0.224   3.414  0.4149 -0.2418  0.7041
 2231SOL     OW18325   0.502   4.435  12.470  0.5743 -0.4660  0.0046
 2231SOL    HW118326   0.531   4.477  12.551  0.6490 -2.2091  0.8786
 2231SOL    HW218327   0.585   4.441  12.422  0.2041  1.0392 -0.4379
 2232SOL     OW18328   1.808   2.930  11.878 -0.1558 -0.6798  0.5971
 2232SOL    HW118329   1.897   2.919  11.845  0.0451  0.7386  0.6615
 2232SOL    HW218330   1.784   2.846  11.917 -0.9728 -1.3526 -1.3023
 2233SOL     OW18331   4.522   1.329   4.255 -0.4718  0.0157 -0.3183
 2233SOL    HW118332   4.570   1.411   4.263  1.0605 -0.9294  0.0696
 2233SOL    HW218333   4.590   1.262   4.258  1.4284  2.0097  1.3599
 2234SOL     OW18334   3.668   3.814   4.361 -0.1186  0.6015 -0.3273
 2234SOL    HW118335   3.633   3.866   4.433 -0.6329  0.8013 -0.7186
 2234SOL    HW218336   3.689   3.886   4.301  1.9224 -0.4704 -0.8828
 2235SOL     OW18337   4.067   1.998   5.858 -0.4781 -0.8487  0.0585
 2235SOL    HW118338   4.071   1.923   5.798 -0.1452 -0.0757 -0.8750
 2235SOL    HW218339   4.130   1.973   5.925 -1.5721 -0.7971  1.1046
 2236SOL     OW18340   1.401   1.867   1.083  0.4819  0.0364  0.2796
 2236SOL    HW118341   1.396   1.961   1.096  0.8784 -0.1111  1.5182
 2236SOL    HW218342   1.491   1.848   1.110  1.6362  1.9389 -2.2498
 2237SOL     OW18343   0.868   0.242  10.075  0.2165 -0.4777 -0.3824
 2237SOL    HW118344   0.933   0.311  10.074  1.0620 -1.2791 -0.6624
 2237SOL    HW218345   0.918   0.168  10.041 -1.9014 -0.9790 -2.4147
 2238SOL     OW18346   0.543   1.074   8.504  0.4868  0.8080 -0.6246
 2238SOL    HW118347   0.529   1.061   8.598  1.5025  0.5212 -0.5108
 2238SOL    HW218348   0.638   1.068   8.496  0.3927 -0.8723 -0.3254
 2239SOL     OW18349   1.663   4.627   0.747  0.0882  0.1465  0.2461
 2239SOL    HW118350   1.735   4.624   0.684 -0.1761 -0.1539 -0.0341
 2239SOL    HW218351   1.718   4.620   0.825  0.0817  2.2777  0.4430
 2240SOL     OW18352   2.289   2.447  11.971  0.6206  0.2060  0.2455
 2240SOL    HW118353   2.285   2.490  12.056  1.5754  0.4924  0.1440
 2240SOL    HW218354   2.199   2.452  11.937  0.6222  2.0476  0.5642
 2241SOL     OW18355   2.802   0.849  11.177  0.3806  0.0570 -0.5541
 2241SOL    HW118356   2.751   0.907  11.233  1.2922  0.9539 -0.6648
 2241SOL    HW218357   2.889   0.889  11.178  0.1540  0.5315  0.2660
 2242SOL     OW18358   4.078   3.750   2.164 -0.0462  1.0413  0.3975
 2242SOL    HW118359   4.061   3.727   2.255 -1.5285 -1.9104 -0.6312
 2242SOL    HW218360   3.991   3.724   2.134 -0.0354 -0.8216  1.9686
 2243SOL     OW18361   2.258   1.906   5.621  0.1078 -0.0055  0.1493
 2243SOL    HW118362   2.231   1.966   5.551  0.1790  1.5372  1.4247
 2243SOL    HW218363   2.353   1.921   5.618  0.2597 -0.9133  0.4843
 2244SOL     OW18364   0.330   3.716   4.723  0.1836  0.2146  0.3188
 2244SOL    HW118365   0.414   3.727   4.767  1.1869  0.1388 -1.5622
 2244SOL    HW218366   0.279   3.674   4.792 -0.3599 -0.1176 -0.2798
 2245SOL     OW18367   3.172   1.665  16.659  0.0006 -0.3202 -0.4693
 2245SOL    HW118368   3.255   1.681  16.705  0.4406 -2.2757 -0.5715
 2245SOL    HW218369   3.124   1.743  16.631 -0.8772 -0.6493  0.1511
 2246SOL     OW18370   3.690   1.320   4.380 -0.0716 -0.5413 -0.2032
 2246SOL    HW118371   3.636   1.320   4.459  0.7773  2.9828  0.3593
 2246SOL    HW218372   3.777   1.351   4.406 -0.1660  0.3360 -0.9057
 2247SOL     OW18373   2.618   1.032  12.361  0.1918 -0.0615 -0.0346
 2247SOL    HW118374   2.570   0.979  12.424 -0.7219 -1.6887 -2.0721
 2247SOL    HW218375   2.545   1.053  12.302  0.7246 -0.4401 -0.8278
 2248SOL     OW18376   3.221   4.496   0.126 -0.3436  0.3406  0.0274
 2248SOL    HW118377   3.265   4.427   0.175  0.6570  0.8514 -0.1472
 2248SOL    HW218378   3.283   4.502   0.053 -0.1765  0.3020  0.1642
 2249SOL     OW18379   2.717   1.637  13.449  0.0014  0.1649 -0.5888
 2249SOL    HW118380   2.659   1.668  13.379 -1.0801  0.6750  0.5293
 2249SOL    HW218381   2.804   1.665  13.421  0.7356 -0.5145  0.9957
 2250SOL     OW18382   3.840   4.031   7.284 -0.4188  0.2474 -0.1678
 2250SOL    HW118383   3.923   3.985   7.273 -1.4474 -1.7126  0.3247
 2250SOL    HW218384   3.867   4.121   7.264  0.3051  0.0589 -0.0320
 2251SOL     OW18385   2.288   1.725   2.929  0.1660 -0.5208 -0.6667
 2251SOL    HW118386   2.348   1.661   2.969  1.1238  0.4931 -0.5032
 2251SOL    HW218387   2.355   1.770   2.877  0.2613 -3.9148 -3.4780
 2252SOL     OW18388   1.121   0.154   3.996 -0.1470 -0.4194 -0.6498
 2252SOL    HW118389   1.039   0.138   4.042  0.0569 -3.1081 -1.2127
 2252SOL    HW218390   1.156   0.071   4.029  0.1063 -0.3318 -0.7011
 2253SOL     OW18391   0.410   1.101   1.475  0.1029 -0.6435 -0.1680
 2253SOL    HW118392   0.465   1.061   1.409  1.0247 -0.0151  0.2243
 2253SOL    HW218393   0.334   1.126   1.422  1.1544  1.9171 -0.4348
 2254SOL     OW18394   4.410   4.540   7.774 -0.0842  0.4459  0.2444
 2254SOL    HW118395   4.396   4.445   7.769 -1.2877  0.4722  3.4791
 2254SOL    HW218396   4.334   4.571   7.725  1.1077  1.4470 -0.9508
 2255SOL     OW18397   0.222   4.439   2.798 -0.0775 -0.1295  0.2260
 2255SOL    HW118398   0.152   4.395   2.846 -0.1781 -0.6294 -0.3906
 2255SOL    HW218399   0.295   4.432   2.860 -1.3313  1.1120  1.8636
 2256SOL     OW18400   0.570   1.096   4.701 -0.3600 -0.6289 -0.0658
 2256SOL    HW118401   0.491   1.088   4.648 -0.8116  2.8977  0.0624
 2256SOL    HW218402   0.634   1.076   4.632  0.0315  0.0451  0.0974
 2257SOL     OW18403   3.937   2.046  11.589  0.1909 -0.1892  0.4360
 2257SOL    HW118404   3.953   1.967  11.640 -1.1796  0.0071  1.1964
 2257SOL    HW218405   3.846   2.036  11.560 -0.2485  1.3955  1.2250
 2258SOL     OW18406   3.269   1.769   4.383 -0.7139  0.2668 -0.1625
 2258SOL    HW118407   3.223   1.685   4.382  0.5664 -0.4453  1.8020
 2258SOL    HW218408   3.321   1.756   4.303  0.4805 -1.3302  0.8735
 2259SOL     OW18409   0.344   3.310   9.089 -0.3324  0.4192 -0.1150
 2259SOL    HW118410   0.397   3.390   9.087 -0.9804  0.8492 -0.2372
 2259SOL    HW218411   0.347   3.297   9.183  0.1505 -0.0914 -0.2040
 2260SOL     OW18412   4.011   0.514   4.012 -0.5911  0.0528 -0.3650
 2260SOL    HW118413   3.940   0.536   3.952  2.5855  2.5612 -3.2055
 2260SOL    HW218414   3.999   0.582   4.078 -1.4976 -0.5223  0.0568
 2261SOL     OW18415   3.336   1.347   9.979 -0.5633 -0.0542  0.0127
 2261SOL    HW118416   3.359   1.312  10.065 -1.5883 -0.9075 -0.0624
 2261SOL    HW218417   3.381   1.432   9.984  1.1034 -1.0527  1.7518
 2262SOL     OW18418   0.136   1.857   5.797 -0.0102  0.0827 -0.5058
 2262SOL    HW118419   0.047   1.888   5.809 -0.2448 -1.0094  0.5225
 2262SOL    HW218420   0.132   1.823   5.707 -1.6710  0.1776 -0.4540
 2263SOL     OW18421   1.216   0.091   8.259 -0.4804  0.4171  0.6359
 2263SOL    HW118422   1.303   0.113   8.226 -0.1774  0.3205  1.3785
 2263SOL    HW218423   1.161   0.154   8.212  1.0469  1.6505  0.5280
 2264SOL     OW18424   4.346   4.628   9.434  0.4248  0.0901 -0.1919
 2264SOL    HW118425   4.320   4.595   9.348 -0.1567 -0.9694  0.3824
 2264SOL    HW218426   4.434   4.590   9.443  0.9330  1.4433  0.5488
 2265SOL     OW18427   2.352   1.840   6.295  0.0945 -0.0032 -0.2204
 2265SOL    HW118428   2.283   1.775   6.309 -0.3571  0.8477  1.4511
 2265SOL    HW218429   2.303   1.922   6.286 -2.7532 -1.6550  0.0818
 2266SOL     OW18430   4.099   3.886   7.240  0.7158 -0.2068  0.1202
 2266SOL    HW118431   4.163   3.926   7.182  1.0580  0.5300  0.9939
 2266SOL    HW218432   4.150   3.887   7.321  0.3636  2.2125  0.3201
 2267SOL     OW18433   2.303   3.584  11.619 -0.4247 -0.5065  0.1820
 2267SOL    HW118434   2.338   3.563  11.705  0.1158 -3.1107 -0.6767
 2267SOL    HW218435   2.385   3.614  11.579 -2.4521  2.3354 -1.9372
 2268SOL     OW18436   2.569   3.481  16.562 -0.3110 -0.4030 -0.1607
 2268SOL    HW118437   2.635   3.477  16.493 -1.5634 -0.2575 -1.3738
 2268SOL    HW218438   2.529   3.566  16.543  2.2727  0.9202  0.2173
 2269SOL     OW18439   3.645   0.822   8.799 -0.0119  0.4392  0.3840
 2269SOL    HW118440   3.727   0.803   8.845 -0.4738  0.1076  1.0679
 2269SOL    HW218441   3.581   0.801   8.866 -0.2843  1.7105  0.5211
 2270SOL     OW18442   3.033   2.032   4.876  0.5510  0.0417 -0.6473
 2270SOL    HW118443   3.002   2.111   4.832  1.9127 -0.3888 -2.4090
 2270SOL    HW218444   2.968   2.029   4.946 -1.3526  2.6979 -2.3129
 2271SOL     OW18445   4.455   0.702   9.325 -0.5875  0.1913 -0.2319
 2271SOL    HW118446   4.389   0.636   9.345 -2.0635  2.2041  1.4285
 2271SOL    HW218447   4.518   0.688   9.396 -2.0527 -0.9670  0.8239
 2272SOL     OW18448   3.167   1.628   2.812  0.1671  0.0989  0.4931
 2272SOL    HW118449   3.118   1.584   2.882 -1.5318 -0.9296 -1.3380
 2272SOL    HW218450   3.254   1.633   2.850  1.0122 -0.3433 -1.3677
 2273SOL     OW18451   4.099   3.434  10.676  0.2515 -0.0795  0.4834
 2273SOL    HW118452   4.048   3.404  10.601 -0.9298  0.9481  0.8763
 2273SOL    HW218453   4.152   3.358  10.698  0.7270  0.8262  2.5177
 2274SOL     OW18454   2.529   4.102   4.289  0.1045 -0.1132  0.4122
 2274SOL    HW118455   2.492   4.153   4.216  0.7411  1.4205  1.1575
 2274SOL    HW218456   2.460   4.077   4.351 -2.2616  1.9991 -1.3644
 2275SOL     OW18457   4.132   4.288   2.181  0.0310 -0.3756 -0.2897
 2275SOL    HW118458   4.211   4.323   2.222 -0.7584 -0.6804  1.4811
 2275SOL    HW218459   4.090   4.373   2.171  0.8752  0.1147  0.2814
 2276SOL     OW18460   0.447   1.220  10.066 -0.2378  0.1176  0.3992
 2276SOL    HW118461   0.395   1.261   9.997  0.1837 -0.2816 -0.1555
 2276SOL    HW218462   0.538   1.244  10.051  0.3421 -2.6034 -0.4305
 2277SOL     OW18463   1.872   4.379   4.047  0.3410  0.0821 -0.4581
 2277SOL    HW118464   1.819   4.428   3.984 -0.1963 -1.7956 -1.4620
 2277SOL    HW218465   1.818   4.379   4.127 -0.5348  3.9857 -1.0745
 2278SOL     OW18466   2.634   1.602  17.196  0.2499 -0.3121  0.2649
 2278SOL    HW118467   2.612   1.572  17.284  0.0567 -0.2748  0.2306
 2278SOL    HW218468   2.707   1.544  17.180 -0.0251 -0.3676 -0.7750
 2279SOL     OW18469   0.980   4.359   2.826 -0.0388  0.4477  0.7024
 2279SOL    HW118470   1.045   4.395   2.886 -0.5745 -0.7033  1.9964
 2279SOL    HW218471   0.910   4.328   2.885  0.3035  0.1767  0.9656
 2280SOL     OW18472   2.299   2.926  17.292 -0.0921 -0.2145  0.3334
 2280SOL    HW118473   2.383   2.880  17.297  0.7284  1.1413 -0.9960
 2280SOL    HW218474   2.236   2.863  17.327 -1.2381  0.8233  0.1217
 2281SOL     OW18475   4.517   3.806   4.299  0.5819  0.4264 -0.0537
 2281SOL    HW118476   4.503   3.821   4.206  0.2592  1.6033  0.1833
 2281SOL    HW218477   4.578   3.733   4.289  1.2347  1.2489 -2.0854
 2282SOL     OW18478   3.022   3.655   4.882  0.6511 -0.7031 -0.0298
 2282SOL    HW118479   3.050   3.744   4.904  0.4859 -0.8616  0.8265
 2282SOL    HW218480   3.083   3.640   4.810  2.4491  0.5326  1.2094
 2283SOL     OW18481   0.400   0.859   0.972  0.1969  0.0782  0.0892
 2283SOL    HW118482   0.462   0.844   1.043  3.7819 -1.6798 -3.3525
 2283SOL    HW218483   0.389   0.769   0.942  0.4636  0.8472 -2.3726
 2284SOL     OW18484   1.731   0.277   0.102 -0.0568 -0.6268 -0.7478
 2284SOL    HW118485   1.784   0.292   0.024  1.3265  1.3362  0.5680
 2284SOL    HW218486   1.667   0.217   0.065  0.5225 -3.2149  2.4515
 2285SOL     OW18487   1.993   2.726   9.302 -0.7285 -0.2466  0.5736
 2285SOL    HW118488   1.961   2.760   9.385  0.6599 -0.7247  1.3189
 2285SOL    HW218489   1.909   2.694   9.269 -0.4408  1.1357 -1.4586
 2286SOL     OW18490   2.976   2.766   1.659 -0.3615  0.1133 -0.0395
 2286SOL    HW118491   2.898   2.758   1.604  0.5844 -0.7166 -1.2833
 2286SOL    HW218492   2.951   2.834   1.721 -0.9192  0.1005 -0.2514
 2287SOL     OW18493   0.926   0.205   7.590  0.0863 -0.2801  0.1319
 2287SOL    HW118494   0.847   0.259   7.587 -0.7578 -1.5569 -0.6571
 2287SOL    HW218495   0.884   0.124   7.617  1.8700 -1.8443 -1.7868
 2288SOL     OW18496   0.532   4.556   6.860  0.0693 -0.5260 -0.0773
 2288SOL    HW118497   0.593   4.616   6.817 -0.3806  0.2410  0.3792
 2288SOL    HW218498   0.492   4.513   6.784 -2.8050  1.0369  0.5530
 2289SOL     OW18499   3.941   4.707  11.188 -0.0594  0.1279 -0.1260
 2289SOL    HW118500   3.921   0.026  11.114 -1.5461  0.9724  0.9426
 2289SOL    HW218501   3.901   0.025  11.253  0.0878 -1.0998  1.0272
 2290SOL     OW18502   3.505   3.451   8.026  0.4204 -0.2859 -0.2962
 2290SOL    HW118503   3.509   3.389   8.099 -0.7166  2.2258  1.8957
 2290SOL    HW218504   3.505   3.390   7.952  0.1121  0.7242 -1.1164
 2291SOL     OW18505   0.122   0.198   3.234  0.1007  0.1186 -0.5211
 2291SOL    HW118506   0.080   0.176   3.151 -1.4030 -1.0891  0.5729
 2291SOL    HW218507   0.071   0.278   3.248 -2.3902 -1.8758  1.6995
 2292SOL     OW18508   1.385   1.610   2.070  0.8545  0.0567 -0.0523
 2292SOL    HW118509   1.400   1.694   2.114  0.6580 -0.0606  0.2362
 2292SOL    HW218510   1.433   1.610   1.987  0.4667 -2.0177 -0.2758
 2293SOL     OW18511   4.642   1.082  13.775 -0.4127  0.4254  0.5077
 2293SOL    HW118512   4.699   1.108  13.848  0.8588  0.4655 -0.4915
 2293SOL    HW218513   4.637   0.989  13.793 -1.9562  0.3386 -0.4203
 2294SOL     OW18514   1.784   3.164  17.708 -0.3070  0.1263 -0.4763
 2294SOL    HW118515   1.874   3.165  17.676  0.0933 -2.1343  0.6183
 2294SOL    HW218516   1.756   3.254  17.689 -1.0879  0.5651  2.8919
 2295SOL     OW18517   0.784   1.736  16.409 -0.0563  0.0848 -0.2827
 2295SOL    HW118518   0.743   1.687  16.481 -0.2501 -1.1429 -1.2304
 2295SOL    HW218519   0.783   1.821  16.452 -0.0335  0.1190 -0.3506
 2296SOL     OW18520   0.384   1.676   2.735  0.1893  0.5769 -0.2841
 2296SOL    HW118521   0.426   1.705   2.816  0.9884  2.7584 -1.4743
 2296SOL    HW218522   0.366   1.754   2.682  1.3163  0.3590 -0.9756
 2297SOL     OW18523   3.498   2.413   6.689  0.1392 -0.4928  0.6884
 2297SOL    HW118524   3.548   2.354   6.745  1.2350  0.9731  1.2678
 2297SOL    HW218525   3.452   2.450   6.764  0.8389  2.6037 -0.3947
 2298SOL     OW18526   1.177   1.604   5.707  0.5098 -0.4176  0.4165
 2298SOL    HW118527   1.235   1.551   5.653  0.9210  1.7852 -1.3117
 2298SOL    HW218528   1.092   1.574   5.674  0.6952 -0.7067  0.1991
 2299SOL     OW18529   3.040   3.474   2.677 -0.8734  0.4976 -0.3518
 2299SOL    HW118530   3.066   3.495   2.587 -1.0196  0.3664 -0.4226
 2299SOL    HW218531   3.120   3.431   2.707 -0.9176  1.1694  0.7427
 2300SOL     OW18532   1.948   4.549   6.714 -0.0705 -0.2182 -0.6120
 2300SOL    HW118533   1.951   4.566   6.620  0.7128 -1.3385 -0.7922
 2300SOL    HW218534   2.037   4.519   6.728 -1.7588 -3.4940  3.0622
 2301SOL     OW18535   1.620   4.372  16.126  0.2279 -0.4410 -0.2304
 2301SOL    HW118536   1.529   4.341  16.119  0.1436 -0.4506  0.8530
 2301SOL    HW218537   1.672   4.327  16.060  0.4949 -2.9685  1.6898
 2302SOL     OW18538   0.281   1.700  12.712  0.1759 -0.1200 -0.4288
 2302SOL    HW118539   0.192   1.715  12.678 -0.5678  0.0089  1.5726
 2302SOL    HW218540   0.257   1.646  12.787  1.4815  1.4243  1.0876
 2303SOL     OW18541   3.810   0.975   3.015 -0.0098  0.2852  0.4648
 2303SOL    HW118542   3.866   0.900   3.033 -0.5892 -0.6526 -1.5924
 2303SOL    HW218543   3.728   0.927   3.000  0.7930 -1.2784  1.1521
 2304SOL     OW18544   0.889   0.017   3.250 -0.3084  0.1670  0.3794
 2304SOL    HW118545   0.888   0.112   3.262  2.6737  0.2213  0.2049
 2304SOL    HW218546   0.982   0.001   3.235  0.2031  2.5342  0.9442
 2305SOL     OW18547   1.355   3.623  11.337 -0.3499 -0.1298  0.3614
 2305SOL    HW118548   1.451   3.622  11.345 -0.3520 -0.0007  0.3976
 2305SOL    HW218549   1.328   3.561  11.404 -1.2496  1.6437  1.6339
 2306SOL     OW18550   1.583   0.607   1.935  0.4738 -0.3098  0.2720
 2306SOL    HW118551   1.488   0.602   1.946  0.6298 -1.4978  1.1624
 2306SOL    HW218552   1.615   0.615   2.025 -0.8277  0.0048  0.7010
 2307SOL     OW18553   3.575   1.238   1.750  0.2357 -0.7268  0.0095
 2307SOL    HW118554   3.621   1.287   1.682  0.8331 -0.3149  0.6986
 2307SOL    HW218555   3.615   1.276   1.829 -2.7379 -0.4000  1.3348
 2308SOL     OW18556   1.116   0.783  16.017 -0.2400  0.2108 -0.5102
 2308SOL    HW118557   1.078   0.871  16.020 -1.8355 -0.4530 -1.6140
 2308SOL    HW218558   1.208   0.809  16.027  0.2556 -1.2830 -1.3741
 2309SOL     OW18559   3.365   2.846   9.160  0.1004 -0.0753  0.2515
 2309SOL    HW118560   3.457   2.820   9.153  0.3634  0.8052  0.5040
 2309SOL    HW218561   3.339   2.815   9.247 -0.1445  1.9476  0.8874
 2310SOL     OW18562   2.853   0.848   1.649 -0.6193 -0.1709  0.5826
 2310SOL    HW118563   2.909   0.817   1.578 -0.3128 -0.3561  0.9125
 2310SOL    HW218564   2.878   0.788   1.719 -0.1682 -0.6404  0.0103
 2311SOL     OW18565   0.594   1.735   7.127 -0.3633 -0.3847  0.3216
 2311SOL    HW118566   0.524   1.740   7.063  0.5387  1.1245 -0.5548
 2311SOL    HW218567   0.662   1.800   7.106 -0.8567  0.0050 -0.0635
 2312SOL     OW18568   1.453   3.016  12.937  0.0378 -0.3195 -0.2401
 2312SOL    HW118569   1.384   2.961  12.975 -0.1404  1.7104  2.4095
 2312SOL    HW218570   1.416   3.103  12.921  0.4921 -0.1033 -0.1089
 2313SOL     OW18571   1.083   3.925  15.235  0.0359 -0.7760 -0.1502
 2313SOL    HW118572   1.062   3.860  15.168 -0.0950  0.2659 -1.1220
 2313SOL    HW218573   1.130   3.985  15.177 -0.1149  0.7689  1.3077
 2314SOL     OW18574   2.252   0.109   3.598 -0.3010  0.3263 -0.8787
 2314SOL    HW118575   2.212   0.172   3.658  0.3324  0.6244 -0.7723
 2314SOL    HW218576   2.325   0.154   3.556 -0.2736  0.0336 -1.1466
 2315SOL     OW18577   3.766   0.449   9.959 -0.1128 -0.6329 -0.3567
 2315SOL    HW118578   3.753   0.429   9.867  0.8212  1.2542 -0.9178
 2315SOL    HW218579   3.683   0.485   9.990  1.8487  2.1204  1.7795
 2316SOL     OW18580   0.431   3.962   8.445 -0.2686  0.1360  0.5497
 2316SOL    HW118581   0.374   4.034   8.420  0.8835  2.0565  3.4558
 2316SOL    HW218582   0.427   3.910   8.365 -1.6037  1.5354 -0.2885
 2317SOL     OW18583   2.486   0.293   8.925  0.1138 -0.1303  0.0670
 2317SOL    HW118584   2.479   0.219   8.984 -0.0348 -0.6721 -0.6379
 2317SOL    HW218585   2.427   0.268   8.853 -0.3328  0.6591  0.1536
 2318SOL     OW18586   3.762   0.211   6.265  0.5142 -0.6881  0.0701
 2318SOL    HW118587   3.679   0.163   6.270 -0.2593  0.7256  0.7688
 2318SOL    HW218588   3.825   0.143   6.242 -0.5972 -1.5653 -0.4044
 2319SOL     OW18589   3.469   0.889   3.647 -0.3547 -0.2800 -0.2964
 2319SOL    HW118590   3.381   0.856   3.663  0.3137 -1.8177  0.2329
 2319SOL    HW218591   3.447   0.981   3.634 -0.8699 -0.6099 -1.7320
 2320SOL     OW18592   3.288   0.641  14.833 -0.5009  0.6530 -0.2528
 2320SOL    HW118593   3.342   0.706  14.876 -1.4817  1.2281  0.1098
 2320SOL    HW218594   3.281   0.676  14.744 -1.7243 -1.0298 -0.8456
 2321SOL     OW18595   3.000   0.848   9.086 -0.4068 -0.2765  0.2290
 2321SOL    HW118596   2.981   0.865   9.178 -1.0899  1.9527 -0.3487
 2321SOL    HW218597   3.033   0.930   9.050  2.9456 -2.3352 -1.5298
 2322SOL     OW18598   2.059   2.385   5.772  0.6054 -0.0791 -0.1027
 2322SOL    HW118599   2.022   2.300   5.748  1.2380 -0.6253  0.8502
 2322SOL    HW218600   2.079   2.363   5.863  0.1537  0.3264  0.0924
 2323SOL     OW18601   0.747   3.426   5.064 -0.1862  0.0552  0.8476
 2323SOL    HW118602   0.827   3.384   5.095 -1.0660 -2.2782 -0.0415
 2323SOL    HW218603   0.751   3.521   5.069  1.6295  0.0305 -0.2749
 2324SOL     OW18604   3.875   4.329   8.253 -0.6282 -0.1376 -0.2410
 2324SOL    HW118605   3.946   4.290   8.304  0.2093  0.8565 -0.6498
 2324SOL    HW218606   3.871   4.419   8.286 -1.2033 -1.1644  2.4760
 2325SOL     OW18607   2.761   1.878   4.498 -0.2434  0.4917 -0.0107
 2325SOL    HW118608   2.679   1.874   4.548  0.5571 -0.2267  1.2338
 2325SOL    HW218609   2.743   1.965   4.462  0.2455 -0.0009 -1.4399
 2326SOL     OW18610   0.342   3.819   8.211 -0.1788  0.7048  0.1381
 2326SOL    HW118611   0.333   3.731   8.175  2.6200  1.0691 -1.4540
 2326SOL    HW218612   0.334   3.871   8.131 -3.3677  0.1596  0.0922
 2327SOL     OW18613   2.649   1.746   2.656  0.2168  0.2758  0.5050
 2327SOL    HW118614   2.561   1.707   2.652  0.3984 -0.4342  3.4552
 2327SOL    HW218615   2.708   1.676   2.683  0.2723  0.3151  0.4862
 2328SOL     OW18616   0.268   3.830   1.646 -0.4661  0.5802 -0.3020
 2328SOL    HW118617   0.272   3.924   1.626 -0.8763  0.5954 -0.3070
 2328SOL    HW218618   0.199   3.800   1.587 -0.6188  0.5199 -0.0947
 2329SOL     OW18619   1.218   0.029  16.966 -0.0358  0.2812  0.1853
 2329SOL    HW118620   1.284   0.078  17.015 -0.1841  0.2021  0.4709
 2329SOL    HW218621   1.244   4.683  17.003 -0.0365  0.2470  0.1057
 2330SOL     OW18622   2.881   1.233   8.358  0.0986  0.1607 -0.1474
 2330SOL    HW118623   2.963   1.193   8.330 -0.9723 -0.2242 -2.6483
 2330SOL    HW218624   2.902   1.323   8.336  0.6567  0.1066  0.1507
 2331SOL     OW18625   0.562   4.437   3.262 -1.0029 -0.2054  0.2034
 2331SOL    HW118626   0.514   4.459   3.342  0.1032 -1.1484  1.1254
 2331SOL    HW218627   0.544   4.343   3.260 -0.4821 -0.2613 -1.2419
 2332SOL     OW18628   4.548   3.232   8.538  0.0658 -0.2896 -0.3102
 2332SOL    HW118629   4.558   3.139   8.558  1.4788 -0.3405 -1.2848
 2332SOL    HW218630   4.609   3.265   8.605  1.6277 -2.4655 -0.6751
 2333SOL     OW18631   3.433   4.064  11.910 -0.6328 -0.2432 -0.5287
 2333SOL    HW118632   3.346   4.104  11.909 -0.1417  0.8348  2.7280
 2333SOL    HW218633   3.486   4.140  11.887 -0.6541 -0.1768 -0.3559
 2334SOL     OW18634   0.134   2.039   7.661  0.1362  0.2293  0.4756
 2334SOL    HW118635   0.170   2.045   7.749 -0.0142  1.5264  0.4442
 2334SOL    HW218636   0.172   2.114   7.616 -0.1696  0.5350  0.7272
 2335SOL     OW18637   1.750   1.287   8.643  0.4894 -0.1527 -0.3271
 2335SOL    HW118638   1.660   1.291   8.609  0.8090  0.5157 -1.0714
 2335SOL    HW218639   1.771   1.196   8.622  1.5792  0.1675 -0.6079
 2336SOL     OW18640   4.172   1.951   7.623  0.4948  0.2084 -0.1561
 2336SOL    HW118641   4.197   1.862   7.600  0.5007  0.5751 -1.5989
 2336SOL    HW218642   4.194   1.960   7.715 -2.3210 -0.5663  0.6002
 2337SOL     OW18643   1.480   4.179   2.180 -0.1412  0.3264  0.7000
 2337SOL    HW118644   1.443   4.233   2.250  0.1060  1.2289  0.1311
 2337SOL    HW218645   1.571   4.207   2.188 -0.6460  2.3561 -0.5694
 2338SOL     OW18646   4.086   4.074   6.340  0.4149  0.1891 -0.2664
 2338SOL    HW118647   4.092   4.156   6.291 -1.0635  0.5019  0.0676
 2338SOL    HW218648   4.117   4.099   6.427  2.3421 -2.0292 -0.3008
 2339SOL     OW18649   2.202   1.904  17.495 -0.1705 -0.0464 -0.3799
 2339SOL    HW118650   2.208   1.936  17.405 -0.0684 -1.5364 -0.9129
 2339SOL    HW218651   2.142   1.830  17.485  1.6442 -1.6910  0.8868
 2340SOL     OW18652   1.617   1.175  13.035 -0.5022  0.0377 -0.1267
 2340SOL    HW118653   1.578   1.090  13.015 -2.2203  0.5193  1.2758
 2340SOL    HW218654   1.685   1.140  13.093  0.6807 -0.6578 -1.9115
 2341SOL     OW18655   2.794   1.948   5.704  0.2139  0.4718 -0.4979
 2341SOL    HW118656   2.748   2.013   5.757 -0.0133  0.3664 -0.5623
 2341SOL    HW218657   2.719   1.903   5.662  1.6309 -1.4833 -0.9582
 2342SOL     OW18658   1.063   2.445   1.629 -0.0130 -0.0043 -0.0806
 2342SOL    HW118659   1.073   2.370   1.689 -0.2346 -0.1256 -0.1961
 2342SOL    HW218660   1.013   2.411   1.555  0.3742 -1.8343  0.4834
 2343SOL     OW18661   1.311   1.605  11.736  0.0479 -0.0790  0.3874
 2343SOL    HW118662   1.383   1.543  11.745  1.0423  1.2811  1.9423
 2343SOL    HW218663   1.232   1.554  11.723  0.5723 -1.3842  2.3310
 2344SOL     OW18664   2.307   1.335   8.108  0.1374 -0.3323  0.1413
 2344SOL    HW118665   2.212   1.329   8.122  0.1753 -1.0711  0.0958
 2344SOL    HW218666   2.337   1.425   8.110 -0.4952 -0.1172  0.0636
 2345SOL     OW18667   2.611   4.260   7.069 -0.0834  0.0477  0.3742
 2345SOL    HW118668   2.642   4.172   7.047 -1.4444 -0.1921 -0.5921
 2345SOL    HW218669   2.681   4.318   7.039 -1.0757  0.9715 -0.1456
 2346SOL     OW18670   1.075   2.411  11.311 -0.4868  0.1132  0.0221
 2346SOL    HW118671   1.124   2.488  11.280  1.2555 -1.4811 -1.1292
 2346SOL    HW218672   1.088   2.347  11.241 -2.7304 -0.7174  0.3543
 2347SOL     OW18673   2.444   3.802   2.892 -0.1409 -0.0567  0.5088
 2347SOL    HW118674   2.463   3.834   2.804 -1.6798  0.3170  0.3082
 2347SOL    HW218675   2.495   3.863   2.945 -1.7529  1.6556  0.0702
 2348SOL     OW18676   3.859   1.108   6.350 -0.4657  0.1304 -0.5238
 2348SOL    HW118677   3.871   1.202   6.338 -3.0917  0.4998 -0.1958
 2348SOL    HW218678   3.779   1.106   6.402  1.7173 -0.5986  2.8093
 2349SOL     OW18679   3.883   3.387   3.224  0.0658 -0.0092 -0.3590
 2349SOL    HW118680   3.960   3.420   3.177  1.1267  0.1603  1.5042
 2349SOL    HW218681   3.858   3.342   3.143 -0.0512  1.5649 -1.1985
 2350SOL     OW18682   2.915   1.263   7.601  1.1657  0.1674  0.3068
 2350SOL    HW118683   2.965   1.328   7.650 -1.1299  1.9764  0.2638
 2350SOL    HW218684   2.852   1.325   7.565 -0.0988 -1.1106  0.3047
 2351SOL     OW18685   0.136   0.813   1.691  0.3027 -0.2535 -0.0724
 2351SOL    HW118686   0.170   0.902   1.683  0.9125 -0.7879 -3.3390
 2351SOL    HW218687   0.045   0.832   1.717  0.0373 -0.6422 -0.7140
 2352SOL     OW18688   1.782   0.649  11.913 -0.2020  0.0121  0.4047
 2352SOL    HW118689   1.863   0.698  11.908  0.5478 -1.4286 -1.4883
 2352SOL    HW218690   1.811   0.595  11.986  3.4939 -0.1903 -1.2064
 2353SOL     OW18691   3.030   2.649  17.472 -0.1993  0.4243  0.2547
 2353SOL    HW118692   3.080   2.621  17.549  1.3855  0.0162 -0.8991
 2353SOL    HW218693   3.095   2.644  17.401 -0.3935  2.1349 -0.0340
 2354SOL     OW18694   2.453   4.688   5.994 -0.4696 -0.3541  0.0482
 2354SOL    HW118695   2.536   4.709   5.952 -0.6148 -0.4291 -0.2733
 2354SOL    HW218696   2.443   0.008   6.069 -0.6562 -1.4926  0.9225
 2355SOL     OW18697   3.484   0.288   8.641 -0.6489  0.0287  0.2534
 2355SOL    HW118698   3.521   0.376   8.649  1.4365 -0.5553 -3.0329
 2355SOL    HW218699   3.443   0.295   8.555 -0.8916  0.7751  0.4382
 2356SOL     OW18700   0.609   0.473  10.279 -0.2305 -0.5965  0.2442
 2356SOL    HW118701   0.548   0.403  10.257  0.0022 -0.8662  0.4567
 2356SOL    HW218702   0.687   0.419  10.274  0.0579 -0.1275 -0.4014
 2357SOL     OW18703   3.888   4.100  13.463  0.2957 -0.2144  0.0606
 2357SOL    HW118704   3.827   4.082  13.534 -0.7584 -1.9410 -1.2844
 2357SOL    HW218705   3.931   4.182  13.488 -1.4088  1.5482 -2.8820
 2358SOL     OW18706   0.920   1.335   5.908 -0.6827 -0.1141  0.0306
 2358SOL    HW118707   0.981   1.271   5.872 -1.0486  0.6356 -1.9273
 2358SOL    HW218708   0.965   1.359   5.989 -1.8576  0.2006  0.5978
 2359SOL     OW18709   1.917   4.075   3.287 -0.5497 -0.5685  0.8768
 2359SOL    HW118710   2.010   4.090   3.308  0.0600 -0.8836 -1.6753
 2359SOL    HW218711   1.879   4.094   3.373  2.3226 -1.0220  2.2685
 2360SOL     OW18712   1.286   0.376   3.351  0.4816 -0.5472  0.2331
 2360SOL    HW118713   1.225   0.347   3.419  0.1745 -2.3765 -0.8197
 2360SOL    HW218714   1.345   0.301   3.359 -0.2338 -1.3043 -1.4967
 2361SOL     OW18715   2.370   2.217  14.409  0.0586  0.7359  0.6374
 2361SOL    HW118716   2.317   2.297  14.401  0.9348  1.1340 -1.0989
 2361SOL    HW218717   2.307   2.147  14.391  0.3132  0.7984 -0.4727
 2362SOL     OW18718   2.594   2.336  14.291 -0.0633 -0.1438 -0.0819
 2362SOL    HW118719   2.586   2.415  14.344 -0.8737 -2.3349  3.1088
 2362SOL    HW218720   2.520   2.288  14.328 -0.7205  1.6975  0.9922
 2363SOL     OW18721   0.490   2.772  15.066 -0.4148 -0.4958  0.2021
 2363SOL    HW118722   0.577   2.803  15.090 -1.2841  3.2529 -1.5342
 2363SOL    HW218723   0.476   2.692  15.117  4.3468 -3.3195 -3.0375
 2364SOL     OW18724   2.389   4.632   4.098 -0.3261 -0.4965 -0.4085
 2364SOL    HW118725   2.447   4.668   4.031 -1.1511  2.9994  0.7780
 2364SOL    HW218726   2.394   4.694   4.170  1.6829 -1.8732  0.6573
 2365SOL     OW18727   2.515   1.105   6.840  0.3954 -0.4833 -0.0222
 2365SOL    HW118728   2.451   1.041   6.871  0.2369 -0.2281  0.1802
 2365SOL    HW218729   2.592   1.073   6.886 -0.7111 -0.2422  2.0036
 2366SOL     OW18730   2.473   4.545   3.635  0.3933 -0.1442  0.8243
 2366SOL    HW118731   2.491   4.627   3.681  0.6054  1.3483 -1.9783
 2366SOL    HW218732   2.386   4.544   3.676 -0.3171 -0.4349 -0.7189
 2367SOL     OW18733   4.206   3.350   7.567  0.1007 -0.3484  0.4171
 2367SOL    HW118734   4.120   3.380   7.537  1.3361  0.1717 -2.5941
 2367SOL    HW218735   4.217   3.426   7.624 -1.2333 -0.7801  1.2400
 2368SOL     OW18736   0.188   1.781   7.604  0.3567  0.4082 -0.3489
 2368SOL    HW118737   0.156   1.867   7.630  0.7826 -0.3454  2.7076
 2368SOL    HW218738   0.283   1.792   7.601  0.3846 -0.2458 -1.7058
 2369SOL     OW18739   1.625   0.046   6.043 -0.0481  0.8638 -0.0302
 2369SOL    HW118740   1.618   4.689   6.052 -1.4739  1.2214  2.6998
 2369SOL    HW218741   1.534   0.068   6.026 -0.5434 -0.3275  1.0492
 2370SOL     OW18742   0.713   2.726   6.830  0.3813  0.1206  0.1393
 2370SOL    HW118743   0.708   2.810   6.785  1.9997  0.0806 -0.1212
 2370SOL    HW218744   0.642   2.666   6.806 -0.8789  2.5823 -2.2072
 2371SOL     OW18745   1.787   1.930   4.180 -0.5391 -0.1398 -0.1569
 2371SOL    HW118746   1.809   2.011   4.133 -1.6623  1.0589  1.4157
 2371SOL    HW218747   1.834   1.933   4.263  1.6112 -0.3843 -1.3711
 2372SOL     OW18748   4.561   0.220   1.189 -0.5553  0.3600 -0.2963
 2372SOL    HW118749   4.480   0.190   1.232 -1.0374  1.6098 -0.3380
 2372SOL    HW218750   4.556   0.170   1.108 -0.1843 -0.2045  0.0221
 2373SOL     OW18751   1.000   3.474   4.268 -0.4800 -0.3958 -0.0468
 2373SOL    HW118752   1.007   3.483   4.173 -1.7482  2.0301  0.0613
 2373SOL    HW218753   0.945   3.396   4.268  0.6549 -1.1895 -0.9448
 2374SOL     OW18754   0.309   2.575   7.798 -0.0022 -0.3786 -0.2755
 2374SOL    HW118755   0.357   2.541   7.874  0.4201 -1.2552 -0.9418
 2374SOL    HW218756   0.334   2.668   7.799  0.4711 -0.5115  1.0290
 2375SOL     OW18757   4.676   3.823   6.850 -0.4850  0.1719 -0.3188
 2375SOL    HW118758   4.653   3.730   6.846 -0.1763  0.2829 -4.4881
 2375SOL    HW218759   4.663   3.843   6.758 -1.4484 -1.8754 -0.6238
 2376SOL     OW18760   0.571   3.841   6.861  0.4078  0.0603  0.6100
 2376SOL    HW118761   0.608   3.855   6.774  2.6074 -0.4926  1.4667
 2376SOL    HW218762   0.579   3.748   6.884  1.1744  0.5333  2.2320
 2377SOL     OW18763   0.002   1.721  12.677 -0.0199 -0.7102 -0.0071
 2377SOL    HW118764   4.685   1.745  12.603  1.6801  1.6473 -0.5528
 2377SOL    HW218765   4.690   1.744  12.754  1.8151  2.3651  0.3106
 2378SOL     OW18766   1.868   0.608   6.881  0.2859  0.3710 -0.4112
 2378SOL    HW118767   1.810   0.683   6.870  1.2374  1.2269  0.3904
 2378SOL    HW218768   1.851   0.587   6.973 -0.8149 -1.2703 -0.9906
 2379SOL     OW18769   3.700   4.181   8.716 -0.1869 -0.1659 -0.1556
 2379SOL    HW118770   3.756   4.189   8.793 -1.1872  0.7251  0.4836
 2379SOL    HW218771   3.698   4.089   8.689  0.5963 -0.6515  1.4738
 2380SOL     OW18772   0.145   3.645  15.432 -0.3908  0.0288  0.0438
 2380SOL    HW118773   0.067   3.614  15.386  0.7547 -1.8364 -0.6575
 2380SOL    HW218774   0.108   3.714  15.487  1.0808  0.4095  0.5597
 2381SOL     OW18775   3.534   4.442   6.202  0.1335 -0.2609  0.5897
 2381SOL    HW118776   3.506   4.483   6.284  1.2256  0.7198  0.4761
 2381SOL    HW218777   3.448   4.434   6.160  0.8289  1.3785 -1.1803
 2382SOL     OW18778   2.447   1.009  11.955  0.0265  0.2527 -0.5226
 2382SOL    HW118779   2.470   0.924  11.916  1.1117  1.2123 -1.9975
 2382SOL    HW218780   2.515   1.067  11.920  0.8805  0.1615  0.9914
 2383SOL     OW18781   1.922   2.750   4.614  0.0563 -0.1194 -0.7705
 2383SOL    HW118782   1.891   2.772   4.702  0.4294 -3.5917  0.2049
 2383SOL    HW218783   1.998   2.807   4.601  0.6396 -0.1265  2.7573
 2384SOL     OW18784   0.548   2.595   2.275 -0.3656 -0.3016 -0.1298
 2384SOL    HW118785   0.578   2.680   2.307 -1.1623  0.0238 -0.2574
 2384SOL    HW218786   0.621   2.583   2.214  0.2053  1.9551  0.1299
 2385SOL     OW18787   4.083   2.226  10.608 -0.1781  0.2584 -0.7149
 2385SOL    HW118788   4.056   2.280  10.534  0.1966  0.1981 -0.8953
 2385SOL    HW218789   4.155   2.279  10.644  0.4760  1.1127 -3.3004
 2386SOL     OW18790   1.769   3.905   5.657 -0.2291  0.4200 -0.2564
 2386SOL    HW118791   1.810   3.983   5.695  0.9158  0.4195 -1.4692
 2386SOL    HW218792   1.818   3.831   5.693 -0.6441  0.7835  1.0644
 2387SOL     OW18793   0.759   3.323   4.249 -0.5286  0.1394 -0.1446
 2387SOL    HW118794   0.756   3.394   4.186 -1.3677 -0.1741 -0.4549
 2387SOL    HW218795   0.673   3.338   4.287 -0.7717 -0.5050 -0.4364
 2388SOL     OW18796   1.952   2.891   4.862 -0.0109  0.8359 -0.6351
 2388SOL    HW118797   1.946   2.979   4.823  0.4237  1.1675  0.0467
 2388SOL    HW218798   2.040   2.898   4.898 -0.1662  3.0454 -0.6776
 2389SOL     OW18799   4.343   0.931   9.176 -0.3950 -0.1903  0.7992
 2389SOL    HW118800   4.412   0.987   9.141 -0.7678 -0.9892 -1.1994
 2389SOL    HW218801   4.371   0.841   9.165  0.9117  0.4396 -0.9171
 2390SOL     OW18802   1.725   1.566   1.478 -0.3451  0.5061 -0.0027
 2390SOL    HW118803   1.656   1.544   1.416  0.7198  1.5241 -1.5462
 2390SOL    HW218804   1.737   1.478   1.514  1.5841  0.6833 -0.2126
 2391SOL     OW18805   3.942   1.970   2.392 -0.8049 -0.1658 -0.1538
 2391SOL    HW118806   3.964   1.999   2.480 -0.1552 -0.9622 -0.0627
 2391SOL    HW218807   3.863   2.022   2.377 -2.1208 -2.4722 -1.2404
 2392SOL     OW18808   3.994   3.374   1.294 -0.0864  0.0254  0.2447
 2392SOL    HW118809   3.967   3.283   1.306 -0.2289 -0.1883 -1.7454
 2392SOL    HW218810   4.015   3.399   1.384  2.2573 -2.9796  0.5209
 2393SOL     OW18811   0.752   1.185   3.248  0.0652 -0.0037  0.2858
 2393SOL    HW118812   0.757   1.254   3.314  2.1418  0.0831  0.0301
 2393SOL    HW218813   0.678   1.227   3.203  2.8132  1.7864 -2.5964
 2394SOL     OW18814   4.310   0.935   8.386  0.7421  0.1315 -0.1482
 2394SOL    HW118815   4.295   0.932   8.480 -1.0837  0.5417 -0.4127
 2394SOL    HW218816   4.262   0.853   8.377 -2.2668  1.8738 -0.1680
 2395SOL     OW18817   4.536   1.262  11.390 -0.7243  0.3840  0.1217
 2395SOL    HW118818   4.598   1.238  11.459 -0.7122  0.0914  0.0084
 2395SOL    HW218819   4.587   1.250  11.310 -2.3760 -0.4856 -0.7838
 2396SOL     OW18820   4.696   2.012  13.022  0.2395  0.0556 -0.6109
 2396SOL    HW118821   4.648   2.072  12.966 -0.4549 -1.4195 -1.6150
 2396SOL    HW218822   4.634   1.968  13.081 -0.4242  1.3853 -0.3311
 2397SOL     OW18823   2.517   1.277   2.070  0.1585 -0.2140  0.0630
 2397SOL    HW118824   2.599   1.295   2.024  0.8657 -1.6352  0.7776
 2397SOL    HW218825   2.554   1.232   2.146  0.4974 -0.0136  0.0159
 2398SOL     OW18826   4.179   0.488   0.704  0.3078 -0.7603  0.7320
 2398SOL    HW118827   4.174   0.560   0.766  1.1626  0.6347 -0.8145
 2398SOL    HW218828   4.167   0.537   0.623  0.1717  0.1551  1.3138
 2399SOL     OW18829   2.998   0.854   1.270 -0.3528  0.4829 -0.4550
 2399SOL    HW118830   3.008   0.897   1.355  1.2791 -0.7226 -0.0202
 2399SOL    HW218831   2.926   0.900   1.228  1.4086  2.1407 -1.6547
 2400SOL     OW18832   0.937   3.828   8.210 -0.1907  0.2203 -0.1721
 2400SOL    HW118833   1.033   3.825   8.201 -0.2762  1.4805 -1.3704
 2400SOL    HW218834   0.913   3.859   8.123 -3.2520 -1.0690  0.2184
 2401SOL     OW18835   2.722   2.866  15.351 -0.4634 -0.1495 -0.3025
 2401SOL    HW118836   2.655   2.815  15.396 -1.3347  0.4733 -0.8670
 2401SOL    HW218837   2.687   2.952  15.378 -0.1775  0.1960 -1.0391
 2402SOL     OW18838   4.222   4.084   5.364 -0.4111  0.9345  0.1361
 2402SOL    HW118839   4.248   4.158   5.420 -1.3518  0.0048  1.7956
 2402SOL    HW218840   4.143   4.061   5.411  0.0053  0.2823  0.5085
 2403SOL     OW18841   4.300   2.217  17.078  0.0814  0.1186  0.2255
 2403SOL    HW118842   4.208   2.238  17.063 -0.3614 -0.8321  1.5631
 2403SOL    HW218843   4.329   2.239  16.990 -0.1230  1.8157  0.5828
 2404SOL     OW18844   2.670   4.409   5.741 -0.3069 -0.5252 -0.4256
 2404SOL    HW118845   2.648   4.425   5.833 -0.0697 -1.4375 -0.2056
 2404SOL    HW218846   2.658   4.314   5.743 -0.1358 -0.5773 -1.9460
 2405SOL     OW18847   4.209   0.027  15.578 -0.4047 -0.6714 -0.3424
 2405SOL    HW118848   4.236   4.728  15.495  0.2555 -2.6487  0.7877
 2405SOL    HW218849   4.214   0.119  15.551  1.6564 -1.3640 -2.2871
 2406SOL     OW18850   1.356   3.392   8.134 -0.1251 -0.7430 -0.2187
 2406SOL    HW118851   1.387   3.456   8.070 -0.7400  0.3681  0.5857
 2406SOL    HW218852   1.278   3.433   8.171 -0.9519 -1.3233 -1.3157
 2407SOL     OW18853   3.256   4.656   4.386  0.3170  0.1177  0.0328
 2407SOL    HW118854   3.334   4.678   4.437  0.0393  3.0845 -0.8434
 2407SOL    HW218855   3.221   0.006   4.390 -0.5384 -0.3122  2.1955
 2408SOL     OW18856   1.978   4.613   8.120 -0.3418 -0.0867  0.6949
 2408SOL    HW118857   1.959   4.628   8.213 -0.1824 -0.9037  0.8607
 2408SOL    HW218858   1.949   4.698   8.086 -0.5589 -0.8867 -1.1155
 2409SOL     OW18859   2.331   0.607  15.244  0.6464  0.3225  0.0021
 2409SOL    HW118860   2.345   0.513  15.235 -0.1061 -0.0237  2.3852
 2409SOL    HW218861   2.345   0.623  15.337  1.3079 -0.6381  0.0687
 2410SOL     OW18862   0.069   1.411   4.352  0.0932 -0.0487  0.1311
 2410SOL    HW118863   0.034   1.497   4.375 -0.0947  0.3020 -1.4570
 2410SOL    HW218864   0.062   1.419   4.257  0.8370 -0.4773  0.0345
 2411SOL     OW18865   1.035   4.336  10.254 -0.4185  0.8993  0.4442
 2411SOL    HW118866   0.976   4.266  10.225  0.4745 -0.3339  1.6391
 2411SOL    HW218867   1.040   4.309  10.345  3.2921 -0.0160 -0.0314
 2412SOL     OW18868   0.382   2.495   7.535 -0.1894  0.3646 -0.0476
 2412SOL    HW118869   0.355   2.523   7.623 -1.4761 -0.6634 -0.1198
 2412SOL    HW218870   0.312   2.535   7.483  0.3112  1.5282  0.1574
 2413SOL     OW18871   2.633   1.617   5.871  0.0384  0.1210 -0.2305
 2413SOL    HW118872   2.576   1.660   5.935  2.1379  2.5497  0.0308
 2413SOL    HW218873   2.720   1.617   5.912  0.1987 -1.4667 -0.5929
 2414SOL     OW18874   3.225   0.150   7.285  0.3267  0.3391 -0.3546
 2414SOL    HW118875   3.300   0.191   7.329  0.7667  1.8084 -2.4425
 2414SOL    HW218876   3.172   0.152   7.364 -0.3141 -0.1864 -0.7756
 2415SOL     OW18877   1.801   3.666   3.957  0.5342 -0.2971  0.0763
 2415SOL    HW118878   1.895   3.683   3.959  0.5697 -0.2973 -1.4095
 2415SOL    HW218879   1.809   3.597   3.891  0.0992 -1.8629  1.6659
 2416SOL     OW18880   1.211   0.389   1.531 -0.0520 -0.0505  0.2591
 2416SOL    HW118881   1.135   0.355   1.484  0.0220 -1.1097  0.8987
 2416SOL    HW218882   1.277   0.400   1.464 -0.5311 -2.5105 -0.6399
 2417SOL     OW18883   4.164   2.525  10.179 -1.1697  0.5063  0.0097
 2417SOL    HW118884   4.132   2.435  10.180  0.7677 -0.1819 -0.2807
 2417SOL    HW218885   4.255   2.503  10.159 -0.5998  3.4492 -0.7061
 2418SOL     OW18886   0.937   3.246   9.323  0.5900  0.0194 -0.2564
 2418SOL    HW118887   0.843   3.231   9.334  0.8990 -1.6387  0.1224
 2418SOL    HW218888   0.963   3.198   9.244  1.5554 -1.7958  1.1487
 2419SOL     OW18889   1.781   0.503   7.923 -0.1091  0.5568 -0.0408
 2419SOL    HW118890   1.719   0.453   7.871  2.2839 -3.5486  1.0635
 2419SOL    HW218891   1.749   0.591   7.902 -0.7524  0.3471  0.0834
 2420SOL     OW18892   2.185   3.053   8.303 -0.2022  0.1506  0.1701
 2420SOL    HW118893   2.182   3.119   8.372  0.8274 -1.0020  1.3332
 2420SOL    HW218894   2.276   3.023   8.306 -0.8991 -1.9848  0.5798
 2421SOL     OW18895   4.610   4.208   1.512 -0.4443  0.6764  0.6308
 2421SOL    HW118896   4.611   4.276   1.444  1.0701  0.2315  0.1989
 2421SOL    HW218897   4.592   4.263   1.588  2.0433  2.0363  0.2343
 2422SOL     OW18898   3.369   3.639   5.930  0.4104  0.2915 -0.0391
 2422SOL    HW118899   3.344   3.558   5.885  0.3464 -0.5257  1.4739
 2422SOL    HW218900   3.452   3.667   5.892  0.3406  1.5230  0.7053
 2423SOL     OW18901   0.911   4.394   5.210 -0.5785  0.0481  0.2847
 2423SOL    HW118902   0.828   4.396   5.258 -1.3381  1.2390 -1.0928
 2423SOL    HW218903   0.943   4.482   5.229 -1.2247 -0.6487  4.6381
 2424SOL     OW18904   2.468   2.216   4.432 -0.2653 -0.2457 -0.0027
 2424SOL    HW118905   2.531   2.220   4.503  1.1542  2.3823 -1.4309
 2424SOL    HW218906   2.419   2.137   4.456  0.5990 -0.5380  0.8031
 2425SOL     OW18907   1.724   3.959   3.995  0.2343  0.2929  0.5022
 2425SOL    HW118908   1.722   3.867   4.020 -1.1316 -0.1851 -1.4274
 2425SOL    HW218909   1.634   3.987   4.012 -0.5530 -2.2862  0.4975
 2426SOL     OW18910   1.076   4.626   9.836  0.2469  0.3121 -0.0948
 2426SOL    HW118911   1.080   4.536   9.869 -0.0938 -0.7879 -3.0579
 2426SOL    HW218912   1.009   4.607   9.770 -0.0080  0.6264  0.0758
 2427SOL     OW18913   4.255   4.680   8.647 -0.2547  0.5245  0.2908
 2427SOL    HW118914   4.259   4.670   8.742 -0.9352 -1.2130  0.1324
 2427SOL    HW218915   4.275   4.593   8.610  0.1070 -0.0648  1.8638
 2428SOL     OW18916   3.850   2.828   3.200 -0.1766  0.0895 -0.2613
 2428SOL    HW118917   3.772   2.785   3.234 -0.8779 -0.0629 -2.0429
 2428SOL    HW218918   3.824   2.920   3.187  2.0309  1.0500  2.2289
 2429SOL     OW18919   4.035   1.508   3.705  0.5552  0.4919  0.3477
 2429SOL    HW118920   4.123   1.491   3.671 -0.2113 -2.2383 -0.2718
 2429SOL    HW218921   4.036   1.448   3.779  1.5566 -1.2608 -1.0907
 2430SOL     OW18922   1.407   2.376  17.365  0.8735  0.4557 -0.9860
 2430SOL    HW118923   1.338   2.398  17.302 -0.9058 -0.6904  0.5291
 2430SOL    HW218924   1.411   2.453  17.422 -0.9321 -0.6967  0.7193
 2431SOL     OW18925   1.777   2.287   8.317  0.3998 -0.2256 -0.0154
 2431SOL    HW118926   1.799   2.361   8.260 -1.0791 -1.2030 -1.8148
 2431SOL    HW218927   1.763   2.332   8.401 -0.5918 -2.7721  1.1596
 2432SOL     OW18928   2.444   0.178   7.191  0.0759 -0.0609 -0.3005
 2432SOL    HW118929   2.515   0.243   7.182  1.2741 -1.2538  0.5545
 2432SOL    HW218930   2.500   0.103   7.172  0.7651  0.3768 -0.0043
 2433SOL     OW18931   1.515   0.927   3.571 -0.2895 -0.2462  0.0321
 2433SOL    HW118932   1.498   1.022   3.574 -1.0260 -0.4104  1.1403
 2433SOL    HW218933   1.592   0.929   3.628 -1.9309 -1.3936  2.3068
 2434SOL     OW18934   3.495   1.655   9.979  0.7575  0.1884 -0.0683
 2434SOL    HW118935   3.586   1.667   9.950  0.6175  1.9195  0.1949
 2434SOL    HW218936   3.511   1.649  10.073  1.0016 -2.1721 -0.2647
 2435SOL     OW18937   2.061   1.437   6.131 -0.2954 -0.1313  0.1116
 2435SOL    HW118938   2.074   1.490   6.053 -0.5687 -0.7762 -0.3763
 2435SOL    HW218939   1.966   1.429   6.132 -0.0594 -2.8626  0.8403
 2436SOL     OW18940   0.414   0.215   4.552  0.3618 -0.7596 -0.4439
 2436SOL    HW118941   0.382   0.212   4.642 -0.2511  0.7827 -0.6205
 2436SOL    HW218942   0.508   0.220   4.570  0.3997  0.5723 -1.0089
 2437SOL     OW18943   4.080   2.155   6.309  0.5396  0.0368  0.4268
 2437SOL    HW118944   4.009   2.093   6.320  0.6895 -0.4219 -1.1440
 2437SOL    HW218945   4.142   2.126   6.375  1.3267  0.0814 -0.2885
 2438SOL     OW18946   2.152   3.703   6.495  0.7238 -0.0169  0.0359
 2438SOL    HW118947   2.240   3.696   6.460  0.8028  3.2446 -0.4635
 2438SOL    HW218948   2.113   3.756   6.425 -1.9338 -0.0402  1.4739
 2439SOL     OW18949   1.732   3.398   4.190  0.4618 -0.4417 -0.2737
 2439SOL    HW118950   1.758   3.477   4.239 -1.8439 -1.6466  2.8635
 2439SOL    HW218951   1.822   3.374   4.167  0.6967 -0.3986  0.5960
 2440SOL     OW18952   3.346   0.167   6.412 -0.5276 -0.1804 -0.0595
 2440SOL    HW118953   3.277   0.140   6.473 -0.7154  1.3719  0.4042
 2440SOL    HW218954   3.417   0.147   6.473  0.1552  1.1912 -0.4276
 2441SOL     OW18955   1.279   0.841   5.937  0.1913  0.2146  0.0123
 2441SOL    HW118956   1.216   0.774   5.911  1.6689 -0.1039 -2.6599
 2441SOL    HW218957   1.303   0.869   5.849  1.1096 -0.3789  0.0660
 2442SOL     OW18958   3.614   2.820   1.146  0.4438 -0.1045  0.1243
 2442SOL    HW118959   3.598   2.850   1.236 -0.3077 -1.5394  0.4695
 2442SOL    HW218960   3.702   2.790   1.169 -0.4111 -1.9288  1.0306
 2443SOL     OW18961   2.676   2.170   5.800  0.2176  0.1134  0.1590
 2443SOL    HW118962   2.752   2.197   5.853  0.7249  2.5244 -1.7727
 2443SOL    HW218963   2.611   2.220   5.850 -0.9103  1.0884 -2.3029
 2444SOL     OW18964   3.691   4.423  15.594 -0.0571 -0.0795 -0.1628
 2444SOL    HW118965   3.761   4.425  15.659 -0.0927 -0.7242 -0.1038
 2444SOL    HW218966   3.739   4.467  15.524 -0.4480  0.6341  0.0150
 2445SOL     OW18967   4.707   4.024   7.781 -0.1718  0.0655  0.4158
 2445SOL    HW118968   0.027   4.098   7.800  0.9201 -0.2984 -1.5399
 2445SOL    HW218969   4.699   3.983   7.867  2.7003  1.8972  1.5839
 2446SOL     OW18970   1.394   3.564   0.870 -0.2694  0.2054  0.0290
 2446SOL    HW118971   1.443   3.515   0.803  1.3835 -0.7936  1.9713
 2446SOL    HW218972   1.378   3.646   0.823 -1.3636 -0.3677 -0.6081
 2447SOL     OW18973   4.272   1.357   3.645  0.3083 -0.5027 -0.2921
 2447SOL    HW118974   4.260   1.300   3.569 -1.0913 -1.8828  0.9819
 2447SOL    HW218975   4.336   1.419   3.610 -0.5341  0.4155 -0.1991
 2448SOL     OW18976   2.122   2.065   0.948 -0.3112 -0.2073  1.1881
 2448SOL    HW118977   2.101   2.081   0.856 -0.7278  1.3180  1.5438
 2448SOL    HW218978   2.151   1.974   0.941 -0.5853 -0.1462 -0.7956
 2449SOL     OW18979   2.446   3.036   5.943 -0.0585 -0.1654  0.4974
 2449SOL    HW118980   2.380   2.979   5.904 -0.8105 -0.6298  2.4549
 2449SOL    HW218981   2.400   3.120   5.945 -1.0303 -0.7233  1.9537
 2450SOL     OW18982   3.116   2.590   2.191  0.2228  0.1830 -0.0103
 2450SOL    HW118983   3.124   2.566   2.283  0.2133  1.2776  0.2727
 2450SOL    HW218984   3.024   2.570   2.173  0.2428 -0.5772  0.7298
 2451SOL     OW18985   4.209   1.792   5.067 -0.7088  0.0968 -0.5164
 2451SOL    HW118986   4.221   1.884   5.044  0.8263 -0.0061 -0.1059
 2451SOL    HW218987   4.114   1.789   5.084 -0.8520  0.4990 -1.2438
 2452SOL     OW18988   2.255   2.075   3.338 -0.5400 -0.3833 -0.1204
 2452SOL    HW118989   2.324   2.122   3.290  1.7885 -0.9984  2.6060
 2452SOL    HW218990   2.255   2.119   3.423 -1.4795 -0.1762 -0.2314
 2453SOL     OW18991   4.018   1.068  11.061 -0.8672  0.5031 -0.7769
 2453SOL    HW118992   3.971   1.039  10.983 -1.1650  2.9191 -1.5091
 2453SOL    HW218993   4.108   1.052  11.033 -0.5374  0.2453  0.4360
 2454SOL     OW18994   2.443   2.414   1.824  0.2975  0.2538  0.3222
 2454SOL    HW118995   2.377   2.372   1.769  0.0732  0.6153  0.3126
 2454SOL    HW218996   2.389   2.435   1.900 -1.5908  2.1549 -1.5534
 2455SOL     OW18997   1.121   1.948   5.050  0.7881  0.5893  0.3777
 2455SOL    HW118998   1.202   1.939   4.999  0.7594  1.8924  0.0947
 2455SOL    HW218999   1.056   1.967   4.982  1.4471 -1.2105 -0.7349
 2456SOL     OW19000   3.937   4.004  12.139  0.4291  0.0624 -0.3457
 2456SOL    HW119001   3.914   3.914  12.117  2.4798 -0.5357 -0.0811
 2456SOL    HW219002   3.870   4.023  12.204  0.5670 -0.1433 -0.1391
 2457SOL     OW19003   2.514   0.245   3.062  0.7369 -0.0848  0.3264
 2457SOL    HW119004   2.591   0.275   3.110  1.3217 -1.8187  0.4639
 2457SOL    HW219005   2.507   0.308   2.991  0.7623  0.2693  0.6409
 2458SOL     OW19006   1.022   0.894   5.725  0.2341 -0.7358  0.3664
 2458SOL    HW119007   0.962   0.849   5.665 -0.2071  0.2231  0.0835
 2458SOL    HW219008   1.102   0.846   5.706  0.8460  1.0425 -1.5204
 2459SOL     OW19009   1.146   1.310   3.771 -0.7948 -0.1147 -0.1705
 2459SOL    HW119010   1.120   1.397   3.800  0.4571  0.6256 -1.3095
 2459SOL    HW219011   1.151   1.313   3.676  0.0116 -0.7840 -0.1544
 2460SOL     OW19012   2.298   1.211   7.276 -0.0984 -0.1309  0.9807
 2460SOL    HW119013   2.385   1.232   7.242 -1.2482  1.7939 -0.7704
 2460SOL    HW219014   2.242   1.214   7.199 -2.4368 -0.0676  2.6794
 2461SOL     OW19015   1.313   2.345  10.248  0.0600 -0.2217 -0.0319
 2461SOL    HW119016   1.345   2.333  10.158  1.5314 -1.9442  0.7297
 2461SOL    HW219017   1.248   2.275  10.255  0.1739 -0.3946 -0.6610
 2462SOL     OW19018   3.373   1.130   2.394 -0.0727  0.3801 -0.0706
 2462SOL    HW119019   3.310   1.060   2.375 -2.1129  1.8487  1.2563
 2462SOL    HW219020   3.329   1.210   2.363  1.3047  0.0449 -2.9028
 2463SOL     OW19021   3.130   3.439   4.202 -0.2543  0.2036 -0.2176
 2463SOL    HW119022   3.083   3.378   4.259 -0.0902 -0.0821 -0.3880
 2463SOL    HW219023   3.066   3.508   4.182 -0.5906 -0.1502 -0.3727
 2464SOL     OW19024   3.725   0.256   9.401  0.0945  0.1579  0.3638
 2464SOL    HW119025   3.770   0.182   9.360 -1.5751 -0.9795  0.5797
 2464SOL    HW219026   3.789   0.271   9.470  1.3587 -2.3031 -0.3018
 2465SOL     OW19027   1.056   4.695  10.430  0.4892  0.1581 -0.0084
 2465SOL    HW119028   0.984   4.736  10.479 -0.9304 -0.7839 -1.3170
 2465SOL    HW219029   1.024   4.724  10.345  2.3470 -0.4098 -0.8912
 2466SOL     OW19030   2.350   4.155  13.105 -0.1681  0.1737 -0.3586
 2466SOL    HW119031   2.393   4.202  13.177  1.5990 -0.7803 -0.7836
 2466SOL    HW219032   2.297   4.220  13.058 -2.6386 -1.4554  0.2032
 2467SOL     OW19033   1.154   4.369   0.907  0.3178 -0.4942 -0.2834
 2467SOL    HW119034   1.063   4.353   0.928 -0.2497 -1.6239 -3.5977
 2467SOL    HW219035   1.151   4.459   0.874 -1.0909 -0.0355  1.1037
 2468SOL     OW19036   2.979   2.765   5.695  0.2285  0.3541 -0.2791
 2468SOL    HW119037   3.050   2.828   5.705  0.9458 -0.1879 -1.8234
 2468SOL    HW219038   3.011   2.690   5.746 -2.8879 -0.2313  0.7824
 2469SOL     OW19039   3.212   3.754   4.499 -0.6742 -0.5144  0.4334
 2469SOL    HW119040   3.120   3.778   4.496 -1.4551 -3.5714 -0.5691
 2469SOL    HW219041   3.243   3.763   4.409  1.0585 -0.5762  1.0142
 2470SOL     OW19042   2.820   3.394   3.896  0.1192 -0.9247 -0.3519
 2470SOL    HW119043   2.762   3.319   3.882  0.5284 -1.8676  2.8287
 2470SOL    HW219044   2.835   3.389   3.991 -0.6649 -0.1244 -0.1879
 2471SOL     OW19045   3.116   1.902  12.031 -0.5724 -0.3717 -0.0542
 2471SOL    HW119046   3.156   1.815  12.031 -0.9917 -0.5659 -0.1409
 2471SOL    HW219047   3.186   1.955  12.069 -0.9235 -0.5933  0.9254
 2472SOL     OW19048   4.007   3.479   7.423 -0.1778  0.6933 -0.1891
 2472SOL    HW119049   4.071   3.484   7.352 -0.6910  0.0734 -0.6865
 2472SOL    HW219050   3.974   3.568   7.408 -0.5253  0.2253 -2.1078
 2473SOL     OW19051   2.990   2.020  16.288 -0.2858  0.5501 -0.4586
 2473SOL    HW119052   2.964   2.085  16.353 -2.0972 -3.2042  2.5695
 2473SOL    HW219053   2.976   2.081  16.216  2.2293  1.3065 -0.2921
 2474SOL     OW19054   2.178   2.166   5.151 -0.5600  0.1404  0.1341
 2474SOL    HW119055   2.121   2.232   5.191 -1.8331 -0.6422 -0.3942
 2474SOL    HW219056   2.122   2.144   5.077 -0.2481 -0.8802  0.2117
 2475SOL     OW19057   2.580   4.502   5.052 -0.4674 -0.5245 -0.0080
 2475SOL    HW119058   2.563   4.468   4.965  0.1727  0.8051 -0.6576
 2475SOL    HW219059   2.673   4.479   5.054 -0.2176  0.4366 -1.1605
 2476SOL     OW19060   0.429   4.630   9.660 -0.7376 -1.1206  0.5678
 2476SOL    HW119061   0.409   4.539   9.642 -2.5635 -0.8304  1.0920
 2476SOL    HW219062   0.357   4.644   9.722 -1.0580  2.7189 -0.6585
 2477SOL     OW19063   4.617   3.509   3.209 -0.4268 -0.0951 -0.1643
 2477SOL    HW119064   4.609   3.599   3.240 -1.0959 -0.8108  1.7684
 2477SOL    HW219065   4.712   3.497   3.208 -0.3975  0.1925 -0.6522
 2478SOL     OW19066   2.879   4.626   5.390  0.3551 -0.1421  0.1592
 2478SOL    HW119067   2.927   4.667   5.318 -1.6569  0.1227 -1.0117
 2478SOL    HW219068   2.855   4.700   5.447  1.8837 -0.4586  1.2175
 2479SOL     OW19069   4.358   4.372  14.260 -0.0921 -0.1959  0.3169
 2479SOL    HW119070   4.402   4.288  14.269  1.3139  0.4545 -0.5149
 2479SOL    HW219071   4.330   4.385  14.351  0.0489  1.5441  0.1232
 2480SOL     OW19072   1.178   0.864   3.307 -0.3022 -0.3014 -0.4524
 2480SOL    HW119073   1.230   0.785   3.291  0.8173  0.0890  1.2415
 2480SOL    HW219074   1.126   0.867   3.227 -0.5837 -2.9037 -0.3847
 2481SOL     OW19075   3.571   2.406   5.239 -0.1896 -0.2611 -0.0641
 2481SOL    HW119076   3.506   2.357   5.288 -1.0243  0.8179 -0.0962
 2481SOL    HW219077   3.647   2.420   5.295  0.9210  0.7359 -1.8247
 2482SOL     OW19078   4.373   3.138   3.997 -0.0417  0.5234  0.0164
 2482SOL    HW119079   4.345   3.207   3.937 -1.1293 -1.7256 -2.0778
 2482SOL    HW219080   4.339   3.177   4.077  1.3786 -0.3557  1.0485
 2483SOL     OW19081   2.452   2.915   7.240  0.2463 -0.4587  0.0790
 2483SOL    HW119082   2.488   2.832   7.271 -1.9705 -0.8075  1.7155
 2483SOL    HW219083   2.506   2.987   7.272  0.2795 -0.3319 -0.2593
 2484SOL     OW19084   2.825   1.633  11.751  0.7307 -0.4039  0.6370
 2484SOL    HW119085   2.913   1.655  11.718  0.4974  0.5686  0.6420
 2484SOL    HW219086   2.832   1.707  11.812  0.8578 -1.4655  1.8890
 2485SOL     OW19087   0.589   3.865   9.589 -0.2410  0.3027  0.4207
 2485SOL    HW119088   0.684   3.877   9.597 -0.4495  0.8860  2.1109
 2485SOL    HW219089   0.582   3.838   9.498  0.4687  1.3258  0.0543
 2486SOL     OW19090   1.508   0.764  17.728 -0.2003  0.1282  0.2646
 2486SOL    HW119091   1.456   0.704  17.675  1.1206 -1.7020  1.0137
 2486SOL    HW219092   1.570   0.700   0.011  0.4190 -0.5723 -2.0690
 2487SOL     OW19093   1.569   1.247   1.917  0.2062 -0.0861  0.4520
 2487SOL    HW119094   1.615   1.181   1.969 -0.4541 -1.1604 -0.3296
 2487SOL    HW219095   1.537   1.187   1.850  2.5174 -1.1879  0.3204
 2488SOL     OW19096   3.947   0.004  16.276 -0.2108  0.2242 -0.1274
 2488SOL    HW119097   3.877   4.678  16.272  1.7720 -1.9421  0.3901
 2488SOL    HW219098   4.011   4.687  16.232 -2.1426 -2.2398  0.1892
 2489SOL     OW19099   2.711   3.222  16.735 -0.5058  0.6109  0.3849
 2489SOL    HW119100   2.759   3.172  16.801  1.9208 -0.6875 -2.3985
 2489SOL    HW219101   2.697   3.306  16.779  1.4331  0.9826  0.2803
 2490SOL     OW19102   1.469   1.342  12.687  0.0517 -0.3572  0.7163
 2490SOL    HW119103   1.398   1.310  12.631  0.7136 -0.0553 -0.2938
 2490SOL    HW219104   1.424   1.315  12.767  0.6053 -1.2061  0.7411
 2491SOL     OW19105   3.880   3.130  15.119  0.0250 -0.0571  0.5348
 2491SOL    HW119106   3.806   3.143  15.060  1.3297  3.3102 -0.3869
 2491SOL    HW219107   3.837   3.135  15.204 -2.0575 -3.1281 -0.3546
 2492SOL     OW19108   4.187   0.837   4.031  0.0129  0.2096 -0.8648
 2492SOL    HW119109   4.227   0.804   3.951 -1.4396 -1.3751 -0.9368
 2492SOL    HW219110   4.095   0.849   4.009 -1.2072  0.2931  4.2483
 2493SOL     OW19111   3.053   0.478  12.978  0.7183  0.8833 -0.2888
 2493SOL    HW119112   3.140   0.446  13.000 -1.0776 -2.2448  2.1794
 2493SOL    HW219113   3.024   0.493  13.068  0.7584 -0.5653 -0.0342
 2494SOL     OW19114   4.194   3.711   6.984 -0.0539  0.0280  0.0385
 2494SOL    HW119115   4.150   3.764   7.051  1.2091  0.5774  0.4288
 2494SOL    HW219116   4.112   3.675   6.950 -0.7783  0.6250  1.1318
 2495SOL     OW19117   1.181   4.649  10.126 -0.1065 -0.4091  0.3166
 2495SOL    HW119118   1.159   4.738  10.156 -1.9265 -1.0315  0.7951
 2495SOL    HW219119   1.267   4.669  10.088 -0.2649  1.1625  0.7873
 2496SOL     OW19120   3.242   2.010   6.218  0.7457  0.0683  0.1793
 2496SOL    HW119121   3.233   1.921   6.183  0.5555 -0.0199  0.4475
 2496SOL    HW219122   3.199   2.010   6.304  1.6796  1.3855  0.6359
 2497SOL     OW19123   2.012   3.170   4.364 -0.3682 -0.0476  0.0007
 2497SOL    HW119124   1.961   3.112   4.422 -1.4406 -0.1993 -1.0853
 2497SOL    HW219125   2.044   3.102   4.306  0.6882  0.5730 -0.1311
 2498SOL     OW19126   2.962   4.058   8.276  0.1844 -0.1988 -0.3117
 2498SOL    HW119127   2.925   4.032   8.360 -1.7672 -1.2983 -1.5005
 2498SOL    HW219128   2.880   4.086   8.234 -0.3218 -1.9341 -0.4890
 2499SOL     OW19129   2.033   2.117   7.980 -0.0655 -0.2134  0.0801
 2499SOL    HW119130   1.985   2.120   8.063 -0.4837  2.2358 -0.2656
 2499SOL    HW219131   2.033   2.197   7.928 -2.9764 -2.2273 -3.0060
 2500SOL     OW19132   2.220   0.565   2.268 -0.3138 -0.1785 -0.2351
 2500SOL    HW119133   2.178   0.623   2.332  3.4172  3.8573 -1.4381
 2500SOL    HW219134   2.292   0.528   2.320 -0.6605  0.9118  1.0424
 2501SOL     OW19135   4.569   3.531   6.411 -0.0376 -0.0043 -0.2723
 2501SOL    HW119136   4.525   3.591   6.471 -1.5713 -2.1005  0.6745
 2501SOL    HW219137   4.660   3.557   6.427  0.5166 -2.6081  0.6901
 2502SOL     OW19138   0.698   3.464   2.151 -0.1907  0.1063  0.4413
 2502SOL    HW119139   0.645   3.413   2.089  1.8720  0.4095 -1.6038
 2502SOL    HW219140   0.790   3.441   2.135  0.0152  0.6592  0.8513
 2503SOL     OW19141   2.391   0.516   1.992  0.1119 -0.7682  0.1635
 2503SOL    HW119142   2.369   0.543   1.902  1.0377 -0.8070 -0.0770
 2503SOL    HW219143   2.347   0.432   2.000 -1.0774 -0.3061 -1.4870
 2504SOL     OW19144   1.341   0.301   7.639  0.7139  0.1494  0.3886
 2504SOL    HW119145   1.424   0.348   7.641  1.3665 -0.8961 -1.7751
 2504SOL    HW219146   1.308   0.337   7.557 -3.5745 -2.6639  0.8877
 2505SOL     OW19147   4.456   4.278   0.159 -0.0198  0.2603 -0.3645
 2505SOL    HW119148   4.368   4.298   0.128 -0.0486  0.3361 -0.2338
 2505SOL    HW219149   4.505   4.276   0.077 -0.5025 -0.7398 -0.6271
 2506SOL     OW19150   1.651   4.300  12.563 -0.6309 -0.4970 -0.4011
 2506SOL    HW119151   1.729   4.285  12.510  0.6247  0.6599  1.1265
 2506SOL    HW219152   1.667   4.377  12.618 -0.5998 -0.6783 -0.1538
 2507SOL     OW19153   1.795   0.748  12.564 -0.1459  0.2128  0.0226
 2507SOL    HW119154   1.818   0.806  12.637 -0.2713 -0.3641  0.5248
 2507SOL    HW219155   1.875   0.759  12.513 -0.9876  1.0949 -1.1141
 2508SOL     OW19156   3.120   2.034   3.511 -0.4987 -0.0155  0.1564
 2508SOL    HW119157   3.179   2.103   3.483 -0.2952  0.4482  1.7416
 2508SOL    HW219158   3.077   2.075   3.586  0.1174 -0.3462  0.6918
 2509SOL     OW19159   3.646   2.908   7.901  0.1663 -0.1499  0.1427
 2509SOL    HW119160   3.630   2.953   7.818 -0.5893 -1.0900 -0.2260
 2509SOL    HW219161   3.561   2.870   7.924 -0.0103  0.0201 -0.2315
 2510SOL     OW19162   4.364   2.428   1.036 -0.6194  0.1784  0.5726
 2510SOL    HW119163   4.371   2.442   0.942  0.1232  1.8937  0.8743
 2510SOL    HW219164   4.427   2.493   1.068 -0.4568  0.9891 -1.4172
 2511SOL     OW19165   0.867   0.987   9.133  0.1274  0.4088  0.4296
 2511SOL    HW119166   0.931   0.958   9.197 -0.4316 -2.3258 -0.2736
 2511SOL    HW219167   0.926   1.001   9.059 -1.0066  0.6722 -0.4317
 2512SOL     OW19168   2.546   2.648   6.483  0.0105 -0.0579  0.7012
 2512SOL    HW119169   2.619   2.590   6.458 -0.4231 -0.1188 -0.4087
 2512SOL    HW219170   2.594   2.728   6.462  0.3755 -1.4557 -3.9224
 2513SOL     OW19171   2.264   4.666   2.120 -0.1757  0.1351 -0.3084
 2513SOL    HW119172   2.171   4.661   2.097 -0.7947  1.7466  1.8945
 2513SOL    HW219173   2.276   4.571   2.127  0.3536  0.3488  1.5902
 2514SOL     OW19174   0.899   2.745   6.562  0.0821 -0.3880  0.2181
 2514SOL    HW119175   0.903   2.790   6.646 -2.3731  0.4571 -0.1158
 2514SOL    HW219176   0.853   2.663   6.583 -0.0784 -0.6517 -1.1706
 2515SOL     OW19177   1.809   3.919   9.988  0.0322 -0.3579 -0.2468
 2515SOL    HW119178   1.829   3.939  10.080 -0.1352 -0.9947 -0.0682
 2515SOL    HW219179   1.755   3.994   9.963 -1.0434 -1.1545 -0.3397
 2516SOL     OW19180   1.705   0.162   3.937  0.1096  0.0557  0.2943
 2516SOL    HW119181   1.707   0.257   3.947 -1.0564  0.1797 -0.6945
 2516SOL    HW219182   1.655   0.144   3.857 -0.4851 -0.9200  0.8768
 2517SOL     OW19183   1.776   4.526   6.094 -0.0009  0.1432 -0.2622
 2517SOL    HW119184   1.828   4.458   6.051  2.5423  0.3835  2.4224
 2517SOL    HW219185   1.778   4.500   6.186  0.4570  0.1920 -0.2588
 2518SOL     OW19186   1.136   1.197   7.680 -0.5422 -0.3135 -0.6382
 2518SOL    HW119187   1.210   1.212   7.621  0.7944 -1.8744  0.6481
 2518SOL    HW219188   1.066   1.199   7.615 -0.0066  1.0311 -1.1793
 2519SOL     OW19189   1.302   2.414   7.208  0.5151  0.2113 -0.6484
 2519SOL    HW119190   1.347   2.471   7.270 -2.5201  0.6365  1.1523
 2519SOL    HW219191   1.216   2.455   7.206  0.9711  1.1543 -1.0151
 2520SOL     OW19192   0.025   0.658   6.343 -0.4233 -0.1705 -0.0736
 2520SOL    HW119193   4.731   0.669   6.433  0.7771 -0.2572  0.3682
 2520SOL    HW219194   0.095   0.721   6.326 -0.6609 -0.0169 -0.4759
 2521SOL     OW19195   4.408   2.380  10.226 -0.0104  0.7295  0.0651
 2521SOL    HW119196   4.422   2.286  10.242  1.1016  0.8665 -0.1076
 2521SOL    HW219197   4.390   2.419  10.312 -3.3567  1.8951 -1.1588
 2522SOL     OW19198   3.604   1.625   6.071 -0.0900  0.5952 -0.0642
 2522SOL    HW119199   3.683   1.660   6.112 -0.5734  0.4921  0.9634
 2522SOL    HW219200   3.556   1.708   6.074 -1.1689 -0.0643  0.7326
 2523SOL     OW19201   4.331   2.184  15.085 -0.6132  0.4046  0.4368
 2523SOL    HW119202   4.276   2.110  15.062  0.2406  0.5487 -2.0514
 2523SOL    HW219203   4.405   2.160  15.030 -1.2061 -0.3556 -0.0351
 2524SOL     OW19204   0.893   3.848   5.974 -0.6212  0.1854  0.4354
 2524SOL    HW119205   0.951   3.924   5.967  2.4242 -2.0219  1.4037
 2524SOL    HW219206   0.935   3.798   6.044 -1.1306  0.6249  1.0558
 2525SOL     OW19207   0.852   1.617  11.056 -0.0364  0.1679  0.5895
 2525SOL    HW119208   0.853   1.712  11.046  1.5699  0.3112  2.1592
 2525SOL    HW219209   0.777   1.598  11.112  0.5197 -1.9747  0.6033
 2526SOL     OW19210   2.400   3.740   2.410  0.2391  0.4536 -0.7491
 2526SOL    HW119211   2.355   3.802   2.353  1.0618  2.9715  1.3297
 2526SOL    HW219212   2.480   3.733   2.358  0.7084  0.6964 -0.0679
 2527SOL     OW19213   4.385   0.061   4.673 -0.5894 -0.4882 -0.0373
 2527SOL    HW119214   4.424   4.715   4.652 -0.9123 -0.8933  1.0272
 2527SOL    HW219215   4.415   0.072   4.763 -1.3995  1.2285  0.0088
 2528SOL     OW19216   3.680   0.647   3.349  0.0260  0.3647  0.5491
 2528SOL    HW119217   3.605   0.706   3.354  0.4756  1.1283 -1.6998
 2528SOL    HW219218   3.711   0.686   3.268  0.6028 -0.9362  0.1432
 2529SOL     OW19219   1.929   4.379   2.651 -0.4304  0.1545 -0.6098
 2529SOL    HW119220   1.914   4.473   2.647 -2.0067 -0.0724 -0.2337
 2529SOL    HW219221   1.932   4.376   2.747 -3.8997  2.0452 -0.4261
 2530SOL     OW19222   1.571   1.867   2.457  0.1061  0.2036  0.4077
 2530SOL    HW119223   1.545   1.788   2.504 -0.1066 -0.8469 -1.4677
 2530SOL    HW219224   1.492   1.881   2.405 -0.0510 -2.0472  0.0255
 2531SOL     OW19225   1.633   4.357   4.315 -0.3048  0.1245  0.5267
 2531SOL    HW119226   1.551   4.360   4.266 -0.8196 -1.2808  1.3060
 2531SOL    HW219227   1.631   4.268   4.348 -3.1257  0.5101  1.4089
 2532SOL     OW19228   3.916   0.059  17.144 -0.6195  0.0698  0.4660
 2532SOL    HW119229   3.960   4.717  17.168 -0.3945 -0.1284 -0.6059
 2532SOL    HW219230   3.916   0.065  17.048  1.3197 -1.5153  0.3691
 2533SOL     OW19231   0.303   3.666   7.676 -0.6236 -0.5403  0.2292
 2533SOL    HW119232   0.251   3.641   7.600  0.3079 -1.5457 -0.0776
 2533SOL    HW219233   0.394   3.642   7.656 -0.1771  1.0109  0.3928
 2534SOL     OW19234   2.209   1.372   5.022  0.3583  0.0664 -0.2669
 2534SOL    HW119235   2.275   1.306   5.002  0.6286 -0.1886  1.4715
 2534SOL    HW219236   2.262   1.450   5.035  0.5986 -0.2930  0.8762
 2535SOL     OW19237   3.936   0.601   9.264  0.4438 -0.7488 -0.5523
 2535SOL    HW119238   3.972   0.646   9.188  0.3818  2.7077  1.4679
 2535SOL    HW219239   3.913   0.519   9.221  0.6484 -1.5133  0.8019
 2536SOL     OW19240   4.522   1.853  13.161  0.1149  0.2577 -0.7833
 2536SOL    HW119241   4.506   1.850  13.255 -0.6464 -1.4877 -0.9782
 2536SOL    HW219242   4.441   1.896  13.132  0.7681  0.0160 -2.9228
 2537SOL     OW19243   3.401   2.039  14.801  0.3071  0.5356 -0.2909
 2537SOL    HW119244   3.395   1.988  14.882  0.7327 -1.7081 -1.6772
 2537SOL    HW219245   3.346   2.114  14.825 -0.6011  0.3671 -1.8802
 2538SOL     OW19246   0.099   4.017   5.959  0.0489 -0.1640 -0.4452
 2538SOL    HW119247   0.177   3.966   5.940 -1.3999 -1.7849 -2.0496
 2538SOL    HW219248   0.071   3.969   6.037 -0.5972  2.2670  0.8235
 2539SOL     OW19249   4.258   3.187   9.486 -0.6660 -0.0058 -0.8688
 2539SOL    HW119250   4.258   3.251   9.415  3.0561  0.5362 -0.3836
 2539SOL    HW219251   4.294   3.249   9.550  0.2916  0.8472 -2.2502
 2540SOL     OW19252   1.191   1.121   6.453 -0.5592 -0.1165  0.1972
 2540SOL    HW119253   1.220   1.032   6.429 -1.2843 -0.0312 -1.0307
 2540SOL    HW219254   1.174   1.125   6.547 -0.5628 -0.4388  0.2115
 2541SOL     OW19255   0.077   3.878  10.032 -0.1948 -0.2808  0.2565
 2541SOL    HW119256   0.141   3.879  10.103 -1.6041  0.5366  1.5073
 2541SOL    HW219257   0.111   3.793  10.002 -2.5301 -1.0232 -0.2401
 2542SOL     OW19258   1.034   3.832   8.737 -0.4302 -0.5991 -0.7091
 2542SOL    HW119259   1.005   3.896   8.671 -0.8612  2.6441  2.6685
 2542SOL    HW219260   0.951   3.814   8.782 -1.3586  2.3911 -1.2018
 2543SOL     OW19261   0.506   3.109   4.590 -0.5798 -0.2583 -0.1332
 2543SOL    HW119262   0.439   3.171   4.619  3.2836  2.9959  1.7998
 2543SOL    HW219263   0.489   3.117   4.496  1.7473  2.1403 -0.3572
 2544SOL     OW19264   1.675   1.804   6.719 -0.4107  0.3867  0.0275
 2544SOL    HW119265   1.764   1.797   6.685 -0.8094 -3.4013 -0.2919
 2544SOL    HW219266   1.653   1.714   6.743  0.2378  0.6922  1.7644
 2545SOL     OW19267   3.699   4.334   8.034  0.2545 -0.1071  0.4144
 2545SOL    HW119268   3.706   4.258   7.977 -0.0836  1.2343 -1.4352
 2545SOL    HW219269   3.769   4.314   8.096  1.1573  3.1042  0.4343
 2546SOL     OW19270   1.687   2.556  15.897 -0.3173  0.1385 -0.4284
 2546SOL    HW119271   1.763   2.498  15.900 -0.3363  0.0157 -2.1283
 2546SOL    HW219272   1.675   2.569  15.803 -3.5887  1.9398  0.2162
 2547SOL     OW19273   2.678   3.888  12.475  0.2338 -0.6272  0.2808
 2547SOL    HW119274   2.594   3.892  12.520 -1.0919 -2.3276 -2.0003
 2547SOL    HW219275   2.717   3.810  12.514  1.5800  1.0414  2.2515
 2548SOL     OW19276   2.788   2.441  10.996 -0.3837  0.3755 -0.1855
 2548SOL    HW119277   2.827   2.494  11.065 -3.2633  1.2647  0.7482
 2548SOL    HW219278   2.812   2.501  10.926 -0.9283 -0.2975 -0.9480
 2549SOL     OW19279   2.344   0.760   1.159  0.2502 -0.4169  1.1108
 2549SOL    HW119280   2.264   0.777   1.208 -0.8539 -1.7734 -0.1848
 2549SOL    HW219281   2.352   0.666   1.173 -0.5429 -0.9932 -2.1619
 2550SOL     OW19282   0.034   4.411   6.096  0.3476 -0.3384  0.2688
 2550SOL    HW119283   0.120   4.429   6.059  0.5941  1.1770  1.6115
 2550SOL    HW219284   0.045   4.444   6.185  1.3820  0.5970 -0.2109
 2551SOL     OW19285   2.436   4.264   3.318  0.4534  0.7215  0.1632
 2551SOL    HW119286   2.424   4.359   3.320  0.1157  0.6943 -0.3704
 2551SOL    HW219287   2.499   4.252   3.388 -0.1340 -0.1463  0.5543
 2552SOL     OW19288   1.065   3.066   3.791  0.4453  0.1342  0.2761
 2552SOL    HW119289   1.049   3.109   3.875 -0.3071  2.6512 -1.1832
 2552SOL    HW219290   1.086   3.139   3.734 -0.0643  0.4486  0.4894
 2553SOL     OW19291   4.286   0.099   3.256 -0.5767  0.1480  0.0690
 2553SOL    HW119292   4.230   0.124   3.329  0.2342 -2.6097  1.6328
 2553SOL    HW219293   4.376   0.117   3.281 -0.2627 -1.6304  0.2197
 2554SOL     OW19294   3.449   2.628   3.094 -0.2581  0.0629  0.0867
 2554SOL    HW119295   3.457   2.700   3.158  0.9644 -0.4127  0.4810
 2554SOL    HW219296   3.537   2.627   3.055 -0.7356 -0.7800 -0.9633
 2555SOL     OW19297   0.386   1.067   2.597 -0.5135 -0.0249  0.0769
 2555SOL    HW119298   0.421   1.143   2.643 -1.8644  1.5867 -1.5618
 2555SOL    HW219299   0.333   1.116   2.534 -1.0377 -0.5853  0.0782
 2556SOL     OW19300   2.175   0.273  13.501 -0.0602  0.1492  0.5569
 2556SOL    HW119301   2.221   0.319  13.430  1.6606 -3.1467 -0.4592
 2556SOL    HW219302   2.087   0.309  13.495 -0.6456 -1.1547  1.3637
 2557SOL     OW19303   2.384   0.677   2.747 -0.0009  0.3191  0.1993
 2557SOL    HW119304   2.353   0.592   2.779  0.7487 -0.2261 -0.5306
 2557SOL    HW219305   2.446   0.699   2.817  0.3613 -1.0706  0.3036
 2558SOL     OW19306   2.367   1.241   4.100  0.3763  0.8837  0.0925
 2558SOL    HW119307   2.326   1.315   4.145 -2.3148 -0.5625 -0.0256
 2558SOL    HW219308   2.353   1.267   4.009 -0.1813 -1.4259 -0.4809
 2559SOL     OW19309   2.491   4.500   5.476 -0.2096  0.4248 -0.6241
 2559SOL    HW119310   2.435   4.422   5.485 -1.6097  1.3704 -1.0580
 2559SOL    HW219311   2.569   4.460   5.437  0.9541  0.6947  1.4565
 2560SOL     OW19312   0.502   0.191   7.791  0.1848  0.1578 -0.3403
 2560SOL    HW119313   0.559   0.229   7.858 -1.0031  2.9024 -0.9009
 2560SOL    HW219314   0.416   0.217   7.822  1.6042  3.5017  0.8189
 2561SOL     OW19315   3.491   2.371  12.097 -0.2718  0.0124 -0.0578
 2561SOL    HW119316   3.489   2.466  12.103  0.2329 -0.1155  2.0276
 2561SOL    HW219317   3.435   2.349  12.171 -0.0044  0.2099  0.2030
 2562SOL     OW19318   3.795   3.915   2.122  0.1821 -0.3647 -1.1840
 2562SOL    HW119319   3.869   3.949   2.172  0.5047 -0.7399 -1.4078
 2562SOL    HW219320   3.721   3.955   2.167 -0.3970 -1.0406 -1.5418
 2563SOL     OW19321   2.574   1.542   4.538 -0.3720 -0.3722  0.0594
 2563SOL    HW119322   2.555   1.456   4.503 -2.2845 -0.5783  1.5884
 2563SOL    HW219323   2.547   1.599   4.466  0.9282 -1.3574 -1.2086
 2564SOL     OW19324   2.178   1.966  14.695 -0.0181  0.3845  0.2755
 2564SOL    HW119325   2.196   1.873  14.680  0.1858  0.7802 -1.8952
 2564SOL    HW219326   2.168   2.002  14.607  0.5638 -1.3149 -0.4875
 2565SOL     OW19327   0.570   1.780  13.527  0.8443 -0.0922 -0.0772
 2565SOL    HW119328   0.639   1.750  13.585  1.4603 -1.7475 -1.6633
 2565SOL    HW219329   0.548   1.697  13.485  1.5193 -0.8275  1.0605
 2566SOL     OW19330   1.494   1.765   9.016  0.2115  0.7168  0.1850
 2566SOL    HW119331   1.588   1.745   9.012 -0.0533 -0.6984  1.2834
 2566SOL    HW219332   1.455   1.712   8.947 -0.4438  1.9645 -0.3960
 2567SOL     OW19333   3.481   2.890   5.772  0.0570 -0.5238 -0.0009
 2567SOL    HW119334   3.463   2.796   5.780 -0.0006 -0.3970  1.3924
 2567SOL    HW219335   3.547   2.906   5.839 -1.7851  1.0359  1.4500
 2568SOL     OW19336   2.122   0.290  11.200 -0.3821 -0.2997 -0.1318
 2568SOL    HW119337   2.171   0.372  11.199  0.2683 -0.6982 -1.2175
 2568SOL    HW219338   2.057   0.303  11.269  0.5798  1.1494  0.5076
 2569SOL     OW19339   1.008   1.199   1.099  0.3758 -0.2997  0.1121
 2569SOL    HW119340   0.924   1.241   1.080 -0.5017 -1.5727  1.1879
 2569SOL    HW219341   1.040   1.185   1.010 -0.7267  1.2912 -0.5325
 2570SOL     OW19342   3.851   0.221  17.339 -0.2662 -0.2343 -0.1710
 2570SOL    HW119343   3.857   0.173  17.256  0.9499  0.5540 -0.5447
 2570SOL    HW219344   3.945   0.243  17.337 -0.4671  0.6311 -0.0524
 2571SOL     OW19345   1.040   2.818   1.762 -0.1157 -0.0877 -0.0416
 2571SOL    HW119346   0.957   2.784   1.727 -0.0725  1.1550 -1.3541
 2571SOL    HW219347   1.069   2.862   1.683  2.8296  0.7355  1.4869
 2572SOL     OW19348   3.281   4.574   7.964  0.0715  0.2614  0.4912
 2572SOL    HW119349   3.298   4.482   7.987  0.4348  0.1974 -0.0177
 2572SOL    HW219350   3.366   4.600   7.929 -0.1217  0.9941  0.5743
 2573SOL     OW19351   3.048   4.027   6.031  0.1658  0.1391  0.6646
 2573SOL    HW119352   3.054   3.933   6.014  0.1913  0.3684 -0.5964
 2573SOL    HW219353   3.120   4.062   5.978  0.4323 -0.6199  0.5195
 2574SOL     OW19354   1.666   4.674   8.527 -0.0942  0.3052 -0.2889
 2574SOL    HW119355   1.732   0.004   8.530  0.5927 -0.1688 -3.8171
 2574SOL    HW219356   1.595   4.719   8.571  1.0891  2.2402 -0.3517
 2575SOL     OW19357   3.087   1.980   5.784  0.1791 -0.0941 -0.1162
 2575SOL    HW119358   3.042   2.016   5.861  1.0522 -2.6478  1.5869
 2575SOL    HW219359   3.028   2.009   5.715  0.5005  0.2270 -0.2545
 2576SOL     OW19360   1.229   0.541  17.075 -0.3366 -0.3000 -0.2792
 2576SOL    HW119361   1.218   0.628  17.113  3.5674  0.5200 -1.0196
 2576SOL    HW219362   1.171   0.483  17.124 -1.9903  0.3103 -1.5307
 2577SOL     OW19363   1.653   0.735   7.741 -0.1144 -0.2200 -0.2420
 2577SOL    HW119364   1.689   0.805   7.794  1.4096  0.5595 -2.3154
 2577SOL    HW219365   1.731   0.703   7.696  1.0142  0.3672  1.3434
 2578SOL     OW19366   3.206   4.105   3.594 -0.3700 -0.1472  0.2229
 2578SOL    HW119367   3.158   4.184   3.620  2.3684  2.3911 -2.3467
 2578SOL    HW219368   3.262   4.133   3.522 -0.1995  2.3372  1.3051
 2579SOL     OW19369   3.752   1.552   9.726 -0.3977  0.0084  0.2830
 2579SOL    HW119370   3.767   1.642   9.756  1.5640 -0.1630 -0.1972
 2579SOL    HW219371   3.667   1.567   9.686  0.1389  0.9736 -0.5060
 2580SOL     OW19372   2.164   2.516  10.249 -0.4792  0.0110 -0.4693
 2580SOL    HW119373   2.127   2.452  10.310 -1.8144 -0.4563 -1.7687
 2580SOL    HW219374   2.113   2.495  10.170  1.1545 -1.4046 -1.1357
 2581SOL     OW19375   3.819   0.860   4.388  0.6613  0.2057 -0.8868
 2581SOL    HW119376   3.775   0.933   4.344 -0.5296  0.0375  0.0181
 2581SOL    HW219377   3.788   0.874   4.478  1.5973  2.1976 -0.8784
 2582SOL     OW19378   2.518   3.194   3.294  0.0728 -0.2311 -0.0112
 2582SOL    HW119379   2.468   3.120   3.329  0.0425  0.5612  1.6541
 2582SOL    HW219380   2.576   3.238   3.357 -0.4975  1.6151 -0.7998
 2583SOL     OW19381   4.029   2.752   2.816  0.7520  0.0527  0.2026
 2583SOL    HW119382   4.062   2.702   2.742  0.8935  2.3442 -1.2803
 2583SOL    HW219383   3.979   2.827   2.784  0.6971  0.6943  1.7814
 2584SOL     OW19384   4.384   3.737  13.742  0.1969  0.7916  0.5829
 2584SOL    HW119385   4.365   3.686  13.821 -0.1618 -2.1215 -1.3887
 2584SOL    HW219386   4.319   3.806  13.753 -1.7991 -0.6461 -2.4663
 2585SOL     OW19387   3.380   4.301   8.781  0.5467 -0.0276  0.6812
 2585SOL    HW119388   3.397   4.391   8.807 -1.6420  0.6422 -0.2754
 2585SOL    HW219389   3.468   4.263   8.773 -0.5121 -2.8487  2.6142
 2586SOL     OW19390   3.021   0.001   4.819  0.1397 -0.3141  0.0080
 2586SOL    HW119391   2.997   0.077   4.766  1.8484  0.5696  0.5035
 2586SOL    HW219392   3.110   4.727   4.786  0.2464 -1.0232  0.5865
 2587SOL     OW19393   2.247   0.841  12.931 -0.2429 -0.1452 -0.9736
 2587SOL    HW119394   2.293   0.758  12.916 -0.7521 -0.6636  0.3063
 2587SOL    HW219395   2.247   0.894  12.851  0.9701 -1.9995 -2.1818
 2588SOL     OW19396   0.039   1.408  12.398 -0.0601  0.0349 -0.0770
 2588SOL    HW119397   0.040   1.338  12.332 -0.4380 -1.4075  1.4280
 2588SOL    HW219398   0.106   1.378  12.459 -1.1410  0.1022  1.1650
 2589SOL     OW19399   2.664   1.566   8.429  0.0176 -0.3525 -0.6480
 2589SOL    HW119400   2.649   1.494   8.490 -1.9479  2.7972  2.5734
 2589SOL    HW219401   2.755   1.540   8.419  0.3402  0.3423  0.3757
 2590SOL     OW19402   2.191   0.224   7.347  0.1902  0.1987 -0.5306
 2590SOL    HW119403   2.261   0.234   7.283  2.0066 -1.3699  1.2146
 2590SOL    HW219404   2.229   0.267   7.424  0.4261  0.3472 -0.7312
 2591SOL     OW19405   2.467   0.230   1.061  0.2346 -0.3287  0.2743
 2591SOL    HW119406   2.514   0.147   1.051  1.6389  0.6955 -1.4937
 2591SOL    HW219407   2.377   0.197   1.064  0.3673 -0.6992  0.1930
 2592SOL     OW19408   1.884   0.619   3.600  0.0126 -0.0282  0.3118
 2592SOL    HW119409   1.878   0.713   3.582  1.0766 -0.2724 -1.2834
 2592SOL    HW219410   1.801   0.588   3.636  0.3961  1.7743  2.7391
 2593SOL     OW19411   3.803   0.639   6.953 -0.2271  0.6024 -0.6559
 2593SOL    HW119412   3.866   0.711   6.963 -0.9743  1.3527 -1.3205
 2593SOL    HW219413   3.801   0.604   7.042 -0.9962 -0.4555 -1.0906
 2594SOL     OW19414   2.513   2.500   7.559  0.1433  0.1044 -0.2394
 2594SOL    HW119415   2.564   2.474   7.636 -2.0864 -0.8631  0.9054
 2594SOL    HW219416   2.426   2.488   7.595 -0.3113  1.4637 -0.8830
 2595SOL     OW19417   1.744   4.211  16.412  0.0529 -0.5359 -0.5407
 2595SOL    HW119418   1.826   4.255  16.437  1.6454 -3.9738  0.3033
 2595SOL    HW219419   1.722   4.266  16.337 -1.9550  0.1749  0.5768
 2596SOL     OW19420   4.089   0.323   9.411  0.4725  0.8666 -0.0573
 2596SOL    HW119421   4.114   0.280   9.329  0.2485 -2.2907  1.5196
 2596SOL    HW219422   4.117   0.260   9.477 -1.9836 -0.9303 -0.7134
 2597SOL     OW19423   1.215   0.999   3.543  0.1831 -0.0336 -0.0987
 2597SOL    HW119424   1.154   1.073   3.546  0.6576  0.3217  0.8379
 2597SOL    HW219425   1.188   0.958   3.460  1.0232  0.9710 -0.8693
 2598SOL     OW19426   2.539   3.578  12.837 -0.4692 -0.0693 -0.5352
 2598SOL    HW119427   2.550   3.511  12.905  3.2529  0.2211 -0.8245
 2598SOL    HW219428   2.476   3.630  12.886  0.2930  0.3113  0.0605
 2599SOL     OW19429   0.235   0.763   4.771 -0.0509  0.0326  0.1885
 2599SOL    HW119430   0.172   0.692   4.789  1.5760 -2.2923 -3.3535
 2599SOL    HW219431   0.173   0.836   4.761 -0.1583  0.0380  0.8571
 2600SOL     OW19432   0.871   1.431   7.636 -0.1782 -0.1735  0.4667
 2600SOL    HW119433   0.916   1.434   7.552  1.2413  1.2001  1.2616
 2600SOL    HW219434   0.782   1.406   7.610 -0.8691  2.8508 -0.1216
 2601SOL     OW19435   0.917   3.338   5.446  0.3365  0.4329  0.3017
 2601SOL    HW119436   0.957   3.292   5.520 -0.7700 -3.0986 -1.3043
 2601SOL    HW219437   0.829   3.302   5.449  1.2021 -1.3783  3.8169
 2602SOL     OW19438   2.074   0.302   3.050  0.6944 -0.4050  0.1235
 2602SOL    HW119439   1.993   0.257   3.024  0.1845 -0.0299  1.0605
 2602SOL    HW219440   2.132   0.233   3.018  0.5455 -0.9338  1.0135
 2603SOL     OW19441   2.756   2.474   6.429  0.2360 -0.1848  0.1047
 2603SOL    HW119442   2.782   2.451   6.339  0.6135 -1.4751  0.5340
 2603SOL    HW219443   2.845   2.471   6.465  0.5047  0.5102 -0.4932
 2604SOL     OW19444   0.598   3.418   3.264  0.1202  0.2471  0.1214
 2604SOL    HW119445   0.606   3.332   3.224  0.3427  1.2919 -2.1196
 2604SOL    HW219446   0.525   3.446   3.209 -0.6377 -2.7131 -0.3430
 2605SOL     OW19447   2.596   1.286  11.124  0.2179 -0.1363 -0.1586
 2605SOL    HW119448   2.691   1.277  11.129  0.1844 -0.8595 -0.6772
 2605SOL    HW219449   2.568   1.242  11.043  2.8775 -2.3845  0.1222
 2606SOL     OW19450   2.049   4.589   6.192  0.1862  0.3782  0.7370
 2606SOL    HW119451   2.098   4.657   6.145 -0.2977 -0.1600 -0.5417
 2606SOL    HW219452   1.965   4.600   6.147 -0.1553  1.2703  1.5749
 2607SOL     OW19453   1.301   2.447  11.501 -0.2296 -0.0568 -0.5546
 2607SOL    HW119454   1.358   2.522  11.487 -2.9550  2.2539  0.8485
 2607SOL    HW219455   1.216   2.484  11.477  1.2285  2.1481 -2.3958
 2608SOL     OW19456   4.270   2.824   1.005  0.1602  0.3208 -0.2700
 2608SOL    HW119457   4.337   2.885   1.036 -0.5966  1.1043 -0.1966
 2608SOL    HW219458   4.268   2.765   1.081  0.7633  1.2915  0.5011
 2609SOL     OW19459   1.305   0.458   4.337  1.1694 -0.1685  0.0308
 2609SOL    HW119460   1.244   0.468   4.264  3.4342  2.2133 -1.5121
 2609SOL    HW219461   1.264   0.384   4.380 -1.1112  0.2562 -1.4289
 2610SOL     OW19462   0.979   3.786   3.336 -0.2338 -0.6384  0.0759
 2610SOL    HW119463   1.043   3.728   3.378  0.9688  1.5845  1.3162
 2610SOL    HW219464   0.909   3.722   3.325 -2.2214  1.4689  0.5076
 2611SOL     OW19465   1.094   0.280   8.102 -0.0842  0.3508 -0.2663
 2611SOL    HW119466   1.156   0.325   8.045  1.8104 -1.7280  0.1610
 2611SOL    HW219467   1.017   0.287   8.045 -1.0193 -0.1611  0.9197
 2612SOL     OW19468   4.545   2.589   6.733 -0.3665  0.0365 -0.4139
 2612SOL    HW119469   4.632   2.565   6.765 -0.0424 -0.3607 -1.5798
 2612SOL    HW219470   4.517   2.640   6.809 -0.2624  0.3874 -0.6087
 2613SOL     OW19471   0.683   4.385   6.414  0.2563  0.5003 -0.1929
 2613SOL    HW119472   0.762   4.420   6.372  1.0064 -0.9614  0.0058
 2613SOL    HW219473   0.686   4.294   6.383 -1.5587  0.3032  0.2360
 2614SOL     OW19474   4.004   0.885   6.456  0.1044  0.3145  1.1103
 2614SOL    HW119475   3.930   0.946   6.456  0.2665  0.5127  1.3560
 2614SOL    HW219476   4.072   0.943   6.421 -1.0986  0.9987 -0.1041
 2615SOL     OW19477   0.881   0.138   5.504  0.3123  0.2160 -0.3596
 2615SOL    HW119478   0.850   0.060   5.551  1.0903  0.4539  0.5631
 2615SOL    HW219479   0.900   0.194   5.580  0.9621  0.3850 -0.6461
 2616SOL     OW19480   2.246   2.148   9.200 -0.4143  0.2719  0.5683
 2616SOL    HW119481   2.190   2.074   9.174  1.0862  0.5853 -3.4485
 2616SOL    HW219482   2.182   2.191   9.257 -3.1760 -0.6054 -1.8391
 2617SOL     OW19483   3.745   1.356   2.525 -0.0669  0.4782 -0.5296
 2617SOL    HW119484   3.818   1.388   2.473  0.4532  0.6970  0.3477
 2617SOL    HW219485   3.696   1.329   2.447  1.9188 -1.0707 -1.2260
 2618SOL     OW19486   4.589   3.705   9.109  0.5517 -0.5279  0.3235
 2618SOL    HW119487   4.565   3.675   9.197 -1.1677  0.9771  0.3615
 2618SOL    HW219488   4.569   3.798   9.115  0.1625 -0.6423  0.7725
 2619SOL     OW19489   1.834   4.723   3.211 -0.4753  0.1066  0.1788
 2619SOL    HW119490   1.874   0.028   3.136 -0.2356 -0.4295 -0.0043
 2619SOL    HW219491   1.899   0.016   3.273 -1.8830 -1.9040  2.6505
 2620SOL     OW19492   0.978   3.831  10.972 -0.7253 -0.3163 -0.4261
 2620SOL    HW119493   0.993   3.860  10.882  3.1412  0.9260  0.6160
 2620SOL    HW219494   1.031   3.752  10.966  1.5700  1.3529 -1.6635
 2621SOL     OW19495   1.994   4.484  10.705 -0.3685  0.5007  0.0150
 2621SOL    HW119496   1.995   4.539  10.784 -3.2139  1.5798 -0.7086
 2621SOL    HW219497   2.088   4.473  10.690 -0.1124  1.6336  0.7536
 2622SOL     OW19498   1.351   2.037  12.734 -0.0478 -0.1899  0.0439
 2622SOL    HW119499   1.356   1.943  12.754 -1.7390 -0.3531 -0.2364
 2622SOL    HW219500   1.443   2.060  12.722 -0.4306  1.6743  0.7625
 2623SOL     OW19501   4.170   0.293  15.489  0.2182 -0.1883 -0.2308
 2623SOL    HW119502   4.232   0.366  15.478 -0.9099  0.5289 -1.8348
 2623SOL    HW219503   4.143   0.277  15.398  1.2476 -2.7658 -0.0673
 2624SOL     OW19504   1.077   4.317   2.579 -0.1616 -0.3135  0.0856
 2624SOL    HW119505   1.037   4.403   2.584  0.1826 -0.1759  0.4952
 2624SOL    HW219506   1.051   4.305   2.671  0.1912  1.6643  0.4458
 2625SOL     OW19507   2.288   3.733   3.772  0.1882 -0.7389  0.6434
 2625SOL    HW119508   2.215   3.688   3.729 -0.4812  1.3247 -0.3518
 2625SOL    HW219509   2.308   3.803   3.710  1.0954 -0.9325  0.7054
 2626SOL     OW19510   4.260   1.726   7.017  0.2013  0.1219 -0.6698
 2626SOL    HW119511   4.200   1.665   6.975 -3.1045  2.3475  0.8677
 2626SOL    HW219512   4.297   1.673   7.087 -2.4469 -1.0143 -0.1343
 2627SOL     OW19513   4.292   0.367   7.952 -0.4688 -0.2488 -0.1409
 2627SOL    HW119514   4.269   0.285   7.908  3.0148 -0.7368 -1.0438
 2627SOL    HW219515   4.341   0.326   8.023 -1.5742  0.1457  0.8391
 2628SOL     OW19516   3.846   2.177   7.264 -0.0238 -0.6751  1.0610
 2628SOL    HW119517   3.769   2.144   7.219 -0.1542 -2.0579  2.3022
 2628SOL    HW219518   3.912   2.145   7.203  2.4983  3.1142  1.7656
 2629SOL     OW19519   1.936   0.729   1.937  0.2811 -0.1008  0.4327
 2629SOL    HW119520   1.922   0.645   1.981 -1.6604 -1.2847 -2.4532
 2629SOL    HW219521   2.015   0.738   1.990  1.4698 -0.9975 -1.2046
 2630SOL     OW19522   1.731   2.365   1.962  0.3241  0.6697 -0.2367
 2630SOL    HW119523   1.643   2.333   1.942  0.6726 -0.0822 -0.5205
 2630SOL    HW219524   1.758   2.280   1.994 -1.6584  0.0650 -0.1362
 2631SOL     OW19525   1.985   1.381  11.908 -0.0038 -0.0644 -0.0114
 2631SOL    HW119526   2.062   1.415  11.954 -0.4204 -2.1003  2.2160
 2631SOL    HW219527   2.041   1.316  11.865  0.3260  0.1726  0.0566
 2632SOL     OW19528   1.484   3.330   3.091 -0.1812  0.4927 -0.2108
 2632SOL    HW119529   1.394   3.363   3.083  0.1833  1.2894 -1.0285
 2632SOL    HW219530   1.481   3.311   3.185 -3.0173  0.2777 -0.3237
 2633SOL     OW19531   4.632   2.054   5.145  0.0841 -0.2775  0.6063
 2633SOL    HW119532   4.538   2.036   5.144 -0.2750  1.5326  0.5073
 2633SOL    HW219533   4.667   2.000   5.216 -3.2587  0.4900  2.8373
 2634SOL     OW19534   4.040   2.521   4.171 -0.4176  0.7297  0.6435
 2634SOL    HW119535   4.083   2.437   4.186 -1.0428  0.7219  2.3321
 2634SOL    HW219536   3.969   2.487   4.116  1.0707 -0.8489 -0.3178
 2635SOL     OW19537   4.098   4.367  14.146 -0.5295 -0.8176  0.2515
 2635SOL    HW119538   4.176   4.356  14.200  0.4510 -0.3408 -1.0662
 2635SOL    HW219539   4.095   4.458  14.116  1.9398 -1.0572 -0.6934
 2636SOL     OW19540   1.676   2.896   6.504 -0.1280  0.3258 -0.1169
 2636SOL    HW119541   1.725   2.883   6.585 -0.4193  0.8701  0.1444
 2636SOL    HW219542   1.595   2.849   6.526  0.7177 -1.2070 -0.2450
 2637SOL     OW19543   3.477   2.126   4.677 -0.2172 -0.0365 -0.0369
 2637SOL    HW119544   3.411   2.084   4.623  0.1035 -0.4527 -0.1032
 2637SOL    HW219545   3.437   2.156   4.759 -0.0801 -1.8926  0.7089
 2638SOL     OW19546   4.730   3.022   9.001  0.4372 -0.6519  0.0831
 2638SOL    HW119547   4.721   2.935   9.038 -0.0517 -0.7953 -0.3701
 2638SOL    HW219548   0.086   3.031   9.012  0.1512 -3.4284  4.7007
 2639SOL     OW19549   0.523   2.964   4.856  0.0427 -0.2323 -0.1385
 2639SOL    HW119550   0.469   3.001   4.786 -0.2084 -0.9754 -0.3382
 2639SOL    HW219551   0.596   3.025   4.851 -0.2879  0.1056 -0.8578
 2640SOL     OW19552   2.997   4.575  14.992  0.1857  0.3521 -0.2627
 2640SOL    HW119553   2.943   4.507  14.952  1.8022 -0.3846 -1.2095
 2640SOL    HW219554   3.017   4.616  14.908 -0.8595  1.8757  0.2331
 2641SOL     OW19555   1.392   2.915   6.140 -0.0846  0.2422  0.5889
 2641SOL    HW119556   1.440   2.987   6.181 -0.7234  0.6205  0.6759
 2641SOL    HW219557   1.324   2.957   6.086  0.1684  2.4664  1.9998
 2642SOL     OW19558   2.974   0.600  15.950 -0.0693 -0.6100 -0.4008
 2642SOL    HW119559   2.945   0.689  15.968  0.0034 -0.8661  0.9392
 2642SOL    HW219560   2.945   0.590  15.859 -2.7668 -0.5927  0.4559
 2643SOL     OW19561   2.831   4.095   1.648  0.0517 -0.2209  0.1450
 2643SOL    HW119562   2.781   4.021   1.614  0.0423  0.3129 -0.9881
 2643SOL    HW219563   2.877   4.107   1.565 -2.9223  1.2414 -1.3055
 2644SOL     OW19564   1.900   0.202   6.786 -0.6275 -0.0481 -0.6877
 2644SOL    HW119565   1.989   0.186   6.754  0.5183 -2.7824  3.7949
 2644SOL    HW219566   1.876   0.274   6.728  2.4258  1.2379 -0.4070
 2645SOL     OW19567   0.771   2.553   8.720 -0.8529 -0.4665  0.8067
 2645SOL    HW119568   0.698   2.491   8.722  1.5373 -3.3023  0.4023
 2645SOL    HW219569   0.794   2.565   8.812  1.5254 -0.0557  0.1757
 2646SOL     OW19570   2.494   4.349   4.520 -0.2794  0.6038 -0.3584
 2646SOL    HW119571   2.571   4.317   4.473 -1.5457 -3.5461  0.4194
 2646SOL    HW219572   2.535   4.404   4.587 -0.2304  0.4054 -0.2255
 2647SOL     OW19573   2.169   1.047  11.541  0.3631 -0.2314 -0.3106
 2647SOL    HW119574   2.217   1.055  11.458 -2.2338  2.9089 -1.5307
 2647SOL    HW219575   2.170   1.136  11.577  0.0521 -1.5268  2.8720
 2648SOL     OW19576   0.351   1.544   5.229 -0.6097 -0.2933  0.1728
 2648SOL    HW119577   0.420   1.483   5.205  0.5579  0.4470  1.6840
 2648SOL    HW219578   0.389   1.623   5.189  0.1856 -0.6813  0.1755
 2649SOL     OW19579   2.438   2.790   0.817  0.5139 -0.4708 -0.2385
 2649SOL    HW119580   2.508   2.759   0.760  0.2474 -0.0948 -0.7813
 2649SOL    HW219581   2.421   2.712   0.869  1.5200 -1.4939 -1.4621
 2650SOL     OW19582   3.765   2.468   5.404 -0.2032  0.1280  0.0402
 2650SOL    HW119583   3.796   2.554   5.374  0.2366 -0.1473 -0.3023
 2650SOL    HW219584   3.854   2.435   5.419 -0.4690 -0.5209  0.1897
 2651SOL     OW19585   1.516   3.939   4.578 -0.0960 -0.1584  0.3587
 2651SOL    HW119586   1.514   3.910   4.669 -0.3655 -1.9915 -0.2268
 2651SOL    HW219587   1.430   3.980   4.581  1.1000  2.3145  0.7387
 2652SOL     OW19588   3.177   0.867   4.050  0.3244 -0.0759  0.0929
 2652SOL    HW119589   3.269   0.889   4.064  0.0773  2.0811 -1.5674
 2652SOL    HW219590   3.184   0.784   4.097  0.0446  0.1765  0.5790
 2653SOL     OW19591   1.709   1.431  14.853 -0.3661  0.3255  0.1498
 2653SOL    HW119592   1.719   1.485  14.775  0.2389  2.5685  1.7986
 2653SOL    HW219593   1.771   1.366  14.819 -0.6595  0.3905 -0.5158
 2654SOL     OW19594   1.510   3.792   5.358  0.0117  0.3243  0.0688
 2654SOL    HW119595   1.419   3.774   5.385 -0.0166 -1.5335 -1.2358
 2654SOL    HW219596   1.566   3.768   5.432 -2.7012 -1.1900  1.6161
 2655SOL     OW19597   2.501   2.734   2.754 -0.8308 -0.6245  0.1814
 2655SOL    HW119598   2.529   2.822   2.782 -0.4677 -0.2645 -1.3325
 2655SOL    HW219599   2.408   2.753   2.749 -0.3362  1.0242 -2.9044
 2656SOL     OW19600   2.070   1.173   5.203 -0.3305 -0.5632  0.2535
 2656SOL    HW119601   2.146   1.212   5.246 -0.5826  0.6407 -0.3712
 2656SOL    HW219602   2.065   1.094   5.257 -0.5911  0.4069  1.6521
 2657SOL     OW19603   2.932   4.532   3.761  0.2599 -0.0730 -0.3730
 2657SOL    HW119604   2.866   4.600   3.750  0.0827 -0.0861  0.6371
 2657SOL    HW219605   2.906   4.501   3.848  0.0492 -1.3246 -0.8779
 2658SOL     OW19606   0.556   0.582   8.662 -0.0486  0.2317  0.4238
 2658SOL    HW119607   0.558   0.647   8.732  0.4716 -0.6930  1.2775
 2658SOL    HW219608   0.628   0.605   8.604 -3.0948  1.3860 -2.8958
 2659SOL     OW19609   3.748   4.617   5.071  0.3423  0.0445 -0.0783
 2659SOL    HW119610   3.835   4.577   5.072 -0.6370 -2.1429 -1.7149
 2659SOL    HW219611   3.699   4.570   5.139  2.6301 -2.2157  0.0158
 2660SOL     OW19612   1.726   2.988   3.066  0.3415  0.0736 -0.2816
 2660SOL    HW119613   1.697   3.063   3.014  1.2611  0.3442 -0.4050
 2660SOL    HW219614   1.777   3.034   3.133  2.2510 -1.1244 -0.9388
 2661SOL     OW19615   2.202   2.600  15.158  0.2937  0.2893 -0.6032
 2661SOL    HW119616   2.281   2.650  15.135  0.1803  0.0673 -1.5037
 2661SOL    HW219617   2.192   2.633  15.247  2.1949 -0.1916 -0.2051
 2662SOL     OW19618   3.763   3.351   7.462 -0.2952 -0.2713  0.3418
 2662SOL    HW119619   3.849   3.388   7.444  0.1708 -0.8747  1.3541
 2662SOL    HW219620   3.763   3.349   7.558 -1.3502 -0.6113  0.3431
 2663SOL     OW19621   4.636   0.941  12.550 -0.0568  0.1477  0.2548
 2663SOL    HW119622   4.575   0.915  12.481 -0.1778 -1.0891  0.8194
 2663SOL    HW219623   4.575   0.986  12.608 -1.3000 -0.5976 -0.4745
 2664SOL     OW19624   3.020   1.527  13.757  0.6022  0.7437  0.2470
 2664SOL    HW119625   3.052   1.592  13.695  1.7551 -0.4460 -0.4272
 2664SOL    HW219626   3.102   1.504  13.801  0.2643  0.9514  0.9770
 2665SOL     OW19627   2.047   3.118   6.043  0.2987 -0.0749  0.1922
 2665SOL    HW119628   2.049   3.187   5.977 -0.5391  0.3256  0.5886
 2665SOL    HW219629   2.036   3.043   5.983 -1.1554 -1.8001  2.6244
 2666SOL     OW19630   2.703   4.512  17.341  0.2391 -0.4761  0.0832
 2666SOL    HW119631   2.684   4.421  17.317  0.9740 -0.7035  0.3575
 2666SOL    HW219632   2.733   4.564  17.266  1.3329 -0.3226  0.6265
 2667SOL     OW19633   3.966   1.507  11.209  0.3860 -0.3129 -0.3181
 2667SOL    HW119634   4.058   1.486  11.227  0.4435 -0.4860 -0.8083
 2667SOL    HW219635   3.969   1.594  11.167  0.5787  0.6373  1.6622
 2668SOL     OW19636   3.536   3.062   8.675 -0.4260  0.1361 -0.3540
 2668SOL    HW119637   3.513   3.135   8.731 -2.0863  0.1928 -1.0847
 2668SOL    HW219638   3.555   3.106   8.592 -1.5419  0.1173 -0.6232
 2669SOL     OW19639   3.199   4.112   6.778 -0.4347 -0.3411  0.0294
 2669SOL    HW119640   3.145   4.164   6.838 -0.3645  0.6068 -0.7241
 2669SOL    HW219641   3.283   4.107   6.823  0.2545 -0.0782 -1.2348
 2670SOL     OW19642   3.549   1.165   3.296  0.6862 -0.2173 -0.2608
 2670SOL    HW119643   3.632   1.189   3.256  0.3399 -0.1291 -0.9356
 2670SOL    HW219644   3.540   1.233   3.363  0.0628 -1.1114  0.5654
 2671SOL     OW19645   3.753   4.487   5.987 -0.0403 -0.0837 -0.1781
 2671SOL    HW119646   3.802   4.408   6.010  0.8838  0.5040 -0.1813
 2671SOL    HW219647   3.674   4.464   6.037 -0.1756 -0.7916 -0.7167
 2672SOL     OW19648   2.457   3.261   8.486 -0.1368 -0.4007  0.4317
 2672SOL    HW119649   2.362   3.258   8.473 -0.1186  0.7580  0.0520
 2672SOL    HW219650   2.494   3.236   8.401 -1.6542 -0.4767 -0.2035
 2673SOL     OW19651   2.311   3.369   8.240  0.1377  0.2668 -0.4515
 2673SOL    HW119652   2.303   3.460   8.213 -1.4634  0.1299 -0.4327
 2673SOL    HW219653   2.260   3.363   8.321 -0.7644  0.2180 -1.0250
 2674SOL     OW19654   4.670   3.259  13.230  0.3097  0.0924  0.0946
 2674SOL    HW119655   4.663   3.267  13.325 -2.4733 -1.2103 -0.0186
 2674SOL    HW219656   4.638   3.170  13.214  0.4546  0.2393 -0.9968
 2675SOL     OW19657   4.322   3.632   9.704  0.4750  0.8102 -0.4595
 2675SOL    HW119658   4.237   3.670   9.724  0.9387  1.1045  0.9738
 2675SOL    HW219659   4.356   3.698   9.644  0.9651 -0.4927 -1.6016
 2676SOL     OW19660   1.614   4.046   6.010  0.4897  0.4588 -0.2382
 2676SOL    HW119661   1.540   4.072   5.955 -1.4053 -3.5157  0.4106
 2676SOL    HW219662   1.673   4.117   5.985  2.2268 -1.3131 -1.0769
 2677SOL     OW19663   3.616   1.973   3.709  0.0602 -0.0008  0.2132
 2677SOL    HW119664   3.680   1.919   3.662  0.0683  1.2074 -1.1556
 2677SOL    HW219665   3.531   1.949   3.672  0.1462 -0.3999  0.2696
 2678SOL     OW19666   2.218   3.896   3.029 -0.1430 -0.2630 -0.5522
 2678SOL    HW119667   2.259   3.954   3.093  0.8456  0.5656 -1.9434
 2678SOL    HW219668   2.299   3.868   2.985  0.9151  1.9520  0.0175
 2679SOL     OW19669   2.615   4.646   7.830  0.1639 -0.4734 -0.1496
 2679SOL    HW119670   2.601   4.646   7.735 -2.1636 -0.7617  0.1978
 2679SOL    HW219671   2.534   4.678   7.870 -1.4791 -4.7903 -0.0687
 2680SOL     OW19672   0.399   2.555   4.128 -0.2729 -0.8793 -0.3556
 2680SOL    HW119673   0.330   2.565   4.063 -0.5919  0.9864  0.2563
 2680SOL    HW219674   0.352   2.494   4.184 -1.1684  0.5104  0.4001
 2681SOL     OW19675   0.105   0.702   1.995  0.5188 -0.0123 -0.5990
 2681SOL    HW119676   0.139   0.747   1.917 -0.4433 -0.5178 -1.3151
 2681SOL    HW219677   0.178   0.708   2.057  0.3858 -2.9194 -0.1876
 2682SOL     OW19678   4.631   4.547   2.907 -0.4831 -0.0394 -0.3438
 2682SOL    HW119679   4.588   4.614   2.960 -2.4057 -1.9484  0.5441
 2682SOL    HW219680   4.677   4.600   2.843 -1.3198 -1.4135 -2.0809
 2683SOL     OW19681   2.896   1.369  11.871 -0.1283 -0.1946 -0.7639
 2683SOL    HW119682   2.878   1.459  11.897  1.7476 -0.9818  3.3627
 2683SOL    HW219683   2.912   1.371  11.777 -2.5838 -2.4774 -1.2504
 2684SOL     OW19684   4.659   0.579   3.636  0.1260  0.2681  0.3218
 2684SOL    HW119685   0.009   0.566   3.671 -0.1555 -0.5324  0.7461
 2684SOL    HW219686   4.655   0.665   3.678 -2.3847  1.5825 -2.5864
 2685SOL     OW19687   3.111   0.050   2.289 -0.4463  0.1281 -1.1579
 2685SOL    HW119688   3.147   0.102   2.217  1.3662 -0.9462 -1.0495
 2685SOL    HW219689   3.079   4.709   2.247 -0.4301  0.6855 -2.2381
 2686SOL     OW19690   0.062   4.136   8.209 -0.3418  0.3154 -0.1692
 2686SOL    HW119691   0.023   4.224   8.214  0.2950  0.5923 -0.0480
 2686SOL    HW219692   0.136   4.150   8.267  0.4354 -0.5145 -0.9634
 2687SOL     OW19693   3.371   1.915   9.449 -0.4557  0.1185  0.4131
 2687SOL    HW119694   3.342   1.826   9.428 -1.4777  0.8173 -1.1501
 2687SOL    HW219695   3.293   1.968   9.438 -1.3682 -1.0784  1.1506
 2688SOL     OW19696   2.099   0.674  10.535  0.3631 -0.0349  0.5069
 2688SOL    HW119697   2.051   0.629  10.605 -0.5059 -2.5879 -1.7005
 2688SOL    HW219698   2.032   0.707  10.474  1.3861 -1.0358 -1.1386
 2689SOL     OW19699   3.045   3.061   5.321 -0.9861 -0.2538  0.2095
 2689SOL    HW119700   3.011   3.142   5.282  0.0979  0.0433 -0.1441
 2689SOL    HW219701   3.098   3.036   5.245 -2.5804 -0.7046 -0.7507
 2690SOL     OW19702   0.153   2.191  13.024 -0.1996  0.2482  0.2131
 2690SOL    HW119703   0.082   2.127  13.034  0.2882 -0.2939  0.2065
 2690SOL    HW219704   0.220   2.130  12.993 -1.3262 -0.3104 -1.1174
 2691SOL     OW19705   2.609   0.814   3.698 -0.6134 -0.8864  0.2899
 2691SOL    HW119706   2.568   0.787   3.616  0.3327 -1.5669  0.0454
 2691SOL    HW219707   2.562   0.766   3.766 -3.1604  1.5047  0.2312
 2692SOL     OW19708   3.575   1.867   6.275 -0.0179 -0.1513  0.8214
 2692SOL    HW119709   3.518   1.854   6.199 -2.0069 -0.3688  2.3727
 2692SOL    HW219710   3.534   1.823   6.349 -0.7859 -2.7703 -1.1627
 2693SOL     OW19711   2.946   3.088   1.366 -0.1403 -0.1401 -0.3557
 2693SOL    HW119712   3.027   3.076   1.317  0.7938  2.6941  0.4852
 2693SOL    HW219713   2.957   3.174   1.406 -1.6443 -0.5797  1.0261
 2694SOL     OW19714   4.067   4.185   0.902  0.5404  0.6515 -0.0434
 2694SOL    HW119715   4.117   4.255   0.861  2.8946 -1.2055 -0.3399
 2694SOL    HW219716   4.106   4.118   0.846  0.5663 -1.7472  2.8256
 2695SOL     OW19717   2.849   4.007   1.193  0.2109 -0.4062 -0.4147
 2695SOL    HW119718   2.820   4.049   1.112  0.2713  1.0229  0.3093
 2695SOL    HW219719   2.785   3.936   1.190  0.8838 -1.1600  2.6423
 2696SOL     OW19720   2.100   0.138   5.047 -0.2956 -0.1897  0.4884
 2696SOL    HW119721   2.020   0.107   5.004 -1.0451 -0.8459  2.3086
 2696SOL    HW219722   2.159   0.062   5.046  0.0336  0.0646  0.7344
 2697SOL     OW19723   1.278   0.761  13.591  0.0463  0.0231 -0.2044
 2697SOL    HW119724   1.256   0.852  13.612  1.0877 -0.0063  1.0235
 2697SOL    HW219725   1.188   0.736  13.571 -0.1140  0.5158 -0.1033
 2698SOL     OW19726   3.686   1.088   4.214 -0.0542  0.1239 -0.2334
 2698SOL    HW119727   3.593   1.079   4.194  0.5788 -3.2266 -1.6056
 2698SOL    HW219728   3.695   1.173   4.258 -0.1602  0.9421 -1.8009
 2699SOL     OW19729   3.422   2.139   2.742 -0.1429 -0.3420 -0.2258
 2699SOL    HW119730   3.355   2.077   2.712 -2.9905  1.8157  1.6860
 2699SOL    HW219731   3.437   2.098   2.827 -0.7481 -0.2807 -0.0883
 2700SOL     OW19732   0.995   2.908   6.182  0.1206  0.1174 -0.2147
 2700SOL    HW119733   1.075   2.958   6.198 -0.0493 -0.1431  1.3891
 2700SOL    HW219734   1.021   2.820   6.154  1.6382  0.7080 -0.6455
 2701SOL     OW19735   4.059   0.172   6.833 -0.5865  0.3516 -0.2442
 2701SOL    HW119736   4.024   0.148   6.919 -0.0901 -1.2233 -0.4981
 2701SOL    HW219737   3.992   0.142   6.771  0.3914 -0.3180 -0.9752
 2702SOL     OW19738   3.923   4.297   2.868  0.2206 -0.1381  0.4042
 2702SOL    HW119739   3.965   4.357   2.806  0.2535  0.2946  0.8442
 2702SOL    HW219740   3.843   4.345   2.886  1.7346  1.6254  2.4372
 2703SOL     OW19741   1.490   2.459   6.794 -0.1781 -0.0983 -0.0499
 2703SOL    HW119742   1.448   2.500   6.870  1.6220  1.2977  0.2040
 2703SOL    HW219743   1.570   2.438   6.843  0.1109  1.8691  0.3023
 2704SOL     OW19744   2.264   3.024   2.426 -0.1278  0.1461 -0.4209
 2704SOL    HW119745   2.186   2.977   2.456  0.7929 -0.8360  0.4397
 2704SOL    HW219746   2.279   3.076   2.505 -0.4943 -1.0754  0.4696
 2705SOL     OW19747   0.554   2.690   4.323 -0.0462  0.1523  0.0970
 2705SOL    HW119748   0.487   2.749   4.357  0.6402  0.0372  1.6649
 2705SOL    HW219749   0.500   2.640   4.261  2.6639 -0.8001 -1.4737
 2706SOL     OW19750   0.911   0.588  15.651  0.5478 -0.6517  0.1601
 2706SOL    HW119751   0.869   0.608  15.735  1.6053  0.4140  0.4393
 2706SOL    HW219752   0.890   0.495  15.643  2.6064 -0.9891 -1.3530
 2707SOL     OW19753   4.015   1.809   9.836  0.5553 -0.3865  0.3398
 2707SOL    HW119754   4.010   1.858   9.754 -0.0829 -0.1174  0.5337
 2707SOL    HW219755   3.921   1.792   9.843  0.5261  0.5488  2.2497
 2708SOL     OW19756   1.259   3.895   4.930 -0.6052  0.7104 -0.0147
 2708SOL    HW119757   1.197   3.846   4.984  0.5738  0.0348  0.7417
 2708SOL    HW219758   1.214   3.979   4.926 -0.5657  0.7366  0.0935
 2709SOL     OW19759   2.800   3.521   5.551 -0.4119  0.5795 -0.1907
 2709SOL    HW119760   2.881   3.470   5.542 -0.1107  0.9789  0.2998
 2709SOL    HW219761   2.820   3.572   5.629  0.6495 -1.5745  0.9481
 2710SOL     OW19762   2.900   2.301   7.679  0.0979 -0.0054  0.1031
 2710SOL    HW119763   2.835   2.278   7.745  0.4621  3.4490  1.6992
 2710SOL    HW219764   2.982   2.293   7.728  0.2640  0.6152 -0.0669
 2711SOL     OW19765   3.685   3.415   3.425 -0.1812 -0.4216  0.0961
 2711SOL    HW119766   3.739   3.401   3.502  3.2031 -1.0278 -2.3895
 2711SOL    HW219767   3.759   3.429   3.367 -0.1668  0.6407  0.3817
 2712SOL     OW19768   4.434   0.848   2.956 -0.4837  0.1130  0.4735
 2712SOL    HW119769   4.350   0.823   2.995  0.7602 -0.2052  2.9888
 2712SOL    HW219770   4.458   0.909   3.025 -2.3747  2.1649 -0.7088
 2713SOL     OW19771   3.297   1.108   3.253 -0.0169  0.1901  0.2297
 2713SOL    HW119772   3.268   1.113   3.345 -0.4157 -1.2806  0.1843
 2713SOL    HW219773   3.388   1.135   3.262 -0.1097  0.7416 -0.5545
 2714SOL     OW19774   2.208   2.872   1.515 -0.1423 -0.5065 -0.2471
 2714SOL    HW119775   2.184   2.951   1.562  0.0560 -1.1634  0.9560
 2714SOL    HW219776   2.135   2.812   1.533  0.1153 -0.8929 -0.4818
 2715SOL     OW19777   4.228   4.526   4.884  0.0078 -0.4145  0.1717
 2715SOL    HW119778   4.226   4.436   4.851 -0.0672 -0.0669 -0.7488
 2715SOL    HW219779   4.313   4.543   4.923 -0.1726 -0.5755  0.6410
 2716SOL     OW19780   4.208   3.538   2.308 -0.3235  0.1139  0.0186
 2716SOL    HW119781   4.294   3.503   2.331 -2.4717 -6.1396 -1.4033
 2716SOL    HW219782   4.175   3.568   2.393  1.8766  0.1243  0.8687
 2717SOL     OW19783   1.076   3.425   5.013  0.1834  0.1186 -1.0223
 2717SOL    HW119784   1.103   3.408   4.923  0.7949  0.2765 -0.8740
 2717SOL    HW219785   1.025   3.345   5.022  1.3249 -0.6821 -1.7187
 2718SOL     OW19786   2.452   3.544  12.588 -0.3605  0.0321 -0.7939
 2718SOL    HW119787   2.379   3.486  12.608 -0.9433  0.5851 -1.3224
 2718SOL    HW219788   2.492   3.561  12.674  0.2055  1.5535 -1.3467
 2719SOL     OW19789   0.927   3.615   7.788 -0.1204  0.4362  0.3936
 2719SOL    HW119790   0.995   3.575   7.735 -0.0801  0.4603  0.4274
 2719SOL    HW219791   0.933   3.552   7.860 -0.0583 -0.5383 -0.4693
 2720SOL     OW19792   1.721   1.691  16.073 -0.6650  0.1280  0.5877
 2720SOL    HW119793   1.655   1.733  16.018  0.0156  0.1253 -0.2298
 2720SOL    HW219794   1.778   1.640  16.015  0.0660  0.8341  0.6789
 2721SOL     OW19795   4.301   4.482   8.482 -0.2785 -0.0022  0.5908
 2721SOL    HW119796   4.311   4.519   8.394  0.0918  0.2235  0.7264
 2721SOL    HW219797   4.376   4.424   8.494 -0.2046 -0.1067 -0.3790
 2722SOL     OW19798   1.608   1.327   6.311 -0.4431 -0.1296  0.0499
 2722SOL    HW119799   1.514   1.341   6.301 -0.2244  0.4304 -1.2120
 2722SOL    HW219800   1.595   1.242   6.352 -1.4902 -0.1734 -0.3714
 2723SOL     OW19801   2.323   1.239   1.755 -0.0519 -0.2143  0.1772
 2723SOL    HW119802   2.300   1.249   1.663  2.3155  3.8732 -0.0009
 2723SOL    HW219803   2.413   1.210   1.745 -0.7817 -2.0467 -1.0054
 2724SOL     OW19804   1.976   0.931   2.876  0.1291 -0.2455  0.6045
 2724SOL    HW119805   1.897   0.942   2.823  1.4369 -0.2468 -1.3567
 2724SOL    HW219806   1.998   0.841   2.850  2.7225  0.6865 -0.4214
 2725SOL     OW19807   4.460   0.959   1.563  0.2016  0.0571  0.4834
 2725SOL    HW119808   4.377   0.963   1.611  0.4076  2.8971  0.6359
 2725SOL    HW219809   4.520   0.940   1.636 -0.5377  0.5940  1.2398
 2726SOL     OW19810   2.577   0.623   7.555 -0.2614 -0.3123  0.0185
 2726SOL    HW119811   2.658   0.645   7.601  0.0303  2.6596 -1.8866
 2726SOL    HW219812   2.516   0.696   7.567  0.2084  0.0219  0.4009
 2727SOL     OW19813   2.691   4.699  17.132 -0.3815  0.3177 -0.5637
 2727SOL    HW119814   2.709   4.672  17.041 -2.9292 -3.0701 -0.0479
 2727SOL    HW219815   2.598   4.722  17.125 -0.0390  1.8437 -0.0417
 2728SOL     OW19816   3.610   1.477   1.539  0.4671  0.0149  0.4206
 2728SOL    HW119817   3.676   1.539   1.569 -0.5618  1.6429 -0.6782
 2728SOL    HW219818   3.637   1.440   1.455  1.6983 -1.4464  1.4657
 2729SOL     OW19819   2.247   4.060   7.048 -0.1688 -0.1617  0.1424
 2729SOL    HW119820   2.184   4.095   6.985 -0.7542  0.6956  1.2026
 2729SOL    HW219821   2.310   4.019   6.989 -0.1661 -1.2668  0.9111
 2730SOL     OW19822   3.189   2.789  15.278 -0.0216 -0.1306  0.8512
 2730SOL    HW119823   3.139   2.716  15.240  2.1430 -1.7134  1.0274
 2730SOL    HW219824   3.116   2.823  15.330 -1.0714  1.1675 -1.5011
 2731SOL     OW19825   3.519   0.790   5.958  0.1434  0.7462 -0.0707
 2731SOL    HW119826   3.559   0.780   6.044 -0.8290  0.8277  0.3969
 2731SOL    HW219827   3.525   0.884   5.938 -1.0419  1.4572  2.8463
 2732SOL     OW19828   1.166   1.700   4.339  0.0577  0.3782 -0.5955
 2732SOL    HW119829   1.146   1.690   4.432  0.2479  0.8540 -0.5023
 2732SOL    HW219830   1.259   1.674   4.340  0.2204  1.0080  1.5648
 2733SOL     OW19831   3.091   3.040  11.292  0.0557  0.0424 -0.2346
 2733SOL    HW119832   3.143   3.084  11.225 -0.3411  0.4575 -0.2648
 2733SOL    HW219833   3.159   2.989  11.336  0.7140 -0.3069 -1.6608
 2734SOL     OW19834   1.032   2.725   9.276 -0.5731 -0.1594  0.0992
 2734SOL    HW119835   0.969   2.656   9.298 -0.4463 -0.2649  0.1283
 2734SOL    HW219836   1.119   2.686   9.277  0.4713  2.0509 -4.1569
 2735SOL     OW19837   4.206   0.097   6.196  0.0659 -0.3091 -0.5100
 2735SOL    HW119838   4.229   0.079   6.287  1.6563 -1.3813 -1.1205
 2735SOL    HW219839   4.119   0.058   6.202 -0.4581  1.3488  2.8289
 2736SOL     OW19840   3.486   1.169  13.286 -0.2577 -0.5445 -0.5615
 2736SOL    HW119841   3.529   1.241  13.332 -0.9071 -0.9956  0.7642
 2736SOL    HW219842   3.440   1.120  13.355  0.3665 -0.2488  0.0693
 2737SOL     OW19843   3.272   2.687  14.548  0.0001  0.0167 -0.2419
 2737SOL    HW119844   3.311   2.742  14.480 -1.1661  0.3495 -0.6406
 2737SOL    HW219845   3.351   2.675  14.600 -0.0553  0.1600 -0.1243
 2738SOL     OW19846   0.117   0.187   6.638 -0.2744 -0.5113 -0.7339
 2738SOL    HW119847   0.114   0.094   6.659  0.1805 -0.5987 -1.0646
 2738SOL    HW219848   0.063   0.220   6.710  0.7144 -0.2277 -0.1212
 2739SOL     OW19849   2.055   3.322   7.571 -0.0761  0.3050 -0.4212
 2739SOL    HW119850   2.059   3.332   7.476  1.8658 -0.9551 -0.4841
 2739SOL    HW219851   1.992   3.252   7.588  0.1542 -0.0035 -0.8463
 2740SOL     OW19852   2.816   3.285   8.681 -0.5650 -0.3633 -0.1697
 2740SOL    HW119853   2.827   3.285   8.776  1.6656  0.5922 -0.4157
 2740SOL    HW219854   2.878   3.217   8.654 -0.1774  0.4982 -1.5110
 2741SOL     OW19855   1.965   0.172   3.615  0.4556  0.0592 -0.3758
 2741SOL    HW119856   2.005   0.156   3.530 -0.8189 -0.5191 -0.8625
 2741SOL    HW219857   1.964   0.267   3.606  0.7580  0.0651 -0.3642
 2742SOL     OW19858   0.952   1.331   8.601 -0.0234 -0.4879  0.2187
 2742SOL    HW119859   1.023   1.348   8.662  1.0255 -1.2744 -0.7845
 2742SOL    HW219860   1.012   1.330   8.526 -0.4559  0.1697 -0.1356
 2743SOL     OW19861   3.782   0.263   4.265  0.3789 -0.4264 -0.2847
 2743SOL    HW119862   3.775   0.351   4.303 -2.0410 -1.0870  0.7802
 2743SOL    HW219863   3.695   0.223   4.265  1.0696 -1.9221 -0.8310
 2744SOL     OW19864   1.349   3.716   8.382  0.5053  0.2950  0.4225
 2744SOL    HW119865   1.403   3.783   8.422  2.3230 -1.3365  0.7161
 2744SOL    HW219866   1.281   3.713   8.449 -1.1457  1.1036 -1.2300
 2745SOL     OW19867   4.628   0.954   5.691  0.4785 -0.6454 -0.2336
 2745SOL    HW119868   4.719   0.980   5.677 -0.2886  3.4258  2.3763
 2745SOL    HW219869   4.608   0.965   5.598  2.4672  1.7668 -0.3906
 2746SOL     OW19870   3.128   1.981  10.455  0.2247  0.4286  0.2776
 2746SOL    HW119871   3.035   1.994  10.440 -0.1458 -0.9395  1.4112
 2746SOL    HW219872   3.157   2.070  10.475  3.6463 -0.5222 -0.4181
 2747SOL     OW19873   2.321   0.651   6.335  0.3250  0.9623  0.0103
 2747SOL    HW119874   2.364   0.598   6.268 -0.5450  3.5593 -2.6111
 2747SOL    HW219875   2.302   0.738   6.298  0.5341  0.6179 -0.9132
 2748SOL     OW19876   2.095   4.354   3.149 -0.1970 -0.7331 -0.0290
 2748SOL    HW119877   2.180   4.378   3.114  0.5634 -0.7336  1.8029
 2748SOL    HW219878   2.095   4.259   3.142 -0.9713 -0.6860 -0.6352
 2749SOL     OW19879   3.152   4.221   6.505  0.1110 -0.2017  0.0762
 2749SOL    HW119880   3.201   4.172   6.571 -0.8408 -0.5463  0.5215
 2749SOL    HW219881   3.194   4.190   6.425 -2.3894 -0.8762 -0.9929
 2750SOL     OW19882   0.804   4.727   7.697  0.4215  0.3436 -0.3377
 2750SOL    HW119883   0.856   4.648   7.683 -1.7607 -1.5534  2.2538
 2750SOL    HW219884   0.715   4.702   7.672 -0.4324  0.5410  2.4246
 2751SOL     OW19885   0.574   0.601   1.711  0.2930  0.4803 -0.3107
 2751SOL    HW119886   0.641   0.552   1.759 -0.0867 -0.8079 -1.1015
 2751SOL    HW219887   0.526   0.644   1.782  2.1334 -1.1381  1.9242
 2752SOL     OW19888   2.989   4.378   5.777  0.3379 -0.3961  0.4992
 2752SOL    HW119889   2.995   4.325   5.698  0.6473 -0.0189  0.2684
 2752SOL    HW219890   2.974   4.311   5.843 -1.7216  0.7575  1.1793
 2753SOL     OW19891   2.981   1.460   6.783  0.2158  0.1431 -0.2473
 2753SOL    HW119892   2.944   1.535   6.829 -0.0661  0.4095 -0.9029
 2753SOL    HW219893   3.016   1.507   6.707 -1.4338 -0.5311 -1.4327
 2754SOL     OW19894   3.806   2.006   6.340  0.4114  0.0538 -0.0160
 2754SOL    HW119895   3.775   2.043   6.258  1.3872  0.1585 -0.3415
 2754SOL    HW219896   3.732   1.947   6.348  0.5315 -0.0151  0.6194
 2755SOL     OW19897   4.583   1.290   6.531 -0.7668 -0.0898 -0.2979
 2755SOL    HW119898   4.507   1.238   6.558 -0.2323  0.1847  1.7227
 2755SOL    HW219899   4.629   1.223   6.481  1.5469  0.1415  1.5443
 2756SOL     OW19900   1.458   3.517   8.630  0.5647  0.0813  0.3090
 2756SOL    HW119901   1.381   3.482   8.585  0.4093  0.4468  0.2909
 2756SOL    HW219902   1.424   3.603   8.654  1.5486  0.9337 -1.3912
 2757SOL     OW19903   4.084   3.052   1.213 -0.4694 -0.2067  0.3944
 2757SOL    HW119904   4.082   2.986   1.144 -1.5440 -0.5113  0.7100
 2757SOL    HW219905   4.101   3.000   1.291 -1.3844 -1.7747 -0.4567
 2758SOL     OW19906   2.643   0.560   5.373  0.3515  0.0504 -0.1572
 2758SOL    HW119907   2.588   0.518   5.438  1.3983 -1.5176 -0.2756
 2758SOL    HW219908   2.647   0.492   5.306  0.6012  0.8797 -0.9837
 2759SOL     OW19909   3.096   3.780   5.329 -0.3871  0.1554  0.5105
 2759SOL    HW119910   3.146   3.698   5.331 -0.9445 -0.2469 -2.4360
 2759SOL    HW219911   3.133   3.834   5.259  2.5129 -0.7645  1.3158
 2760SOL     OW19912   3.920   3.048   7.468 -0.0557 -0.1159 -0.1404
 2760SOL    HW119913   3.998   2.995   7.485  0.9808  0.6364 -2.5248
 2760SOL    HW219914   3.928   3.079   7.378  1.2020  2.7842  0.9822
 2761SOL     OW19915   2.810   0.792  10.254  0.2158 -0.4549 -0.2937
 2761SOL    HW119916   2.821   0.699  10.235 -0.5703 -0.5606 -0.2330
 2761SOL    HW219917   2.754   0.784  10.331 -0.1847  0.8526 -0.4495
 2762SOL     OW19918   0.049   1.759  14.075  0.2364  0.0949 -0.2298
 2762SOL    HW119919   0.079   1.682  14.028  0.6308  0.2356 -0.2046
 2762SOL    HW219920   4.697   1.762  14.044  0.8777 -2.0519 -2.3059
 2763SOL     OW19921   3.704   4.100   1.922  0.4957 -0.5382 -0.2424
 2763SOL    HW119922   3.734   4.058   1.842 -2.1133 -1.6827 -0.6215
 2763SOL    HW219923   3.744   4.042   1.988  2.7049 -1.1686 -2.1577
 2764SOL     OW19924   4.486   4.261   0.564 -0.0917  0.2922 -0.7343
 2764SOL    HW119925   4.519   4.339   0.518  0.6338  0.9735  0.9527
 2764SOL    HW219926   4.571   4.223   0.586  0.0113  0.8665 -0.1352
 2765SOL     OW19927   0.096   1.241   4.561  0.2378 -0.1031 -0.4705
 2765SOL    HW119928   0.085   1.301   4.488  2.1335 -2.1107 -2.3846
 2765SOL    HW219929   0.149   1.290   4.625  0.2334  1.7440 -1.8785
 2766SOL     OW19930   1.140   3.940   8.390  0.0731 -0.6190  0.3163
 2766SOL    HW119931   1.086   3.982   8.456  1.5689  0.0890  1.0803
 2766SOL    HW219932   1.099   3.853   8.383  2.4322 -1.5486 -1.9832
 2767SOL     OW19933   0.490   1.133   6.316 -0.1637 -0.6533  0.0898
 2767SOL    HW119934   0.547   1.209   6.303 -0.0406 -0.6301  0.7962
 2767SOL    HW219935   0.521   1.073   6.248  1.1213 -2.1888  2.0154
 2768SOL     OW19936   2.785   4.436   8.037  0.1416 -0.2948  0.3768
 2768SOL    HW119937   2.782   4.343   8.059 -1.9237 -0.4805 -0.6415
 2768SOL    HW219938   2.782   4.477   8.123  1.3853  0.5096  0.0361
 2769SOL     OW19939   0.435   2.844   7.795  0.1585  0.1652 -0.1157
 2769SOL    HW119940   0.411   2.904   7.865  2.1835  0.8895 -0.0435
 2769SOL    HW219941   0.391   2.878   7.717 -0.1615  3.1226  1.3948
 2770SOL     OW19942   2.982   0.941  10.377  0.5128  0.5242 -0.0361
 2770SOL    HW119943   3.021   0.986  10.302  1.1257  0.1457  0.0535
 2770SOL    HW219944   2.915   0.887  10.335 -1.1711  2.7581 -0.1745
 2771SOL     OW19945   1.440   0.965  16.271 -0.0504 -0.2533  0.0634
 2771SOL    HW119946   1.505   0.949  16.340 -0.4703 -2.0850  0.0500
 2771SOL    HW219947   1.494   1.002  16.201 -1.9955  2.2042 -0.1515
 2772SOL     OW19948   2.511   3.697   3.355  0.4081 -0.5802  0.2822
 2772SOL    HW119949   2.512   3.603   3.335  3.3395 -0.7157  1.0641
 2772SOL    HW219950   2.418   3.715   3.342  0.3022 -1.2301  0.1344
 2773SOL     OW19951   0.311   4.613   5.761 -0.2207 -0.5872  0.5164
 2773SOL    HW119952   0.266   4.666   5.828 -0.3737  3.6850 -2.9894
 2773SOL    HW219953   0.251   4.545   5.730  0.2557 -0.8050  0.0654
 2774SOL     OW19954   2.100   1.306  11.661 -0.2514  0.1404 -0.2273
 2774SOL    HW119955   2.091   1.401  11.658  0.0123  0.2393  1.6698
 2774SOL    HW219956   2.188   1.289  11.697 -0.7802 -2.5819 -0.2765
 2775SOL     OW19957   3.189   0.814   6.027  0.1993 -0.0014 -0.4876
 2775SOL    HW119958   3.251   0.884   6.050  1.5161 -1.7502  1.2650
 2775SOL    HW219959   3.164   0.781   6.114 -3.3027  0.7049 -1.2300
 2776SOL     OW19960   3.908   1.222  17.471  0.1961  0.1520  0.0986
 2776SOL    HW119961   3.886   1.227  17.377  2.2343  1.2017 -0.3152
 2776SOL    HW219962   3.846   1.285  17.508  0.5400  0.4175  0.2188
 2777SOL     OW19963   1.579   1.021   1.718 -0.1512 -0.2876 -0.4174
 2777SOL    HW119964   1.625   0.963   1.778  1.2472  1.8193  0.5526
 2777SOL    HW219965   1.646   1.020   1.649 -1.1954  1.5419 -1.4798
 2778SOL     OW19966   3.324   2.527   6.869 -0.1430 -0.6688 -0.3833
 2778SOL    HW119967   3.287   2.537   6.956  2.3657  4.4240  0.0729
 2778SOL    HW219968   3.375   2.607   6.856 -0.4797 -0.6410 -1.6238
 2779SOL     OW19969   2.409   3.204   2.665 -0.0037 -0.3065  0.7270
 2779SOL    HW119970   2.382   3.161   2.746 -1.1497 -1.7610 -0.4324
 2779SOL    HW219971   2.412   3.296   2.693 -2.6272 -0.2628  0.8565
 2780SOL     OW19972   3.326   3.843   4.263 -0.1558  0.1107 -0.0837
 2780SOL    HW119973   3.327   3.895   4.183  0.2538  2.7282  1.6357
 2780SOL    HW219974   3.384   3.902   4.310 -0.8053 -1.0669  2.1898
 2781SOL     OW19975   3.535   3.966   4.598 -0.2150  0.5388 -0.1603
 2781SOL    HW119976   3.454   3.973   4.649  0.0095  0.5583  0.1870
 2781SOL    HW219977   3.583   3.903   4.651 -2.3622  0.2962  1.5053
 2782SOL     OW19978   3.365   0.677   5.145  0.0102 -0.5780  0.6428
 2782SOL    HW119979   3.454   0.658   5.174  0.9011  1.2182 -0.8934
 2782SOL    HW219980   3.327   0.672   5.233  1.1877  0.0481  1.1911
 2783SOL     OW19981   2.066   2.845   0.111  0.2464 -0.2461  0.3142
 2783SOL    HW119982   2.015   2.830   0.031 -0.3300  1.0360  0.4477
 2783SOL    HW219983   2.017   2.795   0.177  0.3129  1.3117  1.5521
 2784SOL     OW19984   3.284   0.786   8.735 -0.2467  0.3227 -0.1754
 2784SOL    HW119985   3.210   0.728   8.749 -0.0993 -0.4110 -2.4546
 2784SOL    HW219986   3.326   0.741   8.661 -1.2060 -2.3012  0.9013
 2785SOL     OW19987   3.929   3.940   6.783 -0.2103 -0.2869 -0.5005
 2785SOL    HW119988   3.973   3.858   6.805  1.2694  0.4102 -0.8843
 2785SOL    HW219989   3.994   4.008   6.801 -1.1496  0.8309 -1.3340
 2786SOL     OW19990   3.186   1.747  10.665  0.4507  0.3620 -0.4267
 2786SOL    HW119991   3.139   1.815  10.617 -2.7615  0.5503  2.9858
 2786SOL    HW219992   3.132   1.761  10.743  0.9561 -0.4524  0.0708
 2787SOL     OW19993   3.286   2.479   2.964  0.3176 -0.5666 -0.8065
 2787SOL    HW119994   3.297   2.394   3.006  1.8940  0.2149  0.3586
 2787SOL    HW219995   3.346   2.529   3.019 -0.8865 -0.8235  0.7454
 2788SOL     OW19996   0.602   4.546  11.434  0.2244  0.1994 -0.4908
 2788SOL    HW119997   0.658   4.471  11.416  0.9092  0.6469 -0.2246
 2788SOL    HW219998   0.518   4.505  11.455  0.6016 -0.2683  0.0762
 2789SOL     OW19999   2.347   2.399  16.787 -0.5313  0.0618  0.6324
 2789SOL    HW120000   2.390   2.442  16.861  1.1938 -1.3998  0.4772
 2789SOL    HW220001   2.374   2.308  16.802  1.2870  0.2491 -1.6704
 2790SOL     OW20002   3.103   0.081   6.543  0.4159 -0.1619  0.0027
 2790SOL    HW120003   3.053   4.739   6.535  0.1652  0.0872 -0.9305
 2790SOL    HW220004   3.123   0.084   6.637  3.0985  1.2751 -0.6014
 2791SOL     OW20005   1.400   4.450  15.015  0.5177  0.0124 -0.0297
 2791SOL    HW120006   1.486   4.475  15.050  0.0619  2.1815 -0.4352
 2791SOL    HW220007   1.342   4.450  15.091 -2.6920  2.4130 -2.4907
 2792SOL     OW20008   2.332   4.131   2.244  0.1678 -0.4366  0.1965
 2792SOL    HW120009   2.253   4.183   2.237  0.3180 -0.3547 -0.9030
 2792SOL    HW220010   2.384   4.178   2.179  1.5857 -0.2879  1.4483
 2793SOL     OW20011   4.004   1.677   4.649 -0.0816 -0.2221  0.4227
 2793SOL    HW120012   3.970   1.763   4.675 -1.7377 -1.1638  1.3811
 2793SOL    HW220013   4.091   1.680   4.688 -0.1105  3.1053  0.2237
 2794SOL     OW20014   4.589   0.961   9.420  0.1000  0.3080  0.1310
 2794SOL    HW120015   4.499   0.948   9.390 -0.0318  0.7099  0.3486
 2794SOL    HW220016   4.575   0.943   9.513 -2.1700  1.3220 -0.0089
 2795SOL     OW20017   0.500   1.022   0.744  0.2329 -0.5879  0.0905
 2795SOL    HW120018   0.469   0.934   0.724 -2.4473  0.4049 -0.2026
 2795SOL    HW220019   0.544   1.008   0.828 -1.1578 -1.8679  0.6119
 2796SOL     OW20020   0.685   1.156   5.634  0.0132  0.2686  0.2625
 2796SOL    HW120021   0.716   1.079   5.586 -1.0618  0.4359 -0.6795
 2796SOL    HW220022   0.760   1.214   5.618  0.7917 -1.2019 -1.4348
 2797SOL     OW20023   0.804   0.997   0.578  0.0824 -0.5450  0.3939
 2797SOL    HW120024   0.742   1.027   0.645 -0.6217 -3.4529  1.0463
 2797SOL    HW220025   0.871   0.957   0.634 -2.4342  0.1967  3.9424
 2798SOL     OW20026   3.564   4.060   1.491  0.3024  0.3919 -0.0395
 2798SOL    HW120027   3.502   4.129   1.517 -0.2823  0.5759 -1.9230
 2798SOL    HW220028   3.629   4.081   1.558  1.1995  1.1409 -1.1442
 2799SOL     OW20029   4.492   4.706   6.865  0.4974 -0.3946 -0.5585
 2799SOL    HW120030   4.486   4.624   6.914 -1.4019  0.4105  0.5615
 2799SOL    HW220031   4.476   4.671   6.778  2.4227  0.4878 -1.2863
 2800SOL     OW20032   2.126   3.324   1.812  0.3105 -0.2395  0.2023
 2800SOL    HW120033   2.074   3.369   1.878  0.0533 -0.0875 -0.1083
 2800SOL    HW220034   2.175   3.400   1.780  1.7017 -0.1401  2.5764
 2801SOL     OW20035   3.004   2.621   6.846 -0.2339  0.4347 -0.4775
 2801SOL    HW120036   2.972   2.706   6.875  1.7384 -0.2466  3.6632
 2801SOL    HW220037   2.979   2.549   6.904 -0.6259  1.3239  0.4449
 2802SOL     OW20038   4.679   0.454   0.438  0.0454  0.2052 -0.0706
 2802SOL    HW120039   4.657   0.530   0.491 -0.7417  0.8755 -1.3519
 2802SOL    HW220040   4.643   0.384   0.492 -1.4658  2.2884  1.6443
 2803SOL     OW20041   0.410   3.712  16.194 -0.2903 -0.0325  0.3351
 2803SOL    HW120042   0.444   3.670  16.273 -1.6537  1.4254  1.7055
 2803SOL    HW220043   0.455   3.657  16.130  0.2745  0.0016  0.7056
 2804SOL     OW20044   0.067   2.925   0.920  0.0328 -0.2275  0.1345
 2804SOL    HW120045   0.131   2.923   0.849 -1.7480  2.2056 -1.5225
 2804SOL    HW220046   0.112   2.974   0.989  0.9920 -2.4801  1.1263
 2805SOL     OW20047   1.551   1.328   4.180 -0.8197  0.0212  0.2491
 2805SOL    HW120048   1.632   1.315   4.229 -0.6474 -0.4429 -0.1651
 2805SOL    HW220049   1.595   1.346   4.097 -0.0695 -0.3930  0.5525
 2806SOL     OW20050   0.768   3.467   7.426  0.1121 -0.0365 -0.3133
 2806SOL    HW120051   0.672   3.470   7.429  0.1443  1.2945 -0.3407
 2806SOL    HW220052   0.801   3.393   7.477  2.4458  0.0442 -1.7271
 2807SOL     OW20053   1.526   3.099   4.819 -0.0383  0.4120  0.0102
 2807SOL    HW120054   1.490   3.010   4.824 -1.7134  1.0639 -0.7859
 2807SOL    HW220055   1.584   3.093   4.895 -3.1283 -0.9800  2.2513
 2808SOL     OW20056   0.299   3.579  16.613  0.5339  0.1136  0.2682
 2808SOL    HW120057   0.272   3.671  16.607 -2.1556 -0.7877 -1.5377
 2808SOL    HW220058   0.277   3.553  16.702  3.3396 -0.9855  0.6329
 2809SOL     OW20059   4.570   0.292   9.623 -0.8042 -0.5603  0.7447
 2809SOL    HW120060   4.659   0.299   9.586 -1.2834  0.2416 -0.2531
 2809SOL    HW220061   4.518   0.309   9.545  0.3977  1.5390  0.3967
 2810SOL     OW20062   0.622   1.228   1.608 -0.3165 -0.4689 -0.4936
 2810SOL    HW120063   0.553   1.193   1.552 -0.6615 -1.4771  0.5369
 2810SOL    HW220064   0.649   1.306   1.560 -0.4697 -0.4497 -0.5464
 2811SOL     OW20065   3.164   1.574   2.553 -0.1271 -0.1651  0.0568
 2811SOL    HW120066   3.177   1.593   2.646 -2.2678  1.5839  0.0092
 2811SOL    HW220067   3.074   1.604   2.544  0.1806  0.6358 -0.3329
 2812SOL     OW20068   1.257   1.242   4.878  0.0908  0.4756 -0.2631
 2812SOL    HW120069   1.265   1.270   4.787 -1.9313 -0.6724 -0.8081
 2812SOL    HW220070   1.187   1.177   4.878  1.3167 -0.8579  1.0815
 2813SOL     OW20071   1.545   3.259   1.051  0.0826 -0.6521  0.2322
 2813SOL    HW120072   1.520   3.171   1.080 -2.9452  0.4724  1.0491
 2813SOL    HW220073   1.578   3.247   0.962 -2.4029  0.0629 -0.7862
 2814SOL     OW20074   1.567   3.965  12.127 -0.5427  0.0750 -0.4701
 2814SOL    HW120075   1.517   3.891  12.161  1.3611 -0.7612  0.5331
 2814SOL    HW220076   1.642   3.953  12.186 -0.1184  0.0087 -1.0236
 2815SOL     OW20077   3.765   0.780   5.680 -0.3987  0.5521  0.0023
 2815SOL    HW120078   3.798   0.808   5.765  0.4777 -0.1989 -0.0945
 2815SOL    HW220079   3.733   0.864   5.645  0.0343  0.7238  0.0236
 2816SOL     OW20080   2.509   1.169   8.203 -0.1837  0.4525  0.6212
 2816SOL    HW120081   2.514   1.205   8.291  0.1538  1.7489  0.0808
 2816SOL    HW220082   2.454   1.234   8.158 -2.3486  0.4802  3.2673
 2817SOL     OW20083   0.524   2.124   4.542 -0.1757  0.2073 -0.2804
 2817SOL    HW120084   0.527   2.106   4.448 -0.2713 -0.8729 -0.0681
 2817SOL    HW220085   0.518   2.219   4.527 -0.0897  0.2595  0.0126
 2818SOL     OW20086   0.122   0.803  15.552  0.3722  0.2062 -0.3829
 2818SOL    HW120087   0.163   0.877  15.508  1.9784  0.5774  1.7330
 2818SOL    HW220088   0.048   0.849  15.593  1.1577 -0.9920  2.3918
 2819SOL     OW20089   4.589   2.242  12.987 -0.0830 -0.5805  0.2653
 2819SOL    HW120090   4.598   2.318  13.044  1.1977  0.8595 -1.8526
 2819SOL    HW220091   4.644   2.274  12.915  0.5146 -2.1189  0.0276
 2820SOL     OW20092   0.638   0.025   7.464 -0.2259 -0.3000 -0.4779
 2820SOL    HW120093   0.666   0.044   7.374 -0.3221  1.3152 -0.1574
 2820SOL    HW220094   0.656   0.110   7.503  1.1638 -0.3847 -0.9344
 2821SOL     OW20095   4.386   1.834   2.645  0.3034  0.1218 -0.1314
 2821SOL    HW120096   4.460   1.843   2.585 -0.1047 -1.7064 -0.9152
 2821SOL    HW220097   4.371   1.925   2.671 -0.4778  0.2782 -1.1299
 2822SOL     OW20098   3.339   0.975  11.005  0.0463  0.0832 -0.4119
 2822SOL    HW120099   3.396   0.902  11.025 -0.2465  0.3590  1.3906
 2822SOL    HW220100   3.389   1.030  10.945 -1.6826  1.2121 -0.8300
 2823SOL     OW20101   1.183   3.531   0.675 -0.1243 -0.0188  0.1674
 2823SOL    HW120102   1.238   3.452   0.675  0.9042  0.7050  0.8290
 2823SOL    HW220103   1.203   3.567   0.761  0.1931  0.6938 -0.2048
 2824SOL     OW20104   1.132   1.764   0.319 -0.5607  0.5488  0.3708
 2824SOL    HW120105   1.203   1.785   0.259 -0.0899  0.8776  1.0469
 2824SOL    HW220106   1.073   1.838   0.305 -0.1630  0.2789 -2.9009
 2825SOL     OW20107   2.056   2.780   0.752  0.4847 -0.1547  0.1043
 2825SOL    HW120108   2.121   2.849   0.761  0.8091 -0.1871 -1.9903
 2825SOL    HW220109   2.063   2.747   0.663 -1.6090  1.1041 -0.5173
 2826SOL     OW20110   4.629   0.309  13.863 -0.0778  0.0740 -0.2250
 2826SOL    HW120111   4.589   0.396  13.871  1.1854  0.6667 -0.3265
 2826SOL    HW220112   4.619   0.294  13.769  1.0898  0.0395 -0.3463
 2827SOL     OW20113   0.078   0.563   7.524  0.0230 -0.1920  0.6948
 2827SOL    HW120114   0.052   0.499   7.590  0.4458  0.8343  1.8424
 2827SOL    HW220115   0.040   0.639   7.567  0.4783  0.3955  0.0657
 2828SOL     OW20116   3.425   0.977  11.634 -0.0707 -0.3356 -0.5308
 2828SOL    HW120117   3.356   1.022  11.585 -0.1279  0.8301  0.6070
 2828SOL    HW220118   3.450   0.925  11.557 -1.3076 -0.4679 -0.8453
 2829SOL     OW20119   4.504   0.540   6.214  0.5475  0.1422 -0.2963
 2829SOL    HW120120   4.518   0.448   6.235  0.1715  0.3683  0.9742
 2829SOL    HW220121   4.576   0.583   6.261  0.5591 -0.3361  0.1265
 2830SOL     OW20122   4.015   2.580   9.629 -0.0653 -0.1217 -0.1515
 2830SOL    HW120123   3.973   2.547   9.709  2.4957  1.0075  1.6384
 2830SOL    HW220124   4.102   2.607   9.657  0.4344 -1.4027 -0.4629
 2831SOL     OW20125   2.650   2.206  10.871  0.2258  0.3532 -0.2748
 2831SOL    HW120126   2.685   2.283  10.914 -0.4910  0.2434  0.4927
 2831SOL    HW220127   2.673   2.139  10.935 -3.3501 -0.1486  0.4912
 2832SOL     OW20128   0.551   3.740   4.901 -0.5935  0.1999  0.1886
 2832SOL    HW120129   0.609   3.717   4.973 -0.2104 -0.6111 -0.3782
 2832SOL    HW220130   0.611   3.786   4.842  1.1681 -1.7665  0.4515
 2833SOL     OW20131   3.475   2.572   9.736 -0.1908  0.6763 -0.2157
 2833SOL    HW120132   3.419   2.645   9.765  1.2427  1.8167 -0.3113
 2833SOL    HW220133   3.559   2.612   9.715  0.1703 -0.1754 -0.3631
 2834SOL     OW20134   1.372   2.144   4.640 -0.3044 -0.0741  0.2846
 2834SOL    HW120135   1.466   2.148   4.656 -0.4745  0.9406  1.0084
 2834SOL    HW220136   1.375   2.169   4.548  0.6396  1.4930  0.7468
 2835SOL     OW20137   2.350   0.948  11.057 -0.1369 -0.1943  0.2958
 2835SOL    HW120138   2.413   0.877  11.069 -1.4735 -1.1493  1.7199
 2835SOL    HW220139   2.297   0.902  10.992  0.8065  0.5724 -1.0223
 2836SOL     OW20140   1.380   3.103   0.342  0.3552  0.0762  0.6585
 2836SOL    HW120141   1.364   3.195   0.324  1.2241  0.1814  0.4277
 2836SOL    HW220142   1.474   3.109   0.359  0.6078 -0.8164 -0.3957
 2837SOL     OW20143   2.100   2.976   3.033 -0.7008  0.0491 -0.8074
 2837SOL    HW120144   2.035   2.911   3.061 -1.0695  0.5148 -0.5959
 2837SOL    HW220145   2.088   3.031   3.110 -0.8258 -0.8484 -0.1779
 2838SOL     OW20146   1.218   3.654   3.384 -0.3553  0.3141 -0.4230
 2838SOL    HW120147   1.187   3.624   3.469 -0.3741 -2.5403 -1.4240
 2838SOL    HW220148   1.311   3.629   3.390  0.4863  2.8882 -2.7008
 2839SOL     OW20149   4.503   0.322   9.358 -0.4498 -0.2252 -0.1778
 2839SOL    HW120150   4.536   0.392   9.300 -0.7325 -1.9318 -2.3922
 2839SOL    HW220151   4.420   0.305   9.314  0.1438 -1.3948 -0.8268
 2840SOL     OW20152   2.847   2.172  13.563 -0.2362  0.0115 -0.4654
 2840SOL    HW120153   2.912   2.231  13.525 -3.1414  2.7214 -1.2444
 2840SOL    HW220154   2.872   2.174  13.655 -0.1658  0.6148 -0.4978
 2841SOL     OW20155   0.738   2.908  10.905  0.1663 -0.2788  0.2148
 2841SOL    HW120156   0.770   2.967  10.837 -1.0932  0.8520  0.6030
 2841SOL    HW220157   0.667   2.956  10.947  0.5005 -0.5989  1.1634
 2842SOL     OW20158   1.721   2.173   7.038 -0.6267  0.0149 -0.0447
 2842SOL    HW120159   1.694   2.208   7.124  0.8764  0.6861  0.1517
 2842SOL    HW220160   1.685   2.086   7.022 -2.1764  0.3731  1.4955
 2843SOL     OW20161   0.563   1.405   4.556  0.0088 -0.3281  1.1633
 2843SOL    HW120162   0.543   1.414   4.649  1.8104 -1.1536  1.6210
 2843SOL    HW220163   0.504   1.463   4.508  1.1064  0.1985  0.4493
 2844SOL     OW20164   0.380   0.363   8.638  0.2150  0.3243 -0.1273
 2844SOL    HW120165   0.448   0.428   8.658 -2.0182  2.7726 -0.4566
 2844SOL    HW220166   0.305   0.391   8.690 -0.2448  2.4605 -1.9514
 2845SOL     OW20167   3.441   3.548   6.472  0.5939 -0.1889  0.3441
 2845SOL    HW120168   3.408   3.570   6.385 -0.0792 -0.8964  0.4240
 2845SOL    HW220169   3.515   3.606   6.489  0.8231 -0.6744  0.9923
 2846SOL     OW20170   2.101   0.803   5.201  0.4423  0.1233 -0.2678
 2846SOL    HW120171   2.164   0.752   5.252 -0.8410  0.1516  1.3547
 2846SOL    HW220172   2.155   0.828   5.127  1.6112 -0.3820  0.4085
 2847SOL     OW20173   1.440   2.323   5.764  0.3364 -0.0098  0.6100
 2847SOL    HW120174   1.359   2.272   5.773 -1.6792  2.5784 -3.0483
 2847SOL    HW220175   1.455   2.370   5.846  1.3198 -0.9343  0.9525
 2848SOL     OW20176   2.609   2.649   7.355  0.7406 -0.0929 -0.4425
 2848SOL    HW120177   2.562   2.596   7.420  1.4157 -1.0004 -0.6863
 2848SOL    HW220178   2.682   2.681   7.409  0.8812 -0.2494 -0.5368
 2849SOL     OW20179   2.067   3.290  14.047 -0.2248 -0.1710 -0.1625
 2849SOL    HW120180   2.155   3.283  14.082  0.3160  2.4814 -1.0378
 2849SOL    HW220181   2.017   3.225  14.097 -0.9516  0.8406  0.4362
 2850SOL     OW20182   4.458   2.372   1.819 -0.8036 -0.0311  0.1228
 2850SOL    HW120183   4.512   2.314   1.766  0.2964  3.3868 -2.4719
 2850SOL    HW220184   4.443   2.312   1.892  2.0616  0.5489  1.1787
 2851SOL     OW20185   3.613   4.139   4.004 -0.5037  0.0421  0.1327
 2851SOL    HW120186   3.622   4.149   3.909 -0.5787  1.7462  0.3027
 2851SOL    HW220187   3.589   4.230   4.019 -1.5927 -0.7034  2.9070
 2852SOL     OW20188   1.028   4.727   1.395 -0.2608  0.6627 -0.2083
 2852SOL    HW120189   0.965   4.700   1.328  0.3440 -0.8254 -0.1751
 2852SOL    HW220190   1.069   4.645   1.421 -0.4545  1.2833  2.0149
 2853SOL     OW20191   0.975   2.533   7.850  0.0373  0.6387 -0.5579
 2853SOL    HW120192   0.918   2.567   7.781 -0.5339 -1.3481 -1.0657
 2853SOL    HW220193   0.941   2.450   7.882  1.2264  0.8107  1.1454
 2854SOL     OW20194   2.266   1.190   2.004  0.0930  0.2511  0.3190
 2854SOL    HW120195   2.361   1.200   2.013 -0.1106  1.3116  1.3221
 2854SOL    HW220196   2.256   1.220   1.913 -0.7058 -0.4737  0.1625
 2855SOL     OW20197   1.968   2.457   4.064 -0.4582 -0.0083 -0.2259
 2855SOL    HW120198   2.017   2.390   4.017  3.9980  0.9220  3.0821
 2855SOL    HW220199   1.943   2.395   4.133  2.3181 -0.2974  0.5346
 2856SOL     OW20200   2.275   2.935   5.429  0.0333 -0.1222 -0.0991
 2856SOL    HW120201   2.232   3.001   5.374 -1.8760 -2.0381 -0.8959
 2856SOL    HW220202   2.203   2.923   5.491  0.1293 -0.0756  0.0218
 2857SOL     OW20203   2.019   0.123  10.303 -0.2363  0.2576  0.1149
 2857SOL    HW120204   1.961   0.105  10.229  1.1405  1.1562 -1.1749
 2857SOL    HW220205   2.098   0.152  10.257  0.1183 -0.6174  0.1693
 2858SOL     OW20206   1.369   0.550   6.191  0.1921  0.1701 -0.4490
 2858SOL    HW120207   1.426   0.612   6.236  0.4087 -0.8350  0.6556
 2858SOL    HW220208   1.285   0.581   6.224 -0.6960 -1.7600 -0.9301
 2859SOL     OW20209   4.186   3.915   2.769 -0.4798 -0.3705  0.2023
 2859SOL    HW120210   4.115   3.858   2.797 -0.4751  0.2530  1.4676
 2859SOL    HW220211   4.175   3.990   2.827  0.1337 -0.1203 -0.0019
 2860SOL     OW20212   2.542   3.713  11.560  0.3560  0.2630  0.0199
 2860SOL    HW120213   2.583   3.722  11.474  1.1364  0.6300  0.4306
 2860SOL    HW220214   2.495   3.796  11.552 -0.8743 -0.4089  0.2284
 2861SOL     OW20215   4.612   3.774   3.363  0.3904 -0.4369 -0.4268
 2861SOL    HW120216   4.680   3.834   3.395  0.9037 -0.7174 -0.9868
 2861SOL    HW220217   4.589   3.823   3.284  0.1104  1.2859  0.7434
 2862SOL     OW20218   1.061   0.417  17.225 -0.5655 -0.3570  0.0336
 2862SOL    HW120219   0.966   0.422  17.216 -0.6213 -1.0000  0.2816
 2862SOL    HW220220   1.070   0.382  17.314 -0.1602 -0.4362 -0.0404
 2863SOL     OW20221   4.370   2.927  16.390 -0.0611  0.6835 -0.7992
 2863SOL    HW120222   4.378   2.848  16.336  1.9568 -1.6074  2.8974
 2863SOL    HW220223   4.418   2.897  16.467 -1.9459 -4.2235 -1.5128
 2864SOL     OW20224   0.278   1.324   3.306  0.0235  0.0058  0.3201
 2864SOL    HW120225   0.200   1.312   3.251  0.1578 -0.4205  0.2209
 2864SOL    HW220226   0.269   1.417   3.325  0.1203  0.0186  0.3022
 2865SOL     OW20227   2.015   1.133   9.426  0.4555 -0.1979 -0.2297
 2865SOL    HW120228   2.014   1.181   9.510  1.9594  0.4691 -0.5960
 2865SOL    HW220229   1.939   1.173   9.385  1.5538  5.1474  2.8766
 2866SOL     OW20230   1.541   4.670   3.618  0.1387  0.3160  0.4192
 2866SOL    HW120231   1.591   0.003   3.579  0.2218 -1.3292 -2.4941
 2866SOL    HW220232   1.490   4.709   3.689 -2.1564 -0.2300 -0.9379
 2867SOL     OW20233   0.698   3.121   2.421 -0.4081 -0.1906  0.1633
 2867SOL    HW120234   0.638   3.095   2.491 -1.5970  0.9193 -0.4345
 2867SOL    HW220235   0.682   3.215   2.410  0.8371 -0.0238 -0.2196
 2868SOL     OW20236   3.491   0.144  13.664  0.1876  0.2204 -0.0780
 2868SOL    HW120237   3.423   0.091  13.707 -2.1826  3.6610  0.4422
 2868SOL    HW220238   3.455   0.133  13.576 -0.2389  0.8653  0.0156
 2869SOL     OW20239   3.197   2.235   6.552 -0.2711 -0.3720  0.0531
 2869SOL    HW120240   3.118   2.268   6.594 -1.3492 -2.6740 -0.1426
 2869SOL    HW220241   3.228   2.311   6.503  1.1222  0.4439  2.2037
 2870SOL     OW20242   1.125   4.453   9.015  0.0281  0.5532  0.6298
 2870SOL    HW120243   1.031   4.469   9.014 -0.1411 -0.8871 -2.5714
 2870SOL    HW220244   1.158   4.544   9.015 -0.7395  0.8257  0.1843
 2871SOL     OW20245   1.404   2.491  15.155 -0.0481  0.1662 -0.4759
 2871SOL    HW120246   1.311   2.472  15.140 -0.5869  2.8543 -0.5290
 2871SOL    HW220247   1.419   2.578  15.117  2.5153 -0.0257  0.0878
 2872SOL     OW20248   3.967   0.667   7.199  0.0542 -0.2131 -0.2203
 2872SOL    HW120249   3.881   0.632   7.221  1.5700 -3.4510  0.5681
 2872SOL    HW220250   4.024   0.591   7.204 -2.3025 -2.0705 -1.9857
 2873SOL     OW20251   3.758   1.364  13.927 -0.7246  0.3711  0.0475
 2873SOL    HW120252   3.776   1.458  13.928 -0.8913  0.4205 -1.3476
 2873SOL    HW220253   3.843   1.323  13.946 -1.5022 -1.6142 -0.7388
 2874SOL     OW20254   3.609   2.808  10.425 -0.3084 -0.7540  1.0721
 2874SOL    HW120255   3.542   2.870  10.395  0.8986  0.3520  0.6499
 2874SOL    HW220256   3.545   2.749  10.466 -0.0185 -0.3272  2.1503
 2875SOL     OW20257   1.285   1.013   8.209 -0.6879  0.1810  0.0526
 2875SOL    HW120258   1.211   1.024   8.268 -2.5827  1.2465 -2.5274
 2875SOL    HW220259   1.272   0.943   8.145  1.6589  1.3803 -1.7790
 2876SOL     OW20260   1.173   4.689  11.984  0.6947 -0.0586  0.4403
 2876SOL    HW120261   1.103   0.002  12.024 -0.8383 -0.9564 -1.0518
 2876SOL    HW220262   1.259   4.726  12.004  0.2975 -0.0745  2.1421
 2877SOL     OW20263   3.946   0.911   3.957 -0.0362  0.7016 -0.9094
 2877SOL    HW120264   3.932   0.985   3.898 -0.0005  0.1906 -1.5624
 2877SOL    HW220265   3.870   0.854   3.942 -0.1107  0.5360  0.1010
 2878SOL     OW20266   3.788   4.047   8.987  0.2458  0.1963  0.1531
 2878SOL    HW120267   3.866   4.085   8.946  0.5971  0.3655  0.9726
 2878SOL    HW220268   3.828   3.999   9.060  0.8271 -0.6437 -0.7106
 2879SOL     OW20269   0.710   3.766  16.638 -0.3609  0.8479  0.1361
 2879SOL    HW120270   0.788   3.721  16.604 -0.3275  0.2882  0.9544
 2879SOL    HW220271   0.724   3.765  16.733  1.3233 -2.0462 -0.1446
 2880SOL     OW20272   3.730   0.739   1.911 -0.0402 -0.2187  0.1578
 2880SOL    HW120273   3.677   0.730   1.832 -0.4668  3.2994  0.0253
 2880SOL    HW220274   3.675   0.700   1.979 -2.2091  1.4465 -0.6474
 2881SOL     OW20275   3.261   2.262   3.413  0.2204 -0.3335 -0.0257
 2881SOL    HW120276   3.325   2.324   3.378  0.3271  0.0133  0.7847
 2881SOL    HW220277   3.184   2.299   3.370  1.5908 -0.0511 -2.2281
 2882SOL     OW20278   0.897   0.527   9.496 -0.4403 -0.0806 -0.3657
 2882SOL    HW120279   0.818   0.580   9.500  2.4536  4.2456  0.0104
 2882SOL    HW220280   0.894   0.492   9.408  1.2082  1.6055 -1.0988
 2883SOL     OW20281   2.140   3.940   1.310 -0.1047 -0.3723 -0.2579
 2883SOL    HW120282   2.059   3.990   1.302  0.6870  1.0260  0.4476
 2883SOL    HW220283   2.129   3.886   1.231 -0.2489 -0.3555 -0.2480
 2884SOL     OW20284   0.603   0.059  16.970  0.5968  0.1461 -0.6993
 2884SOL    HW120285   0.534   0.111  17.010  0.4761  1.1451 -2.1855
 2884SOL    HW220286   0.652   0.124  16.919 -1.2792  1.0469 -1.3406
 2885SOL     OW20287   2.306   3.486   5.094  0.4522  0.4898 -0.5465
 2885SOL    HW120288   2.394   3.517   5.116 -0.5351  3.3846 -0.7287
 2885SOL    HW220289   2.327   3.421   5.027  0.3502 -0.6103  0.4808
 2886SOL     OW20290   2.585   2.144   6.379  0.3663 -0.5531 -0.7553
 2886SOL    HW120291   2.640   2.155   6.301  0.4365  2.5288 -0.2577
 2886SOL    HW220292   2.506   2.181   6.340  0.3263 -0.0127 -0.1684
 2887SOL     OW20293   0.762   3.882   9.969 -0.5996  0.0746 -0.3423
 2887SOL    HW120294   0.794   3.809   9.917 -0.5656  0.0346 -0.2656
 2887SOL    HW220295   0.784   3.954   9.910 -0.4644  1.8458  1.8482
 2888SOL     OW20296   0.813   1.006   5.342  0.2157 -0.3204 -0.1840
 2888SOL    HW120297   0.797   0.993   5.249 -0.5797  0.2546 -0.1273
 2888SOL    HW220298   0.907   1.004   5.363  0.1916 -2.1389 -0.2321
 2889SOL     OW20299   2.697   1.302  12.108 -0.8802  0.3390  0.7055
 2889SOL    HW120300   2.653   1.385  12.126 -0.7530 -0.2014  3.5199
 2889SOL    HW220301   2.755   1.331  12.037 -0.7805  0.6204  0.9013
 2890SOL     OW20302   3.082   0.291  11.565 -0.1106 -0.0487  0.2211
 2890SOL    HW120303   3.016   0.298  11.633 -1.7723  1.2767 -1.5204
 2890SOL    HW220304   3.020   0.273  11.495 -1.1438 -1.2040  1.4431
 2891SOL     OW20305   1.183   3.912   1.457 -0.6031  0.0250  0.4735
 2891SOL    HW120306   1.180   3.833   1.510 -3.1332 -0.2180 -0.0354
 2891SOL    HW220307   1.153   3.977   1.520 -0.3805  0.8255 -0.2313
 2892SOL     OW20308   4.277   4.043   8.469 -0.3437  0.0886  0.0177
 2892SOL    HW120309   4.277   3.965   8.412 -0.8080 -0.5975  0.9573
 2892SOL    HW220310   4.354   4.027   8.525 -0.8573 -2.4135 -0.0013
 2893SOL     OW20311   3.924   4.246   1.546 -0.6204  0.0605 -0.2717
 2893SOL    HW120312   3.874   4.327   1.534 -1.6231 -0.5670 -0.3172
 2893SOL    HW220313   3.987   4.269   1.615 -1.1255 -0.3380  0.3226
 2894SOL     OW20314   4.021   4.598   0.544 -0.0409 -0.9652 -0.2302
 2894SOL    HW120315   3.944   4.576   0.491  0.0287  0.7768 -1.0669
 2894SOL    HW220316   4.090   4.571   0.483 -0.4072 -0.3378 -0.9313
 2895SOL     OW20317   1.466   1.585   2.923  0.1823 -0.1735 -0.1884
 2895SOL    HW120318   1.544   1.597   2.977 -0.0750  0.1971  0.1023
 2895SOL    HW220319   1.405   1.556   2.992  2.3716 -1.9032  1.0124
 2896SOL     OW20320   4.658   4.465   4.960 -0.6095 -0.7217  0.2938
 2896SOL    HW120321   4.722   4.417   5.013  2.2382  2.4154 -0.3701
 2896SOL    HW220322   4.584   4.489   5.016  0.7463  1.5020  1.1396
 2897SOL     OW20323   4.634   1.804   6.003 -0.1013  0.0736  0.0460
 2897SOL    HW120324   4.646   1.748   5.926  0.4911  0.0353  0.1648
 2897SOL    HW220325   4.662   1.738   6.067 -1.2682  1.2912  1.8031
 2898SOL     OW20326   4.658   2.702   6.240  0.8473  0.4063  0.2580
 2898SOL    HW120327   4.571   2.679   6.272  0.7049  0.3765 -0.1464
 2898SOL    HW220328   4.691   2.760   6.309  0.8794  1.1478 -0.3856
 2899SOL     OW20329   1.475   2.066   2.963  0.7164  0.1880 -0.5283
 2899SOL    HW120330   1.407   2.120   3.004 -0.2769 -0.8509 -0.7991
 2899SOL    HW220331   1.482   1.992   3.023 -0.1089  0.5544  0.0163
 2900SOL     OW20332   2.457   3.469  11.287  0.1853 -0.1508  0.3358
 2900SOL    HW120333   2.381   3.527  11.283 -0.2150 -0.7510 -0.7133
 2900SOL    HW220334   2.530   3.506  11.237  1.2155 -0.3657  1.6937
 2901SOL     OW20335   0.592   0.944   5.766  0.4739 -0.0189  0.4251
 2901SOL    HW120336   0.674   0.919   5.810  0.4515 -0.0057  0.4741
 2901SOL    HW220337   0.617   1.031   5.734 -1.2133  0.1493 -0.4076
 2902SOL     OW20338   4.595   3.862   4.915  0.1797 -0.1478 -0.2157
 2902SOL    HW120339   4.603   3.953   4.941 -0.3655  0.0208 -0.6271
 2902SOL    HW220340   4.680   3.823   4.935  0.6389  0.0411 -1.7611
 2903SOL     OW20341   4.339   4.342  17.560  0.2735 -0.0346 -0.0685
 2903SOL    HW120342   4.416   4.285  17.572 -0.6876 -1.3382 -0.0367
 2903SOL    HW220343   4.381   4.423  17.588 -0.7357  0.3353  0.3553
 2904SOL     OW20344   2.675   4.034  15.243  0.0082  0.0035 -0.6934
 2904SOL    HW120345   2.692   3.941  15.254 -0.3998 -0.2673 -2.3413
 2904SOL    HW220346   2.633   4.051  15.328 -0.3149 -0.1502 -0.8209
 2905SOL     OW20347   4.718   1.558   4.120 -0.1079  0.1614 -0.4212
 2905SOL    HW120348   4.693   1.644   4.153 -2.5235 -1.0472  0.9021
 2905SOL    HW220349   4.669   1.552   4.038 -0.0300  1.6335 -0.5798
 2906SOL     OW20350   1.627   0.622  15.610 -0.3041 -0.3339 -0.2296
 2906SOL    HW120351   1.666   0.588  15.530  0.5385 -0.2055  0.1344
 2906SOL    HW220352   1.592   0.543  15.653 -0.2922 -0.4424 -0.4208
 2907SOL     OW20353   2.640   2.804   8.545  1.0984  0.5234 -0.3339
 2907SOL    HW120354   2.555   2.794   8.502 -0.5027 -0.5089  3.0863
 2907SOL    HW220355   2.642   2.894   8.576 -2.1830  1.1401 -1.9423
 2908SOL     OW20356   1.575   3.937   0.922 -0.4557 -0.6609  0.1097
 2908SOL    HW120357   1.592   3.905   0.833  0.1785  1.4397 -0.5299
 2908SOL    HW220358   1.517   4.010   0.898 -0.0839 -0.0192  1.1775
 2909SOL     OW20359   3.405   1.619  15.936 -0.8976 -0.1388 -0.4704
 2909SOL    HW120360   3.439   1.705  15.910  0.5606 -0.6494 -0.2212
 2909SOL    HW220361   3.456   1.569  15.873  0.2303 -1.3405  1.3802
 2910SOL     OW20362   0.782   1.170  11.609  0.2835  0.2048 -0.2573
 2910SOL    HW120363   0.857   1.183  11.667  0.9430  1.6466 -1.4249
 2910SOL    HW220364   0.813   1.097  11.556 -0.4071 -0.4508  0.2517
 2911SOL     OW20365   3.978   3.986   5.787 -0.0832  0.4582  0.4776
 2911SOL    HW120366   4.009   3.902   5.820 -1.8213  0.6169  2.5250
 2911SOL    HW220367   3.965   3.964   5.695  2.0566  1.3000 -0.0326
 2912SOL     OW20368   3.423   2.121   8.408  0.0958  0.0542  0.0595
 2912SOL    HW120369   3.393   2.193   8.463 -2.5057 -1.4858  0.6474
 2912SOL    HW220370   3.374   2.043   8.435 -0.6991  1.6828  3.2909
 2913SOL     OW20371   3.735   0.449   4.795  0.0960 -0.3111  0.2298
 2913SOL    HW120372   3.738   0.356   4.772 -1.9565 -0.8026  2.0224
 2913SOL    HW220373   3.761   0.448   4.887  0.0877  0.9480  0.2427
 2914SOL     OW20374   0.903   1.985  17.134 -0.4805  0.1946 -0.0256
 2914SOL    HW120375   0.816   2.023  17.144 -0.3982  1.5485 -4.5620
 2914SOL    HW220376   0.890   1.909  17.191 -0.4577  1.3765  1.5482
 2915SOL     OW20377   1.909   3.927  11.848 -0.5606 -0.4684  0.3164
 2915SOL    HW120378   1.983   3.908  11.790  1.2875 -1.5259  3.0754
 2915SOL    HW220379   1.916   3.853  11.908  0.4883  0.8492  1.8013
 2916SOL     OW20380   2.230   3.189   1.246  0.5963 -0.7034  0.3728
 2916SOL    HW120381   2.292   3.123   1.217 -0.2368 -1.6184  0.6883
 2916SOL    HW220382   2.264   3.204   1.335  1.8229  4.2739 -0.8978
 2917SOL     OW20383   4.303   1.489   9.719  0.2702  0.4702  0.2575
 2917SOL    HW120384   4.295   1.487   9.815  4.5435  1.1825  0.6263
 2917SOL    HW220385   4.291   1.401   9.683 -1.0256  1.6614 -2.2575
 2918SOL     OW20386   4.354   1.053  11.322 -0.0747  0.4527 -0.5749
 2918SOL    HW120387   4.285   1.082  11.262  0.9357 -1.1751 -2.5381
 2918SOL    HW220388   4.388   1.137  11.350 -1.7062  0.5729  1.1090
 2919SOL     OW20389   0.343   1.281   9.195 -0.5687 -0.1358 -0.2180
 2919SOL    HW120390   0.419   1.310   9.144 -1.0351 -2.1061 -2.0758
 2919SOL    HW220391   0.383   1.288   9.281 -0.4984 -0.5506 -0.2137
 2920SOL     OW20392   0.369   1.502  12.205  0.2999 -0.2898  0.1847
 2920SOL    HW120393   0.333   1.538  12.124  1.5128 -0.3890 -0.4107
 2920SOL    HW220394   0.311   1.529  12.276  0.8457  1.2179  0.0758
 2921SOL     OW20395   0.413   2.434   5.305 -0.4847  0.5229  0.4456
 2921SOL    HW120396   0.322   2.448   5.281  0.5003  2.9603 -1.7998
 2921SOL    HW220397   0.415   2.427   5.401 -0.0981 -2.3446  0.2387
 2922SOL     OW20398   0.996   2.037  13.083  0.0675  0.2073  0.0610
 2922SOL    HW120399   0.964   2.118  13.123 -1.2534  0.3235 -1.2672
 2922SOL    HW220400   1.037   1.998  13.161  0.8180 -3.2140 -2.0629
 2923SOL     OW20401   2.373   0.676  10.565 -0.5005  0.3565 -0.3131
 2923SOL    HW120402   2.281   0.682  10.540 -0.8899  1.2797  1.3553
 2923SOL    HW220403   2.371   0.613  10.637 -1.0980 -2.0240 -2.3956
 2924SOL     OW20404   2.322   4.639   2.605  0.0963 -0.0497  0.5816
 2924SOL    HW120405   2.321   4.545   2.625  1.6677 -0.4331 -1.2219
 2924SOL    HW220406   2.234   4.646   2.570 -0.6596  2.4819  2.9410
 2925SOL     OW20407   3.885   0.725   5.951 -0.0568 -0.4917  0.7102
 2925SOL    HW120408   3.966   0.770   5.928  1.0045 -2.1457  1.2072
 2925SOL    HW220409   3.900   0.727   6.045  0.2570  1.3056  0.6148
 2926SOL     OW20410   3.644   1.363   5.929 -0.0339  0.0763 -0.6837
 2926SOL    HW120411   3.643   1.409   5.845 -0.4440  0.3408 -0.5353
 2926SOL    HW220412   3.620   1.438   5.982  0.3517 -0.0180 -0.3772
 2927SOL     OW20413   1.047   3.928   9.184 -0.1699 -0.1910  0.4390
 2927SOL    HW120414   1.126   3.951   9.232 -0.5644  1.8855  0.1018
 2927SOL    HW220415   1.065   3.835   9.197  0.4943 -0.2331 -0.7711
 2928SOL     OW20416   2.979   1.541   1.351 -0.3813 -0.2720  0.2688
 2928SOL    HW120417   3.029   1.499   1.281  0.0538 -0.7382  0.8654
 2928SOL    HW220418   2.932   1.468   1.391 -0.2763  0.4989  1.8105
 2929SOL     OW20419   3.479   1.257   1.356  0.0322  0.6212 -0.4769
 2929SOL    HW120420   3.556   1.242   1.411  1.5583 -2.0862 -3.3970
 2929SOL    HW220421   3.407   1.263   1.418 -1.1778  0.3688 -1.8533
 2930SOL     OW20422   3.824   2.491   9.826 -0.1857  0.1436 -0.0321
 2930SOL    HW120423   3.806   2.483   9.919 -1.6009 -1.1673 -0.4218
 2930SOL    HW220424   3.804   2.582   9.806 -1.2338 -0.0168  0.2823
 2931SOL     OW20425   3.172   0.550   6.849 -0.0555 -0.8389 -0.3147
 2931SOL    HW120426   3.078   0.535   6.857 -0.1179  0.3112  1.1115
 2931SOL    HW220427   3.180   0.645   6.842 -1.0639 -0.7565 -0.3315
 2932SOL     OW20428   1.018   4.119   0.514  0.0307 -0.0735 -0.3327
 2932SOL    HW120429   0.929   4.151   0.532 -0.1350  1.1149 -3.2086
 2932SOL    HW220430   1.001   4.034   0.472  0.9362 -0.1852 -0.4724
 2933SOL     OW20431   3.411   0.763   3.367 -0.1239  0.7534 -0.8491
 2933SOL    HW120432   3.410   0.787   3.460 -1.6332  0.0118 -0.6697
 2933SOL    HW220433   3.324   0.725   3.356 -0.0198 -0.0190  0.9824
 2934SOL     OW20434   2.498   1.118   5.039 -0.2209  0.0581  0.2098
 2934SOL    HW120435   2.574   1.065   5.062 -0.0630 -0.5426 -1.6561
 2934SOL    HW220436   2.531   1.177   4.971  1.2429  1.3847  2.0859
 2935SOL     OW20437   3.637   0.014   2.196  0.1098  0.7308  0.2349
 2935SOL    HW120438   3.640   0.102   2.234 -0.7912  1.3032 -1.0410
 2935SOL    HW220439   3.642   4.704   2.278  3.2402 -0.9464 -0.9462
 2936SOL     OW20440   2.707   3.970   2.215 -0.2311  0.3233 -0.1703
 2936SOL    HW120441   2.674   4.016   2.292  0.8473 -0.7532  0.9479
 2936SOL    HW220442   2.763   4.035   2.175  1.3564 -1.1112 -0.2802
 2937SOL     OW20443   0.960   1.760  13.428  0.4348  0.1596  1.7002
 2937SOL    HW120444   1.015   1.688  13.458  2.2995 -0.6970 -3.6517
 2937SOL    HW220445   0.955   1.748  13.333  1.6203  0.4604  1.6059
 2938SOL     OW20446   4.076   2.024   6.795  0.2359 -0.1683 -0.2115
 2938SOL    HW120447   4.023   2.104   6.797 -0.2760 -0.5067 -0.1491
 2938SOL    HW220448   4.079   2.001   6.702  1.3446  0.5515 -0.3482
 2939SOL     OW20449   2.718   1.107  13.998  0.2900 -0.3013  0.3034
 2939SOL    HW120450   2.710   1.166  13.923  0.1876  0.3453  0.8272
 2939SOL    HW220451   2.797   1.144  14.038 -0.8321  1.2090  1.1024
 2940SOL     OW20452   3.365   3.847   9.612  0.5880 -0.5213  0.4051
 2940SOL    HW120453   3.312   3.768   9.598 -2.2435  1.5078 -0.3506
 2940SOL    HW220454   3.303   3.917   9.591  0.7440 -0.4568  0.1622
 2941SOL     OW20455   4.070   0.579  10.666  0.6031 -0.5537 -0.0064
 2941SOL    HW120456   4.005   0.637  10.706  0.1568 -0.7775 -0.4025
 2941SOL    HW220457   4.100   0.538  10.747 -1.9369 -1.0583  0.6816
 2942SOL     OW20458   1.307   1.810  15.250  0.1483  0.1185  0.1885
 2942SOL    HW120459   1.361   1.773  15.180 -3.6546  0.1005 -2.7334
 2942SOL    HW220460   1.250   1.735  15.268  0.0118  0.7377  2.3674
 2943SOL     OW20461   3.822   2.446  15.208 -0.1776 -0.3611  0.4582
 2943SOL    HW120462   3.764   2.374  15.182 -1.0803  0.7077 -0.4958
 2943SOL    HW220463   3.852   2.464  15.118  1.1459 -0.3111  0.9099
 2944SOL     OW20464   2.398   0.065  17.100  0.0757  0.7252  0.0747
 2944SOL    HW120465   2.396   0.056  17.196 -0.8446 -2.5022 -0.2487
 2944SOL    HW220466   2.378   0.158  17.094 -3.2637  0.1021  1.6569
 2945SOL     OW20467   2.293   1.783  12.398  0.6226 -1.0267  0.0616
 2945SOL    HW120468   2.246   1.859  12.431  3.1388  0.0508  1.1282
 2945SOL    HW220469   2.360   1.768  12.465  1.9667 -2.5434 -1.6086
 2946SOL     OW20470   0.011   4.142   1.862  0.2513 -0.3040  0.2727
 2946SOL    HW120471   0.035   4.069   1.919 -2.5481 -0.9859  0.6143
 2946SOL    HW220472   4.655   4.146   1.879 -0.1199 -1.6270 -1.4158
 2947SOL     OW20473   3.578   1.741  13.366  0.1802 -0.1149 -0.5156
 2947SOL    HW120474   3.545   1.679  13.431  1.4159 -0.3644 -0.1323
 2947SOL    HW220475   3.613   1.680  13.302  0.2450  0.4482 -1.0184
 2948SOL     OW20476   0.436   0.420   6.898  0.8154  0.9183 -0.1522
 2948SOL    HW120477   0.488   0.470   6.836 -0.0845 -1.7654 -3.0409
 2948SOL    HW220478   0.352   0.464   6.899  0.5587  0.4210  0.2965
 2949SOL     OW20479   2.865   2.733   7.137  0.0937 -0.3149  0.1289
 2949SOL    HW120480   2.959   2.741   7.152  0.1987 -0.3979 -0.4924
 2949SOL    HW220481   2.855   2.645   7.100  1.7745  1.5544 -4.6971
 2950SOL     OW20482   2.082   4.709   7.620 -0.3054  0.1507 -0.4189
 2950SOL    HW120483   2.167   0.014   7.607 -0.2386 -1.3148 -4.7254
 2950SOL    HW220484   2.025   0.038   7.584  0.0376  1.7994  2.0875
 2951SOL     OW20485   1.331   4.394   5.956 -0.3878  0.0948  0.0460
 2951SOL    HW120486   1.336   4.313   5.905  0.8298 -0.0945  0.4722
 2951SOL    HW220487   1.361   4.364   6.042  2.1849  1.4368 -0.3715
 2952SOL     OW20488   4.222   1.679   4.812  0.0825 -0.7668 -0.1521
 2952SOL    HW120489   4.288   1.611   4.828  1.5659  0.7800  0.2369
 2952SOL    HW220490   4.223   1.728   4.894  0.7166 -1.3047  0.1622
 2953SOL     OW20491   3.112   3.951   4.004  0.5710 -0.1597 -0.2033
 2953SOL    HW120492   3.097   3.973   4.096 -0.7019  1.5547 -0.8321
 2953SOL    HW220493   3.206   3.930   4.012  0.1061 -0.7272  3.7239
 2954SOL     OW20494   3.958   4.128   2.666  0.2752  0.2403 -0.0874
 2954SOL    HW120495   3.931   4.155   2.753 -0.0320  0.2853 -0.1968
 2954SOL    HW220496   4.052   4.112   2.667  0.1568 -0.5028 -1.0372
 2955SOL     OW20497   0.253   3.034   7.931 -0.0086 -0.0351 -0.0003
 2955SOL    HW120498   0.196   2.958   7.917 -2.0233  1.1764  1.6878
 2955SOL    HW220499   0.225   3.066   8.017  0.6771 -0.0916  0.2391
 2956SOL     OW20500   0.502   1.831  17.562 -0.7405  0.0396 -0.1751
 2956SOL    HW120501   0.503   1.737  17.578 -2.0124  0.2858  1.3629
 2956SOL    HW220502   0.490   1.871  17.649  0.2710  1.6941 -0.7905
 2957SOL     OW20503   0.250   4.172   2.709  0.4063 -0.1497  0.0815
 2957SOL    HW120504   0.233   4.166   2.803  0.4606 -0.0731  0.0963
 2957SOL    HW220505   0.250   4.268   2.706 -0.9297 -0.1034  1.8138
 2958SOL     OW20506   1.248   2.961   8.502 -0.0073  0.3151  0.0044
 2958SOL    HW120507   1.189   3.015   8.450 -0.7027 -0.6348 -0.1761
 2958SOL    HW220508   1.313   3.026   8.530 -0.3674  0.3056  0.8805
 2959SOL     OW20509   1.926   3.277   1.032  0.1127 -0.4665  0.2695
 2959SOL    HW120510   1.962   3.231   0.957  1.3407  3.0580 -1.3363
 2959SOL    HW220511   2.002   3.313   1.078 -0.5920 -0.5847  1.5253
 2960SOL     OW20512   4.118   3.783   1.076 -0.2931 -0.2876  0.2540
 2960SOL    HW120513   4.040   3.731   1.096  0.2228 -0.8429  0.8448
 2960SOL    HW220514   4.082   3.870   1.092 -0.3453  0.0078 -1.5298
 2961SOL     OW20515   4.537   2.069   3.822  0.1820 -0.0694 -0.4670
 2961SOL    HW120516   4.574   1.983   3.803 -0.3763 -0.4241  0.0430
 2961SOL    HW220517   4.449   2.059   3.785 -0.7781  0.5648  1.6180
 2962SOL     OW20518   0.334   3.754   6.251 -0.0265  0.6199 -0.5521
 2962SOL    HW120519   0.366   3.844   6.245  2.1583 -0.0481  0.7839
 2962SOL    HW220520   0.401   3.693   6.219  0.2723 -0.3797  1.9211
 2963SOL     OW20521   2.256   2.755  15.378  0.5411  0.6723 -0.2992
 2963SOL    HW120522   2.343   2.777  15.409  0.7837  1.2162 -1.3890
 2963SOL    HW220523   2.216   2.710  15.453 -1.0466  1.5097 -0.6412
 2964SOL     OW20524   2.215   1.495  12.003 -0.9542 -0.1954 -0.1251
 2964SOL    HW120525   2.175   1.569  12.050 -0.9919  0.8345 -1.8065
 2964SOL    HW220526   2.304   1.528  11.994 -1.2609  0.6864  0.0531
 2965SOL     OW20527   1.059   1.886   1.388  0.1568  0.1192 -0.3088
 2965SOL    HW120528   0.966   1.872   1.406  1.1060 -0.6384  4.1149
 2965SOL    HW220529   1.069   1.815   1.324 -1.4488 -1.1505  0.8448
 2966SOL     OW20530   1.691   0.254   1.808  0.2216 -0.2256 -0.7059
 2966SOL    HW120531   1.761   0.217   1.862 -0.8911 -1.1411  0.1393
 2966SOL    HW220532   1.619   0.198   1.838  0.2025  0.8785  1.3243
 2967SOL     OW20533   2.314   2.261  10.005  0.5358  0.2031 -0.1461
 2967SOL    HW120534   2.310   2.167   9.989  1.7105 -0.0965  1.3512
 2967SOL    HW220535   2.260   2.264  10.084 -0.0794  3.9170 -0.7001
 2968SOL     OW20536   2.854   0.060  14.332 -0.0470  0.5824  0.3285
 2968SOL    HW120537   2.793   0.000  14.377  0.5418 -1.8670 -2.1063
 2968SOL    HW220538   2.924   0.055  14.397  0.9350  0.2103 -0.7596
 2969SOL     OW20539   3.459   3.744   3.223 -0.1191  0.0695 -0.6220
 2969SOL    HW120540   3.442   3.802   3.149 -3.7065  2.3503  1.9843
 2969SOL    HW220541   3.372   3.706   3.235  0.3429 -1.5315 -2.3134
 2970SOL     OW20542   2.249   1.900   6.605 -0.2828  0.6470  0.7516
 2970SOL    HW120543   2.342   1.880   6.593  0.0399  1.8871  1.1659
 2970SOL    HW220544   2.252   1.987   6.565  0.8819  0.2484 -0.0558
 2971SOL     OW20545   1.331   3.643   4.704  0.2376  0.1739 -0.3020
 2971SOL    HW120546   1.245   3.603   4.697  0.0643  0.8045 -1.7645
 2971SOL    HW220547   1.365   3.599   4.782  0.8049 -0.3686 -0.8592
 2972SOL     OW20548   2.672   0.669   1.812 -0.1795  0.0339  0.1360
 2972SOL    HW120549   2.645   0.732   1.745 -1.6172 -0.6788  0.0516
 2972SOL    HW220550   2.767   0.683   1.813 -0.1649 -0.0141 -1.0064
 2973SOL     OW20551   1.587   3.910  11.213  1.1300 -0.0997 -0.6503
 2973SOL    HW120552   1.570   3.842  11.278 -0.9746 -1.2360 -2.4051
 2973SOL    HW220553   1.679   3.932  11.229  1.0072  2.0525 -3.1047
 2974SOL     OW20554   0.166   1.889   3.360  0.1510 -0.0998 -0.1800
 2974SOL    HW120555   0.123   1.968   3.393 -1.2889 -0.2908 -1.5613
 2974SOL    HW220556   0.115   1.854   3.286 -0.6446  0.0022  0.3167
 2975SOL     OW20557   3.979   2.236   3.145  0.5017  0.1793 -0.3748
 2975SOL    HW120558   3.993   2.322   3.106  0.5622 -0.1628 -1.1043
 2975SOL    HW220559   3.939   2.269   3.225  0.3930  0.6513 -0.6266
 2976SOL     OW20560   3.482   3.375   2.339 -0.1439  0.0929 -0.1522
 2976SOL    HW120561   3.460   3.426   2.417 -0.0430  1.1044 -0.7867
 2976SOL    HW220562   3.542   3.303   2.355  0.9260  1.0721  0.2199
 2977SOL     OW20563   4.026   0.103   9.019  0.1060  0.2731  0.2705
 2977SOL    HW120564   4.029   0.009   9.006 -0.1382  0.4572 -1.2264
 2977SOL    HW220565   3.957   0.115   9.084  0.0824  3.0917 -0.2360
 2978SOL     OW20566   3.849   2.870   8.062  0.0934 -0.4283  0.1518
 2978SOL    HW120567   3.913   2.915   8.007 -1.1924  0.5594 -0.5297
 2978SOL    HW220568   3.777   2.898   8.006 -1.2477 -1.6907  1.2664
 2979SOL     OW20569   0.285   2.922   7.353  0.1805 -0.6363  0.0446
 2979SOL    HW120570   0.373   2.892   7.334 -0.7905 -2.9798 -0.6823
 2979SOL    HW220571   0.263   2.980   7.280 -2.1932 -1.9105 -0.2678
 2980SOL     OW20572   3.634   1.796   7.740  0.0122  0.0765 -0.1917
 2980SOL    HW120573   3.708   1.828   7.688 -0.6335  3.3297  0.8826
 2980SOL    HW220574   3.617   1.706   7.713 -1.5865  1.1398 -2.8062
 2981SOL     OW20575   3.949   1.168   0.901  0.2604 -0.3647 -0.4743
 2981SOL    HW120576   3.986   1.241   0.950  0.2055 -0.6724  0.0277
 2981SOL    HW220577   3.858   1.194   0.890 -0.9244 -2.6857  3.8117
 2982SOL     OW20578   0.439   3.749   4.212  0.2681  0.2468 -0.1028
 2982SOL    HW120579   0.391   3.686   4.158  1.1183  0.0538 -0.6431
 2982SOL    HW220580   0.408   3.708   4.293 -0.2580  1.3624  0.2522
 2983SOL     OW20581   3.492   2.267   9.722 -0.3284  0.4310 -0.6182
 2983SOL    HW120582   3.463   2.337   9.781 -3.6634 -0.6713 -0.9451
 2983SOL    HW220583   3.498   2.196   9.787  0.1116 -0.0027 -1.1427
 2984SOL     OW20584   4.398   0.096   1.810  0.5237  0.1972  0.5672
 2984SOL    HW120585   4.335   0.148   1.861 -0.8838 -1.1349  0.2048
 2984SOL    HW220586   4.475   0.151   1.795  1.7815 -2.4227 -2.7585
 2985SOL     OW20587   3.881   3.177   8.512 -0.6282  0.2148 -0.2685
 2985SOL    HW120588   3.869   3.119   8.438 -0.1926  3.3391 -2.7971
 2985SOL    HW220589   3.973   3.202   8.497 -0.5800 -0.0475 -0.4029
 2986SOL     OW20590   3.806   0.396   8.834  0.0900  0.2486 -0.2325
 2986SOL    HW120591   3.715   0.376   8.857  0.7382 -1.3864  0.8329
 2986SOL    HW220592   3.854   0.409   8.915  0.3116  1.8864 -0.6109
 2987SOL     OW20593   2.922   2.214  13.811  0.2853  0.2535 -0.0703
 2987SOL    HW120594   2.939   2.293  13.863  2.2342 -0.1346 -0.1223
 2987SOL    HW220595   2.936   2.146  13.876 -1.1463  1.0294  1.0492
 2988SOL     OW20596   0.266   4.179   7.752  0.2539 -0.3139  0.0330
 2988SOL    HW120597   0.281   4.143   7.665 -0.3944  2.3446 -1.1941
 2988SOL    HW220598   0.337   4.244   7.755  0.9984 -1.1277 -0.0077
 2989SOL     OW20599   4.735   1.229   2.398  0.7596 -0.0018  0.1062
 2989SOL    HW120600   4.698   1.317   2.409  1.8848  0.7525 -2.1529
 2989SOL    HW220601   4.682   1.177   2.457 -1.3367 -0.6385 -2.3646
 2990SOL     OW20602   3.359   0.920   7.385  0.0268 -0.0663  0.2113
 2990SOL    HW120603   3.300   0.853   7.352 -0.6988  0.2654  0.8382
 2990SOL    HW220604   3.350   0.913   7.480 -0.1596 -1.4288  0.0956
 2991SOL     OW20605   0.628   1.073  15.273 -0.1173  0.2089  0.1562
 2991SOL    HW120606   0.629   1.059  15.368  0.5588 -2.5559 -0.2854
 2991SOL    HW220607   0.719   1.094  15.253  0.1530 -1.0838  0.0912
 2992SOL     OW20608   0.068   2.252   0.435 -0.1798  0.1361  0.2417
 2992SOL    HW120609   0.048   2.301   0.355  0.3407 -1.7918 -1.0976
 2992SOL    HW220610   0.162   2.238   0.422 -0.2291 -1.2233  1.3737
 2993SOL     OW20611   3.560   3.028   4.770  0.1332  0.0553  0.3847
 2993SOL    HW120612   3.656   3.025   4.775  0.0694  0.2624  1.8070
 2993SOL    HW220613   3.548   3.096   4.836  0.9627  0.7312 -0.1604
 2994SOL     OW20614   3.102   1.075   2.824  0.7337  0.0829 -0.4716
 2994SOL    HW120615   3.191   1.057   2.794  0.9464 -1.7483  1.2458
 2994SOL    HW220616   3.072   1.129   2.751 -2.4585 -0.1802  0.6241
 2995SOL     OW20617   0.194   2.634   8.217 -0.0849  0.4104 -0.0763
 2995SOL    HW120618   0.199   2.542   8.192  0.8514  0.6071 -0.5946
 2995SOL    HW220619   0.285   2.661   8.203  0.6787 -1.3870  1.4337
 2996SOL     OW20620   2.209   0.179   5.449  0.0088 -0.2915  0.3072
 2996SOL    HW120621   2.296   0.155   5.483  0.3525  0.7063  0.1117
 2996SOL    HW220622   2.183   0.094   5.413  1.6151 -0.6164 -0.0857
 2997SOL     OW20623   4.026   3.704   2.858 -0.7145  0.2960 -0.2138
 2997SOL    HW120624   4.024   3.613   2.827 -0.1403 -0.1683  1.0879
 2997SOL    HW220625   4.081   3.693   2.936  0.7546 -0.7787 -1.4123
 2998SOL     OW20626   1.222   4.399  14.040  0.0433  0.5800 -0.2716
 2998SOL    HW120627   1.136   4.411  14.002  0.0104 -0.1594 -0.4301
 2998SOL    HW220628   1.215   4.418  14.134  0.8300 -1.2078  0.1727
 2999SOL     OW20629   4.199   2.816   3.508 -0.3516 -0.0331  0.3585
 2999SOL    HW120630   4.118   2.861   3.481  1.2260  1.6051 -1.6648
 2999SOL    HW220631   4.198   2.736   3.456 -0.5121 -0.6969  1.3939
 3000SOL     OW20632   2.907   0.918   9.327 -0.4915  0.4593  0.1396
 3000SOL    HW120633   2.891   0.864   9.404  1.3649  0.7868  0.7587
 3000SOL    HW220634   2.933   1.000   9.369  0.1700  0.7308 -0.8010
 3001SOL     OW20635   1.359   1.050   1.285 -0.0682  0.4886  0.5311
 3001SOL    HW120636   1.314   1.022   1.365 -1.0888  0.4771 -0.0435
 3001SOL    HW220637   1.312   1.131   1.264  1.0222  0.3943 -2.2182
 3002SOL     OW20638   2.867   3.811  17.637 -0.1715 -0.0959  0.3063
 3002SOL    HW120639   2.916   3.878  17.685 -0.2643 -0.6525  1.1653
 3002SOL    HW220640   2.875   3.840  17.546 -1.9777  0.5146  0.3331
 3003SOL     OW20641   4.513   0.324   3.701 -0.2913  0.8856 -0.2541
 3003SOL    HW120642   4.489   0.401   3.650  0.2067  1.6051  0.5852
 3003SOL    HW220643   4.584   0.292   3.645  0.9473  3.3909 -0.1343
 3004SOL     OW20644   3.626   1.055  11.237  0.2739 -0.5306  0.4360
 3004SOL    HW120645   3.656   0.977  11.190 -0.6949 -1.0711  0.7128
 3004SOL    HW220646   3.579   1.010  11.307 -1.6014 -0.5751 -0.8688
 3005SOL     OW20647   2.406   2.287   4.921 -0.1647  0.1444 -0.0848
 3005SOL    HW120648   2.316   2.283   4.953 -0.6016  1.5046 -1.1441
 3005SOL    HW220649   2.389   2.363   4.865 -1.2622  1.1123  1.5778
 3006SOL     OW20650   3.220   4.589   2.120  0.6813 -0.9554  0.9818
 3006SOL    HW120651   3.302   4.633   2.101 -0.9319  2.2125  1.3750
 3006SOL    HW220652   3.177   4.584   2.034 -0.8879  0.8275  1.6767
 3007SOL     OW20653   0.039   2.674   4.648 -0.0254 -0.0909 -0.2397
 3007SOL    HW120654   0.041   2.578   4.647 -0.0685 -0.1430  2.8025
 3007SOL    HW220655   0.061   2.685   4.556 -0.4073 -0.7840 -0.4099
 3008SOL     OW20656   2.955   1.985   8.241  0.6072 -0.2035 -0.6253
 3008SOL    HW120657   2.913   2.071   8.241  1.7327  0.3575  0.6236
 3008SOL    HW220658   2.882   1.937   8.202 -0.9416 -0.2736  2.4033
 3009SOL     OW20659   4.465   1.248   7.520 -0.3196 -0.4851 -0.0866
 3009SOL    HW120660   4.454   1.244   7.615 -0.5316 -0.7903 -0.1239
 3009SOL    HW220661   4.468   1.153   7.509  2.6939 -0.1663 -1.7987
 3010SOL     OW20662   2.615   2.252   3.417  0.4794 -0.4915  0.0448
 3010SOL    HW120663   2.651   2.338   3.395  1.6812 -0.9321  0.2556
 3010SOL    HW220664   2.527   2.267   3.450  0.5689 -2.2881  1.1382
 3011SOL     OW20665   1.030   1.511   7.159 -0.0311  0.1546 -0.0542
 3011SOL    HW120666   0.939   1.500   7.132  0.9087 -0.9372 -2.6784
 3011SOL    HW220667   1.051   1.564   7.082 -3.0551  0.9405 -0.3385
 3012SOL     OW20668   1.358   3.428   1.091  0.2964 -0.2435  0.5071
 3012SOL    HW120669   1.431   3.366   1.087  0.0337 -0.5065 -0.1737
 3012SOL    HW220670   1.377   3.476   1.010  2.0966 -0.1358  0.9892
 3013SOL     OW20671   4.659   2.419  10.133  0.1465 -0.6024 -0.5447
 3013SOL    HW120672   4.570   2.400  10.164 -1.1657  0.4525 -3.6397
 3013SOL    HW220673   4.707   2.394  10.212  1.4102  2.6708 -0.2858
 3014SOL     OW20674   1.352   1.461  11.034  0.1843 -0.4114  0.4948
 3014SOL    HW120675   1.423   1.514  11.071 -0.0690 -0.0559  0.4696
 3014SOL    HW220676   1.277   1.504  11.075 -0.7758 -0.2507 -1.4053
 3015SOL     OW20677   4.135   2.225   9.782 -0.4283  0.4661 -0.5111
 3015SOL    HW120678   4.195   2.269   9.843  1.6493 -3.6799  0.5080
 3015SOL    HW220679   4.206   2.173   9.744 -0.8553  0.4877 -1.3281
 3016SOL     OW20680   3.018   1.688   6.917 -0.1915 -0.6128 -0.1468
 3016SOL    HW120681   2.937   1.702   6.967  0.6963 -0.4471  1.2524
 3016SOL    HW220682   3.040   1.772   6.878 -0.5723  0.9115  2.8972
 3017SOL     OW20683   1.843   3.128  12.338 -0.5683  0.2144 -0.2691
 3017SOL    HW120684   1.822   3.192  12.270  1.4533  2.3563  1.0993
 3017SOL    HW220685   1.880   3.051  12.295 -1.6638 -1.1311  1.1939
 3018SOL     OW20686   1.793   0.710   7.369 -0.4179 -0.5178 -0.4857
 3018SOL    HW120687   1.827   0.690   7.456  1.8654 -0.8147 -1.4331
 3018SOL    HW220688   1.704   0.728   7.398 -0.0401  1.9250 -0.8317
 3019SOL     OW20689   1.012   3.689   9.626 -0.7104  0.0000 -0.4405
 3019SOL    HW120690   0.964   3.609   9.605 -0.1989 -0.3140 -0.4169
 3019SOL    HW220691   1.054   3.715   9.543 -0.4028 -0.5695 -0.4618
 3020SOL     OW20692   1.668   1.895   5.926 -0.2928  0.9692 -0.0619
 3020SOL    HW120693   1.748   1.845   5.908 -0.2697  0.7193  0.7442
 3020SOL    HW220694   1.700   1.981   5.899  3.7486 -0.5850 -0.2480
 3021SOL     OW20695   2.578   0.583   8.693 -0.5056 -0.3289  0.5562
 3021SOL    HW120696   2.561   0.667   8.651 -1.2975 -0.5574  0.4316
 3021SOL    HW220697   2.522   0.586   8.771 -0.5125  2.0301  0.4743
 3022SOL     OW20698   2.758   4.148   6.748  0.2112 -0.2422 -0.1638
 3022SOL    HW120699   2.715   4.100   6.818 -0.6750 -1.3084 -1.4246
 3022SOL    HW220700   2.693   4.212   6.721 -1.2748 -1.9377 -0.6048
 3023SOL     OW20701   3.643   3.770  14.792  0.2336  0.4274  0.4095
 3023SOL    HW120702   3.652   3.701  14.726 -0.5736 -0.1975  0.9535
 3023SOL    HW220703   3.727   3.811  14.770 -0.6872  2.9816  1.6409
 3024SOL     OW20704   2.618   3.130   7.247 -0.4053  0.2748  0.4439
 3024SOL    HW120705   2.591   3.187   7.175  0.6779 -0.4524 -0.5254
 3024SOL    HW220706   2.659   3.194   7.306 -0.9541  0.7875  0.2755
 3025SOL     OW20707   0.413   3.670   5.211 -0.2759  0.1495  0.2119
 3025SOL    HW120708   0.357   3.662   5.288  0.9337 -0.0789  1.0661
 3025SOL    HW220709   0.452   3.582   5.209 -0.6516 -0.0560  2.5240
 3026SOL     OW20710   3.633   3.963  15.617  0.4965  0.4954  0.7524
 3026SOL    HW120711   3.577   3.890  15.589  0.4962  0.8248 -0.1061
 3026SOL    HW220712   3.709   3.914  15.650  0.5778  0.4942  0.5602
 3027SOL     OW20713   0.027   1.798  13.291  0.0963  0.5289  0.1424
 3027SOL    HW120714   4.714   1.876  13.275  0.4416  0.8364  0.5137
 3027SOL    HW220715   0.062   1.819  13.377  0.0757 -2.9506  1.0122
 3028SOL     OW20716   1.259   2.767   8.253 -0.2893 -0.4487  0.4092
 3028SOL    HW120717   1.264   2.739   8.344  0.1265  1.5490  1.0048
 3028SOL    HW220718   1.343   2.811   8.239 -1.4044  0.9576 -1.8397
 3029SOL     OW20719   1.770   1.044   8.842 -0.2182 -0.6125  0.5328
 3029SOL    HW120720   1.836   1.113   8.851 -0.0920 -0.6389 -0.1689
 3029SOL    HW220721   1.779   1.016   8.751 -2.0845  1.2169 -0.2326
 3030SOL     OW20722   1.904   3.687   5.766 -0.1368  0.4780  0.3402
 3030SOL    HW120723   1.986   3.670   5.720 -1.1339 -2.1496 -0.5087
 3030SOL    HW220724   1.906   3.606   5.818 -0.9561  0.2982  0.0950
 3031SOL     OW20725   1.994   4.633   2.081  0.2887 -0.7458  0.8797
 3031SOL    HW120726   1.925   4.611   2.018 -0.1413  0.4695  0.9228
 3031SOL    HW220727   1.954   4.618   2.166 -2.0004  1.2462  0.1745
 3032SOL     OW20728   3.541   1.070   9.064  0.3137 -0.8509  0.2586
 3032SOL    HW120729   3.538   0.976   9.082 -2.6422 -0.5148  1.4100
 3032SOL    HW220730   3.460   1.074   9.014  0.2506 -0.7857  0.3649
 3033SOL     OW20731   0.814   1.017   5.971  0.2026  0.4667  0.6114
 3033SOL    HW120732   0.874   1.015   5.896 -1.0278 -3.8401 -0.2474
 3033SOL    HW220733   0.861   1.063   6.040  0.0775 -0.7667  1.5102
 3034SOL     OW20734   3.910   2.093   5.353  0.3339  0.8177  0.7546
 3034SOL    HW120735   3.852   2.141   5.294 -2.3206 -3.7213 -0.3085
 3034SOL    HW220736   3.889   2.001   5.337 -0.7824  1.9161 -3.8709
 3035SOL     OW20737   1.023   3.878  11.237 -0.0253 -0.0687  0.2692
 3035SOL    HW120738   1.027   3.968  11.206 -0.5775 -0.3815 -0.7037
 3035SOL    HW220739   1.011   3.837  11.151  1.5141 -2.0316  1.0019
 3036SOL     OW20740   0.023   1.579  13.539  0.9053 -0.2353  0.1881
 3036SOL    HW120741   4.679   1.622  13.563  0.4913 -1.5463  1.1071
 3036SOL    HW220742   0.086   1.652  13.541  2.2175 -1.3881  0.8177
 3037SOL     OW20743   0.945   0.128   1.859 -0.0377 -0.2371 -0.0079
 3037SOL    HW120744   0.883   0.131   1.786 -0.0995  2.5169  0.1773
 3037SOL    HW220745   0.987   0.213   1.846 -0.2413 -0.1005  0.2208
 3038SOL     OW20746   3.595   0.748   8.118  0.1491  0.6406 -0.0910
 3038SOL    HW120747   3.628   0.674   8.066 -1.1022  1.1848 -1.6782
 3038SOL    HW220748   3.621   0.814   8.053  2.0542  1.4432  1.4851
 3039SOL     OW20749   1.033   2.408   0.899 -0.1243 -0.0277  0.0451
 3039SOL    HW120750   0.961   2.366   0.947  0.1073 -2.7653 -2.0048
 3039SOL    HW220751   1.002   2.498   0.895 -0.4902 -0.0171  2.7347
 3040SOL     OW20752   2.871   3.104   2.527  0.2802 -0.1320  0.0421
 3040SOL    HW120753   2.910   3.067   2.447  0.2244  1.9661 -0.9445
 3040SOL    HW220754   2.781   3.072   2.524  0.0562  0.4471  0.7763
 3041SOL     OW20755   0.875   0.625   3.527  0.3956  0.0205  0.3065
 3041SOL    HW120756   0.899   0.578   3.447 -1.8072 -1.6575  0.6123
 3041SOL    HW220757   0.809   0.675   3.480 -1.3412 -0.7383  1.8924
 3042SOL     OW20758   0.491   0.395   2.489 -0.0747  0.4522 -0.1015
 3042SOL    HW120759   0.481   0.304   2.461 -2.6296  0.8043 -0.3437
 3042SOL    HW220760   0.457   0.385   2.577  3.4322  0.7502  1.2773
 3043SOL     OW20761   3.669   0.237  11.086  0.2198 -0.6871 -0.5529
 3043SOL    HW120762   3.687   0.283  11.169 -1.0989 -1.2236  0.0387
 3043SOL    HW220763   3.751   0.209  11.046  2.2258  0.5792  2.6066
 3044SOL     OW20764   0.392   2.868   9.281 -0.2329 -0.3989  0.0857
 3044SOL    HW120765   0.364   2.817   9.357 -1.9601  0.2754 -0.0951
 3044SOL    HW220766   0.456   2.925   9.323  1.4228 -1.8844 -0.4295
 3045SOL     OW20767   4.348   0.939   1.955 -0.1635  0.0665 -0.8714
 3045SOL    HW120768   4.281   0.942   2.023  1.5592  1.8035  0.7578
 3045SOL    HW220769   4.386   1.027   1.953 -3.1238  1.3713  1.4771
 3046SOL     OW20770   1.690   2.458  10.635  0.2600  0.2469 -0.2454
 3046SOL    HW120771   1.758   2.407  10.591 -0.3230  0.5903 -1.5621
 3046SOL    HW220772   1.620   2.393  10.639  0.1225  0.4138  0.0619
 3047SOL     OW20773   0.732   0.170   8.371  0.4060 -0.0966  0.4296
 3047SOL    HW120774   0.662   0.127   8.321  1.6552 -0.4812 -1.0154
 3047SOL    HW220775   0.759   0.100   8.431 -1.4704 -0.8130  0.4155
 3048SOL     OW20776   2.692   3.391   4.518 -0.3988 -0.4034  0.2442
 3048SOL    HW120777   2.638   3.462   4.483  0.6453 -0.0757 -0.7158
 3048SOL    HW220778   2.685   3.332   4.443  0.4630  2.4512 -2.1003
 3049SOL     OW20779   3.277   2.482   7.703 -0.1794  0.1813  0.4887
 3049SOL    HW120780   3.259   2.467   7.796  2.1481 -0.6794  0.7969
 3049SOL    HW220781   3.367   2.514   7.698 -0.3990  0.9897  1.5197
 3050SOL     OW20782   2.442   0.580   4.831  0.0808  0.1471  0.2580
 3050SOL    HW120783   2.507   0.649   4.815 -0.0147  0.3132  0.5959
 3050SOL    HW220784   2.483   0.503   4.868 -0.5657 -0.9570 -1.3191
 3051SOL     OW20785   0.995   0.539   2.619  0.3343 -0.2455 -0.0334
 3051SOL    HW120786   0.923   0.537   2.682  0.9368  0.9024  0.6923
 3051SOL    HW220787   1.020   0.630   2.635  1.7987 -0.8325  0.9793
 3052SOL     OW20788   0.414   0.921  15.221 -0.4478  0.1931 -0.4184
 3052SOL    HW120789   0.433   0.833  15.254  0.8539  0.6948  0.2042
 3052SOL    HW220790   0.499   0.960  15.242 -0.8728  0.6568  0.4222
 3053SOL     OW20791   3.963   0.518  14.346 -0.1779 -0.3710 -0.2658
 3053SOL    HW120792   3.961   0.484  14.256  1.7262  1.9269 -1.1637
 3053SOL    HW220793   4.047   0.477  14.368  0.8194  2.5183  1.2443
 3054SOL     OW20794   1.218   1.862   8.204  0.5470 -0.4128 -0.2796
 3054SOL    HW120795   1.301   1.894   8.169  0.6092  0.9056  1.0583
 3054SOL    HW220796   1.204   1.927   8.273 -0.0926 -0.1710 -0.6342
 3055SOL     OW20797   3.954   0.650   8.003 -0.1754 -0.2699 -0.2038
 3055SOL    HW120798   3.947   0.737   8.041 -0.3756 -0.0287 -0.7908
 3055SOL    HW220799   4.045   0.624   8.015  0.3679  1.0807 -1.3625
 3056SOL     OW20800   0.769   1.988   2.768 -0.2007  0.0438  0.7217
 3056SOL    HW120801   0.760   2.076   2.804  1.4897  0.1350  0.9290
 3056SOL    HW220802   0.815   2.012   2.687 -1.2382 -0.1669  0.0668
 3057SOL     OW20803   4.287   3.455  14.292 -0.1198 -0.4077 -0.2104
 3057SOL    HW120804   4.291   3.433  14.385  2.7200  1.3946  0.0984
 3057SOL    HW220805   4.378   3.473  14.267  0.9236 -3.5007  1.2401
 3058SOL     OW20806   4.032   4.728   5.629  0.1010 -0.6198 -0.3738
 3058SOL    HW120807   3.956   4.710   5.683 -0.9662 -0.0205 -1.6681
 3058SOL    HW220808   4.067   4.643   5.604  0.8810 -0.8771  1.6548
 3059SOL     OW20809   3.415   0.309  13.398  0.1641  0.1542  0.0029
 3059SOL    HW120810   3.415   0.366  13.475 -0.7184 -2.0839  1.6215
 3059SOL    HW220811   3.338   0.341  13.352 -2.7915 -3.0974  2.7593
 3060SOL     OW20812   1.348   1.815   6.265 -0.2372 -0.1707 -0.6056
 3060SOL    HW120813   1.264   1.837   6.306 -0.5122  0.1764 -1.3522
 3060SOL    HW220814   1.323   1.729   6.232 -0.2740  0.0632 -1.1964
 3061SOL     OW20815   0.856   3.382  16.125 -0.7076  0.4853 -0.3619
 3061SOL    HW120816   0.945   3.392  16.093  0.1337 -1.7171  1.3387
 3061SOL    HW220817   0.804   3.362  16.047 -0.9509 -1.3688  0.2799
 3062SOL     OW20818   1.569   1.858   9.284 -0.3516 -0.6626  0.7511
 3062SOL    HW120819   1.628   1.923   9.248  0.9658 -1.9171  0.6197
 3062SOL    HW220820   1.631   1.786   9.295 -0.2645 -0.4338  1.8104
 3063SOL     OW20821   4.422   0.403   5.615 -0.6369 -0.1146  0.9405
 3063SOL    HW120822   4.351   0.426   5.674 -2.1946  1.8196 -1.7160
 3063SOL    HW220823   4.451   0.488   5.584  0.3959 -0.2260  1.5913
 3064SOL     OW20824   3.940   2.609   2.410 -0.8906  0.0856  0.0699
 3064SOL    HW120825   3.859   2.635   2.454 -1.0578 -0.0295 -0.1660
 3064SOL    HW220826   3.911   2.542   2.347  0.8487  0.5985 -1.2761
 3065SOL     OW20827   3.309   1.320   3.045  0.3859 -0.5371 -0.3604
 3065SOL    HW120828   3.363   1.269   2.984  0.4317  1.9017 -2.3550
 3065SOL    HW220829   3.333   1.272   3.125 -1.5249  0.2254  0.6596
 3066SOL     OW20830   4.234   0.255  13.260 -0.0540 -0.0007 -0.3991
 3066SOL    HW120831   4.229   0.174  13.310 -0.4654  0.7960  0.8619
 3066SOL    HW220832   4.165   0.305  13.305 -2.2085 -3.4131  0.0368
 3067SOL     OW20833   0.105   3.283   6.667  0.3976 -0.7050  0.1666
 3067SOL    HW120834   0.140   3.300   6.579 -0.0502  2.7836  0.6598
 3067SOL    HW220835   0.071   3.194   6.660  0.2618 -0.5635 -1.0184
 3068SOL     OW20836   1.469   0.221   2.069 -0.4222  0.3318  0.6675
 3068SOL    HW120837   1.390   0.264   2.036  0.3814  0.7794 -0.6519
 3068SOL    HW220838   1.432   0.163   2.136 -0.2045 -1.5469 -0.8401
 3069SOL     OW20839   1.749   2.782  13.947 -0.2887  0.4599 -0.1654
 3069SOL    HW120840   1.749   2.688  13.927 -2.0359  0.4701 -0.2356
 3069SOL    HW220841   1.841   2.802  13.927  1.2852 -5.0462  1.5366
 3070SOL     OW20842   3.617   3.978   0.060 -0.0385  0.2651  0.6138
 3070SOL    HW120843   3.645   3.896   0.100 -0.5815 -0.8758 -1.3871
 3070SOL    HW220844   3.639   4.048   0.122 -1.3794  0.9600  0.3034
 3071SOL     OW20845   3.530   1.166  13.992 -0.4186  0.5540  0.0137
 3071SOL    HW120846   3.584   1.113  14.050 -0.6882 -2.1667 -2.2094
 3071SOL    HW220847   3.583   1.243  13.968  1.9700 -1.9592 -2.6956
 3072SOL     OW20848   0.788   2.901  17.753  1.0001 -0.2278  0.1181
 3072SOL    HW120849   0.697   2.904  17.726  1.1146 -3.2699 -0.6674
 3072SOL    HW220850   0.826   2.883  17.666  0.1936  1.0363 -0.4847
 3073SOL     OW20851   4.320   1.295   9.306  0.0610 -0.2682  0.3587
 3073SOL    HW120852   4.251   1.324   9.245  1.2742 -0.2382 -0.9985
 3073SOL    HW220853   4.398   1.338   9.272  0.7829 -0.8004  1.3813
 3074SOL     OW20854   4.733   1.597   7.997  0.0022 -0.6077 -0.5158
 3074SOL    HW120855   4.666   1.662   7.976  0.5852  0.3874  0.6681
 3074SOL    HW220856   0.019   1.642   8.078 -0.3223  0.2439 -0.8932
 3075SOL     OW20857   4.150   2.005   8.569 -0.5802 -0.3267 -0.0707
 3075SOL    HW120858   4.072   2.019   8.516 -0.5853 -2.7306 -0.6824
 3075SOL    HW220859   4.206   1.938   8.530  0.1349 -0.6274  1.4543
 3076SOL     OW20860   0.822   3.665   6.755  0.5436 -0.4373 -0.6453
 3076SOL    HW120861   0.806   3.618   6.837 -0.7979  1.8031  0.3927
 3076SOL    HW220862   0.908   3.698   6.780 -0.3796  1.5307 -0.0020
 3077SOL     OW20863   0.436   2.746   5.753  0.3073 -0.2899 -0.3775
 3077SOL    HW120864   0.421   2.761   5.660 -3.0197 -0.9693  0.0471
 3077SOL    HW220865   0.367   2.788   5.803  1.1415  0.9272 -0.2501
 3078SOL     OW20866   2.985   0.256   6.015 -0.4641 -0.9549 -0.5363
 3078SOL    HW120867   3.006   0.336   6.062 -0.5307 -0.8102 -0.7520
 3078SOL    HW220868   2.963   0.297   5.931  0.8790  1.6600  0.3769
 3079SOL     OW20869   0.869   1.764   8.221 -0.5722 -0.1416 -0.1822
 3079SOL    HW120870   0.854   1.820   8.297 -1.2354 -0.7780  0.1570
 3079SOL    HW220871   0.920   1.821   8.163  0.1475  0.4324  1.0385
 3080SOL     OW20872   0.577   0.261   1.025  0.3252  0.4695 -0.1984
 3080SOL    HW120873   0.513   0.258   1.095 -0.9324 -0.6672 -1.3887
 3080SOL    HW220874   0.526   0.299   0.953 -1.4731  0.0177  0.8453
 3081SOL     OW20875   0.768   1.537   5.277 -0.2018 -0.2435 -0.1265
 3081SOL    HW120876   0.778   1.486   5.358  1.0611  0.8596  0.4079
 3081SOL    HW220877   0.711   1.473   5.233  0.8148 -1.2120 -0.0532
 3082SOL     OW20878   2.827   3.358  15.930  0.2224  0.1264  0.2461
 3082SOL    HW120879   2.740   3.348  15.892 -0.4092 -2.1455  2.2830
 3082SOL    HW220880   2.813   3.429  15.992  0.4185  0.9182 -0.6142
 3083SOL     OW20881   2.296   0.538   4.250 -0.5663 -0.1291  0.1656
 3083SOL    HW120882   2.236   0.607   4.222  1.1259  1.3748  0.2410
 3083SOL    HW220883   2.299   0.480   4.174 -0.3877  1.3385 -0.9282
 3084SOL     OW20884   2.083   0.430   3.560  0.4534  0.4459 -0.3194
 3084SOL    HW120885   2.016   0.499   3.557 -1.2195 -1.0900  1.3441
 3084SOL    HW220886   2.117   0.449   3.473 -1.6782 -0.6329 -1.4059
 3085SOL     OW20887   3.825   3.126   4.142 -0.0285 -0.0181 -0.5291
 3085SOL    HW120888   3.812   3.219   4.160  2.1938 -0.2744  2.3989
 3085SOL    HW220889   3.786   3.125   4.055  0.4028 -0.7343 -0.7161
 3086SOL     OW20890   4.404   1.322  10.316 -0.2859  0.4392 -0.3385
 3086SOL    HW120891   4.312   1.320  10.342 -0.7280 -0.8127 -1.9950
 3086SOL    HW220892   4.439   1.348  10.402 -1.9586  0.0433  0.4510
 3087SOL     OW20893   3.781   2.830   7.603 -0.3681 -0.5688 -0.2291
 3087SOL    HW120894   3.834   2.769   7.655  1.5691 -0.7297 -2.4356
 3087SOL    HW220895   3.842   2.891   7.562  1.0783 -1.0769  1.1670
 3088SOL     OW20896   1.237   3.178   2.478  0.0897  0.7297  0.2018
 3088SOL    HW120897   1.148   3.174   2.514 -0.1210  2.5788 -0.1115
 3088SOL    HW220898   1.206   3.210   2.393 -1.1373 -0.9944 -0.0123
 3089SOL     OW20899   3.008   4.490   1.766 -0.1816  0.4727 -0.2643
 3089SOL    HW120900   3.054   4.468   1.684 -1.0781 -0.9486 -0.3894
 3089SOL    HW220901   3.085   4.492   1.822  0.4340 -1.7417 -1.0239
 3090SOL     OW20902   0.382   0.821   7.048  0.2086  0.5176  0.4502
 3090SOL    HW120903   0.350   0.907   7.074  0.4721  1.0825 -1.0573
 3090SOL    HW220904   0.356   0.758   7.115 -1.3829  0.9359  0.2295
 3091SOL     OW20905   0.599   4.235   0.288 -0.0541  0.8624 -0.0173
 3091SOL    HW120906   0.628   4.199   0.372 -0.2414  2.0403  0.5609
 3091SOL    HW220907   0.649   4.181   0.227  0.1777 -0.1493  1.0740
 3092SOL     OW20908   3.405   1.265   0.158  0.0331 -0.3979 -0.4475
 3092SOL    HW120909   3.409   1.267   0.062 -1.6832  0.0144 -0.5095
 3092SOL    HW220910   3.497   1.248   0.181  0.0617 -1.7077 -1.5525
 3093SOL     OW20911   3.054   3.546   3.578 -0.4584  0.0974  0.1297
 3093SOL    HW120912   2.979   3.571   3.633 -1.0440 -0.0765 -0.5961
 3093SOL    HW220913   3.109   3.501   3.643  0.5066  0.1192 -0.6750
 3094SOL     OW20914   4.704   0.510  13.369  0.1337  0.1956  0.8149
 3094SOL    HW120915   0.050   0.532  13.410 -0.0353 -0.0108  1.2816
 3094SOL    HW220916   4.717   0.492  13.276  1.5858 -0.9731  1.2360
 3095SOL     OW20917   3.383   2.438   6.425 -0.0873 -0.5456 -0.0792
 3095SOL    HW120918   3.411   2.418   6.515 -1.5621 -0.1211  0.4769
 3095SOL    HW220919   3.404   2.532   6.426  1.1394 -0.8321  2.3211
 3096SOL     OW20920   2.335   2.803   6.153 -0.2313 -0.4528 -0.5818
 3096SOL    HW120921   2.321   2.832   6.243  0.8772  0.3416 -0.6644
 3096SOL    HW220922   2.383   2.876   6.115 -2.3367  1.6427  0.8337
 3097SOL     OW20923   0.369   4.596   4.865  0.0141  0.5080 -0.4563
 3097SOL    HW120924   0.444   4.616   4.809  0.5116  0.8641  0.3449
 3097SOL    HW220925   0.389   4.654   4.939  2.3462 -1.6744  0.6271
 3098SOL     OW20926   3.246   4.198   5.927 -1.1207 -0.2135  0.1497
 3098SOL    HW120927   3.252   4.278   5.876 -0.1805 -1.2088 -1.3110
 3098SOL    HW220928   3.330   4.153   5.918 -0.7890  0.4374  0.0285
 3099SOL     OW20929   1.754   1.761   7.596 -0.3726  0.1748 -0.2435
 3099SOL    HW120930   1.670   1.744   7.552  0.4193 -5.0638  0.1646
 3099SOL    HW220931   1.803   1.824   7.543 -1.3367  0.1516 -1.1650
 3100SOL     OW20932   3.151   0.982   1.843  0.7302 -0.3723 -0.2059
 3100SOL    HW120933   3.100   1.060   1.826  0.5603 -0.8617 -1.9074
 3100SOL    HW220934   3.127   0.920   1.774 -4.3785 -1.4122  2.4994
 3101SOL     OW20935   1.335   1.926  16.710 -0.2002  0.0645 -0.0871
 3101SOL    HW120936   1.262   1.870  16.736 -1.8024  2.5187  0.6674
 3101SOL    HW220937   1.408   1.865  16.716  1.7692  2.4850  0.7138
 3102SOL     OW20938   2.321   4.006  13.732 -0.0884  0.3432 -0.1373
 3102SOL    HW120939   2.379   4.053  13.672  0.9383  1.4928  1.7382
 3102SOL    HW220940   2.384   3.984  13.801  0.2048 -0.7346 -0.7334
 3103SOL     OW20941   2.719   0.274   4.722  0.2828 -0.6781  0.5863
 3103SOL    HW120942   2.801   0.313   4.752  0.0553 -0.3549  0.7799
 3103SOL    HW220943   2.707   0.316   4.636 -2.5710 -1.8308  0.4160
 3104SOL     OW20944   1.332   3.341   6.892 -0.0738 -0.2096 -0.2933
 3104SOL    HW120945   1.398   3.358   6.825  1.0125  0.3020  0.9221
 3104SOL    HW220946   1.353   3.411   6.953  1.2078 -1.8756  1.1756
 3105SOL     OW20947   4.268   4.631  15.341 -0.0154 -0.1617  0.3400
 3105SOL    HW120948   4.180   4.609  15.312  0.6389 -0.1825 -1.5778
 3105SOL    HW220949   4.319   4.620  15.262 -0.5287  0.4331 -0.0769
 3106SOL     OW20950   3.015   1.491   5.345 -0.0783 -0.5488  0.4365
 3106SOL    HW120951   2.988   1.513   5.256 -2.7463  0.0831  1.4137
 3106SOL    HW220952   3.088   1.434   5.323  0.0054 -1.2219  2.4661
 3107SOL     OW20953   0.158   2.578  15.863 -0.2543 -0.0390 -0.9315
 3107SOL    HW120954   0.080   2.615  15.906 -1.2526 -2.0589 -0.9976
 3107SOL    HW220955   0.150   2.489  15.899 -2.5277  0.6926  0.4211
 3108SOL     OW20956   3.757   0.335   3.170 -0.7700 -0.4854 -0.0082
 3108SOL    HW120957   3.804   0.258   3.138  0.9896  0.7241 -0.3274
 3108SOL    HW220958   3.695   0.301   3.234 -0.6519  0.8872  0.8229
 3109SOL     OW20959   2.266   1.452   6.738  0.4541 -0.2564  0.4546
 3109SOL    HW120960   2.224   1.370   6.712 -0.4623  0.6309 -0.8578
 3109SOL    HW220961   2.353   1.424   6.709 -0.5268 -2.3890 -0.4899
 3110SOL     OW20962   0.264   3.563   0.504 -0.2692 -0.0769 -0.9467
 3110SOL    HW120963   0.315   3.484   0.522  0.0474  0.6316  1.2742
 3110SOL    HW220964   0.193   3.564   0.568  1.2846  1.8257  0.7781
 3111SOL     OW20965   4.708   0.812   1.356 -0.5407  0.6909  0.1567
 3111SOL    HW120966   0.044   0.783   1.409  0.6092  0.8197 -1.4182
 3111SOL    HW220967   0.001   0.804   1.266 -0.4083 -0.1309  0.2764
 3112SOL     OW20968   3.472   0.636   1.310 -0.0342 -0.4756  0.6184
 3112SOL    HW120969   3.513   0.721   1.326 -0.9148  0.0791 -0.1178
 3112SOL    HW220970   3.390   0.668   1.273  0.2154  0.3206  0.7446
 3113SOL     OW20971   0.286   2.460   8.886 -0.0755 -0.2800 -0.1133
 3113SOL    HW120972   0.286   2.473   8.792 -1.3125  3.0534  0.3437
 3113SOL    HW220973   0.381   2.451   8.894  0.0019  1.6168  1.2616
 3114SOL     OW20974   0.302   4.573   5.238 -0.4654 -0.0386  0.0606
 3114SOL    HW120975   0.296   4.525   5.320 -0.1283  0.3268  0.2955
 3114SOL    HW220976   0.260   4.653   5.270  0.3691 -0.1825  1.4814
 3115SOL     OW20977   0.282   4.607   3.431  0.0039  0.6920 -0.0795
 3115SOL    HW120978   0.228   4.538   3.469 -0.7491  0.4203 -1.6410
 3115SOL    HW220979   0.350   4.610   3.499 -0.3887 -0.7636  0.3761
 3116SOL     OW20980   0.568   0.420   2.086 -0.0441 -0.2363  0.1707
 3116SOL    HW120981   0.578   0.487   2.154  2.5456 -1.1809  0.6910
 3116SOL    HW220982   0.476   0.434   2.060 -0.6562 -0.5217  2.1524
 3117SOL     OW20983   3.384   2.329  14.498  0.0122  0.4590  0.4085
 3117SOL    HW120984   3.352   2.412  14.462 -2.4949  0.0328  1.6520
 3117SOL    HW220985   3.339   2.263  14.444  1.4514 -1.6838  1.8282
 3118SOL     OW20986   1.514   2.067  10.540  0.3576  0.2838 -0.0148
 3118SOL    HW120987   1.505   1.973  10.529  2.5426  0.0799 -0.1394
 3118SOL    HW220988   1.561   2.095  10.461  3.3540 -2.1310  0.8987
 3119SOL     OW20989   0.933   3.667   5.568 -0.3508 -0.4253  0.4997
 3119SOL    HW120990   0.854   3.675   5.621  0.9379  0.9319  2.1996
 3119SOL    HW220991   0.998   3.713   5.620  1.4147 -1.2229 -1.0110
 3120SOL     OW20992   2.343   1.947   4.993  0.0805  0.0008 -0.2179
 3120SOL    HW120993   2.401   1.872   5.003  3.0867  2.4507  0.5864
 3120SOL    HW220994   2.349   2.001   5.071  0.9562 -1.2481  0.5622
 3121SOL     OW20995   1.302   2.205   3.472 -0.6057  0.4061 -0.8590
 3121SOL    HW120996   1.336   2.279   3.422  2.2689 -0.2428  0.1751
 3121SOL    HW220997   1.282   2.138   3.406 -1.3154  0.7472 -0.9885
 3122SOL     OW20998   0.242   2.113  15.765 -0.1645  0.0307  0.1502
 3122SOL    HW120999   0.298   2.080  15.694  1.1078 -0.4500  1.3827
 3122SOL    HW221000   0.205   2.190  15.721  2.9664  1.0123 -0.7643
 3123SOL     OW21001   4.286   4.206   7.759 -0.3701  0.4628  0.1936
 3123SOL    HW121002   4.249   4.148   7.826 -1.8872  1.1009 -0.0910
 3123SOL    HW221003   4.294   4.146   7.684  1.5531  0.6102  0.2961
 3124SOL     OW21004   2.929   1.412  15.448  0.1612  0.3241 -0.5143
 3124SOL    HW121005   2.944   1.320  15.470  0.8036 -0.0366 -2.5124
 3124SOL    HW221006   2.967   1.420  15.361  0.7332  0.3078 -0.2613
 3125SOL     OW21007   3.964   0.862   3.289  0.0217  0.2921 -0.3013
 3125SOL    HW121008   4.029   0.926   3.261  0.7525 -0.1043  0.4656
 3125SOL    HW221009   3.909   0.906   3.354  1.5447  0.4037  0.9163
 3126SOL     OW21010   3.285   4.398   7.330 -0.5527 -0.3319  0.5692
 3126SOL    HW121011   3.226   4.446   7.389 -0.6940 -0.3931  0.4751
 3126SOL    HW221012   3.230   4.328   7.295 -1.3694  1.3879 -1.6027
 3127SOL     OW21013   2.256   0.284   2.015  0.3604  0.2987  0.3105
 3127SOL    HW121014   2.337   0.233   2.008  0.3232  0.0639  1.5513
 3127SOL    HW221015   2.197   0.228   1.964 -2.7623  0.5283  3.5956
 3128SOL     OW21016   4.457   1.170   8.299 -0.2704 -0.2197 -0.0939
 3128SOL    HW121017   4.506   1.159   8.380 -0.6034  0.2865  0.1738
 3128SOL    HW221018   4.414   1.085   8.286 -1.4677  0.4163 -0.2716
 3129SOL     OW21019   4.030   3.032   9.147 -0.3138 -0.5271  0.2696
 3129SOL    HW121020   3.952   3.086   9.138 -2.0729 -2.8556  1.4086
 3129SOL    HW221021   4.004   2.974   9.219 -1.5130 -0.3627 -0.0272
 3130SOL     OW21022   0.477   3.363  10.501 -0.2596 -0.1765 -0.0824
 3130SOL    HW121023   0.539   3.358  10.429  0.0292  1.9720  0.0196
 3130SOL    HW221024   0.444   3.274  10.487 -1.6803  0.4980 -1.0405
 3131SOL     OW21025   4.159   4.001   9.127 -0.3211 -0.2826 -0.1366
 3131SOL    HW121026   4.216   3.967   9.197 -1.5255 -0.0127  0.9774
 3131SOL    HW221027   4.076   3.963   9.156 -0.6952  0.0702 -0.7681
 3132SOL     OW21028   3.231   1.922   2.746  0.4212  0.1191 -0.1966
 3132SOL    HW121029   3.211   1.846   2.800 -0.8808 -0.7483 -1.9004
 3132SOL    HW221030   3.306   1.894   2.694 -0.4997  0.9760 -2.0262
 3133SOL     OW21031   2.147   0.725   2.079 -0.1557  0.2862 -0.1371
 3133SOL    HW121032   2.192   0.664   2.138 -1.0164  0.6757  0.9260
 3133SOL    HW221033   2.222   0.775   2.047  1.4571  0.4463  3.8314
 3134SOL     OW21034   2.843   2.736   8.395  0.4608  0.1314 -0.0434
 3134SOL    HW121035   2.767   2.756   8.449  0.4137 -1.6466  0.5474
 3134SOL    HW221036   2.904   2.712   8.465  0.0800 -0.7935 -0.0332
 3135SOL     OW21037   0.089   2.911   3.228  0.9285  0.0904 -0.5687
 3135SOL    HW121038   4.732   2.909   3.227  0.8751  2.2273 -0.3421
 3135SOL    HW221039   0.095   2.816   3.232 -1.3486 -0.0477 -0.4012
 3136SOL     OW21040   2.880   1.107   4.743 -0.0525  0.2168  0.4347
 3136SOL    HW121041   2.938   1.182   4.730 -0.6101  0.3206 -1.4314
 3136SOL    HW221042   2.819   1.155   4.799  1.6258  2.2720  0.5022
 3137SOL     OW21043   2.092   0.448   9.060  0.0803  0.4935  0.1858
 3137SOL    HW121044   1.997   0.446   9.062  0.0958 -0.9205 -0.5678
 3137SOL    HW221045   2.113   0.511   9.129 -1.7220  0.7727  0.4830
 3138SOL     OW21046   1.430   2.981   7.033  0.5239  0.4806 -0.0366
 3138SOL    HW121047   1.523   2.976   7.055  0.5759 -0.5429 -0.5185
 3138SOL    HW221048   1.378   2.956   7.109 -0.7148 -1.5431 -1.5614
 3139SOL     OW21049   0.300   0.372   0.214 -0.6715  0.8048  1.1769
 3139SOL    HW121050   0.281   0.459   0.178 -0.9338  0.1527 -0.2367
 3139SOL    HW221051   0.219   0.322   0.201 -0.6124  0.5037  1.9465
 3140SOL     OW21052   4.126   0.292   2.222 -0.4952 -0.4262 -0.2406
 3140SOL    HW121053   4.054   0.306   2.160  0.5532  2.9879 -0.6563
 3140SOL    HW221054   4.141   0.383   2.245  0.3100 -0.4507 -0.6593
 3141SOL     OW21055   4.666   1.531   3.130  0.0299  0.3578 -0.0178
 3141SOL    HW121056   4.611   1.495   3.060  0.7586  1.0259 -0.9323
 3141SOL    HW221057   0.004   1.477   3.116 -2.2091 -3.1714  1.2219
 3142SOL     OW21058   1.339   4.594  11.695  0.2999 -0.0770  0.2704
 3142SOL    HW121059   1.316   4.579  11.603 -0.6942  0.3099  0.4542
 3142SOL    HW221060   1.287   4.518  11.721 -0.5998  0.3153 -0.3650
 3143SOL     OW21061   2.928   3.749   8.368  0.0108 -0.0114 -0.2158
 3143SOL    HW121062   2.882   3.749   8.452 -0.6590 -0.8889 -0.5785
 3143SOL    HW221063   3.016   3.716   8.386  0.2516 -0.2938 -1.9383
 3144SOL     OW21064   0.880   0.313  11.014 -0.3486  0.7715  0.0563
 3144SOL    HW121065   0.936   0.368  11.069  0.4318  0.1729 -0.1341
 3144SOL    HW221066   0.826   0.275  11.083 -2.3080  1.4478 -1.1082
 3145SOL     OW21067   2.705   2.217   2.854 -0.4034 -0.2936 -0.3417
 3145SOL    HW121068   2.708   2.122   2.838  0.1766 -0.7552  2.5405
 3145SOL    HW221069   2.648   2.242   2.781 -2.1286 -1.8595  0.4613
 3146SOL     OW21070   3.457   2.685   6.414  0.0368 -0.5606  0.1474
 3146SOL    HW121071   3.456   2.773   6.377 -0.5861  0.0754  1.6705
 3146SOL    HW221072   3.547   2.659   6.392  0.1099 -0.8810  0.8185
 3147SOL     OW21073   3.312   4.704  13.743 -0.0487 -0.9678  0.4674
 3147SOL    HW121074   3.260   4.635  13.702 -1.2605  0.2898 -0.0857
 3147SOL    HW221075   3.248   0.036  13.746 -0.6022 -1.5627  2.4441
 3148SOL     OW21076   3.682   2.665   2.962 -0.1292 -0.6033  0.0797
 3148SOL    HW121077   3.730   2.598   2.914  1.8544  0.4962  0.5071
 3148SOL    HW221078   3.706   2.746   2.917  3.5030 -1.9613 -0.4485
 3149SOL     OW21079   1.869   1.550   1.030 -0.1561  0.3846  0.3629
 3149SOL    HW121080   1.926   1.613   1.074 -0.4205  2.1694 -1.8153
 3149SOL    HW221081   1.882   1.470   1.081 -1.0128 -0.7905 -1.2869
 3150SOL     OW21082   0.182   1.036   7.995  0.9908 -0.2589  0.2191
 3150SOL    HW121083   0.145   0.994   8.073 -0.6175  1.1138  0.2101
 3150SOL    HW221084   0.105   1.041   7.939  2.1538  2.0619 -1.1887
 3151SOL     OW21085   0.602   4.078  10.284 -0.6638  0.2153  0.0809
 3151SOL    HW121086   0.627   3.987  10.267  1.7905  0.8914  0.1681
 3151SOL    HW221087   0.514   4.072  10.320  0.3680 -1.2927  2.2989
 3152SOL     OW21088   1.823   2.471   0.731  0.2085  0.1276 -0.1523
 3152SOL    HW121089   1.761   2.401   0.750 -0.1380  0.1828 -1.0921
 3152SOL    HW221090   1.810   2.516   0.814  1.7984  2.1993 -1.0297
 3153SOL     OW21091   4.078   3.832   5.996 -0.0215  0.9768 -0.0245
 3153SOL    HW121092   4.136   3.909   5.998 -1.0925  1.8087 -0.7206
 3153SOL    HW221093   3.998   3.855   6.044 -0.3317 -1.0922  0.4147
 3154SOL     OW21094   2.208   2.283  12.346 -0.9199  0.1798 -0.1550
 3154SOL    HW121095   2.244   2.367  12.371 -0.3935  0.4369 -1.7455
 3154SOL    HW221096   2.114   2.300  12.335 -0.9465  0.1131 -0.0321
 3155SOL     OW21097   0.654   3.349  16.858  0.1383  0.1909  0.2639
 3155SOL    HW121098   0.647   3.439  16.891  0.8856 -0.0513  1.0883
 3155SOL    HW221099   0.626   3.300  16.935 -0.8378  2.6855  1.4983
 3156SOL     OW21100   2.231   0.997   6.553 -0.0428 -0.1691  0.7816
 3156SOL    HW121101   2.256   0.999   6.460 -1.3782  0.1965  0.4251
 3156SOL    HW221102   2.297   0.940   6.592  0.5687 -0.2393 -0.3347
 3157SOL     OW21103   3.237   3.421   6.630 -0.1411  0.0760 -0.3590
 3157SOL    HW121104   3.293   3.470   6.570  0.3615  0.0317  0.0794
 3157SOL    HW221105   3.247   3.475   6.708  0.5314  1.7901 -1.6459
 3158SOL     OW21106   4.530   0.300   0.802  0.0178  0.0533 -0.1159
 3158SOL    HW121107   4.453   0.295   0.745 -0.0880 -2.0414  0.2237
 3158SOL    HW221108   4.512   0.227   0.861  1.6072  0.0948  0.4330
 3159SOL     OW21109   2.581   4.198  11.461  0.4197 -0.5438 -0.0422
 3159SOL    HW121110   2.497   4.169  11.499  0.4627 -0.0454  0.4339
 3159SOL    HW221111   2.615   4.259  11.527  2.6946 -2.3211  0.3985
 3160SOL     OW21112   4.499   4.562   4.641 -0.5154  0.2192 -0.4806
 3160SOL    HW121113   4.535   4.475   4.655 -1.0703 -0.1575 -1.3689
 3160SOL    HW221114   4.565   4.600   4.584  1.9516  0.0383  2.2841
 3161SOL     OW21115   3.300   2.233   2.282 -0.4395 -0.3654  0.3980
 3161SOL    HW121116   3.248   2.219   2.202 -3.5869 -0.9886  2.5552
 3161SOL    HW221117   3.254   2.309   2.318  2.2893  1.6785 -0.3839
 3162SOL     OW21118   3.897   0.016   8.701 -0.3020 -0.1260  0.1169
 3162SOL    HW121119   3.860   4.668   8.683  1.0276 -0.7638  0.4841
 3162SOL    HW221120   3.957   4.732   8.771  0.0099 -1.3976 -0.5541
 3163SOL     OW21121   2.613   2.859   2.081  0.0216  0.0233  0.2245
 3163SOL    HW121122   2.618   2.938   2.135  1.5623 -0.3415  0.6303
 3163SOL    HW221123   2.532   2.819   2.113 -0.7291  2.1188  0.9309
 3164SOL     OW21124   2.001   0.949   0.570  0.3932 -0.0398 -0.0304
 3164SOL    HW121125   2.059   0.996   0.629  0.1513 -1.9799  1.7363
 3164SOL    HW221126   1.960   1.016   0.515 -2.4975 -0.1110  2.0542
 3165SOL     OW21127   0.931   2.639  16.305 -0.3072 -0.3714 -0.2607
 3165SOL    HW121128   0.872   2.605  16.237 -1.3872  1.6602 -0.3283
 3165SOL    HW221129   1.010   2.648  16.252 -1.4734 -0.5132 -2.0377
 3166SOL     OW21130   0.630   3.983   3.931 -0.3139 -0.3255 -0.8887
 3166SOL    HW121131   0.575   4.034   3.991  1.5919  0.2468  0.3528
 3166SOL    HW221132   0.686   4.059   3.916 -1.7773  1.6586  3.6359
 3167SOL     OW21133   4.293   1.358   8.619  0.2200  0.1348 -0.1625
 3167SOL    HW121134   4.246   1.342   8.537 -0.7258 -2.0838  0.8286
 3167SOL    HW221135   4.215   1.375   8.672 -1.2119 -0.3859 -2.1095
 3168SOL     OW21136   2.175   0.584   7.483  0.0255  0.1584 -0.4691
 3168SOL    HW121137   2.236   0.541   7.544  1.0312 -0.0343 -1.6264
 3168SOL    HW221138   2.214   0.559   7.400  1.0767  0.3515 -0.0280
 3169SOL     OW21139   2.779   1.349  13.843  0.0147 -0.1482 -0.3205
 3169SOL    HW121140   2.754   1.420  13.784 -0.0395  1.8908  2.1605
 3169SOL    HW221141   2.827   1.397  13.910 -0.1789  0.0905 -0.3543
 3170SOL     OW21142   3.530   2.363   2.414 -0.1424  0.1233  0.3818
 3170SOL    HW121143   3.445   2.319   2.411  0.0890 -0.5441  3.1191
 3170SOL    HW221144   3.533   2.398   2.325 -0.1309 -0.4252  0.1676
 3171SOL     OW21145   0.065   1.888   6.362  0.2938  0.3102  0.4118
 3171SOL    HW121146   0.077   1.813   6.420  1.4524  0.3844  0.2682
 3171SOL    HW221147   0.102   1.855   6.280  2.3348 -0.6384  1.7102
 3172SOL     OW21148   1.693   0.426   3.972  0.9401 -0.3584 -0.0096
 3172SOL    HW121149   1.668   0.490   4.039  1.3800 -1.3584  1.1238
 3172SOL    HW221150   1.704   0.476   3.892  0.5035  1.3619  1.0019
 3173SOL     OW21151   1.313   3.404  14.525  0.3006  0.7013 -0.0548
 3173SOL    HW121152   1.228   3.444  14.541 -0.9556 -0.6062 -3.5581
 3173SOL    HW221153   1.347   3.360  14.603 -0.1085  3.1227  1.4943
 3174SOL     OW21154   4.187   0.149   8.486  0.3356 -0.6649  0.0651
 3174SOL    HW121155   4.137   0.198   8.552  1.8591 -0.0026  0.7078
 3174SOL    HW221156   4.191   0.063   8.527 -4.1338 -0.6132  0.6479
 3175SOL     OW21157   2.213   2.163   4.280  0.1220 -1.1479  0.9332
 3175SOL    HW121158   2.120   2.173   4.258  0.8187 -0.9589 -1.9522
 3175SOL    HW221159   2.211   2.189   4.372 -1.0738  1.2804  0.2236
 3176SOL     OW21160   1.353   1.920   4.446  0.4764  0.1824  0.0772
 3176SOL    HW121161   1.413   1.885   4.512 -0.7330  0.0132  1.0866
 3176SOL    HW221162   1.303   1.840   4.429 -0.8843  0.8632  0.8537
 3177SOL     OW21163   1.345   3.160   7.954  0.2362  0.2117  0.1756
 3177SOL    HW121164   1.351   3.245   7.998 -0.0677 -0.9494  2.4597
 3177SOL    HW221165   1.253   3.164   7.926  0.1754  0.2659  0.3873
 3178SOL     OW21166   0.929   0.285   3.311 -0.0904  0.0769  0.1614
 3178SOL    HW121167   1.000   0.294   3.375 -0.0809  0.4393  0.0969
 3178SOL    HW221168   0.891   0.372   3.306  1.0519  0.7056  2.6851
 3179SOL     OW21169   0.542   1.834   4.807  0.4283  0.4192  0.3197
 3179SOL    HW121170   0.543   1.911   4.749 -0.2275  0.8214  0.8530
 3179SOL    HW221171   0.592   1.872   4.879 -0.1328  1.0612  0.3676
 3180SOL     OW21172   1.099   1.917   7.027  0.4245  0.1267 -0.0890
 3180SOL    HW121173   1.151   1.915   6.946 -1.1843  1.3048 -1.1581
 3180SOL    HW221174   1.088   2.009   7.049  1.5610  0.3786 -0.5881
 3181SOL     OW21175   1.187   4.489   1.409  0.2054 -0.4274 -0.4227
 3181SOL    HW121176   1.185   4.435   1.330  0.1140  0.2522 -0.8837
 3181SOL    HW221177   1.228   4.431   1.473 -0.8814  0.3270  0.9654
 3182SOL     OW21178   4.636   3.804   4.636  0.3832  0.4181  0.5845
 3182SOL    HW121179   4.638   3.838   4.725  0.4452 -0.5254  0.9376
 3182SOL    HW221180   4.638   3.887   4.588 -4.9539 -0.2707 -0.8256
 3183SOL     OW21181   3.826   3.722   7.807  0.3057  0.5573  0.0435
 3183SOL    HW121182   3.756   3.787   7.805  1.2557  1.6124  1.7276
 3183SOL    HW221183   3.865   3.739   7.893  0.4142 -1.6677  0.4459
 3184SOL     OW21184   1.830   4.143   3.536  0.4359  0.3612 -0.1536
 3184SOL    HW121185   1.826   4.225   3.486 -0.0990 -0.3825 -1.3571
 3184SOL    HW221186   1.804   4.173   3.623  0.2110  0.1342 -0.1401
 3185SOL     OW21187   0.640   4.169   6.124 -0.1995 -0.3144 -0.1147
 3185SOL    HW121188   0.554   4.126   6.130 -0.7506  0.9115  0.8540
 3185SOL    HW221189   0.687   4.110   6.183  1.4053 -1.7509 -2.8044
 3186SOL     OW21190   1.085   2.451   4.600 -0.5102  0.1663 -0.0616
 3186SOL    HW121191   1.123   2.468   4.514 -1.1197  1.4445 -0.0829
 3186SOL    HW221192   1.016   2.517   4.606 -1.0005 -0.3832  0.3489
 3187SOL     OW21193   1.886   3.299  10.053 -0.0431  0.0950 -0.0265
 3187SOL    HW121194   1.947   3.370  10.076  0.9488 -0.3609 -1.2573
 3187SOL    HW221195   1.804   3.347  10.061 -1.1468 -1.8379  0.0634
 3188SOL     OW21196   0.782   2.243  11.950  0.5987  0.2744  0.6071
 3188SOL    HW121197   0.839   2.299  12.003  2.0534 -2.0268  1.5016
 3188SOL    HW221198   0.738   2.309  11.897 -4.0824 -2.1190  1.4679
 3189SOL     OW21199   2.701   0.262   2.117  0.1613  0.0856  0.4095
 3189SOL    HW121200   2.667   0.352   2.110  2.1729  1.0448  2.7550
 3189SOL    HW221201   2.654   0.225   2.192  0.9856  0.4076  1.0867
 3190SOL     OW21202   1.359   4.064   1.656  0.1926 -0.0369  0.2521
 3190SOL    HW121203   1.398   4.054   1.743 -0.7692 -0.3651  0.6419
 3190SOL    HW221204   1.269   4.036   1.674  0.4611  1.4129  3.6367
 3191SOL     OW21205   1.779   1.259  12.050 -0.6892 -0.2080 -0.0618
 3191SOL    HW121206   1.822   1.295  11.972  1.4362  0.3832  1.3627
 3191SOL    HW221207   1.822   1.295  12.127 -0.2935 -0.6232 -0.0910
 3192SOL     OW21208   3.516   1.512   2.827  0.6914 -0.1229 -0.3262
 3192SOL    HW121209   3.490   1.522   2.736 -3.2877 -0.6592  0.7256
 3192SOL    HW221210   3.522   1.416   2.832  1.6206 -0.2152 -3.4966
 3193SOL     OW21211   0.700   2.207   8.194  0.2236 -0.7687  0.7390
 3193SOL    HW121212   0.664   2.124   8.164 -0.9079 -0.5848  1.5722
 3193SOL    HW221213   0.793   2.195   8.177  0.4469 -0.0944  1.4353
 3194SOL     OW21214   2.363   3.829   5.914 -0.7604  0.7021  0.3937
 3194SOL    HW121215   2.286   3.833   5.970 -0.1923  2.0061  1.0822
 3194SOL    HW221216   2.382   3.736   5.926  1.7086  0.8889 -1.9361
 3195SOL     OW21217   2.049   1.177   4.247 -0.6210 -0.6675  0.2445
 3195SOL    HW121218   2.107   1.101   4.245  2.0744  1.4583 -1.6344
 3195SOL    HW221219   2.051   1.189   4.342  3.8474 -0.8093  0.1261
 3196SOL     OW21220   4.006   2.430   4.466 -0.8708  0.1394  0.1506
 3196SOL    HW121221   4.028   2.389   4.382  1.9308  1.4623  0.2680
 3196SOL    HW221222   3.985   2.356   4.523  0.2066 -0.7278 -0.5822
 3197SOL     OW21223   2.695   3.588  16.158  0.4520  0.2795  0.2180
 3197SOL    HW121224   2.646   3.651  16.211  0.2925  0.8111 -0.5653
 3197SOL    HW221225   2.726   3.645  16.088  2.6931 -0.4907  0.5952
 3198SOL     OW21226   4.580   1.927   4.850  0.4744  0.0718  0.2967
 3198SOL    HW121227   4.572   1.915   4.944 -0.5559  1.0896  0.3430
 3198SOL    HW221228   4.544   2.016   4.842  1.0259  0.1444 -1.5493
 3199SOL     OW21229   0.043   0.488   0.793 -0.4296  0.2183 -0.2506
 3199SOL    HW121230   0.124   0.448   0.824  0.5854  1.3035 -1.4840
 3199SOL    HW221231   4.737   0.416   0.749  2.0409 -1.0815 -0.6105
 3200SOL     OW21232   0.585   2.194  12.805 -0.0326 -0.0008  0.2411
 3200SOL    HW121233   0.678   2.216  12.795 -0.3393  1.0554 -0.2327
 3200SOL    HW221234   0.583   2.201  12.901 -1.1194 -1.8686  0.3531
 3201SOL     OW21235   3.102   2.552   5.833  0.0456 -0.1247  0.0272
 3201SOL    HW121236   3.177   2.611   5.826  0.3969 -0.6041 -0.2169
 3201SOL    HW221237   3.138   2.467   5.857 -2.2525 -1.4634 -1.2509
 3202SOL     OW21238   1.588   4.284  11.095 -0.0651  0.3619 -0.4144
 3202SOL    HW121239   1.582   4.366  11.144 -0.8639 -1.0377  1.8478
 3202SOL    HW221240   1.496   4.265  11.079 -0.3100  0.3667  0.9620
 3203SOL     OW21241   1.048   0.675  13.518 -0.1657  0.4324  0.6866
 3203SOL    HW121242   0.990   0.603  13.542 -1.3853  2.0640  2.6548
 3203SOL    HW221243   1.011   0.707  13.435  0.2567  0.1530  0.3912
 3204SOL     OW21244   1.181   4.034   3.518  0.2483  0.0415 -0.2665
 3204SOL    HW121245   1.097   4.014   3.476 -0.1531  0.1338  0.4788
 3204SOL    HW221246   1.186   4.128   3.502 -0.8478  0.1822  0.2304
 3205SOL     OW21247   0.539   0.065   9.506 -0.3795  0.8376  0.5129
 3205SOL    HW121248   0.490   0.005   9.561  0.4179  1.9657  2.4428
 3205SOL    HW221249   0.513   0.143   9.556 -1.1133  0.7232  0.2978
 3206SOL     OW21250   2.127   0.712   5.970  0.2070  0.4489 -0.2432
 3206SOL    HW121251   2.134   0.796   5.925  0.3241 -0.2361 -1.4877
 3206SOL    HW221252   2.079   0.664   5.903  1.3089  1.0098 -1.4327
 3207SOL     OW21253   3.618   0.551   8.644 -0.8825  0.1662  0.2587
 3207SOL    HW121254   3.524   0.559   8.628 -0.3361 -0.7958 -3.5267
 3207SOL    HW221255   3.649   0.619   8.703  2.7670 -1.7910  0.5704
 3208SOL     OW21256   1.097   4.312  10.996 -0.0383  0.6651 -0.2547
 3208SOL    HW121257   1.179   4.335  11.040  0.5910 -1.0757 -0.5644
 3208SOL    HW221258   1.134   4.286  10.912 -1.5006  0.9020 -0.9751
 3209SOL     OW21259   3.390   3.691  17.553  0.1583  0.1350 -0.0354
 3209SOL    HW121260   3.377   3.706  17.646 -0.4516  0.9915 -0.2582
 3209SOL    HW221261   3.443   3.769  17.535  1.7351 -0.6915  1.0415
 3210SOL     OW21262   4.564   3.108   9.886 -0.6011 -0.2348  0.5446
 3210SOL    HW121263   4.641   3.053   9.898 -0.4105 -0.0426  0.1848
 3210SOL    HW221264   4.493   3.044   9.897 -0.3081 -0.3951  1.5164
 3211SOL     OW21265   0.195   1.357   5.994  0.5317 -0.3424 -0.4311
 3211SOL    HW121266   0.108   1.397   5.992  1.2282  1.1809  0.3634
 3211SOL    HW221267   0.252   1.427   5.962 -0.8438  0.1907 -1.6895
 3212SOL     OW21268   2.255   4.091   2.696  0.6704 -0.3890  0.1997
 3212SOL    HW121269   2.329   4.038   2.666  1.6522  0.2448  1.4973
 3212SOL    HW221270   2.182   4.029   2.696  1.4949 -1.3515  0.1574
 3213SOL     OW21271   1.767   1.399   2.916 -0.6681 -0.1829 -0.1196
 3213SOL    HW121272   1.765   1.487   2.879 -1.9904 -0.2367 -0.1819
 3213SOL    HW221273   1.710   1.405   2.993  0.6600  2.8499  0.6489
 3214SOL     OW21274   3.055   1.051   3.652  0.3258  0.2523  0.2457
 3214SOL    HW121275   3.042   1.072   3.559 -1.2036 -1.6988  0.0343
 3214SOL    HW221276   3.122   1.108   3.690 -0.0387  1.1180 -0.4037
 3215SOL     OW21277   1.052   2.740  15.199  0.4450 -0.7302 -0.0526
 3215SOL    HW121278   1.099   2.823  15.212  0.1265 -0.5457 -0.0652
 3215SOL    HW221279   0.966   2.766  15.233  0.8687  0.4218  0.1443
 3216SOL     OW21280   1.791   3.203  11.000 -0.9332  0.2913  0.2592
 3216SOL    HW121281   1.852   3.240  10.936  1.2545  0.4166  2.4133
 3216SOL    HW221282   1.722   3.183  10.937 -1.0957 -1.0934  0.8893
 3217SOL     OW21283   2.003   3.246   0.472  0.6601 -0.2881  0.9262
 3217SOL    HW121284   2.087   3.219   0.436 -0.3854 -1.2567 -0.7997
 3217SOL    HW221285   2.037   3.324   0.516  1.9455  1.2564 -2.7489
 3218SOL     OW21286   1.449   3.339  10.614  0.0948  0.1837  0.1289
 3218SOL    HW121287   1.508   3.319  10.686 -0.4934 -2.9237 -0.2309
 3218SOL    HW221288   1.513   3.325  10.545 -0.2543 -0.0417 -0.1512
 3219SOL     OW21289   0.419   0.904   5.564  0.0794 -0.0209 -0.1198
 3219SOL    HW121290   0.475   0.923   5.640 -1.0591 -0.0982  0.7363
 3219SOL    HW221291   0.328   0.917   5.591 -0.0826  3.2764 -2.2517
 3220SOL     OW21292   1.820   3.896   4.798  0.2381  0.4927 -0.2983
 3220SOL    HW121293   1.795   3.988   4.811 -0.6219 -0.0931  2.2687
 3220SOL    HW221294   1.732   3.872   4.768  1.3316 -1.3127 -1.9979
 3221SOL     OW21295   3.041   0.307   2.811  0.4920 -0.0858 -0.0223
 3221SOL    HW121296   3.137   0.306   2.814  0.4746  1.1716  0.6652
 3221SOL    HW221297   3.030   0.276   2.721  0.2839 -2.7780  0.9106
 3222SOL     OW21298   2.180   1.916   1.664  0.5079  0.0956  0.0856
 3222SOL    HW121299   2.086   1.898   1.672  0.4054  0.2553 -0.8621
 3222SOL    HW221300   2.215   1.832   1.695  2.0064  1.2266  1.4823
 3223SOL     OW21301   3.078   1.869   0.271  0.6730 -0.1708 -0.2812
 3223SOL    HW121302   3.046   1.804   0.209 -0.6322 -0.6231  0.8580
 3223SOL    HW221303   3.172   1.851   0.270  0.3801 -1.6793  1.1522
 3224SOL     OW21304   3.801   2.061  12.730  0.4266 -0.2434 -0.0614
 3224SOL    HW121305   3.871   2.123  12.750 -0.7026  0.2400  2.3792
 3224SOL    HW221306   3.802   2.014  12.814  0.0254 -1.4826 -0.7511
 3225SOL     OW21307   3.944   0.414  16.191  0.3565  0.1795  0.0855
 3225SOL    HW121308   3.972   0.468  16.117 -0.6723  1.3859  0.5828
 3225SOL    HW221309   3.970   0.468  16.265  0.7116  2.2599 -1.5588
 3226SOL     OW21310   3.496   0.837   9.247  0.0419 -0.3103 -0.0388
 3226SOL    HW121311   3.441   0.895   9.299  0.5465  0.2754 -0.1541
 3226SOL    HW221312   3.559   0.789   9.300  1.3921 -0.5027 -1.8068
 3227SOL     OW21313   0.036   2.847  13.701 -0.2552  0.3545  0.5301
 3227SOL    HW121314   0.127   2.866  13.721 -0.0781 -0.4956  0.5337
 3227SOL    HW221315   0.033   2.763  13.656  0.7849 -0.4097  1.8792
 3228SOL     OW21316   1.882   1.190   7.391  0.1107  0.2380  0.2673
 3228SOL    HW121317   1.963   1.168   7.437  0.2221  0.1653  0.0376
 3228SOL    HW221318   1.883   1.286   7.392  2.0063  0.2138  0.4929
 3229SOL     OW21319   3.264   1.504   8.853  0.2063 -0.0892 -0.1193
 3229SOL    HW121320   3.225   1.544   8.931 -0.0784  1.1549 -0.8980
 3229SOL    HW221321   3.342   1.457   8.883  0.5159  0.5629  0.1085
 3230SOL     OW21322   2.130   4.001  10.277 -0.5653 -0.3835  0.2287
 3230SOL    HW121323   2.127   4.094  10.257  2.7087 -0.4840 -0.7633
 3230SOL    HW221324   2.044   3.985  10.315 -0.7938  0.3703  0.0222
 3231SOL     OW21325   3.954   0.689   4.236  0.2047  0.2569 -0.2020
 3231SOL    HW121326   4.034   0.734   4.261 -0.4066  0.5121  1.2872
 3231SOL    HW221327   3.892   0.753   4.269 -0.5814 -0.5912 -0.0170
 3232SOL     OW21328   3.884   4.625   3.135 -0.3935  0.4111  0.2335
 3232SOL    HW121329   3.833   4.666   3.065 -0.3032  0.3012  0.1016
 3232SOL    HW221330   3.841   4.669   3.208 -2.3292  1.7833 -1.7490
 3233SOL     OW21331   3.510   4.591   5.659 -0.2027  0.1007 -0.0334
 3233SOL    HW121332   3.469   4.529   5.720  1.1923  1.1413  1.9541
 3233SOL    HW221333   3.437   4.609   5.600  1.4466  0.6305 -1.9065
 3234SOL     OW21334   2.209   0.930   3.610  0.1409 -0.2238 -0.1565
 3234SOL    HW121335   2.125   0.945   3.654 -0.0727  0.7159 -0.8760
 3234SOL    HW221336   2.258   1.008   3.634 -0.8620 -0.2338  1.9702
 3235SOL     OW21337   1.881   3.606   9.415  0.0254  0.2449  0.4884
 3235SOL    HW121338   1.893   3.515   9.442  3.1534  0.8359  1.0704
 3235SOL    HW221339   1.901   3.653   9.496 -1.6632  1.7144  0.0588
 3236SOL     OW21340   0.965   4.051   7.429  0.2128 -0.1090  0.1774
 3236SOL    HW121341   0.963   3.984   7.497  1.6830 -1.0403 -0.6854
 3236SOL    HW221342   0.873   4.056   7.401 -0.4769 -3.6124  1.8578
 3237SOL     OW21343   3.903   0.984   3.624  0.3794  0.4090  0.0754
 3237SOL    HW121344   3.898   1.051   3.692  0.7545  0.1639  0.3385
 3237SOL    HW221345   3.882   1.035   3.545 -0.3038 -0.8935 -0.5845
 3238SOL     OW21346   4.543   3.777  14.171  0.3236  0.0586 -0.1234
 3238SOL    HW121347   4.587   3.827  14.240 -0.6962 -1.4794  1.6458
 3238SOL    HW221348   4.608   3.786  14.102  0.8657 -0.3379  0.3364
 3239SOL     OW21349   4.731   2.467  16.146 -1.0076 -1.6264  0.0691
 3239SOL    HW121350   0.010   2.383  16.103  0.0274 -1.1135 -0.5074
 3239SOL    HW221351   4.697   2.520  16.075 -0.4378  0.9579  1.7361
 3240SOL     OW21352   1.855   3.471   1.856  0.0685 -0.4367 -0.2261
 3240SOL    HW121353   1.814   3.515   1.781  1.1576  1.3208  0.2143
 3240SOL    HW221354   1.910   3.546   1.877 -1.3367  0.4549  0.2385
 3241SOL     OW21355   4.599   0.470   7.736  0.0073 -0.5713  0.2219
 3241SOL    HW121356   4.546   0.549   7.739  0.7388 -0.1410  1.5520
 3241SOL    HW221357   4.568   0.439   7.650 -0.8030  0.4738  0.1390
 3242SOL     OW21358   0.648   4.678  13.173  0.5758  0.0795  0.1162
 3242SOL    HW121359   0.701   4.731  13.113  1.9812  0.3283  1.5920
 3242SOL    HW221360   0.560   4.691  13.138  0.1517 -3.2584 -0.0711
 3243SOL     OW21361   4.345   4.369   4.483  0.4576 -0.2431  0.0063
 3243SOL    HW121362   4.389   4.433   4.539  1.2936 -1.1923  0.4229
 3243SOL    HW221363   4.414   4.305   4.470  0.6298  0.3009 -1.7575
 3244SOL     OW21364   0.579   4.299  14.571  0.0187  0.2655  0.7686
 3244SOL    HW121365   0.636   4.229  14.541  1.0983  1.3338  0.3261
 3244SOL    HW221366   0.526   4.248  14.633  0.2454 -1.4601 -0.4773
 3245SOL     OW21367   2.745   0.022   9.243  0.3557 -0.4474  0.3872
 3245SOL    HW121368   2.792   4.722   9.169 -0.1167  2.3379 -1.4102
 3245SOL    HW221369   2.666   0.065   9.209  0.2269 -1.0412 -0.0511
 3246SOL     OW21370   2.121   0.975   5.879 -0.4320  0.0651 -0.2343
 3246SOL    HW121371   2.030   0.953   5.899 -0.1737  0.7886  1.7032
 3246SOL    HW221372   2.106   1.055   5.829 -0.4612  0.4139  0.3418
 3247SOL     OW21373   4.562   0.511   5.922 -0.3296  0.5349 -0.8926
 3247SOL    HW121374   4.536   0.540   6.010 -0.4540  0.1478 -0.8005
 3247SOL    HW221375   4.477   0.509   5.879 -0.6367  0.3563 -0.2846
 3248SOL     OW21376   1.987   3.159   0.769  0.3774 -0.3624 -0.1367
 3248SOL    HW121377   2.040   3.080   0.768 -1.3804 -1.5173 -1.2380
 3248SOL    HW221378   1.991   3.186   0.677  0.0114  0.4152  0.0715
 3249SOL     OW21379   2.533   2.346   0.671  0.7159 -0.2180 -0.5161
 3249SOL    HW121380   2.587   2.267   0.667 -0.9494 -1.3387 -0.5459
 3249SOL    HW221381   2.447   2.312   0.695  1.2258 -1.4731 -0.4295
 3250SOL     OW21382   1.421   0.120   2.321  0.3157 -0.1430 -0.2921
 3250SOL    HW121383   1.498   0.122   2.377 -0.2852  1.2952  0.4576
 3250SOL    HW221384   1.359   0.150   2.386  0.1506  2.1424 -1.5201
 3251SOL     OW21385   4.692   1.109   8.495  0.2480  0.0309  0.3237
 3251SOL    HW121386   4.694   1.164   8.574 -1.2203 -0.9322  1.0327
 3251SOL    HW221387   4.662   1.027   8.534 -0.2251  1.1054  2.2117
 3252SOL     OW21388   1.761   4.284   8.475  0.2098  0.0265 -0.0224
 3252SOL    HW121389   1.715   4.354   8.429 -0.9867 -0.5477  0.2871
 3252SOL    HW221390   1.836   4.264   8.419  1.0230 -1.5719  1.6186
 3253SOL     OW21391   0.356   0.528   1.961  0.1074 -0.1014 -0.0819
 3253SOL    HW121392   0.310   0.532   1.877  0.2640  2.0966 -0.0565
 3253SOL    HW221393   0.403   0.611   1.952 -1.4944  0.7404 -0.7395
 3254SOL     OW21394   2.262   3.150   2.185  0.4328 -0.0804 -0.5698
 3254SOL    HW121395   2.168   3.145   2.171 -0.2338  1.8840  3.2657
 3254SOL    HW221396   2.274   3.112   2.272 -1.6852 -0.8507 -0.6278
 3255SOL     OW21397   3.961   0.686   7.707  0.4326  0.1600  0.4057
 3255SOL    HW121398   3.986   0.612   7.762 -0.8558  1.6544  2.9896
 3255SOL    HW221399   3.966   0.756   7.772  0.5022  0.9065 -0.4019
 3256SOL     OW21400   3.189   1.716   9.036  0.0553 -0.0231  0.5915
 3256SOL    HW121401   3.220   1.790   8.984  1.4737 -1.0204  0.0019
 3256SOL    HW221402   3.098   1.708   9.007  0.2077 -0.5383  0.2557
 3257SOL     OW21403   1.031   3.217   2.683  0.2912  0.0828  0.1893
 3257SOL    HW121404   0.956   3.161   2.664  0.9973 -0.6640 -0.3878
 3257SOL    HW221405   1.004   3.238   2.772 -1.1366  0.4472 -0.3325
 3258SOL     OW21406   3.347   1.945   5.787 -0.2260  1.0446  0.0820
 3258SOL    HW121407   3.258   1.968   5.815 -0.2270  1.0098  0.1082
 3258SOL    HW221408   3.369   2.018   5.730  0.9991 -1.0131 -2.0486
 3259SOL     OW21409   1.073   2.916   1.471  0.0036 -0.5564  0.2281
 3259SOL    HW121410   0.983   2.937   1.449 -0.4155  2.5029  4.8730
 3259SOL    HW221411   1.080   2.824   1.447 -0.7537 -0.3053 -0.9791
 3260SOL     OW21412   0.900   1.093  10.449 -0.1211 -0.4598 -0.2453
 3260SOL    HW121413   0.972   1.154  10.436  0.3255 -0.9031  0.1366
 3260SOL    HW221414   0.885   1.051  10.364 -2.3942 -0.9321  0.3890
 3261SOL     OW21415   1.913   2.151  11.380 -0.3114  0.3413  0.3038
 3261SOL    HW121416   1.821   2.153  11.351  0.0797 -2.1167 -1.1386
 3261SOL    HW221417   1.950   2.229  11.340 -0.4549 -0.2028 -0.9172
 3262SOL     OW21418   0.628   1.673   7.737  0.4478  0.5447 -0.1813
 3262SOL    HW121419   0.619   1.582   7.709  0.5581  0.2454  0.7476
 3262SOL    HW221420   0.581   1.723   7.670 -0.8942 -0.9986 -0.3766
 3263SOL     OW21421   4.615   1.798   2.495  0.0739  0.0259  0.4152
 3263SOL    HW121422   4.603   1.708   2.466 -1.4357  0.6711 -0.9769
 3263SOL    HW221423   4.591   1.847   2.416 -0.4873  1.1468  1.2828
 3264SOL     OW21424   1.880   3.742   1.307 -0.2567 -0.1834 -0.1738
 3264SOL    HW121425   1.868   3.837   1.310  1.6293 -0.0140  2.3730
 3264SOL    HW221426   1.795   3.698   1.306 -0.7502  0.8450 -2.0661
 3265SOL     OW21427   2.628   2.209   1.845 -0.1103 -0.3586 -0.2377
 3265SOL    HW121428   2.600   2.183   1.757 -1.6668 -0.9104  0.4170
 3265SOL    HW221429   2.579   2.291   1.849  0.4538 -0.0826  1.0373
 3266SOL     OW21430   2.532   0.449   9.157  0.1161 -0.2782 -0.2645
 3266SOL    HW121431   2.450   0.406   9.180 -0.9085  1.4159 -0.6901
 3266SOL    HW221432   2.535   0.402   9.074 -0.3156 -1.9724  0.6868
 3267SOL     OW21433   0.974   3.106   2.368  0.0487 -0.3903 -0.1233
 3267SOL    HW121434   0.883   3.106   2.336 -0.4646 -1.1455  1.3534
 3267SOL    HW221435   1.014   3.048   2.303  0.9926  1.0809 -0.8474
 3268SOL     OW21436   2.967   1.318  15.905 -0.4421 -0.8546 -0.3205
 3268SOL    HW121437   2.902   1.290  15.970 -0.0116  1.5581  1.1289
 3268SOL    HW221438   2.995   1.406  15.930  0.5571 -1.0120 -0.8841
 3269SOL     OW21439   1.107   4.589   0.775  0.0495  0.9001 -0.1496
 3269SOL    HW121440   1.060   4.663   0.814 -0.8825 -0.0140  0.4961
 3269SOL    HW221441   1.121   4.624   0.688 -0.8866  3.1142  0.6008
 3270SOL     OW21442   1.101   2.682   1.994 -0.2094 -0.5813  0.3809
 3270SOL    HW121443   1.191   2.694   1.961 -0.6424  0.4913 -0.4233
 3270SOL    HW221444   1.048   2.724   1.927 -1.3090 -1.1851  0.8752
 3271SOL     OW21445   0.078   3.963   3.364 -0.4843  0.0106 -0.2551
 3271SOL    HW121446   0.059   4.016   3.286  0.5709 -0.3126 -0.7359
 3271SOL    HW221447   0.171   3.950   3.344 -0.6593  1.9866 -2.4281
 3272SOL     OW21448   3.582   2.973   6.649  0.5702 -0.1972 -0.3110
 3272SOL    HW121449   3.674   2.989   6.671  0.1845  0.2027  0.9750
 3272SOL    HW221450   3.536   3.055   6.667 -2.3411 -2.1835  1.2585
 3273SOL     OW21451   3.734   3.702   5.201  0.0059  0.7654  0.2587
 3273SOL    HW121452   3.657   3.742   5.160 -0.2842  1.5445  1.5379
 3273SOL    HW221453   3.697   3.615   5.217 -3.0723  1.8797 -0.7753
 3274SOL     OW21454   1.944   1.603   4.164  0.4746  0.4858  0.0257
 3274SOL    HW121455   1.955   1.671   4.231 -0.0137  1.1830 -0.6077
 3274SOL    HW221456   1.868   1.630   4.113  1.2332  1.0069 -0.8191
 3275SOL     OW21457   4.090   3.256  14.646 -1.0213 -0.2160  0.0926
 3275SOL    HW121458   4.144   3.325  14.608 -2.0926  1.4067  1.5321
 3275SOL    HW221459   4.131   3.176  14.613  1.5859  2.1655 -2.5005
 3276SOL     OW21460   3.920   4.424   4.354 -0.5059  0.2951  0.6478
 3276SOL    HW121461   3.992   4.389   4.302 -0.7389  0.6113  0.1131
 3276SOL    HW221462   3.877   4.484   4.293  0.4894 -0.7140 -1.0471
 3277SOL     OW21463   1.790   2.411  11.979 -0.1032  0.1881  0.0028
 3277SOL    HW121464   1.826   2.356  12.049 -2.8375 -0.9538  0.4900
 3277SOL    HW221465   1.727   2.344  11.951  1.1745  0.6961 -4.1600
 3278SOL     OW21466   4.492   1.799  13.990  0.2918  0.3539 -0.3928
 3278SOL    HW121467   4.458   1.716  14.024 -0.2452  0.3464 -0.9581
 3278SOL    HW221468   4.421   1.844  13.945 -0.0185 -0.0203 -0.2771
 3279SOL     OW21469   3.569   4.668   2.744  0.6189 -0.2881  1.0734
 3279SOL    HW121470   3.627   4.642   2.673  0.8192  0.7331  0.8684
 3279SOL    HW221471   3.495   4.608   2.731  1.3964 -1.2401  1.1279
 3280SOL     OW21472   4.496   4.172  14.072  0.0400  0.0355  0.5036
 3280SOL    HW121473   4.577   4.175  14.123 -0.8831 -0.5791  1.9761
 3280SOL    HW221474   4.446   4.099  14.107 -2.9018  1.1985 -1.2860
 3281SOL     OW21475   4.267   4.211   3.857 -0.2863  0.3401 -0.9486
 3281SOL    HW121476   4.191   4.153   3.849  0.0579 -0.7327  3.4527
 3281SOL    HW221477   4.237   4.274   3.923 -0.1185 -1.2519  0.6457
 3282SOL     OW21478   3.443   1.062  16.571  0.0771 -0.3158  0.5152
 3282SOL    HW121479   3.378   1.132  16.569 -1.0567 -1.4406 -3.0405
 3282SOL    HW221480   3.483   1.073  16.485 -1.8816  3.4058  0.0822
 3283SOL     OW21481   1.384   2.683   6.279 -0.3754  0.0988 -0.7004
 3283SOL    HW121482   1.309   2.689   6.339 -0.3459 -1.8344 -0.4504
 3283SOL    HW221483   1.377   2.768   6.237 -1.0137 -0.0488 -0.8926
 3284SOL     OW21484   0.775   0.312   8.062 -0.4108 -0.0421  0.2675
 3284SOL    HW121485   0.681   0.318   8.079 -0.2993 -0.1012  0.9120
 3284SOL    HW221486   0.796   0.220   8.046 -1.1135 -0.7538  3.4430
 3285SOL     OW21487   0.019   0.909   2.700  0.0856 -0.3524 -0.6369
 3285SOL    HW121488   0.058   0.860   2.628 -1.5864 -0.8281 -1.2107
 3285SOL    HW221489   4.665   0.888   2.693  0.3167 -0.9095 -2.0101
 3286SOL     OW21490   3.376   3.693   7.546  0.0739 -0.3223  0.0288
 3286SOL    HW121491   3.326   3.725   7.471  0.0303 -3.3341 -1.2151
 3286SOL    HW221492   3.454   3.672   7.495 -0.0294 -0.1289 -0.2091
 3287SOL     OW21493   0.805   2.276   1.056  0.4266  0.4230  0.1385
 3287SOL    HW121494   0.836   2.197   1.013 -1.0881 -0.2873  0.3588
 3287SOL    HW221495   0.787   2.229   1.136  1.0354  2.0390  1.2306
 3288SOL     OW21496   1.978   1.460   8.909 -0.2921  0.4032  0.4648
 3288SOL    HW121497   1.985   1.552   8.885 -1.0045  0.4901  0.6007
 3288SOL    HW221498   1.961   1.459   9.003 -0.0722 -0.9008  0.4931
 3289SOL     OW21499   3.935   0.200   2.407  0.1771 -0.2132 -0.4607
 3289SOL    HW121500   3.903   0.110   2.405  0.6344 -0.3873  0.1994
 3289SOL    HW221501   4.011   0.195   2.349  0.0490 -1.1684 -0.5454
 3290SOL     OW21502   2.751   1.715   6.326  0.5165  0.5353 -0.2856
 3290SOL    HW121503   2.846   1.723   6.338  0.3716  0.1156  1.1903
 3290SOL    HW221504   2.731   1.802   6.291 -1.0225 -0.5365 -2.0232
 3291SOL     OW21505   2.668   3.709   6.052 -0.4682 -0.5110 -0.3765
 3291SOL    HW121506   2.610   3.741   6.121  0.9174  0.1453  0.4965
 3291SOL    HW221507   2.715   3.639   6.098 -0.3199 -0.5044 -0.5174
 3292SOL     OW21508   0.715   0.781   9.963  0.3878  0.4817 -0.0034
 3292SOL    HW121509   0.698   0.755  10.054 -1.5901 -1.3166 -0.8767
 3292SOL    HW221510   0.709   0.699   9.916  2.3813 -0.6386  1.6872
 3293SOL     OW21511   1.005   2.152   7.172  0.1687 -0.6668 -0.0770
 3293SOL    HW121512   0.921   2.178   7.135 -0.1229 -0.9834  0.3598
 3293SOL    HW221513   0.980   2.122   7.260  0.5585 -0.9769 -0.0727
 3294SOL     OW21514   4.722   2.498   8.075 -0.3811 -0.0293  0.3497
 3294SOL    HW121515   0.010   2.511   7.984 -0.8738 -2.1216 -0.0945
 3294SOL    HW221516   4.665   2.574   8.088 -0.1432  0.4737 -1.5997
 3295SOL     OW21517   2.645   3.214   4.320 -0.2272  0.2453 -0.3777
 3295SOL    HW121518   2.583   3.151   4.358  1.8899 -0.7622  1.4367
 3295SOL    HW221519   2.637   3.178   4.231  0.1576 -2.1268  0.5429
 3296SOL     OW21520   3.624   1.336   3.539 -0.1474  0.0746  0.5175
 3296SOL    HW121521   3.625   1.299   3.627  1.0122  0.8418  0.8215
 3296SOL    HW221522   3.714   1.322   3.511 -0.5332  0.6482 -1.0207
 3297SOL     OW21523   2.761   1.278   2.956 -0.1833  0.0887  0.7564
 3297SOL    HW121524   2.691   1.219   2.928 -1.0128 -0.1052  3.1842
 3297SOL    HW221525   2.836   1.223   2.934 -0.8019  0.9323 -3.2984
 3298SOL     OW21526   3.636   3.232   4.390  0.9921 -0.2628  0.1457
 3298SOL    HW121527   3.556   3.200   4.348  0.9169 -2.1788  1.7797
 3298SOL    HW221528   3.652   3.317   4.348  0.1532 -0.9840 -1.6426
 3299SOL     OW21529   0.802   4.064   5.358  0.1037 -0.2271  0.2060
 3299SOL    HW121530   0.719   4.051   5.311  0.2774  3.5288 -1.1632
 3299SOL    HW221531   0.781   4.135   5.419 -1.0798 -1.8131  1.6303
 3300SOL     OW21532   1.825   4.000   6.358 -0.4012  0.8747  0.1834
 3300SOL    HW121533   1.894   3.997   6.291  0.8371  1.2228  1.4370
 3300SOL    HW221534   1.880   4.012   6.436 -0.2242 -0.6789  0.2991
 3301SOL     OW21535   0.806   2.501  12.488 -0.7277 -0.7548  0.2714
 3301SOL    HW121536   0.794   2.408  12.509  1.6727 -0.9196  0.9266
 3301SOL    HW221537   0.882   2.519  12.543  0.4884  0.9222 -1.9965
 3302SOL     OW21538   3.211   0.570   2.213  0.6436 -0.0991 -0.1712
 3302SOL    HW121539   3.249   0.483   2.195 -0.0352 -0.6975  1.3147
 3302SOL    HW221540   3.153   0.555   2.287  0.5231 -0.6285 -0.3691
 3303SOL     OW21541   1.808   3.301   7.133  0.1738 -0.2560 -0.2044
 3303SOL    HW121542   1.839   3.270   7.048  1.4444  5.0751 -1.7187
 3303SOL    HW221543   1.809   3.220   7.183 -2.9889 -1.5776 -2.3124
 3304SOL     OW21544   2.949   1.030   6.000 -0.4013 -0.4066  0.4053
 3304SOL    HW121545   2.883   1.072   5.944 -2.5170 -1.1407  2.3363
 3304SOL    HW221546   2.952   0.936   5.978 -0.2274 -0.5041  0.8590
 3305SOL     OW21547   0.502   1.595   2.226  0.2118  0.5676  0.0165
 3305SOL    HW121548   0.432   1.648   2.264 -0.1003 -0.1610  0.4712
 3305SOL    HW221549   0.486   1.519   2.283 -1.5649  1.7060  1.0434
 3306SOL     OW21550   1.170   1.321  14.558  0.0471 -1.0709 -0.1172
 3306SOL    HW121551   1.214   1.398  14.521 -1.1530 -0.9229 -1.2371
 3306SOL    HW221552   1.087   1.363  14.581 -0.1254 -1.8903  0.7539
 3307SOL     OW21553   3.045   1.339   4.634 -0.4253  0.5475  0.0538
 3307SOL    HW121554   2.965   1.364   4.587 -1.7888 -1.4161  1.3379
 3307SOL    HW221555   3.078   1.425   4.659  0.2214 -0.3744  2.3197
 3308SOL     OW21556   0.027   2.563   6.523  0.0350 -0.0634 -0.0501
 3308SOL    HW121557   0.086   2.638   6.530 -0.3722  0.6397 -4.0063
 3308SOL    HW221558   4.683   2.605   6.543  0.6630  1.1425 -0.0260
 3309SOL     OW21559   0.913   2.480  15.286  0.2624  0.2373  0.3300
 3309SOL    HW121560   0.854   2.406  15.270  1.9798 -0.5644 -2.2493
 3309SOL    HW221561   0.875   2.546  15.228  0.9031  0.6269  0.3575
 3310SOL     OW21562   4.430   4.335   3.608  0.1828  0.5255 -0.5896
 3310SOL    HW121563   4.411   4.250   3.648  1.3154  1.6632  2.3806
 3310SOL    HW221564   4.346   4.358   3.569  1.1056  0.9065 -2.3518
 3311SOL     OW21565   1.597   2.455  15.590 -0.2856  0.0060 -0.6866
 3311SOL    HW121566   1.609   2.393  15.662  1.2525 -1.3045 -2.0796
 3311SOL    HW221567   1.644   2.410  15.520  0.9066  2.7703 -1.6670
 3312SOL     OW21568   2.940   3.872   6.531 -0.2074  0.4065 -0.6800
 3312SOL    HW121569   2.910   3.963   6.530  0.8556  0.7635 -0.1919
 3312SOL    HW221570   2.919   3.840   6.443 -3.8925 -0.6561  0.5664
 3313SOL     OW21571   3.885   3.783   4.521 -0.5013 -0.2187  0.3097
 3313SOL    HW121572   3.842   3.863   4.551  1.2973  0.9442 -0.1833
 3313SOL    HW221573   3.899   3.749   4.610 -1.1252  3.4343  1.7961
 3314SOL     OW21574   0.123   0.523  15.496 -0.6094 -0.2307 -0.0519
 3314SOL    HW121575   0.087   0.467  15.566 -3.3762  1.5040 -0.0862
 3314SOL    HW221576   0.078   0.605  15.516  0.2203  0.5066 -1.2869
 3315SOL     OW21577   1.513   2.255   8.189 -0.1068  0.3386 -0.1197
 3315SOL    HW121578   1.494   2.207   8.270 -1.9493  0.1408 -0.6773
 3315SOL    HW221579   1.482   2.337   8.228 -2.4721 -2.3897  3.7883
 3316SOL     OW21580   1.943   2.097   5.790  0.1748  0.4459 -0.3409
 3316SOL    HW121581   1.924   2.007   5.764  0.5657 -0.0266  1.0506
 3316SOL    HW221582   1.871   2.139   5.743 -1.3145 -2.8301 -0.9642
 3317SOL     OW21583   1.517   2.350  17.686  0.1364  0.1737 -0.1212
 3317SOL    HW121584   1.460   2.416  17.647 -1.5494 -0.7533  0.7596
 3317SOL    HW221585   1.460   2.296  17.742  0.6510 -0.9014 -0.6402
 3318SOL     OW21586   0.396   2.430   6.429  0.1761 -0.1517 -0.4980
 3318SOL    HW121587   0.417   2.338   6.442  5.1207  0.8915 -0.9313
 3318SOL    HW221588   0.477   2.458   6.385 -0.2204 -1.5760 -2.1106
 3319SOL     OW21589   1.009   3.256  12.046  0.1348  0.2484 -0.1432
 3319SOL    HW121590   1.057   3.310  11.983  0.3324  0.3626  0.1066
 3319SOL    HW221591   1.057   3.286  12.123  1.5237 -0.1019 -0.8790
 3320SOL     OW21592   3.267   1.513  10.252 -0.3122 -0.3141 -0.0383
 3320SOL    HW121593   3.294   1.424  10.273  2.3322  0.7993  1.2373
 3320SOL    HW221594   3.187   1.490  10.204 -0.9756 -0.2799  1.0643
 3321SOL     OW21595   4.726   3.794   0.725  0.5797  0.2409 -0.4640
 3321SOL    HW121596   4.731   3.733   0.799  0.8899  1.1543  0.2664
 3321SOL    HW221597   0.069   3.842   0.713  1.2093 -0.5250  0.8009
 3322SOL     OW21598   0.444   0.771   2.608  0.7970 -0.2665 -0.1720
 3322SOL    HW121599   0.457   0.759   2.514 -0.1698  0.2204 -0.3645
 3322SOL    HW221600   0.403   0.857   2.602  3.4709  0.8519 -2.4707
 3323SOL     OW21601   0.093   2.134   2.175 -0.2304  0.4422 -0.1894
 3323SOL    HW121602   0.181   2.096   2.169 -0.0089  0.9083  0.1736
 3323SOL    HW221603   0.078   2.109   2.266 -2.0404  2.3312  0.0147
 3324SOL     OW21604   3.943   0.676   2.400  0.2755 -0.1790 -0.1741
 3324SOL    HW121605   4.030   0.656   2.367  1.1673  0.9947  1.4917
 3324SOL    HW221606   3.915   0.588   2.426  1.0484 -0.3215  0.1640
 3325SOL     OW21607   2.323   0.323  16.126 -0.7134 -0.0790  0.1933
 3325SOL    HW121608   2.257   0.332  16.057 -1.6346 -1.2480  0.9057
 3325SOL    HW221609   2.336   0.228  16.124  1.3706  0.2594 -1.1151
 3326SOL     OW21610   2.483   1.299   9.363  0.6907  0.8597  0.7857
 3326SOL    HW121611   2.442   1.220   9.329 -1.1492  2.6274 -1.0615
 3326SOL    HW221612   2.424   1.322   9.435  2.5367  0.5177  2.4108
 3327SOL     OW21613   2.849   4.477  10.297  0.0726 -0.2583  0.6404
 3327SOL    HW121614   2.859   4.440  10.385  0.0143 -0.3295  0.6172
 3327SOL    HW221615   2.758   4.507  10.305 -0.3097 -1.5673  1.2589
 3328SOL     OW21616   4.035   0.396  15.693  0.2347 -0.4975  0.2273
 3328SOL    HW121617   4.030   0.358  15.781 -1.1120  2.7519  1.5504
 3328SOL    HW221618   4.093   0.336  15.647 -0.9575 -0.2955 -1.5279
 3329SOL     OW21619   4.379   4.085   4.569  0.0719 -0.0688  0.0960
 3329SOL    HW121620   4.468   4.063   4.543  0.6053 -0.3836  2.1931
 3329SOL    HW221621   4.355   4.013   4.627 -0.9911 -1.2397 -1.7838
 3330SOL     OW21622   1.908   1.263  14.705  0.0395 -0.6788 -0.1983
 3330SOL    HW121623   1.948   1.204  14.770 -1.7445  0.5202  1.9769
 3330SOL    HW221624   1.966   1.340  14.706 -0.9859  0.0649  1.7834
 3331SOL     OW21625   2.956   1.520   5.082  0.8271  0.8382  0.0113
 3331SOL    HW121626   2.883   1.536   5.022 -0.0262 -0.2312  0.7686
 3331SOL    HW221627   3.012   1.466   5.026  1.7265  1.2695  0.4799
 3332SOL     OW21628   1.455   0.221   8.240  0.1680 -0.0306 -0.0180
 3332SOL    HW121629   1.430   0.314   8.246  0.7774  0.1957 -0.9221
 3332SOL    HW221630   1.525   0.212   8.304 -0.0718 -2.0739 -0.0408
 3333SOL     OW21631   2.776   4.363  10.035 -0.1479  0.1977 -0.0457
 3333SOL    HW121632   2.785   4.446   9.989  0.2877 -0.2953 -0.8629
 3333SOL    HW221633   2.803   4.388  10.124  0.6331  0.6337 -0.4099
 3334SOL     OW21634   4.229   0.594   3.869  0.2481  0.0364  0.4008
 3334SOL    HW121635   4.221   0.504   3.835 -0.2233  0.0696  0.4191
 3334SOL    HW221636   4.161   0.590   3.937 -0.4518  0.3298 -0.2889
 3335SOL     OW21637   0.537   1.507   4.792 -0.4276  0.3826  0.1344
 3335SOL    HW121638   0.454   1.546   4.765 -0.5470 -0.5029 -0.7616
 3335SOL    HW221639   0.578   1.572   4.850  0.3011  0.4258 -0.4307
 3336SOL     OW21640   4.312   2.538   4.410  0.0953 -0.6948  0.0493
 3336SOL    HW121641   4.384   2.590   4.374 -1.2546  1.6856  0.7661
 3336SOL    HW221642   4.253   2.604   4.447  1.7710  0.3440  0.8501
 3337SOL     OW21643   0.419   2.717   4.816  0.2243  0.0361  0.0785
 3337SOL    HW121644   0.467   2.790   4.856 -0.9074  0.4280  0.7303
 3337SOL    HW221645   0.359   2.768   4.762  0.6401 -1.2514 -1.6058
 3338SOL     OW21646   1.952   4.700   4.114  0.1152 -0.0252  0.1792
 3338SOL    HW121647   1.886   4.639   4.148 -0.3377  0.1090 -0.4436
 3338SOL    HW221648   1.902   0.039   4.141 -0.7232 -0.0093 -1.3859
 3339SOL     OW21649   1.796   4.141  17.376 -0.1581  0.2140  0.5524
 3339SOL    HW121650   1.832   4.199  17.309 -1.4203  0.7623  0.3401
 3339SOL    HW221651   1.715   4.107  17.337  1.2933  1.4121 -3.4503
 3340SOL     OW21652   4.204   0.350   6.064  0.2238 -0.2341  0.4336
 3340SOL    HW121653   4.234   0.276   6.116  3.5346  0.4794 -0.4374
 3340SOL    HW221654   4.134   0.310   6.013  0.3015 -0.6209  0.6320
 3341SOL     OW21655   2.015   0.922   3.409 -0.0640 -0.4976 -0.0899
 3341SOL    HW121656   2.057   0.936   3.494  0.2600 -0.7836 -0.2032
 3341SOL    HW221657   2.095   0.932   3.359  0.1390  0.5462  0.4435
 3342SOL     OW21658   3.498   2.240   3.768  0.3663 -0.1523 -0.2108
 3342SOL    HW121659   3.534   2.177   3.705  1.4177  1.3804 -1.1126
 3342SOL    HW221660   3.410   2.250   3.731  0.7815  3.0478 -0.3091
 3343SOL     OW21661   4.719   0.648   4.101  0.8089  0.2256 -0.0164
 3343SOL    HW121662   0.018   0.660   4.188  1.6485 -0.8506 -0.2335
 3343SOL    HW221663   4.671   0.566   4.114 -0.8334  1.1002 -0.6601
 3344SOL     OW21664   2.486   1.928   3.838  0.1134  0.0567 -0.2574
 3344SOL    HW121665   2.566   1.921   3.786  0.9857  3.2188  0.6633
 3344SOL    HW221666   2.497   1.850   3.892  0.8967  1.7861  2.0478
 3345SOL     OW21667   2.913   0.116   0.304 -0.4391  0.8788  0.0264
 3345SOL    HW121668   2.996   0.080   0.335 -0.9975 -1.8281 -1.6824
 3345SOL    HW221669   2.940   0.205   0.284  1.0686  0.5835  0.7299
 3346SOL     OW21670   2.814   3.181  16.483 -0.3396  0.3140 -0.1328
 3346SOL    HW121671   2.823   3.191  16.578  1.9261  0.4777 -0.3430
 3346SOL    HW221672   2.761   3.255  16.453 -1.6147 -1.0959 -1.2845
 3347SOL     OW21673   1.443   0.375   4.852 -0.0348  0.4901 -0.6422
 3347SOL    HW121674   1.350   0.361   4.832  0.6712  0.0029 -3.5168
 3347SOL    HW221675   1.489   0.388   4.769  0.9190  0.7832 -0.0700
 3348SOL     OW21676   3.221   1.937   8.893 -0.4904  0.3360 -0.1751
 3348SOL    HW121677   3.153   1.960   8.830 -1.3328  1.4390  1.1360
 3348SOL    HW221678   3.272   2.013   8.921  1.4174 -0.9534 -0.1652
 3349SOL     OW21679   1.601   3.115   2.025 -0.0559  0.0417 -0.2320
 3349SOL    HW121680   1.668   3.168   1.983  0.2955  0.8294  1.3143
 3349SOL    HW221681   1.528   3.178   2.027 -1.2836 -1.4124  0.6038
 3350SOL     OW21682   4.011   0.967  11.307 -0.3406 -0.2935  0.2860
 3350SOL    HW121683   4.007   1.015  11.224  0.1025  1.1723  1.1092
 3350SOL    HW221684   4.016   0.876  11.277  2.9542 -0.7771  2.2581
 3351SOL     OW21685   0.279   3.425   6.224  0.8358  0.1847 -0.1264
 3351SOL    HW121686   0.237   3.411   6.140 -1.6542  1.8436  0.8367
 3351SOL    HW221687   0.335   3.349   6.238  1.7980  0.8048 -0.5429
 3352SOL     OW21688   3.396   0.490  17.641 -0.0501 -0.1943 -0.2243
 3352SOL    HW121689   3.343   0.468  17.564 -0.4506 -2.3396  0.6791
 3352SOL    HW221690   3.404   0.403  17.680 -4.0859  0.4745  2.1317
 3353SOL     OW21691   3.625   0.314   2.174 -0.3169  0.0908  0.2606
 3353SOL    HW121692   3.598   0.406   2.181 -2.2197 -0.2533 -2.3209
 3353SOL    HW221693   3.643   0.317   2.080 -0.8422  2.3825  0.2074
 3354SOL     OW21694   1.651   0.397   3.452 -0.1555 -0.3208 -1.0519
 3354SOL    HW121695   1.674   0.486   3.478  2.1940 -0.8271 -1.4753
 3354SOL    HW221696   1.581   0.381   3.516  0.9404 -2.1695 -0.3320
 3355SOL     OW21697   0.549   2.766   3.062 -0.3828  0.0699 -0.4247
 3355SOL    HW121698   0.504   2.829   3.119  1.7627  1.2181  0.0193
 3355SOL    HW221699   0.616   2.745   3.128  0.9081 -2.3686 -2.5151
 3356SOL     OW21700   2.822   1.454  17.068  0.0847  0.3269 -0.2897
 3356SOL    HW121701   2.891   1.509  17.031  0.3253  0.0779 -0.2103
 3356SOL    HW221702   2.881   1.388  17.104  0.0981  1.5219  1.8968
 3357SOL     OW21703   1.111   0.355   1.772  0.7879 -0.2305  0.1306
 3357SOL    HW121704   1.153   0.336   1.688  0.6289  0.5563 -0.1293
 3357SOL    HW221705   1.075   0.443   1.764  4.5521  1.3051  0.1807
 3358SOL     OW21706   1.056   2.823   4.686  0.2106  0.0343 -0.7505
 3358SOL    HW121707   1.117   2.841   4.614  1.5946  1.1977  0.7092
 3358SOL    HW221708   1.009   2.905   4.702 -1.1782 -0.9673  0.2944
 3359SOL     OW21709   4.261   3.543   8.242  0.3649 -0.2596  0.6552
 3359SOL    HW121710   4.174   3.505   8.227  0.5838  0.2812 -1.9312
 3359SOL    HW221711   4.301   3.513   8.324  0.5586 -0.1235  0.6112
 3360SOL     OW21712   0.927   0.683   4.260 -0.4518 -0.6296  0.5326
 3360SOL    HW121713   0.893   0.681   4.171  5.4440 -0.9343 -1.6983
 3360SOL    HW221714   0.959   0.773   4.272 -0.0013 -1.0860  2.8010
 3361SOL     OW21715   2.802   2.020   5.025  0.1419 -0.2546  0.8082
 3361SOL    HW121716   2.713   2.054   5.021  0.8045  1.4843  0.8747
 3361SOL    HW221717   2.792   1.945   5.084  1.0595 -1.1649 -0.1749
 3362SOL     OW21718   3.313   2.975   8.545  0.1749 -0.7073 -0.3459
 3362SOL    HW121719   3.291   2.895   8.594 -2.0964 -1.2774 -2.3194
 3362SOL    HW221720   3.386   3.012   8.595 -0.4335  0.1321 -0.0715
 3363SOL     OW21721   2.140   1.927   7.256 -0.0801  0.2307  0.2805
 3363SOL    HW121722   2.233   1.950   7.259 -0.0713  0.1730  0.4432
 3363SOL    HW221723   2.121   1.907   7.348 -0.3868 -0.0401  0.1567
 3364SOL     OW21724   0.103   3.407   4.708  0.0184 -0.5618  0.3955
 3364SOL    HW121725   0.008   3.400   4.708  0.0548 -1.1164 -0.6782
 3364SOL    HW221726   0.117   3.418   4.614  0.4222  1.2902  0.6842
 3365SOL     OW21727   4.588   3.219   3.271  1.2467  0.1718  0.2362
 3365SOL    HW121728   4.612   3.308   3.244  0.0604  0.8742  1.4773
 3365SOL    HW221729   4.493   3.221   3.262  1.6523 -0.7623 -4.2746
 3366SOL     OW21730   4.463   4.095   3.989  0.2227  0.5267 -0.8314
 3366SOL    HW121731   4.392   4.127   3.933 -0.4323 -0.5459 -0.6135
 3366SOL    HW221732   4.448   4.000   3.985 -0.6389  0.5415  2.6735
 3367SOL     OW21733   2.630   2.146   5.412  0.1820  0.3579  0.4925
 3367SOL    HW121734   2.661   2.236   5.420  1.2965  0.0145  0.1575
 3367SOL    HW221735   2.546   2.163   5.369  1.1624 -0.5180 -1.8107
 3368SOL     OW21736   4.101   2.785   3.098 -0.1547  0.4416 -0.0208
 3368SOL    HW121737   4.083   2.776   3.005  2.0205  0.5820 -0.4718
 3368SOL    HW221738   4.015   2.816   3.124 -0.5406  0.4779 -1.3574
 3369SOL     OW21739   2.771   0.583  11.257  0.3425 -0.0901  0.3846
 3369SOL    HW121740   2.714   0.582  11.333 -1.0352 -1.5252 -0.6589
 3369SOL    HW221741   2.794   0.676  11.257  0.5126 -0.1325  1.0321
 3370SOL     OW21742   3.774   3.644   3.842  0.3504 -0.9833  0.0086
 3370SOL    HW121743   3.831   3.631   3.766  0.2375 -1.0851 -0.0604
 3370SOL    HW221744   3.784   3.739   3.846 -1.1306 -0.7295 -1.8573
 3371SOL     OW21745   4.290   1.601   9.007 -0.0459  0.8480 -0.0811
 3371SOL    HW121746   4.275   1.525   9.063  1.7759 -0.4951 -1.4203
 3371SOL    HW221747   4.325   1.662   9.072 -0.1108 -0.5293  1.2313
 3372SOL     OW21748   1.103   2.268  14.807 -0.1865 -0.2180 -0.0764
 3372SOL    HW121749   1.112   2.287  14.901  0.8748 -1.1823  0.0148
 3372SOL    HW221750   1.092   2.355  14.769 -4.3957  0.3006  2.3109
 3373SOL     OW21751   1.291   2.177  16.785 -0.3377  0.0104  0.8027
 3373SOL    HW121752   1.302   2.090  16.748  1.6925  0.6414 -0.0564
 3373SOL    HW221753   1.314   2.172  16.878  0.4927 -0.8346  0.5452
 3374SOL     OW21754   1.790   2.639   5.657  0.0180 -0.0410  0.7015
 3374SOL    HW121755   1.844   2.702   5.704 -1.7069  3.0861 -1.4948
 3374SOL    HW221756   1.786   2.566   5.718 -0.5590 -0.3443  0.3020
 3375SOL     OW21757   2.476   2.513  10.112 -0.3233  0.1089  0.6829
 3375SOL    HW121758   2.479   2.452  10.038  0.1140  0.8210  0.1207
 3375SOL    HW221759   2.399   2.488  10.163  0.8008 -2.1734  1.2497
 3376SOL     OW21760   0.415   1.592   3.503  0.0072  0.1046 -0.2194
 3376SOL    HW121761   0.419   1.518   3.564  1.0506  1.5871  1.5301
 3376SOL    HW221762   0.331   1.581   3.460 -0.2241  0.2234  0.2022
 3377SOL     OW21763   0.615   3.723  12.768 -0.5157 -0.0222 -0.0468
 3377SOL    HW121764   0.662   3.773  12.833  0.0313 -2.4061  1.3806
 3377SOL    HW221765   0.521   3.741  12.780 -0.7736 -1.2066 -0.3098
 3378SOL     OW21766   0.666   3.769  11.825 -0.3552  0.1238 -0.5296
 3378SOL    HW121767   0.650   3.807  11.911  0.9952 -2.9396  1.0685
 3378SOL    HW221768   0.739   3.829  11.805  0.2261 -1.0417 -1.8992
 3379SOL     OW21769   0.258   3.879   3.835 -0.2096 -0.1989  0.0212
 3379SOL    HW121770   0.174   3.924   3.848 -0.6848 -0.8600 -0.7541
 3379SOL    HW221771   0.284   3.847   3.921  0.0636  2.2041  0.8522
 3380SOL     OW21772   3.524   3.695   8.285  0.6704  0.0378  0.1965
 3380SOL    HW121773   3.606   3.658   8.252 -0.1877  1.0495 -3.1752
 3380SOL    HW221774   3.474   3.664   8.209  2.1909  0.5500 -1.0328
 3381SOL     OW21775   3.382   3.957   3.756  0.0840 -0.2356  0.0589
 3381SOL    HW121776   3.369   3.870   3.718  0.7489 -0.7346  0.9705
 3381SOL    HW221777   3.317   4.018   3.719  0.1506 -1.1902 -1.6140
 3382SOL     OW21778   4.241   3.431   4.621  0.0412  0.2125 -0.0521
 3382SOL    HW121779   4.231   3.490   4.546  1.6024  1.9882  1.1331
 3382SOL    HW221780   4.291   3.485   4.682 -0.7083  1.0368 -0.1586
 3383SOL     OW21781   2.554   0.292   4.940 -0.3471  0.0257 -0.0113
 3383SOL    HW121782   2.631   0.275   4.886  0.4530 -0.0242  1.1303
 3383SOL    HW221783   2.489   0.250   4.884 -1.5175  1.0131  0.6056
 3384SOL     OW21784   3.797   3.263  14.694  0.4551 -0.5268 -0.3056
 3384SOL    HW121785   3.891   3.268  14.678  0.3916  1.3045 -0.1094
 3384SOL    HW221786   3.769   3.216  14.615  2.8048  1.0579 -2.0653
 3385SOL     OW21787   2.947   4.369   8.760  0.2236 -0.0770  0.7178
 3385SOL    HW121788   3.005   4.438   8.790 -1.6225  0.4322  3.0926
 3385SOL    HW221789   3.001   4.292   8.777 -0.6768 -0.9655 -0.3918
 3386SOL     OW21790   2.002   0.669   4.630  0.3253 -0.2084  0.1682
 3386SOL    HW121791   2.007   0.584   4.588 -0.6902 -0.2662  0.1655
 3386SOL    HW221792   2.079   0.667   4.688  0.6968  1.8710 -0.2351
 3387SOL     OW21793   3.422   0.284   4.671 -0.1476 -0.3956  0.3408
 3387SOL    HW121794   3.404   0.377   4.662  0.0169 -0.3297  0.6883
 3387SOL    HW221795   3.517   0.274   4.685 -0.1312 -0.7757 -0.0134
 3388SOL     OW21796   2.781   1.565   8.101 -0.5532 -0.2309 -0.2243
 3388SOL    HW121797   2.767   1.659   8.111 -1.1324 -0.6102  2.4584
 3388SOL    HW221798   2.814   1.544   8.188 -0.5907  0.1193 -0.1264
 3389SOL     OW21799   0.903   3.065  15.882  0.4598  0.4321  0.5824
 3389SOL    HW121800   0.844   3.140  15.882 -0.8340 -0.5717 -1.1824
 3389SOL    HW221801   0.991   3.102  15.884  0.5836  0.2292 -0.6698
 3390SOL     OW21802   4.181   2.066  11.424  0.1954 -0.4384  0.0192
 3390SOL    HW121803   4.111   2.045  11.485  1.2910 -0.4491  1.2841
 3390SOL    HW221804   4.170   2.160  11.412 -2.0575 -0.3564  2.6972
 3391SOL     OW21805   0.850   3.732   8.899  0.1779 -0.1068 -0.1242
 3391SOL    HW121806   0.760   3.741   8.929  0.1016 -1.6323  0.0815
 3391SOL    HW221807   0.860   3.640   8.878  1.8959 -0.1294  0.8333
 3392SOL     OW21808   4.571   1.270   8.783 -0.1309 -0.2532 -0.6353
 3392SOL    HW121809   4.482   1.237   8.795  1.0495 -2.3191  2.5287
 3392SOL    HW221810   4.558   1.365   8.791  1.8376  0.1129 -1.7993
 3393SOL     OW21811   3.008   3.074   2.868  0.3062 -0.1405  0.3288
 3393SOL    HW121812   2.941   3.005   2.866  1.9680 -1.7533 -0.7210
 3393SOL    HW221813   2.953   3.151   2.854  1.3206 -0.1299 -3.7183
 3394SOL     OW21814   0.897   3.292   2.922 -0.3915  0.8038 -0.1251
 3394SOL    HW121815   0.931   3.225   2.981  1.3706  0.8700 -1.0574
 3394SOL    HW221816   0.891   3.365   2.984  0.2086  0.3060  0.5162
 3395SOL     OW21817   3.548   4.502   0.376  0.1531 -0.1001 -0.3864
 3395SOL    HW121818   3.589   4.545   0.301  1.2404 -2.2516 -1.0270
 3395SOL    HW221819   3.548   4.408   0.356  2.0555 -0.4965  1.4211
 3396SOL     OW21820   0.251   3.148   6.894 -0.5988 -0.2191 -0.3500
 3396SOL    HW121821   0.338   3.162   6.857  0.8489 -0.8102  2.9066
 3396SOL    HW221822   0.191   3.155   6.819 -2.7831 -1.7162  1.2396
 3397SOL     OW21823   0.375   3.109  10.384 -0.2480  0.2749 -0.3425
 3397SOL    HW121824   0.301   3.052  10.407 -0.4503  1.6220  2.3432
 3397SOL    HW221825   0.402   3.071  10.300 -1.0430  1.7934 -1.2734
 3398SOL     OW21826   4.249   2.720   9.687 -0.1080 -0.2225 -0.2759
 3398SOL    HW121827   4.270   2.775   9.612  0.8733  1.4611  1.2420
 3398SOL    HW221828   4.312   2.756   9.750 -0.5122 -0.5644  0.3237
 3399SOL     OW21829   3.232   3.879   9.891 -0.2202 -0.6916  0.9069
 3399SOL    HW121830   3.210   3.861   9.982 -0.7357 -2.2021  0.4735
 3399SOL    HW221831   3.293   3.952   9.902 -0.5638 -0.0143 -1.6850
 3400SOL     OW21832   2.609   3.221   6.456  0.2131  0.1958 -0.3415
 3400SOL    HW121833   2.624   3.267   6.539  1.9487  0.9258 -1.0553
 3400SOL    HW221834   2.535   3.269   6.418 -0.3389  0.5022  1.0967
 3401SOL     OW21835   1.104   2.671   6.012  0.3958  0.1014 -0.2494
 3401SOL    HW121836   1.036   2.628   5.960  2.5657 -2.3872 -0.9972
 3401SOL    HW221837   1.177   2.609   6.017  2.3351  2.5633  2.2702
 3402SOL     OW21838   1.575   3.235  16.709  0.5826 -0.3443 -0.1421
 3402SOL    HW121839   1.548   3.215  16.799  2.3792  1.3929  0.8081
 3402SOL    HW221840   1.492   3.234  16.663 -0.0372 -1.0069  0.9856
 3403SOL     OW21841   4.461   0.254  12.197 -0.0486 -0.5050  0.1798
 3403SOL    HW121842   4.392   0.241  12.261  1.0652  0.3785  1.5673
 3403SOL    HW221843   4.457   0.348  12.181 -0.1206 -0.3062  1.3682
 3404SOL     OW21844   0.750   0.995   9.798 -0.5536 -0.0678 -0.3701
 3404SOL    HW121845   0.819   1.045   9.842 -2.0295  2.4278 -0.8501
 3404SOL    HW221846   0.758   0.913   9.846  0.2048  0.0174 -0.3550
 3405SOL     OW21847   0.709   2.241   2.730  0.1081 -0.4382  0.6399
 3405SOL    HW121848   0.731   2.200   2.647 -0.1739  0.7300 -0.0126
 3405SOL    HW221849   0.617   2.219   2.748  0.3403 -0.0078  2.3371
 3406SOL     OW21850   2.666   1.049   2.827 -0.1669  0.4534 -0.1603
 3406SOL    HW121851   2.573   1.030   2.809 -0.5352  1.8749  0.2554
 3406SOL    HW221852   2.700   1.045   2.738  1.3123 -1.0912  0.4757
 3407SOL     OW21853   3.535   2.470   0.493  0.0910  0.0670  0.3535
 3407SOL    HW121854   3.599   2.524   0.540 -0.9755  0.1392  1.7129
 3407SOL    HW221855   3.598   2.421   0.440 -0.6297 -0.6863  0.1991
 3408SOL     OW21856   1.466   3.509   5.020  0.2196 -0.0761 -0.0277
 3408SOL    HW121857   1.515   3.489   4.940  1.4127 -2.2697  1.2507
 3408SOL    HW221858   1.492   3.599   5.037 -1.7303  0.3020  0.9171
 3409SOL     OW21859   4.169   1.736   3.282 -0.2937  0.0679  0.3996
 3409SOL    HW121860   4.240   1.673   3.269 -0.3021 -0.4288  2.8261
 3409SOL    HW221861   4.214   1.808   3.325  1.4664  1.1583 -3.2642
 3410SOL     OW21862   0.948   0.460   9.123  0.2848 -0.0430  0.0316
 3410SOL    HW121863   1.024   0.518   9.131  0.3510 -0.2575  1.0547
 3410SOL    HW221864   0.998   0.380   9.104  2.4915  1.8828 -2.2595
 3411SOL     OW21865   4.080   1.441   1.101 -0.4368 -0.2139 -0.3145
 3411SOL    HW121866   4.123   1.355   1.106  1.2430  0.6660  0.1705
 3411SOL    HW221867   3.990   1.411   1.119 -0.7266  1.7750  1.5981
 3412SOL     OW21868   1.996   0.155  13.865  0.0404 -0.4838  0.6461
 3412SOL    HW121869   1.908   0.147  13.830  0.6380 -0.3307 -0.9073
 3412SOL    HW221870   2.042   0.079  13.830  0.5127  0.6881 -1.3079
 3413SOL     OW21871   1.094   2.206   1.743 -1.1427  0.1089  0.4024
 3413SOL    HW121872   1.145   2.178   1.818 -1.0666 -1.1453 -0.1159
 3413SOL    HW221873   1.122   2.138   1.681 -2.5142 -0.9139  0.9106
 3414SOL     OW21874   0.282   4.401   6.537  0.1647 -0.2360 -0.1984
 3414SOL    HW121875   0.327   4.482   6.515  1.3978 -1.1398 -0.9848
 3414SOL    HW221876   0.281   4.405   6.633  0.5059  0.5210 -0.2232
 3415SOL     OW21877   1.133   1.353   8.375  0.3315  0.0867 -0.1096
 3415SOL    HW121878   1.188   1.432   8.377  0.5489 -0.1013  1.1812
 3415SOL    HW221879   1.091   1.355   8.289 -1.1930  0.4428  0.6312
 3416SOL     OW21880   3.285   2.599   4.392  0.0844 -0.4627 -0.1244
 3416SOL    HW121881   3.243   2.613   4.477  0.1487 -1.1396  0.0209
 3416SOL    HW221882   3.299   2.505   4.399 -0.4896 -0.6422 -1.5313
 3417SOL     OW21883   3.539   1.729   2.994  0.2730  0.0023  0.1758
 3417SOL    HW121884   3.460   1.687   3.029 -0.1845 -1.3931 -2.5353
 3417SOL    HW221885   3.542   1.676   2.914  0.2979  0.9166 -0.4269
 3418SOL     OW21886   1.726   3.954   8.301  0.1745 -0.2542 -0.6440
 3418SOL    HW121887   1.726   4.029   8.243  0.8915  1.1135  1.1126
 3418SOL    HW221888   1.816   3.922   8.295 -0.6983 -2.6612 -0.9519
 3419SOL     OW21889   4.278   1.259   7.095  0.2582  0.2831 -0.3658
 3419SOL    HW121890   4.338   1.271   7.021  0.0782 -0.7860 -0.6911
 3419SOL    HW221891   4.259   1.349   7.120 -1.1933  0.3838 -1.8110
 3420SOL     OW21892   3.984   2.540   3.387 -0.7882 -0.2497  0.1729
 3420SOL    HW121893   3.891   2.526   3.401 -0.9264 -0.7875 -1.2661
 3420SOL    HW221894   4.020   2.507   3.469 -0.7631 -1.2482 -0.2376
 3421SOL     OW21895   1.453   0.622  13.724  0.3086  0.0487  0.1917
 3421SOL    HW121896   1.516   0.694  13.724  1.1700 -0.7017  0.3310
 3421SOL    HW221897   1.378   0.669  13.688  0.5378  0.2944  0.0383
 3422SOL     OW21898   2.520   3.163   4.081 -0.0297 -0.4184 -0.3802
 3422SOL    HW121899   2.499   3.072   4.106 -1.4090  0.0047 -0.0124
 3422SOL    HW221900   2.439   3.210   4.103 -0.3417 -0.3107 -1.7697
 3423SOL     OW21901   2.185   0.576   9.284  0.2148  0.2039 -0.3627
 3423SOL    HW121902   2.247   0.643   9.255 -0.1086  0.2312 -0.9980
 3423SOL    HW221903   2.232   0.527   9.351 -0.1989  0.9060  0.4408
 3424SOL     OW21904   4.565   4.430   4.025  0.5543  0.2049  0.5180
 3424SOL    HW121905   4.500   4.410   3.959  0.4346 -2.3737  1.4323
 3424SOL    HW221906   4.644   4.412   3.974  1.7579  0.3771  2.3183
 3425SOL     OW21907   0.780   2.035   6.125 -0.0114  0.3298 -0.3730
 3425SOL    HW121908   0.842   2.041   6.198 -0.9869 -3.6572  0.7462
 3425SOL    HW221909   0.696   2.043   6.170 -1.0424  2.0369 -2.5587
 3426SOL     OW21910   4.468   1.353   2.207 -0.6753 -0.3230  0.6108
 3426SOL    HW121911   4.377   1.380   2.193 -0.2145 -1.1265 -4.0644
 3426SOL    HW221912   4.499   1.357   2.117  1.2349  2.6128  1.3744
 3427SOL     OW21913   3.366   2.263   3.086 -0.3253 -0.3550 -0.2610
 3427SOL    HW121914   3.382   2.268   3.180 -0.0153 -0.1250 -0.3243
 3427SOL    HW221915   3.423   2.191   3.059  0.8981 -0.0336  1.5020
 3428SOL     OW21916   4.682   2.813  16.231  0.4201 -0.0211  0.5491
 3428SOL    HW121917   4.737   2.736  16.247 -0.8564 -1.5070 -2.3131
 3428SOL    HW221918   4.600   2.766  16.250  0.3642 -0.4485 -0.7527
 3429SOL     OW21919   1.694   0.745   2.631  0.1705 -0.5406 -0.0468
 3429SOL    HW121920   1.641   0.706   2.561 -0.8855 -1.0798  1.0372
 3429SOL    HW221921   1.783   0.755   2.598  0.3518 -0.4457  0.4628
 3430SOL     OW21922   2.421   1.595   2.628  0.8297 -0.3696  0.1994
 3430SOL    HW121923   2.349   1.638   2.583 -0.0786 -2.6832 -0.5484
 3430SOL    HW221924   2.447   1.542   2.552 -0.0861  1.5386 -1.4491
 3431SOL     OW21925   2.265   4.633   7.384 -0.1827  0.3212 -0.2076
 3431SOL    HW121926   2.177   4.620   7.348  0.4188 -2.7609 -0.5333
 3431SOL    HW221927   2.267   4.729   7.389  0.6819  0.2221  1.3853
 3432SOL     OW21928   1.102   0.370   0.276 -0.2990 -0.5443 -0.0516
 3432SOL    HW121929   1.155   0.400   0.351 -1.2182 -1.2658  0.8927
 3432SOL    HW221930   1.031   0.433   0.283  0.4344  0.2991 -0.1612
 3433SOL     OW21931   4.608   3.077   2.901  0.0524  0.1403  0.1044
 3433SOL    HW121932   4.576   3.121   2.822 -2.0757  0.6406  1.2316
 3433SOL    HW221933   4.576   3.138   2.968  1.3918  0.1400  0.7482
 3434SOL     OW21934   3.700   1.701   3.424  0.3611  0.5969 -0.2305
 3434SOL    HW121935   3.755   1.623   3.419  0.0597  0.1926  2.3525
 3434SOL    HW221936   3.722   1.742   3.341 -1.4213  1.5483 -0.2294
 3435SOL     OW21937   0.944   4.051  13.043 -0.2152 -0.0949  0.2777
 3435SOL    HW121938   0.950   4.009  12.958  1.2592  3.3158 -1.3207
 3435SOL    HW221939   0.857   4.089  13.036 -0.2332  0.3265  2.7785
 3436SOL     OW21940   1.770   0.787   4.744 -0.1523 -0.0143  0.0832
 3436SOL    HW121941   1.841   0.742   4.696  0.0745 -0.0236  0.4294
 3436SOL    HW221942   1.808   0.796   4.831  1.6160 -0.2920 -0.6407
 3437SOL     OW21943   3.733   0.761   9.404 -0.1384 -0.0568  0.7797
 3437SOL    HW121944   3.784   0.838   9.431 -1.6735  1.4868 -0.6490
 3437SOL    HW221945   3.797   0.710   9.355  1.3437  2.2833  0.2608
 3438SOL     OW21946   2.193   0.902  10.728  0.3405 -0.5770 -0.1978
 3438SOL    HW121947   2.210   0.822  10.778  4.3880  0.7336  0.4829
 3438SOL    HW221948   2.122   0.871  10.670 -0.2462  2.2073 -0.9748
 3439SOL     OW21949   2.489   4.598   7.575  0.1813  0.1266 -0.7028
 3439SOL    HW121950   2.397   4.571   7.569  0.0123  0.7850 -1.0194
 3439SOL    HW221951   2.476   4.684   7.536 -1.0525  0.5458  0.6536
 3440SOL     OW21952   2.250   1.859   1.330  0.0843 -0.3817  0.3716
 3440SOL    HW121953   2.247   1.878   1.424  0.8690  1.2355  0.0675
 3440SOL    HW221954   2.330   1.903   1.300 -0.0443  0.4868  1.3046
 3441SOL     OW21955   2.720   2.569   8.690 -0.0478  0.2254 -0.0304
 3441SOL    HW121956   2.671   2.635   8.642 -2.4648 -0.4221  1.5523
 3441SOL    HW221957   2.802   2.612   8.714 -0.4618  1.8195 -1.5250
 3442SOL     OW21958   0.103   2.203   5.602  0.0067  0.3581 -0.2329
 3442SOL    HW121959   0.104   2.207   5.507 -1.1089  0.7144 -0.2301
 3442SOL    HW221960   0.195   2.185   5.621  0.2424  2.5215  0.6984
 3443SOL     OW21961   1.812   3.845   3.495  0.0883 -0.1380  0.3949
 3443SOL    HW121962   1.791   3.938   3.501  0.5207  0.1506 -2.7078
 3443SOL    HW221963   1.769   3.828   3.579 -0.4947 -0.7793 -0.0380
 3444SOL     OW21964   4.640   4.395   6.854  0.2468 -0.2398  0.2872
 3444SOL    HW121965   4.673   4.311   6.821 -0.6291 -0.6910  0.5563
 3444SOL    HW221966   4.703   4.416   6.923 -0.5368  1.4919  0.4672
 3445SOL     OW21967   0.947   2.670  17.080  0.4945 -0.1665 -0.1466
 3445SOL    HW121968   0.921   2.736  17.145  2.1344 -0.4292  0.7818
 3445SOL    HW221969   0.922   2.722  17.004  1.6367 -0.2631 -0.5796
 3446SOL     OW21970   0.478   3.053   8.697 -0.0283  0.5091  0.4229
 3446SOL    HW121971   0.543   3.122   8.687  0.3299  0.0069 -0.7583
 3446SOL    HW221972   0.397   3.101   8.680 -1.0489 -1.1722  0.4562
 3447SOL     OW21973   4.265   1.163  12.375 -0.2936 -0.2656 -0.3700
 3447SOL    HW121974   4.287   1.199  12.289 -2.6819  0.0520 -0.8316
 3447SOL    HW221975   4.285   1.239  12.429 -2.1175  0.6945 -1.0555
 3448SOL     OW21976   3.697   2.683  16.795 -0.8035 -0.2777  0.4274
 3448SOL    HW121977   3.712   2.766  16.749 -2.3666 -0.4665 -0.4007
 3448SOL    HW221978   3.706   2.619  16.724  1.7322 -0.2651  0.7402
 3449SOL     OW21979   2.502   3.157  16.560 -0.2060  0.3824 -0.0348
 3449SOL    HW121980   2.479   3.248  16.543  2.2847  1.0642  0.2137
 3449SOL    HW221981   2.584   3.171  16.608  0.2882  0.5127 -0.9211
 3450SOL     OW21982   0.221   0.730  16.824 -0.1460  0.0175 -0.5608
 3450SOL    HW121983   0.314   0.714  16.805 -0.7972 -0.6924 -3.1449
 3450SOL    HW221984   0.222   0.729  16.920  2.7684  1.6189 -0.5778
 3451SOL     OW21985   0.227   1.601   8.466 -0.1943 -0.4822 -0.2744
 3451SOL    HW121986   0.314   1.565   8.449 -1.0680 -1.0536 -3.6301
 3451SOL    HW221987   0.195   1.562   8.548  1.2568  0.4138  0.6929
 3452SOL     OW21988   2.590   4.142   6.461 -0.0870 -0.4175  0.2669
 3452SOL    HW121989   2.580   4.230   6.498 -0.7135 -0.2622 -0.2789
 3452SOL    HW221990   2.627   4.165   6.376 -0.0413  2.4644  1.0746
 3453SOL     OW21991   4.684   1.641   7.602  0.4818 -0.0730  0.5129
 3453SOL    HW121992   0.024   1.691   7.621  0.8226  0.0558 -1.2764
 3453SOL    HW221993   4.726   1.571   7.551 -0.9613  0.3958 -1.2936
 3454SOL     OW21994   0.445   3.810   3.633  0.5312  0.1673 -0.0756
 3454SOL    HW121995   0.386   3.803   3.707 -0.3926  0.1232 -0.8163
 3454SOL    HW221996   0.397   3.754   3.572 -0.4642  2.2728 -1.1786
 3455SOL     OW21997   0.934   2.119   3.166  0.4326 -0.0478  0.4536
 3455SOL    HW121998   1.020   2.091   3.135  0.6484  1.5621 -0.4099
 3455SOL    HW221999   0.952   2.118   3.260 -0.3994  3.2763  0.6327
 3456SOL     OW22000   1.100   0.588   3.931 -0.9665 -0.1237  0.1379
 3456SOL    HW122001   1.010   0.620   3.932 -1.4266 -1.5376  2.0641
 3456SOL    HW222002   1.136   0.605   3.844 -0.8800 -0.4060  0.1186
 3457SOL     OW22003   1.427   2.423   9.523 -0.2104 -0.3883  0.3603
 3457SOL    HW122004   1.446   2.486   9.593 -0.7077 -1.4281  1.4249
 3457SOL    HW222005   1.355   2.386   9.574 -0.2406 -0.9228 -0.0763
 3458SOL     OW22006   1.110   2.362   6.201 -0.1243  0.0048  0.2784
 3458SOL    HW122007   1.193   2.400   6.229  0.3869 -1.1227  0.3160
 3458SOL    HW222008   1.119   2.348   6.106  0.7989 -0.5740  0.4477
 3459SOL     OW22009   0.512   1.131  11.618  0.1581 -0.0960  0.4991
 3459SOL    HW122010   0.490   1.216  11.580  0.2434  0.2630  1.2558
 3459SOL    HW222011   0.607   1.139  11.626  0.3463 -1.4001 -0.4777
 3460SOL     OW22012   1.853   3.216   9.788  0.3528  0.3458 -0.8897
 3460SOL    HW122013   1.873   3.250   9.875 -1.8406 -2.2132  0.6348
 3460SOL    HW222014   1.802   3.135   9.800  0.4574  0.3111 -0.6838
 3461SOL     OW22015   1.123   4.627  10.711  0.3029  0.1332 -0.1545
 3461SOL    HW122016   1.130   4.708  10.661 -0.7358  1.6369  2.1452
 3461SOL    HW222017   1.043   4.584  10.680 -0.6241  1.7571 -0.0144
 3462SOL     OW22018   3.764   1.455   0.582 -0.8247  0.8583  0.1821
 3462SOL    HW122019   3.821   1.458   0.659  1.1412 -1.1474 -1.1858
 3462SOL    HW222020   3.807   1.533   0.546  0.9102 -0.0905  0.1799
 3463SOL     OW22021   2.628   2.078   4.101  0.9344 -0.0135 -0.4516
 3463SOL    HW122022   2.622   2.162   4.057  0.7999  0.8431  1.1790
 3463SOL    HW222023   2.548   2.035   4.073  1.6888 -1.8254  0.1424
 3464SOL     OW22024   1.935   2.057   2.322  0.1810 -0.6308  0.2042
 3464SOL    HW122025   1.921   2.033   2.413  0.2915 -0.3250  0.2998
 3464SOL    HW222026   1.857   2.108   2.301 -0.2058 -1.2278  0.1855
 3465SOL     OW22027   3.017   4.582   6.926  0.0380  0.1288  0.2296
 3465SOL    HW122028   3.109   4.564   6.944 -0.5765 -3.5073 -0.2484
 3465SOL    HW222029   3.032   4.663   6.877  0.5385 -0.1101 -0.0015
 3466SOL     OW22030   4.260   0.653   7.947 -0.0969 -0.0595  0.4227
 3466SOL    HW122031   4.316   0.576   7.932  1.4905  1.4864 -1.6843
 3466SOL    HW222032   4.287   0.681   8.034 -2.1507 -1.5776  1.5283
 3467SOL     OW22033   2.249   3.303   4.486 -0.0188  0.1192  0.5467
 3467SOL    HW122034   2.220   3.392   4.471  1.5045  0.1338 -2.1713
 3467SOL    HW222035   2.172   3.248   4.470 -0.4436 -0.0812  3.1556
 3468SOL     OW22036   2.267   2.007   0.291 -0.3429  0.3920  0.1485
 3468SOL    HW122037   2.209   2.016   0.216 -1.6323 -0.3697  1.0647
 3468SOL    HW222038   2.310   1.929   0.255 -0.8494  0.7121 -1.1216
 3469SOL     OW22039   0.806   3.592   3.691  0.1604 -0.4101  0.0210
 3469SOL    HW122040   0.737   3.582   3.625 -0.1990 -0.0802  0.3431
 3469SOL    HW222041   0.772   3.676   3.720  3.0158  0.7095  0.0844
 3470SOL     OW22042   0.036   3.809  11.626  0.1648  0.0453 -0.3318
 3470SOL    HW122043   4.736   3.722  11.613  0.0464  0.3513 -1.9689
 3470SOL    HW222044   0.114   3.780  11.674  0.8069  2.2669 -0.0576
 3471SOL     OW22045   3.222   2.947   6.824 -0.5202  0.3953 -0.1667
 3471SOL    HW122046   3.168   3.012   6.779  0.7750 -0.8743 -3.5101
 3471SOL    HW222047   3.226   2.881   6.756  1.8370  1.7833 -1.3556
 3472SOL     OW22048   0.915   0.037   6.273  0.4581  0.2729  0.1440
 3472SOL    HW122049   0.936   0.095   6.200 -0.1057 -0.3423 -0.4951
 3472SOL    HW222050   0.826   0.064   6.294 -0.1948 -1.8537  0.0564
 3473SOL     OW22051   2.927   2.219   4.717  0.3386  0.7000 -0.7626
 3473SOL    HW122052   3.015   2.230   4.681  0.1872  1.0005 -1.0397
 3473SOL    HW222053   2.885   2.260   4.641 -0.7850 -1.0104 -1.0441
 3474SOL     OW22054   0.767   0.710   5.267  0.5100  0.1109  0.2593
 3474SOL    HW122055   0.695   0.671   5.315 -0.0159  1.4725  0.5718
 3474SOL    HW222056   0.784   0.645   5.198 -1.1304 -0.1705  0.1187
 3475SOL     OW22057   1.224   0.809  12.255 -0.3771 -0.2173  0.1119
 3475SOL    HW122058   1.285   0.740  12.282 -2.2519 -2.7886 -2.2341
 3475SOL    HW222059   1.282   0.856  12.196  0.0982  0.4991  1.1366
 3476SOL     OW22060   2.026   1.240  15.546 -0.0037  0.1492 -0.3137
 3476SOL    HW122061   1.979   1.166  15.507  0.6356 -1.3160  1.6554
 3476SOL    HW222062   1.961   1.281  15.603 -0.4399 -0.1371 -0.6068
 3477SOL     OW22063   1.349   2.998   3.860  0.0823 -0.0828  0.5343
 3477SOL    HW122064   1.264   2.982   3.820 -0.1195 -0.8037  1.2409
 3477SOL    HW222065   1.330   3.011   3.953 -1.0734  5.2112 -0.4317
 3478SOL     OW22066   1.958   4.110   5.764 -0.1450 -0.3026 -0.6579
 3478SOL    HW122067   2.044   4.151   5.764 -1.2981  2.0950  1.5507
 3478SOL    HW222068   1.898   4.167   5.717  0.5116  0.5929 -0.4103
 3479SOL     OW22069   0.464   4.090   6.827  0.7869  1.0327  0.2438
 3479SOL    HW122070   0.443   4.110   6.918 -0.2869 -1.8998  0.6163
 3479SOL    HW222071   0.495   4.000   6.833 -0.3253  0.7821  2.1523
 3480SOL     OW22072   4.196   4.115   4.978  0.1330 -0.5715 -0.2478
 3480SOL    HW122073   4.226   4.177   5.045 -1.3316  0.9806 -1.0558
 3480SOL    HW222074   4.230   4.161   4.902  1.5761 -1.1233  0.0615
 3481SOL     OW22075   4.145   3.281   2.161  0.4037  0.9514  0.1594
 3481SOL    HW122076   4.105   3.305   2.078 -0.5003  2.3577  1.0013
 3481SOL    HW222077   4.146   3.366   2.207 -2.9943  0.2403  1.5003
 3482SOL     OW22078   3.471   0.174   2.501  0.5402  0.9329 -0.1240
 3482SOL    HW122079   3.500   0.214   2.583 -1.0505  0.6584  0.5709
 3482SOL    HW222080   3.443   0.258   2.465 -0.8700  1.3509  1.9575
 3483SOL     OW22081   1.492   0.340   6.049 -0.2363  0.1482  0.6800
 3483SOL    HW122082   1.424   0.283   6.086 -0.4521 -2.3845 -3.6386
 3483SOL    HW222083   1.465   0.423   6.089  0.0531  2.0187 -3.0435
 3484SOL     OW22084   2.708   4.228   9.817 -0.0684  0.5917 -0.0398
 3484SOL    HW122085   2.752   4.274   9.888  1.8466  1.0417 -1.5213
 3484SOL    HW222086   2.636   4.176   9.853  0.7901  0.7104  1.8183
 3485SOL     OW22087   3.725   4.330   4.621 -0.1112 -0.1682 -0.5201
 3485SOL    HW122088   3.678   4.323   4.537 -0.5765  0.5441 -0.3232
 3485SOL    HW222089   3.811   4.369   4.605  0.2787 -1.9667 -2.8716
 3486SOL     OW22090   4.735   1.847   5.286 -0.0106 -0.2631  0.0819
 3486SOL    HW122091   0.010   1.861   5.380  1.5060 -0.6765 -0.0933
 3486SOL    HW222092   4.685   1.765   5.292  0.9863 -0.7215  2.2077
 3487SOL     OW22093   2.023   4.610   7.260  0.1144 -0.0716  0.0073
 3487SOL    HW122094   2.027   4.577   7.171  2.2690  3.3755 -1.1455
 3487SOL    HW222095   1.945   4.567   7.297 -0.1471  0.0190 -0.4455
 3488SOL     OW22096   2.365   3.390  15.787 -0.1069  0.0306  0.2620
 3488SOL    HW122097   2.304   3.449  15.743 -0.2657  0.5829  1.2264
 3488SOL    HW222098   2.316   3.370  15.866 -1.2068  0.8894 -0.1943
 3489SOL     OW22099   2.763   3.181  14.899 -0.3252 -0.0025 -0.0729
 3489SOL    HW122100   2.783   3.170  14.805 -0.5673  1.1064 -0.2548
 3489SOL    HW222101   2.817   3.104  14.919 -3.3526 -2.0992 -0.1155
 3490SOL     OW22102   3.336   3.237  11.094  0.2373 -0.3912  0.0924
 3490SOL    HW122103   3.400   3.308  11.094  1.5431 -1.5725  0.7521
 3490SOL    HW222104   3.282   3.264  11.019 -0.1200 -0.1262  0.4415
 3491SOL     OW22105   0.173   4.441  13.404 -0.0944 -0.2909  0.6636
 3491SOL    HW122106   0.112   4.377  13.368 -2.1674  1.1981  1.5820
 3491SOL    HW222107   0.140   4.525  13.374  1.4465  0.3312  0.6942
 3492SOL     OW22108   2.866   4.711   7.146  0.0704  0.0595 -0.2865
 3492SOL    HW122109   2.938   4.688   7.087 -0.8253 -0.6704 -1.1074
 3492SOL    HW222110   2.873   4.641   7.210  1.3796  0.5698  0.1197
 3493SOL     OW22111   1.921   2.858   8.012  0.4196  0.1225  0.0759
 3493SOL    HW122112   2.015   2.838   8.005  0.4464  0.1261  0.4466
 3493SOL    HW222113   1.914   2.940   8.062  1.8354 -0.1167  0.6710
 3494SOL     OW22114   1.966   3.080  10.191  0.8441 -0.5951 -0.9301
 3494SOL    HW122115   1.952   3.152  10.129 -1.4723  1.1777  1.6464
 3494SOL    HW222116   2.050   3.047  10.159  1.0941  0.6866 -1.6326
 3495SOL     OW22117   4.540   0.172   3.310  0.0938 -0.2584  0.7894
 3495SOL    HW122118   4.579   0.219   3.236 -1.0292  1.1461  1.0788
 3495SOL    HW222119   4.618   0.153   3.361 -1.2973 -0.0577  2.9596
 3496SOL     OW22120   3.324   1.748   6.352 -0.0059 -0.1118  0.0926
 3496SOL    HW122121   3.333   1.727   6.445 -0.8323 -2.7693 -0.4285
 3496SOL    HW222122   3.305   1.840   6.371 -0.0238 -0.5700  2.3850
 3497SOL     OW22123   2.946   0.211   8.788 -0.1102 -0.1989 -0.3963
 3497SOL    HW122124   2.919   0.277   8.724 -0.4231  1.2756  1.2826
 3497SOL    HW222125   2.872   0.213   8.849 -0.4711 -3.0418 -0.7076
 3498SOL     OW22126   3.424   3.023   1.131  0.2189 -0.0451  0.2859
 3498SOL    HW122127   3.473   2.941   1.133  2.0900  1.0078 -1.8333
 3498SOL    HW222128   3.429   3.042   1.037  0.7054  2.1351  0.7457
 3499SOL     OW22129   3.519   4.675   8.543 -1.2657  0.2433 -0.2596
 3499SOL    HW122130   3.590   4.733   8.514  1.1365 -0.7440  3.6293
 3499SOL    HW222131   3.507   4.721   8.626  0.2076  1.7362 -0.8709
 3500SOL     OW22132   2.999   2.919   2.330 -0.1135 -0.1607  0.2917
 3500SOL    HW122133   2.957   2.843   2.288  0.0673 -0.2287  0.2358
 3500SOL    HW222134   3.041   2.955   2.253 -1.0970  0.5837  0.1117
 3501SOL     OW22135   1.728   2.789   1.938 -0.2200  0.5970 -0.2677
 3501SOL    HW122136   1.636   2.811   1.925 -0.4908 -0.6066 -0.4203
 3501SOL    HW222137   1.758   2.781   1.847  0.8187 -0.6087  0.1817
 3502SOL     OW22138   2.422   3.429   6.321 -0.0288  0.4441  0.2367
 3502SOL    HW122139   2.471   3.492   6.372  0.6539 -1.2688  1.6905
 3502SOL    HW222140   2.475   3.419   6.242 -0.9162 -0.7319 -0.2095
 3503SOL     OW22141   4.566   3.393   7.387 -0.8722 -0.8361  0.5169
 3503SOL    HW122142   4.471   3.381   7.383 -0.9178  0.0458 -0.8626
 3503SOL    HW222143   4.593   3.418   7.299 -0.0295 -0.3743  0.9130
 3504SOL     OW22144   3.011   4.022   0.056 -0.1244 -0.4560 -0.5739
 3504SOL    HW122145   3.068   4.095   0.035 -0.9523  0.9732  2.2113
 3504SOL    HW222146   2.997   4.057   0.144  1.0243  1.7362 -1.2832
 3505SOL     OW22147   3.515   3.390   9.122 -0.2038 -0.8748  0.2812
 3505SOL    HW122148   3.492   3.482   9.108 -0.9298 -1.3016 -1.3180
 3505SOL    HW222149   3.503   3.367   9.214 -0.8428  0.0343  0.4241
 3506SOL     OW22150   2.049   1.590   4.913 -0.7508 -0.2866 -0.0516
 3506SOL    HW122151   2.098   1.509   4.924  0.3168  0.3673  0.0175
 3506SOL    HW222152   2.006   1.601   4.997 -1.5396  2.0062 -0.7488
 3507SOL     OW22153   3.459   2.658  12.062 -0.0893 -0.2549  0.1396
 3507SOL    HW122154   3.365   2.669  12.076 -0.0193  1.3896 -0.7155
 3507SOL    HW222155   3.462   2.641  11.968 -0.2999 -0.3607  0.1510
 3508SOL     OW22156   3.429   3.841   5.305 -0.8983 -0.6109 -0.2051
 3508SOL    HW122157   3.432   3.760   5.254  0.4157 -0.6888  0.0005
 3508SOL    HW222158   3.505   3.884   5.266 -0.9141  1.5722  2.1788
 3509SOL     OW22159   2.947   4.056   8.563  0.0567 -0.4183 -0.4025
 3509SOL    HW122160   3.042   4.070   8.569 -0.0499  0.6346 -1.1804
 3509SOL    HW222161   2.941   4.010   8.647 -0.8240 -0.5023 -0.5180
 3510SOL     OW22162   3.001   4.342  12.441 -0.2787  0.3243 -0.1980
 3510SOL    HW122163   2.969   4.407  12.379 -1.2652 -0.2074 -0.2460
 3510SOL    HW222164   2.964   4.262  12.403  2.8830 -0.3330 -1.8915
 3511SOL     OW22165   0.993   2.367   2.875 -0.1591 -0.4348  0.4051
 3511SOL    HW122166   0.962   2.432   2.811  1.4572  0.9390  1.0185
 3511SOL    HW222167   1.082   2.396   2.895  0.1720 -0.8113 -0.4992
 3512SOL     OW22168   3.162   2.038   9.922  0.5672 -0.2149 -0.2883
 3512SOL    HW122169   3.175   1.994   9.839  3.2557 -1.3521  0.7327
 3512SOL    HW222170   3.117   1.976   9.978 -0.4053  0.2303 -0.5859
 3513SOL     OW22171   1.961   2.589  12.243 -0.2294  0.3180 -0.5435
 3513SOL    HW122172   2.044   2.596  12.196  0.8092 -0.0778  1.2541
 3513SOL    HW222173   1.951   2.496  12.265  1.1546  0.6535  1.4650
 3514SOL     OW22174   4.142   2.473   6.988  0.5653  0.0316  0.5458
 3514SOL    HW122175   4.131   2.544   6.924  0.1074 -0.5597 -0.0306
 3514SOL    HW222176   4.163   2.397   6.933 -1.8142  0.3794 -0.8472
 3515SOL     OW22177   2.337   3.932   3.600  0.9452 -0.0951 -0.0201
 3515SOL    HW122178   2.303   4.005   3.653  1.8564  1.6857 -1.8632
 3515SOL    HW222179   2.266   3.923   3.537  0.7043 -0.2148  0.2669
 3516SOL     OW22180   3.693   0.832   8.542 -0.2199 -0.4714 -0.5316
 3516SOL    HW122181   3.674   0.839   8.636  1.5656  0.8037 -0.2507
 3516SOL    HW222182   3.605   0.847   8.506 -0.2361 -2.8242 -1.4687
 3517SOL     OW22183   2.138   0.186   2.625 -0.4392  0.8022 -0.0327
 3517SOL    HW122184   2.170   0.199   2.536  1.1025  3.6599  0.9360
 3517SOL    HW222185   2.096   0.101   2.615  2.7616 -0.7593 -0.4049
 3518SOL     OW22186   1.916   4.426   4.809 -0.1434 -0.3236  0.3072
 3518SOL    HW122187   2.003   4.435   4.770 -0.3894 -1.4562 -0.5003
 3518SOL    HW222188   1.914   4.517   4.840 -0.2958 -0.7693  1.6188
 3519SOL     OW22189   0.551   0.594   3.588  0.1492  0.6876  0.5510
 3519SOL    HW122190   0.524   0.580   3.497 -0.8787 -1.8884  1.2601
 3519SOL    HW222191   0.594   0.679   3.591 -0.2086  0.8567  0.9679
 3520SOL     OW22192   2.819   0.703   6.371  0.1801 -0.1689  0.6769
 3520SOL    HW122193   2.772   0.779   6.336 -0.1476 -0.2801  0.8847
 3520SOL    HW222194   2.909   0.723   6.345 -0.6556  2.0687 -0.4595
 3521SOL     OW22195   2.104   1.147  17.047  0.2737 -0.2638 -0.2769
 3521SOL    HW122196   2.046   1.095  17.103  1.1196  0.1381  0.9777
 3521SOL    HW222197   2.118   1.089  16.972  1.3786 -0.5598  0.1559
 3522SOL     OW22198   4.325   3.864   2.082 -0.9571 -0.6339  0.3908
 3522SOL    HW122199   4.258   3.808   2.121 -1.7622  0.1360  0.1095
 3522SOL    HW222200   4.266   3.922   2.034  0.2347  1.4396  1.4341
 3523SOL     OW22201   3.899   3.299  16.344  0.4906 -0.0336  0.3621
 3523SOL    HW122202   3.968   3.270  16.283 -0.6390  0.1138 -0.9720
 3523SOL    HW222203   3.847   3.353  16.285  1.5174  1.4020  0.7529
 3524SOL     OW22204   2.453   2.429  17.543 -0.1080  0.4148 -0.2997
 3524SOL    HW122205   2.533   2.470  17.510 -0.6958  2.5664  0.9375
 3524SOL    HW222206   2.387   2.497  17.530  4.0985  4.1730 -1.7416
 3525SOL     OW22207   0.505   1.985  13.716  0.2105 -0.1113 -0.2182
 3525SOL    HW122208   0.538   1.923  13.650 -0.5849  0.3883 -1.0775
 3525SOL    HW222209   0.455   2.052  13.670  1.9972  2.1113  1.1048
 3526SOL     OW22210   0.394   0.226   5.666 -0.3817 -0.1217 -0.0468
 3526SOL    HW122211   0.401   0.246   5.759  0.4908 -1.0496  0.0767
 3526SOL    HW222212   0.310   0.179   5.668  0.2541 -1.1618  2.5566
 3527SOL     OW22213   4.618   3.029   4.115 -0.0075  0.2407  0.4500
 3527SOL    HW122214   4.557   3.091   4.074  0.5429  1.3324  1.2658
 3527SOL    HW222215   4.559   2.982   4.174  1.4392 -1.9311  0.1450
 3528SOL     OW22216   1.740   0.806   6.353  0.3615 -0.1085  0.0709
 3528SOL    HW122217   1.834   0.787   6.347  0.1574 -1.2203  0.4398
 3528SOL    HW222218   1.739   0.860   6.432 -1.0270 -1.1345  0.7567
 3529SOL     OW22219   0.683   3.181   6.531 -0.5117  0.3020  0.5947
 3529SOL    HW122220   0.648   3.262   6.493 -0.2466 -0.7576 -1.9325
 3529SOL    HW222221   0.703   3.118   6.462  0.0663  1.4967 -0.3363
 3530SOL     OW22222   1.930   2.451   2.496  0.3873  0.6440  0.3031
 3530SOL    HW122223   1.944   2.410   2.581 -1.5981  0.6973  0.6478
 3530SOL    HW222224   1.835   2.462   2.505  0.6335  2.7968  0.3569
 3531SOL     OW22225   3.368   2.499  11.403 -0.0027 -0.3979 -0.4618
 3531SOL    HW122226   3.450   2.537  11.436 -1.7459  3.1131 -0.1957
 3531SOL    HW222227   3.400   2.423  11.354  0.7214 -0.7532  0.5589
 3532SOL     OW22228   1.051   3.419  11.288  0.8162 -0.2894 -0.6429
 3532SOL    HW122229   1.059   3.353  11.219  2.6928  0.0251 -0.7086
 3532SOL    HW222230   1.140   3.452  11.278 -0.3412  1.7457 -4.0713
 3533SOL     OW22231   2.046   2.464  11.880 -0.4303  0.0457 -0.3393
 3533SOL    HW122232   2.004   2.463  11.794  0.7122 -1.0509 -0.8809
 3533SOL    HW222233   1.977   2.460  11.946 -1.4781  0.9202 -1.3820
 3534SOL     OW22234   2.977   0.970  11.420 -0.7280 -0.2444 -0.5989
 3534SOL    HW122235   3.053   1.004  11.468 -1.0205  0.6311 -0.7549
 3534SOL    HW222236   3.024   0.956  11.338  1.9414 -2.8808  1.3975
 3535SOL     OW22237   4.429   3.176   5.043 -0.2353 -0.8200  0.6970
 3535SOL    HW122238   4.500   3.227   5.082 -0.2031 -0.6286  0.3847
 3535SOL    HW222239   4.382   3.250   5.005 -2.5213 -3.0791 -0.9454
 3536SOL     OW22240   3.369   1.270  10.650  0.5193  0.1398  0.4747
 3536SOL    HW122241   3.303   1.226  10.595  2.2153  0.3847 -1.7570
 3536SOL    HW222242   3.347   1.362  10.634 -2.5758 -0.7319 -0.2626
 3537SOL     OW22243   1.105   3.862   3.721  0.5064 -0.2283 -0.1533
 3537SOL    HW122244   1.106   3.912   3.639 -1.7902  0.5857  0.3264
 3537SOL    HW222245   1.134   3.927   3.785  1.8904 -0.4841 -0.5236
 3538SOL     OW22246   0.736   1.955  13.415  0.2029 -0.2749  0.6455
 3538SOL    HW122247   0.798   1.883  13.401 -0.3167 -0.6344  0.2358
 3538SOL    HW222248   0.660   1.901  13.436  0.0961  0.4683  2.2308
 3539SOL     OW22249   0.523   1.109   6.944 -0.2237  0.1920  0.6222
 3539SOL    HW122250   0.471   1.188   6.962 -2.7508 -1.7503  1.9343
 3539SOL    HW222251   0.558   1.097   7.033  1.7905  1.4598  0.0007
 3540SOL     OW22252   0.584   4.045  11.426 -0.5555  0.1303 -0.3555
 3540SOL    HW122253   0.602   3.951  11.429 -1.5734  0.0613  2.8788
 3540SOL    HW222254   0.659   4.076  11.476  0.0590 -0.3244 -0.9860
 3541SOL     OW22255   1.366   4.181   6.568 -0.1041  0.2947  0.4435
 3541SOL    HW122256   1.336   4.139   6.488  0.6688 -1.4034  1.0411
 3541SOL    HW222257   1.293   4.158   6.625 -0.7905  0.2207 -0.4796
 3542SOL     OW22258   3.847   3.091   4.492 -0.4924  0.1538  0.1023
 3542SOL    HW122259   3.833   3.088   4.586 -0.6989  0.6843  0.0901
 3542SOL    HW222260   3.778   3.150   4.461  4.0751  4.3112 -2.1403
 3543SOL     OW22261   0.856   3.981   3.525 -0.7706 -0.2424 -0.4914
 3543SOL    HW122262   0.876   3.910   3.465  0.2878  0.0221 -0.4491
 3543SOL    HW222263   0.818   3.933   3.599 -2.7321 -0.9483 -1.9806
 3544SOL     OW22264   2.534   1.584   9.540  0.2862  0.3575 -0.3753
 3544SOL    HW122265   2.542   1.504   9.488  0.4555 -0.2713  0.6229
 3544SOL    HW222266   2.463   1.627   9.493  0.0236  1.1354  0.7125
 3545SOL     OW22267   0.696   0.485   2.684 -0.4440 -0.0184  0.1190
 3545SOL    HW122268   0.674   0.395   2.709 -0.0159 -0.4200 -0.9660
 3545SOL    HW222269   0.637   0.501   2.611  1.5480  2.2448 -0.9862
 3546SOL     OW22270   4.188   4.536  15.782 -0.8469  0.4069 -0.0264
 3546SOL    HW122271   4.249   4.577  15.721  0.5811 -0.5430  0.7679
 3546SOL    HW222272   4.208   4.443  15.785 -0.9510  0.3674 -0.6078
 3547SOL     OW22273   2.425   3.920  11.660 -0.1311 -0.0308 -0.1444
 3547SOL    HW122274   2.497   3.923  11.723  2.8939 -0.9065 -3.5925
 3547SOL    HW222275   2.415   4.013  11.637 -0.3209  0.5821  2.4081
 3548SOL     OW22276   2.213   1.472   4.170  0.7642  0.7420 -0.1925
 3548SOL    HW122277   2.181   1.537   4.108  0.3888 -0.0509 -0.8327
 3548SOL    HW222278   2.133   1.419   4.179  0.6268  1.0255  0.2634
 3549SOL     OW22279   0.954   4.598   9.563  0.4824  0.1974 -0.0379
 3549SOL    HW122280   0.890   4.596   9.492 -1.5955 -1.5635  1.8444
 3549SOL    HW222281   1.008   4.664   9.521  2.5554 -0.2346  1.9250
 3550SOL     OW22282   0.829   3.100   3.290  0.0953 -0.1514  0.1883
 3550SOL    HW122283   0.891   3.166   3.320 -2.2853  1.9234  0.5255
 3550SOL    HW222284   0.874   3.021   3.319  2.5434  1.7882  1.6712
 3551SOL     OW22285   4.287   1.448   7.438  0.1582 -0.1631  0.2055
 3551SOL    HW122286   4.221   1.381   7.459 -0.4474  1.1007  2.3385
 3551SOL    HW222287   4.367   1.396   7.441 -0.0080 -0.4548 -0.3053
 3552SOL     OW22288   3.945   2.238   8.184  0.0757 -0.2743  0.5027
 3552SOL    HW122289   4.036   2.249   8.210  0.5503 -0.2288 -1.2004
 3552SOL    HW222290   3.897   2.300   8.240  1.2748  2.1258 -1.1237
 3553SOL     OW22291   2.903   0.230  12.963 -0.2628 -0.1007  0.6143
 3553SOL    HW122292   2.981   0.194  12.921 -0.1707 -0.1351  0.8153
 3553SOL    HW222293   2.932   0.322  12.966 -0.9953  0.1036  1.4149
 3554SOL     OW22294   1.315   1.437   3.200 -0.2487  0.2372  0.3598
 3554SOL    HW122295   1.292   1.349   3.229  1.5559 -0.9072 -1.6846
 3554SOL    HW222296   1.252   1.446   3.129  0.0663  0.5883  0.1269
 3555SOL     OW22297   0.218   3.700   7.407 -0.3224  0.4602  0.8950
 3555SOL    HW122298   0.209   3.731   7.317 -2.8274  0.6380  1.1939
 3555SOL    HW222299   0.130   3.672   7.434  0.1605 -1.3294  0.5874
 3556SOL     OW22300   0.115   4.447   7.037 -0.0227  0.3248 -0.2796
 3556SOL    HW122301   0.179   4.433   7.107  0.3832 -2.4587 -1.1685
 3556SOL    HW222302   0.141   4.537   7.020 -0.5204  0.1739 -1.8406
 3557SOL     OW22303   0.251   4.287   9.134  0.4623 -0.2029 -0.1006
 3557SOL    HW122304   0.305   4.323   9.063  0.4057 -0.6101 -0.3470
 3557SOL    HW222305   0.313   4.310   9.204  0.6095  0.6318 -0.5032
 3558SOL     OW22306   1.204   3.885   1.988  0.4056 -0.4392  0.3960
 3558SOL    HW122307   1.249   3.833   2.055 -1.2501 -2.6177 -0.1727
 3558SOL    HW222308   1.273   3.934   1.943  0.1093 -0.4859 -0.1100
 3559SOL     OW22309   0.548   1.261   4.926  0.7910  0.3484  0.1477
 3559SOL    HW122310   0.558   1.353   4.903 -1.1644  0.1719 -1.3896
 3559SOL    HW222311   0.559   1.218   4.842 -0.8533  0.1046  0.0471
 3560SOL     OW22312   3.110   0.471   1.860  0.1914 -0.1005 -0.2239
 3560SOL    HW122313   3.061   0.430   1.931 -0.3565 -0.1064 -0.6107
 3560SOL    HW222314   3.088   0.409   1.790 -0.0857  0.5243 -0.6874
 3561SOL     OW22315   2.324   0.713   7.927 -0.0993 -0.0493  0.5227
 3561SOL    HW122316   2.332   0.763   7.846 -0.6205 -0.5751  0.1490
 3561SOL    HW222317   2.377   0.637   7.904  0.1640  0.7636 -1.5994
 3562SOL     OW22318   4.013   1.709   8.587  0.4060 -0.2790  0.1523
 3562SOL    HW122319   3.979   1.795   8.613  1.7945  0.5237 -0.7456
 3562SOL    HW222320   4.081   1.687   8.650  0.8154 -2.2136 -0.9336
 3563SOL     OW22321   1.488   0.722   6.335 -0.5780 -0.1451 -0.5381
 3563SOL    HW122322   1.509   0.718   6.429  1.2012  0.5153 -0.9163
 3563SOL    HW222323   1.571   0.766   6.319 -0.7948  1.3645  2.4237
 3564SOL     OW22324   2.849   0.975   8.502  0.0778  1.0451 -0.3342
 3564SOL    HW122325   2.833   1.044   8.566 -0.4347  0.1228  0.5333
 3564SOL    HW222326   2.809   1.003   8.419  0.1683  1.5119 -0.2196
 3565SOL     OW22327   1.985   3.292   8.077  0.3059  0.5788 -0.4533
 3565SOL    HW122328   2.069   3.272   8.036  0.3743  0.6499 -0.3486
 3565SOL    HW222329   1.970   3.386   8.070 -1.3250  0.4545  1.3509
 3566SOL     OW22330   0.720   2.307   4.778  0.7751 -0.7607  0.9536
 3566SOL    HW122331   0.788   2.279   4.718 -1.6857 -4.2044 -0.2479
 3566SOL    HW222332   0.769   2.377   4.821  0.8318  0.1704 -0.6305
 3567SOL     OW22333   3.719   2.326   4.768  0.2589 -0.1344 -0.3312
 3567SOL    HW122334   3.702   2.402   4.823  0.8197 -0.1244 -0.1717
 3567SOL    HW222335   3.629   2.293   4.770 -0.1041  0.8208 -0.6866
 3568SOL     OW22336   2.529   4.554   8.149  0.0352 -0.7694 -0.0373
 3568SOL    HW122337   2.468   4.600   8.090 -0.1796 -1.0712 -0.0500
 3568SOL    HW222338   2.523   4.467   8.110 -0.0408 -0.5432 -0.5351
 3569SOL     OW22339   3.806   3.439   8.550  0.2794 -0.3538  0.5396
 3569SOL    HW122340   3.898   3.459   8.568  0.3822  0.0295 -0.4346
 3569SOL    HW222341   3.811   3.350   8.515  2.4646  0.5038 -1.3122
 3570SOL     OW22342   4.216   3.293   5.469 -0.0796 -0.8826 -0.0025
 3570SOL    HW122343   4.191   3.377   5.431  1.6350  0.1422  1.1559
 3570SOL    HW222344   4.267   3.318   5.546 -0.5674 -0.1427  0.0831
 3571SOL     OW22345   3.823   3.260   9.269  0.1383  0.3523  0.5403
 3571SOL    HW122346   3.775   3.230   9.192 -0.3946 -0.5334  1.2092
 3571SOL    HW222347   3.756   3.273   9.337  0.6203 -0.1100  1.1006
 3572SOL     OW22348   4.162   4.641   7.633  0.3426  0.0053 -0.3501
 3572SOL    HW122349   4.130   4.560   7.595  2.3034 -1.8277  1.9087
 3572SOL    HW222350   4.080   4.672   7.670 -0.2790  1.7129 -3.1959
 3573SOL     OW22351   0.633   4.223   3.685  0.6261  0.0790  0.7911
 3573SOL    HW122352   0.538   4.208   3.689  0.5248  0.6871  0.7006
 3573SOL    HW222353   0.667   4.226   3.774  2.0907  1.9427  0.1611
 3574SOL     OW22354   3.755   1.990   4.927 -0.3484 -0.1999 -0.0264
 3574SOL    HW122355   3.666   2.024   4.917  0.4888  2.3164  1.1455
 3574SOL    HW222356   3.792   2.061   4.980 -2.3731 -0.6911  2.0404
 3575SOL     OW22357   4.416   3.274  16.011  0.4340  0.4684 -0.1429
 3575SOL    HW122358   4.366   3.282  15.930  0.6008 -1.3503 -0.4195
 3575SOL    HW222359   4.429   3.365  16.038  1.0763  0.0422  0.9482
 3576SOL     OW22360   2.200   2.749   3.254 -0.5598  0.0459  0.2919
 3576SOL    HW122361   2.243   2.718   3.175 -0.4476 -2.2313  1.2472
 3576SOL    HW222362   2.106   2.732   3.242 -1.0556  1.1236  2.5210
 3577SOL     OW22363   4.162   1.016   6.768  0.0675 -0.5399  0.4204
 3577SOL    HW122364   4.180   0.936   6.718  0.9837 -0.3943  0.5093
 3577SOL    HW222365   4.092   0.987   6.825 -0.3135 -0.2386  0.1034
 3578SOL     OW22366   4.097   1.407   4.883 -0.3331  0.1721  0.1362
 3578SOL    HW122367   4.172   1.459   4.852  0.8478 -1.3878  0.3930
 3578SOL    HW222368   4.079   1.450   4.966  1.6403  1.9113 -0.3019
 3579SOL     OW22369   2.075   3.895   2.695 -0.0072  0.0496 -0.1624
 3579SOL    HW122370   2.014   3.941   2.753  0.1898  1.4386 -1.0401
 3579SOL    HW222371   2.036   3.808   2.693 -0.1686  0.1614 -2.1401
 3580SOL     OW22372   0.828   0.036   8.006  0.1553 -0.0160  0.1866
 3580SOL    HW122373   0.840   0.021   7.912 -1.5709  0.4537 -0.1127
 3580SOL    HW222374   0.872   4.698   8.042  0.1198 -1.5021 -2.9573
 3581SOL     OW22375   0.005   0.319   5.933 -0.6425 -0.5663 -0.4510
 3581SOL    HW122376   4.680   0.380   5.897 -0.5843 -0.5542 -0.5336
 3581SOL    HW222377   0.048   0.370   6.002  0.3167  1.2612 -2.3736
 3582SOL     OW22378   1.795   2.709  10.689 -0.0906 -0.2728  0.4151
 3582SOL    HW122379   1.803   2.673  10.778 -1.9077  0.7972  1.0094
 3582SOL    HW222380   1.759   2.628  10.653 -0.0326  0.3959 -1.1380
 3583SOL     OW22381   3.715   1.609   6.391 -0.4678  0.2207  0.2583
 3583SOL    HW122382   3.710   1.679   6.325  1.1924 -1.8656 -2.0561
 3583SOL    HW222383   3.635   1.625   6.442 -2.2487  1.2386 -2.8470
 3584SOL     OW22384   0.778   0.549   5.037  0.2903  0.3287  0.4310
 3584SOL    HW122385   0.853   0.489   5.042  2.9124  3.6758  0.8903
 3584SOL    HW222386   0.803   0.622   4.981 -0.7279 -0.5418 -1.1749
 3585SOL     OW22387   2.041   0.009  16.153  0.4168  0.1318  0.7078
 3585SOL    HW122388   2.058   4.665  16.110 -1.4254  0.1723 -0.0922
 3585SOL    HW222389   1.955   0.028  16.115  2.1268  2.7610 -1.8468
 3586SOL     OW22390   0.281   2.742   2.879  0.1758 -0.1608 -0.6275
 3586SOL    HW122391   0.224   2.817   2.893  0.6407  0.4725 -2.0972
 3586SOL    HW222392   0.346   2.784   2.823 -0.7930  1.6144 -0.4309
 3587SOL     OW22393   1.602   1.160   8.032  0.0975  0.2256  0.7460
 3587SOL    HW122394   1.509   1.142   8.041 -0.7117  3.2556 -1.7941
 3587SOL    HW222395   1.595   1.233   7.971  0.4466  0.2425  0.7271
 3588SOL     OW22396   2.099   3.590   1.291  0.0175 -0.9205 -0.1232
 3588SOL    HW122397   2.027   3.572   1.352 -0.7374  0.7133 -0.5356
 3588SOL    HW222398   2.064   3.665   1.242  1.1171 -1.4141 -1.6627
 3589SOL     OW22399   4.063   3.591  12.084  0.2842 -0.4049  0.1699
 3589SOL    HW122400   3.980   3.635  12.068 -1.1416 -2.8449  0.7884
 3589SOL    HW222401   4.083   3.625  12.171  1.6957  1.2676 -0.8200
 3590SOL     OW22402   3.356   2.031  11.832  0.3526  0.0626 -0.4602
 3590SOL    HW122403   3.389   2.120  11.842 -0.7980  0.2603  1.7892
 3590SOL    HW222404   3.350   2.010  11.926  1.3870  3.8189  0.4378
 3591SOL     OW22405   1.833   2.604  16.846  0.0618 -0.2130 -0.2683
 3591SOL    HW122406   1.923   2.576  16.831  0.2540 -0.5409  1.4800
 3591SOL    HW222407   1.812   2.664  16.775  0.1102  0.1672  0.0376
 3592SOL     OW22408   1.991   2.159   1.182  0.0940 -0.0602 -0.4032
 3592SOL    HW122409   1.989   2.243   1.137 -0.5865  1.0983  1.8234
 3592SOL    HW222410   2.023   2.104   1.110 -2.9820 -1.7648 -0.4727
 3593SOL     OW22411   4.497   0.214   7.357  0.2164 -0.1787 -0.7534
 3593SOL    HW122412   4.462   0.125   7.347  1.2952 -0.7369  0.4197
 3593SOL    HW222413   4.590   0.212   7.335  0.4584  0.1848  0.2262
 3594SOL     OW22414   3.902   2.587   9.111  0.4787  0.0077 -0.5756
 3594SOL    HW122415   3.866   2.542   9.034 -2.5843  4.1638 -1.5783
 3594SOL    HW222416   3.968   2.639   9.065 -1.4733  0.8990 -2.3921
 3595SOL     OW22417   1.948   4.015   7.823  0.7944  0.0535 -0.1415
 3595SOL    HW122418   1.935   4.020   7.728 -1.1504  1.1541  0.1925
 3595SOL    HW222419   1.857   4.031   7.847  1.0412  0.9180  0.2422
 3596SOL     OW22420   4.626   4.145  13.663  0.4858  0.3557 -1.1143
 3596SOL    HW122421   4.543   4.125  13.619  1.3035 -1.7153 -1.7154
 3596SOL    HW222422   4.683   4.193  13.603  2.0544  0.1805  0.2452
 3597SOL     OW22423   1.678   4.111   7.821  0.8623  0.1167 -0.0301
 3597SOL    HW122424   1.675   4.131   7.915  1.4356 -0.2344  0.0662
 3597SOL    HW222425   1.610   4.166   7.783  2.3600 -0.1370 -3.0603
 3598SOL     OW22426   2.783   2.613   2.356  0.7842 -0.3335 -0.5294
 3598SOL    HW122427   2.843   2.629   2.430 -0.3413 -3.1078  1.0172
 3598SOL    HW222428   2.708   2.670   2.373  2.0164  1.9036 -2.7221
 3599SOL     OW22429   2.305   2.297   0.429  0.1922  0.2384  0.0358
 3599SOL    HW122430   2.325   2.203   0.427  1.0690  0.4951 -3.6505
 3599SOL    HW222431   2.291   2.315   0.522  1.1927 -2.2935  0.6757
 3600SOL     OW22432   4.529   4.432  15.823 -0.0506 -0.4373  0.2071
 3600SOL    HW122433   4.534   4.354  15.879  0.5800 -0.9848 -0.6198
 3600SOL    HW222434   4.482   4.405  15.744  0.0316 -0.5003  0.1798
 3601SOL     OW22435   2.324   1.340  14.904 -0.0157  0.1945 -0.1495
 3601SOL    HW122436   2.318   1.245  14.905 -1.5554  0.2975  0.3139
 3601SOL    HW222437   2.415   1.359  14.879 -0.2095  0.7168 -0.4610
 3602SOL     OW22438   3.693   3.727   5.481 -0.5347 -0.8803 -0.1343
 3602SOL    HW122439   3.627   3.671   5.522  0.5561 -1.4328  0.8646
 3602SOL    HW222440   3.700   3.705   5.388  2.2295 -2.6461  0.5111
 3603SOL     OW22441   0.787   1.353   1.002 -0.1357  0.4081  0.0383
 3603SOL    HW122442   0.830   1.436   0.980  1.3924  0.1861  2.2130
 3603SOL    HW222443   0.736   1.381   1.078  3.6243  0.8382  2.3994
 3604SOL     OW22444   4.336   0.242   3.871 -0.2653 -0.7862 -0.3808
 3604SOL    HW122445   4.394   0.252   3.947 -0.3728  0.3532 -0.4519
 3604SOL    HW222446   4.407   0.240   3.807 -1.1584 -0.0634 -1.3893
 3605SOL     OW22447   0.333   3.997   3.273  0.6310 -0.1757 -0.0455
 3605SOL    HW122448   0.416   3.949   3.275  1.1679  0.7434 -0.0144
 3605SOL    HW222449   0.340   4.038   3.359 -2.6549 -0.4832  0.3472
 3606SOL     OW22450   3.102   1.941   3.062  0.1174  0.2095  0.4632
 3606SOL    HW122451   3.104   2.035   3.041 -0.8793  0.4906  1.6695
 3606SOL    HW222452   3.024   1.941   3.116  1.5899  0.3888  2.5741
 3607SOL     OW22453   3.852   2.765  13.243  0.6945  0.5290  0.0002
 3607SOL    HW122454   3.898   2.849  13.254  2.1343 -0.4724  1.5970
 3607SOL    HW222455   3.767   2.802  13.265  0.7459  1.6052 -1.6013
 3608SOL     OW22456   4.045   3.898   8.152  0.5418  0.1864  0.1449
 3608SOL    HW122457   3.998   3.878   8.233  0.0829  0.7650  0.0187
 3608SOL    HW222458   4.134   3.875   8.182  0.1617 -1.4629 -0.0281
 3609SOL     OW22459   0.657   1.094   4.449  0.3210 -0.2551  0.2990
 3609SOL    HW122460   0.680   1.186   4.455 -0.0831 -0.0183 -1.8534
 3609SOL    HW222461   0.617   1.083   4.363  2.0696  0.2910 -0.5699
 3610SOL     OW22462   0.303   1.149   6.530  0.1104  0.0846  0.3428
 3610SOL    HW122463   0.356   1.174   6.454 -0.0463 -1.4948 -0.2845
 3610SOL    HW222464   0.290   1.236   6.567 -1.8411  0.5951 -1.5391
 3611SOL     OW22465   2.242   3.809   4.963  0.2743  0.3223 -0.2669
 3611SOL    HW122466   2.155   3.841   4.939 -0.0980  0.3261  1.0687
 3611SOL    HW222467   2.249   3.753   4.886 -1.1171  1.1022 -0.9613
 3612SOL     OW22468   0.854   0.543   5.915  0.2363  0.0587 -0.3490
 3612SOL    HW122469   0.832   0.604   5.985  2.3260  0.8835 -0.4229
 3612SOL    HW222470   0.950   0.548   5.914  0.1306  2.2119 -0.0521
 3613SOL     OW22471   2.259   2.173   1.710  0.4028 -0.2109  0.3816
 3613SOL    HW122472   2.191   2.225   1.668  2.2923  0.7187 -1.5410
 3613SOL    HW222473   2.228   2.088   1.680  0.2261  0.9709 -2.7558
 3614SOL     OW22474   0.683   0.920  16.433  0.2264 -0.3476 -0.0447
 3614SOL    HW122475   0.775   0.949  16.431  0.4856 -1.3019 -1.8416
 3614SOL    HW222476   0.630   0.994  16.403  1.1389 -0.0024 -0.8414
 3615SOL     OW22477   4.158   3.780   6.267 -0.3420  0.3255 -0.1474
 3615SOL    HW122478   4.150   3.853   6.205 -1.2678 -0.7737 -1.3226
 3615SOL    HW222479   4.064   3.763   6.274 -0.4818  1.2978  0.4199
 3616SOL     OW22480   2.979   2.864  17.617  0.5153  0.1145  0.4502
 3616SOL    HW122481   2.978   2.790  17.556 -2.5171  1.4596 -1.1411
 3616SOL    HW222482   3.073   2.876  17.630  0.6033  0.2311 -0.3040
 3617SOL     OW22483   2.732   3.667  12.608  0.1872  0.6968 -0.9975
 3617SOL    HW122484   2.667   3.666  12.678 -0.3999  1.2967 -1.5327
 3617SOL    HW222485   2.818   3.664  12.651  0.4841  1.1531 -1.5529
 3618SOL     OW22486   2.047   1.475  15.362  0.0758 -0.4518  0.3690
 3618SOL    HW122487   2.141   1.492  15.352  0.4466 -2.5389  0.2251
 3618SOL    HW222488   2.055   1.401  15.423 -0.3741  0.2538  1.2784
 3619SOL     OW22489   0.451   1.879   5.736  0.1942 -0.2378 -0.5522
 3619SOL    HW122490   0.439   1.968   5.770 -1.4194 -0.8251  0.4005
 3619SOL    HW222491   0.374   1.860   5.682 -0.1705  1.1456 -0.5071
 3620SOL     OW22492   3.437   3.953   3.026  0.1416 -0.1640  0.6361
 3620SOL    HW122493   3.342   3.960   3.017  0.1271 -1.6272 -0.2868
 3620SOL    HW222494   3.476   4.025   2.976 -1.3810  0.7022  0.6997
 3621SOL     OW22495   1.046   3.674   6.103  0.9490  0.4815  0.0405
 3621SOL    HW122496   1.123   3.617   6.111 -0.3834 -1.3421 -0.2102
 3621SOL    HW222497   1.025   3.691   6.195  1.5115  1.0510  0.0612
 3622SOL     OW22498   4.487   0.665   1.449 -0.3818 -0.2985  0.0881
 3622SOL    HW122499   4.466   0.729   1.517 -0.9092 -0.9421  0.5449
 3622SOL    HW222500   4.549   0.716   1.398 -0.7757 -0.3302 -0.4288
 3623SOL     OW22501   2.393   3.154   0.037  1.0636  0.3735  0.3217
 3623SOL    HW122502   2.393   3.242  17.751  1.2981  0.5337  0.6838
 3623SOL    HW222503   2.298   3.141   0.030  1.5462 -3.4163  1.0816
 3624SOL     OW22504   4.442   4.205   1.887  0.2715 -0.1498  0.0676
 3624SOL    HW122505   4.376   4.135   1.886  0.4319 -0.2952 -0.6424
 3624SOL    HW222506   4.416   4.255   1.810 -1.7870 -1.5520 -0.1569
 3625SOL     OW22507   2.399   4.239  10.115 -0.7063  0.4505 -0.1708
 3625SOL    HW122508   2.373   4.184  10.189  2.7845  1.3898  1.7682
 3625SOL    HW222509   2.425   4.324  10.151  3.4695 -1.4781  1.3566
 3626SOL     OW22510   0.342   4.194   3.807  0.5807  0.1073  0.2262
 3626SOL    HW122511   0.252   4.228   3.807 -0.6933 -3.2644 -0.3101
 3626SOL    HW222512   0.371   4.197   3.898  1.5295 -0.0793 -0.0745
 3627SOL     OW22513   1.423   4.519   0.804  0.9910 -0.1003 -0.3635
 3627SOL    HW122514   1.494   4.581   0.785  0.6317  0.1368 -0.9577
 3627SOL    HW222515   1.451   4.479   0.886 -0.0243  0.4281  0.2330
 3628SOL     OW22516   0.578   3.842   3.249  0.2212  0.5638  0.6401
 3628SOL    HW122517   0.630   3.767   3.280  3.0580  1.2850 -2.4237
 3628SOL    HW222518   0.648   3.893   3.209  0.6989 -0.5570  0.0559
 3629SOL     OW22519   3.549   3.318   5.877  0.1958  0.0636  0.4168
 3629SOL    HW122520   3.453   3.322   5.874  0.3154  3.1841  0.2234
 3629SOL    HW222521   3.570   3.234   5.835 -1.6105 -0.0862 -0.1829
 3630SOL     OW22522   3.483   0.738   6.850 -0.0880  0.1272 -0.4789
 3630SOL    HW122523   3.388   0.734   6.852 -0.0640  0.1066  0.8406
 3630SOL    HW222524   3.502   0.831   6.856 -2.0745  0.6455 -2.5069
 3631SOL     OW22525   0.710   3.504   4.058  0.2668 -0.1481 -0.2226
 3631SOL    HW122526   0.694   3.597   4.075  0.3454  0.0399 -1.1731
 3631SOL    HW222527   0.665   3.479   3.977 -0.9150  0.7131  0.1681
 3632SOL     OW22528   3.275   1.501  13.945  1.1848  0.7076  0.7332
 3632SOL    HW122529   3.306   1.543  13.864  0.3535 -1.8666 -0.9272
 3632SOL    HW222530   3.299   1.573  14.002 -1.3537  0.8742  1.5824
 3633SOL     OW22531   3.574   3.324   4.686 -0.0070 -0.0118  0.3608
 3633SOL    HW122532   3.548   3.232   4.685  0.7701 -0.2251 -0.2269
 3633SOL    HW222533   3.568   3.338   4.591 -0.5900 -0.7927  0.2864
 3634SOL     OW22534   2.824   3.533   6.195  0.4685  0.1072  0.1321
 3634SOL    HW122535   2.893   3.594   6.169 -1.1287  0.5768 -3.0300
 3634SOL    HW222536   2.873   3.479   6.257 -0.6646 -1.2763 -0.1734
 3635SOL     OW22537   1.227   4.617   8.061 -0.2065 -0.0716 -0.4526
 3635SOL    HW122538   1.219   4.675   8.137 -2.1756 -0.3100 -0.4698
 3635SOL    HW222539   1.134   4.604   8.045 -0.6115  1.9230  0.2186
 3636SOL     OW22540   0.517   0.712  16.510  0.0441 -0.0227  0.0720
 3636SOL    HW122541   0.497   0.759  16.591  1.0180  0.2149  0.1698
 3636SOL    HW222542   0.562   0.780  16.461 -0.1833  0.2182  0.1976
 3637SOL     OW22543   1.535   2.343   1.647  0.5498  0.6806  0.1534
 3637SOL    HW122544   1.496   2.392   1.720 -0.9651 -0.4210  0.0705
 3637SOL    HW222545   1.503   2.253   1.658 -0.2382  0.6351 -2.6851
 3638SOL     OW22546   1.286   1.760   6.834 -0.2580 -0.0412  0.0676
 3638SOL    HW122547   1.254   1.785   6.747 -2.3245 -0.9451  0.5811
 3638SOL    HW222548   1.340   1.831   6.869 -0.7613  0.7491 -0.7633
 3639SOL     OW22549   0.963   4.250   6.106  0.4779  0.0128 -0.1793
 3639SOL    HW122550   0.996   4.328   6.149 -0.6703 -1.3678  3.2443
 3639SOL    HW222551   0.909   4.275   6.031 -0.1391 -0.3192  0.1458
 3640SOL     OW22552   0.641   0.151   1.478  0.1782  0.1708 -0.2252
 3640SOL    HW122553   0.566   0.130   1.534 -1.1911 -0.1133 -2.1368
 3640SOL    HW222554   0.655   0.068   1.431  0.4750 -0.5431  1.1406
 3641SOL     OW22555   1.197   3.745   8.143  0.2286 -0.6979 -0.4281
 3641SOL    HW122556   1.235   3.811   8.086 -1.9416  1.5551  0.7385
 3641SOL    HW222557   1.252   3.756   8.221 -0.8262 -2.2439  0.5306
 3642SOL     OW22558   3.811   1.361   4.841 -0.7060 -0.8020 -0.4472
 3642SOL    HW122559   3.904   1.342   4.835 -0.4996  0.5278 -1.4007
 3642SOL    HW222560   3.814   1.457   4.846 -3.0715 -0.6748 -1.2367
 3643SOL     OW22561   2.143   2.910   1.132 -0.2335 -0.0352 -0.0791
 3643SOL    HW122562   2.237   2.926   1.126 -0.4283  1.2730  0.4380
 3643SOL    HW222563   2.108   2.974   1.070 -0.2555 -1.7379 -1.8243
 3644SOL     OW22564   3.307   3.383   3.396 -0.0920 -0.3036 -0.0613
 3644SOL    HW122565   3.243   3.314   3.380 -0.3028 -0.2367  0.4931
 3644SOL    HW222566   3.313   3.370   3.491 -2.0911  0.0113  0.0902
 3645SOL     OW22567   3.249   0.466   8.898  0.3049 -0.2484  0.2110
 3645SOL    HW122568   3.190   0.520   8.844 -0.8402 -1.1119  0.6064
 3645SOL    HW222569   3.238   0.510   8.982 -0.8609  0.8093 -0.4773
 3646SOL     OW22570   0.249   2.938  15.079 -0.0887  0.2695 -0.0603
 3646SOL    HW122571   0.274   2.924  14.987 -0.5845 -0.9813 -0.0120
 3646SOL    HW222572   0.308   2.871  15.113 -2.6101 -1.0897  1.6080
 3647SOL     OW22573   1.199   3.663   5.808  0.2307 -0.2335  0.4858
 3647SOL    HW122574   1.186   3.569   5.797  0.2144 -0.1678 -0.0583
 3647SOL    HW222575   1.141   3.688   5.881  0.1955  0.1754  0.3180
 3648SOL     OW22576   2.250   3.733   3.350  0.5781  0.1825 -0.5663
 3648SOL    HW122577   2.203   3.686   3.282 -0.8962 -0.6372  1.0174
 3648SOL    HW222578   2.177   3.781   3.390  1.4829 -1.5629  3.2063
 3649SOL     OW22579   0.074   2.144  11.933 -0.0488 -0.3973 -0.2772
 3649SOL    HW122580   0.021   2.147  11.853 -0.0182 -0.1823 -0.2880
 3649SOL    HW222581   0.117   2.229  11.923  0.1743 -0.5482 -0.6331
 3650SOL     OW22582   0.624   3.810   0.050  0.3156 -0.3031  0.1615
 3650SOL    HW122583   0.661   3.761   0.124  0.4520 -0.9762 -0.3560
 3650SOL    HW222584   0.664   3.896   0.059 -0.6144  0.3658 -2.0247
 3651SOL     OW22585   1.620   1.828   1.264  0.1862  0.0776 -0.5946
 3651SOL    HW122586   1.676   1.906   1.256  0.2567  0.1328  0.4127
 3651SOL    HW222587   1.663   1.800   1.345  1.0068 -1.0142 -1.4183
 3652SOL     OW22588   1.339   2.308   2.285 -0.5097  0.0275 -0.0044
 3652SOL    HW122589   1.283   2.345   2.216  0.2359  1.1746 -0.0005
 3652SOL    HW222590   1.408   2.373   2.294  2.3701 -3.0317 -0.1206
 3653SOL     OW22591   3.998   3.881   1.745  0.0788 -0.2317  0.0346
 3653SOL    HW122592   4.056   3.805   1.747 -1.5604 -1.5325 -1.8214
 3653SOL    HW222593   4.063   3.943   1.711 -0.3287 -0.6676 -1.5188
 3654SOL     OW22594   2.521   4.084   9.934 -0.2165 -0.2537  0.1797
 3654SOL    HW122595   2.470   4.004   9.918 -0.6107 -0.3744  2.0925
 3654SOL    HW222596   2.477   4.123  10.009 -0.2148 -0.4292  0.2731
 3655SOL     OW22597   0.603   4.255   8.700  0.4439 -0.0367  0.0337
 3655SOL    HW122598   0.648   4.260   8.784 -0.4706  2.3007  0.3843
 3655SOL    HW222599   0.652   4.198   8.640 -2.7149 -1.9537 -0.7099
 3656SOL     OW22600   2.551   0.833   8.590 -0.3899 -0.1036 -0.8611
 3656SOL    HW122601   2.575   0.846   8.499  1.7562 -0.5103 -0.3723
 3656SOL    HW222602   2.500   0.913   8.600  1.4201  1.0097 -0.3926
 3657SOL     OW22603   1.836   2.779   8.392 -0.1843  0.7966  0.8359
 3657SOL    HW122604   1.759   2.829   8.421 -0.5335  0.3891  0.6132
 3657SOL    HW222605   1.898   2.841   8.354 -0.8896  0.3814 -1.0194
 3658SOL     OW22606   3.204   4.328   7.640 -0.2382  0.6917  0.3540
 3658SOL    HW122607   3.125   4.274   7.650 -0.5384  1.3446  1.5039
 3658SOL    HW222608   3.268   4.257   7.643  0.0404  0.9473  0.4968
 3659SOL     OW22609   1.427   4.396   4.106 -0.1925 -0.5571  0.3612
 3659SOL    HW122610   1.507   4.433   4.068 -0.8699  0.4821 -0.0166
 3659SOL    HW222611   1.416   4.333   4.035 -0.6391 -3.6653  3.1831
 3660SOL     OW22612   3.345   4.039  16.322  0.1188  0.4581 -0.0094
 3660SOL    HW122613   3.296   4.070  16.246 -0.4772  0.0611  0.2097
 3660SOL    HW222614   3.424   4.011  16.278  1.0311 -1.6019  2.9212
 3661SOL     OW22615   1.383   1.674   1.587 -0.2615 -0.4683  0.5002
 3661SOL    HW122616   1.296   1.638   1.605  0.4142 -1.2811  2.0872
 3661SOL    HW222617   1.408   1.633   1.504 -1.5611 -1.7857  0.7677
 3662SOL     OW22618   0.928   0.892   7.094 -0.2611  0.3077 -0.5463
 3662SOL    HW122619   0.863   0.916   7.027 -1.2790  0.2284  0.4152
 3662SOL    HW222620   0.998   0.944   7.055 -1.5777  2.8046  0.4030
 3663SOL     OW22621   0.795   0.843   2.508  0.1143  0.3123  0.4598
 3663SOL    HW122622   0.767   0.934   2.495  1.2327  0.5221 -0.4308
 3663SOL    HW222623   0.751   0.823   2.590 -0.2264  2.4402  0.7916
 3664SOL     OW22624   1.372   2.266  10.930 -0.5145 -0.0933  0.0405
 3664SOL    HW122625   1.454   2.217  10.941 -0.6391 -0.4114 -0.4277
 3664SOL    HW222626   1.396   2.311  10.849  0.9794  1.3574  1.2985
 3665SOL     OW22627   2.988   1.021  16.618 -0.5464 -0.1215  0.0641
 3665SOL    HW122628   2.948   0.956  16.676  1.5033 -0.1814  1.4208
 3665SOL    HW222629   3.040   1.076  16.677  0.2330 -0.5355 -0.2356
 3666SOL     OW22630   3.064   1.354   3.417 -0.1513  0.5144  0.3506
 3666SOL    HW122631   3.105   1.378   3.500 -2.3065  0.8296  1.3110
 3666SOL    HW222632   3.056   1.436   3.368 -0.4259  0.3387  0.1013
 3667SOL     OW22633   3.214   3.436  10.903  0.4600 -0.1795  0.2358
 3667SOL    HW122634   3.210   3.531  10.888 -0.8782 -0.5248 -1.5612
 3667SOL    HW222635   3.203   3.430  10.998  2.0150  0.1087  0.4349
 3668SOL     OW22636   3.412   2.760  14.337  0.3237 -0.3766  0.2557
 3668SOL    HW122637   3.439   2.841  14.293  1.5174 -0.9918 -0.1152
 3668SOL    HW222638   3.488   2.722  14.380  1.7752  1.3148 -0.8468
 3669SOL     OW22639   2.674   4.693   5.777 -0.1249  0.2373 -0.2454
 3669SOL    HW122640   2.659   4.605   5.744 -2.1755  0.4445  0.1510
 3669SOL    HW222641   2.769   4.700   5.784  0.0744 -0.0044 -2.7137
 3670SOL     OW22642   2.476   1.550   1.037 -0.6399 -0.0268  0.4287
 3670SOL    HW122643   2.571   1.554   1.046 -0.0990 -2.6580 -4.5929
 3670SOL    HW222644   2.465   1.474   0.980 -0.7163  0.2896  0.0226
 3671SOL     OW22645   4.611   3.392   8.241 -0.2292 -0.2363  0.2706
 3671SOL    HW122646   4.527   3.356   8.268  0.5327 -2.0366  0.2861
 3671SOL    HW222647   4.653   3.443   8.310  1.6186 -2.6434  0.9362
 3672SOL     OW22648   1.052   2.980   7.795 -0.3107 -0.4214 -0.2329
 3672SOL    HW122649   1.132   2.934   7.770  1.3141  1.0071  2.3441
 3672SOL    HW222650   1.061   2.968   7.889 -0.9763 -2.4921 -0.4361
 3673SOL     OW22651   0.394   0.652   2.872  0.1535  0.8075  0.4414
 3673SOL    HW122652   0.356   0.733   2.906  0.1770  0.0466  2.2548
 3673SOL    HW222653   0.436   0.686   2.793  0.6688 -0.5972  0.1055
 3674SOL     OW22654   0.990   3.005   0.195 -0.1175 -0.4751  0.2969
 3674SOL    HW122655   0.917   2.965   0.148  2.1982 -0.6974 -3.0497
 3674SOL    HW222656   1.003   2.942   0.266 -1.5493 -1.3754 -0.2530
 3675SOL     OW22657   0.743   1.274   2.825 -0.5480 -0.1902  0.0421
 3675SOL    HW122658   0.832   1.274   2.859 -0.8289  4.0679  0.7385
 3675SOL    HW222659   0.722   1.367   2.833  3.4543  0.8342 -1.2282
 3676SOL     OW22660   4.192   3.564   5.421  0.0359  0.2200 -0.2110
 3676SOL    HW122661   4.175   3.630   5.354 -1.9735 -0.6495 -0.5728
 3676SOL    HW222662   4.106   3.553   5.461 -0.2059  0.8101 -0.5815
 3677SOL     OW22663   3.741   0.486   6.224  0.1782 -0.0795 -0.0337
 3677SOL    HW122664   3.740   0.391   6.235  0.2058 -0.0099  0.5641
 3677SOL    HW222665   3.829   0.519   6.242  0.2523 -1.1419  1.5740
 3678SOL     OW22666   4.712   0.382  11.987 -0.3246 -0.2914 -0.0034
 3678SOL    HW122667   4.722   0.303  12.039 -2.4414  1.1196  2.5134
 3678SOL    HW222668   4.673   0.446  12.046  1.5928  1.2933 -0.4663
 3679SOL     OW22669   3.968   3.735  14.915 -0.2935  0.1418 -0.4118
 3679SOL    HW122670   3.973   3.640  14.923 -0.1024  0.1393 -0.5608
 3679SOL    HW222671   3.984   3.770  15.002 -0.4565  0.5923 -0.5642
 3680SOL     OW22672   0.046   1.336   5.555 -0.3156  0.1828 -0.3296
 3680SOL    HW122673   0.076   1.318   5.644  1.3569  3.5989 -0.2361
 3680SOL    HW222674   0.018   1.249   5.526 -0.0810 -0.9648  2.8619
 3681SOL     OW22675   3.606   3.359   9.438  0.6942  0.1221 -0.2092
 3681SOL    HW122676   3.597   3.453   9.458  0.1341  0.2032 -0.8678
 3681SOL    HW222677   3.517   3.329   9.457  0.4094  0.7618 -0.5231
 3682SOL     OW22678   0.737   0.432   8.408 -0.5735 -0.1498 -0.0359
 3682SOL    HW122679   0.741   0.343   8.374 -0.8716 -0.2463  0.1808
 3682SOL    HW222680   0.774   0.410   8.494  0.3673 -2.4431 -1.0455
 3683SOL     OW22681   1.491   0.513   1.434 -0.2660 -0.0341 -0.7742
 3683SOL    HW122682   1.528   0.495   1.521  2.0075  2.3274 -1.2552
 3683SOL    HW222683   1.533   0.458   1.368 -0.9093 -0.2560 -0.9940
 3684SOL     OW22684   0.205   2.741   6.527  0.0070 -0.1861  0.0954
 3684SOL    HW122685   0.252   2.748   6.443 -0.9312  0.1571 -0.4031
 3684SOL    HW222686   0.274   2.702   6.582  0.2940 -0.4005 -0.4131
 3685SOL     OW22687   2.528   3.031   5.618  0.0259  0.9503 -0.5739
 3685SOL    HW122688   2.488   2.971   5.555  1.0632 -2.6231  2.1769
 3685SOL    HW222689   2.598   2.983   5.663 -0.1944  1.3829  0.2462
 3686SOL     OW22690   3.129   2.723   7.195 -0.1525 -0.2205 -1.0626
 3686SOL    HW122691   3.194   2.792   7.200 -0.9618  0.5829 -1.6619
 3686SOL    HW222692   3.183   2.644   7.190  0.2193 -0.1094  0.9347
 3687SOL     OW22693   3.434   4.716   2.012  0.7647 -0.6957  0.6069
 3687SOL    HW122694   3.472   4.644   1.962 -2.0498 -1.1854 -0.8861
 3687SOL    HW222695   3.506   0.013   2.064  1.2194 -2.9814  1.5188
 3688SOL     OW22696   4.020   4.274   4.562  0.0791  0.2984 -0.7701
 3688SOL    HW122697   4.086   4.314   4.620  0.9089  0.3707 -1.7562
 3688SOL    HW222698   3.994   4.344   4.502  1.8057 -0.1109 -2.0165
 3689SOL     OW22699   4.518   4.152   9.567 -0.3139  0.2947  0.2304
 3689SOL    HW122700   4.487   4.132   9.655 -2.0364  1.9000 -0.0114
 3689SOL    HW222701   4.608   4.174   9.589 -0.2636  1.0783 -0.7345
 3690SOL     OW22702   4.230   2.475   7.675  0.1641 -0.0163 -0.0717
 3690SOL    HW122703   4.319   2.507   7.690 -0.7590  3.1904 -1.4921
 3690SOL    HW222704   4.224   2.412   7.747 -1.7758 -0.5329 -0.6789
 3691SOL     OW22705   3.264   4.445   5.809 -0.4393  0.0560  0.4423
 3691SOL    HW122706   3.264   4.508   5.881  0.6398 -1.5414  1.8248
 3691SOL    HW222707   3.176   4.446   5.771 -0.4484  1.6628  0.4716
 3692SOL     OW22708   4.393   2.665  10.274 -0.3592  0.1452 -0.3782
 3692SOL    HW122709   4.364   2.602  10.339 -0.2039  0.3920 -0.0713
 3692SOL    HW222710   4.309   2.704  10.251  1.4088  2.6795 -2.6512
 3693SOL     OW22711   3.093   3.551   2.404  0.1900 -0.8464  0.9345
 3693SOL    HW122712   3.070   3.459   2.392 -0.8430 -0.4522 -0.2005
 3693SOL    HW222713   3.152   3.559   2.329 -1.6637  1.0014 -0.3548
 3694SOL     OW22714   0.959   4.224   6.466 -0.0592 -0.6650  0.2237
 3694SOL    HW122715   0.875   4.184   6.488 -1.2680  0.4742 -2.3373
 3694SOL    HW222716   0.961   4.309   6.510 -2.5354 -0.8819  0.7446
 3695SOL     OW22717   3.224   3.303   4.919  0.2965 -0.1097  0.6366
 3695SOL    HW122718   3.198   3.307   4.827  2.3352  0.3125  0.0586
 3695SOL    HW222719   3.147   3.267   4.962  0.6525 -0.2531  1.1554
 3696SOL     OW22720   0.760   1.778   1.060 -0.1132  0.2102  0.2389
 3696SOL    HW122721   0.683   1.774   1.116 -0.1979  4.9387  0.4754
 3696SOL    HW222722   0.719   1.742   0.982 -0.3848 -0.9581  0.9344
 3697SOL     OW22723   0.617   2.384   6.817 -0.9560  0.1693  0.3182
 3697SOL    HW122724   0.610   2.415   6.908  0.0788 -0.3034  0.5565
 3697SOL    HW222725   0.550   2.317   6.804 -1.3411  0.6827 -0.3422
 3698SOL     OW22726   4.525   2.250  17.519  0.6453 -0.0981  0.1561
 3698SOL    HW122727   4.543   2.198  17.441 -2.7144  0.1738 -0.7586
 3698SOL    HW222728   4.450   2.294  17.480  0.1479 -0.5294  0.6358
 3699SOL     OW22729   0.200   4.468   2.295  0.3462 -0.4821 -0.1490
 3699SOL    HW122730   0.161   4.549   2.262  1.1586 -0.3412 -0.7595
 3699SOL    HW222731   0.216   4.495   2.385 -1.4844 -0.4483  0.1796
 3700SOL     OW22732   4.738   2.365   0.176  0.7214 -0.3266 -0.6945
 3700SOL    HW122733   4.691   2.392   0.097  0.1165 -3.0214 -1.2507
 3700SOL    HW222734   4.670   2.308   0.211  1.5356 -0.9524 -0.1245
 3701SOL     OW22735   0.137   3.604   6.369  0.6081 -0.5974 -0.0688
 3701SOL    HW122736   0.186   3.645   6.298  0.2796  1.4203  0.8641
 3701SOL    HW222737   0.158   3.520   6.328 -0.3863 -0.9720  0.1934
 3702SOL     OW22738   3.008   1.596   3.638  0.0341 -0.3416 -0.4225
 3702SOL    HW122739   2.972   1.507   3.631 -0.2709 -0.4081  1.9609
 3702SOL    HW222740   3.103   1.583   3.638  0.4028  2.4633 -1.0396
 3703SOL     OW22741   1.391   2.162  11.873 -0.7032 -0.3969 -0.0139
 3703SOL    HW122742   1.446   2.084  11.866  0.2597  0.5817 -3.2653
 3703SOL    HW222743   1.312   2.134  11.827  0.3812 -0.9383 -1.5469
 3704SOL     OW22744   0.325   0.622  10.036 -0.1862 -0.4350  0.3041
 3704SOL    HW122745   0.336   0.715  10.053 -0.5907 -0.4519  0.6636
 3704SOL    HW222746   0.351   0.573  10.115 -0.5949 -1.9742 -0.5194
 3705SOL     OW22747   3.455   2.925  11.748  0.7383  0.4137  0.1797
 3705SOL    HW122748   3.516   2.945  11.677  0.7998 -1.4069 -0.2834
 3705SOL    HW222749   3.377   2.966  11.712 -0.1765 -0.5070  1.0995
 3706SOL     OW22750   2.377   1.564   5.060 -0.0913 -0.3818  0.1280
 3706SOL    HW122751   2.439   1.557   5.133 -1.6039 -1.3512  1.3325
 3706SOL    HW222752   2.424   1.618   4.997  1.8192 -1.7731  0.3285
 3707SOL     OW22753   3.399   1.174   4.263  0.2786  0.3556  0.6211
 3707SOL    HW122754   3.380   1.111   4.333  0.2069  0.0895  0.3581
 3707SOL    HW222755   3.328   1.239   4.265 -0.3082 -0.2602 -0.4963
 3708SOL     OW22756   0.418   0.347   1.664  0.3775  0.2630 -0.2684
 3708SOL    HW122757   0.446   0.339   1.573  0.9179  0.1538 -0.0944
 3708SOL    HW222758   0.418   0.443   1.672  0.1464  0.1957  0.5596
 3709SOL     OW22759   4.101   0.912   2.866 -0.2075 -0.0736  0.0811
 3709SOL    HW122760   4.044   0.861   2.808  0.9349 -0.2290 -0.8900
 3709SOL    HW222761   4.116   0.849   2.935 -1.0727  1.0766  1.3326
 3710SOL     OW22762   1.449   1.721   6.570 -0.3471 -0.1888 -0.7641
 3710SOL    HW122763   1.510   1.649   6.552 -0.8735 -0.6686 -0.6271
 3710SOL    HW222764   1.514   1.777   6.613 -0.8213 -1.0518  1.0844
 3711SOL     OW22765   4.710   2.375   7.584  0.1495  0.1549 -0.0050
 3711SOL    HW122766   4.665   2.378   7.500 -0.0971  0.9212  0.1482
 3711SOL    HW222767   4.664   2.310   7.636 -0.0542 -0.4275 -0.9268
 3712SOL     OW22768   4.460   4.728   3.041 -0.2051 -0.1702  0.1127
 3712SOL    HW122769   4.376   0.004   2.997  0.9749 -2.4410 -2.8523
 3712SOL    HW222770   4.437   4.705   3.131  0.2991  1.3249  0.6184
 3713SOL     OW22771   2.569   2.983   2.863 -0.2809 -0.0873  0.3286
 3713SOL    HW122772   2.590   3.018   2.949  2.1969  0.7614 -0.6240
 3713SOL    HW222773   2.484   3.024   2.849 -1.1999 -2.6125 -1.4976
 3714SOL     OW22774   0.341   1.911   2.612  0.0468  0.2277  0.4051
 3714SOL    HW122775   0.401   1.986   2.607 -1.5311  1.4534 -0.2414
 3714SOL    HW222776   0.275   1.940   2.674 -0.8870 -0.2621 -0.3703
 3715SOL     OW22777   0.635   4.648   9.825 -0.1289  0.7523 -0.1398
 3715SOL    HW122778   0.690   4.723   9.802  1.1201  0.1469  0.8936
 3715SOL    HW222779   0.576   4.641   9.750 -0.0143 -0.2530 -0.1369
 3716SOL     OW22780   1.706   1.186  15.667 -0.1807 -0.5922 -0.4107
 3716SOL    HW122781   1.620   1.160  15.701  0.2033  0.4298  1.3507
 3716SOL    HW222782   1.754   1.193  15.750 -0.7616  0.6936 -0.1756
 3717SOL     OW22783   2.591   1.039  14.822  0.0223 -0.1638 -0.5153
 3717SOL    HW122784   2.534   1.004  14.754 -1.9011  3.0982 -0.5680
 3717SOL    HW222785   2.603   0.964  14.881  2.4319  2.0453  1.7942
 3718SOL     OW22786   4.331   0.113   5.094  0.5854 -0.2735  0.5606
 3718SOL    HW122787   4.235   0.119   5.094  0.5949 -0.2905  3.0463
 3718SOL    HW222788   4.355   0.061   5.170 -0.3221 -0.5704  0.6445
 3719SOL     OW22789   0.859   0.645  13.301  0.1874 -0.4739  0.0421
 3719SOL    HW122790   0.944   0.625  13.261  0.8687  2.2258  0.1370
 3719SOL    HW222791   0.806   0.568  13.280 -0.8361  0.3505 -0.3560
 3720SOL     OW22792   0.935   2.663   0.920 -0.1092 -0.6364 -0.2715
 3720SOL    HW122793   0.845   2.687   0.943  0.2822  0.7971 -0.2426
 3720SOL    HW222794   0.984   2.732   0.965  2.3914 -0.9902 -2.4531
 3721SOL     OW22795   0.400   1.220   4.275 -0.6548 -0.2053 -0.1971
 3721SOL    HW122796   0.373   1.306   4.243 -1.8215 -0.7138 -0.5815
 3721SOL    HW222797   0.402   1.154   4.206  0.5125 -0.0204 -0.3411
 3722SOL     OW22798   1.058   1.248   4.447  0.2996 -0.3224  0.5072
 3722SOL    HW122799   1.003   1.170   4.454  0.3502 -0.5745 -1.8596
 3722SOL    HW222800   0.990   1.315   4.447  1.8776  1.3075 -1.1124
 3723SOL     OW22801   0.353   3.892   8.949  0.1387  0.3950 -0.1461
 3723SOL    HW122802   0.361   3.960   8.881  0.0702 -0.7732 -1.3195
 3723SOL    HW222803   0.287   3.938   9.000 -0.8752 -1.6198  0.3267
 3724SOL     OW22804   4.738   0.962   2.127  0.0270 -0.9559 -0.3451
 3724SOL    HW122805   0.087   0.996   2.142  0.0207 -1.4283  0.7220
 3724SOL    HW222806   4.708   1.007   2.047 -1.7390 -3.0021 -0.8504
 3725SOL     OW22807   2.783   0.930   3.067 -0.0898 -0.2626 -0.5921
 3725SOL    HW122808   2.761   0.987   3.141  0.5836 -1.4261  0.5281
 3725SOL    HW222809   2.768   0.985   2.991 -0.3244 -0.2090 -0.5086
 3726SOL     OW22810   3.502   0.772  14.959  0.1295 -0.0038 -0.1053
 3726SOL    HW122811   3.495   0.735  15.047  1.5970 -0.3459 -0.1209
 3726SOL    HW222812   3.584   0.732  14.928  0.1752  0.8561 -1.0885
 3727SOL     OW22813   2.675   0.509   7.310  0.4950 -0.1186  0.3882
 3727SOL    HW122814   2.611   0.534   7.377 -1.0997  3.6594 -2.5357
 3727SOL    HW222815   2.753   0.556   7.338  0.6052 -0.1694  0.1711
 3728SOL     OW22816   3.481   4.556  14.902 -0.3327 -0.5671 -0.1038
 3728SOL    HW122817   3.420   4.619  14.864 -1.0624 -0.8855  0.5418
 3728SOL    HW222818   3.529   4.522  14.827 -0.6831 -1.8859  0.2742
 3729SOL     OW22819   3.618   4.001   5.154  0.2718 -0.2137  0.1730
 3729SOL    HW122820   3.637   4.089   5.120 -2.5859 -0.5155 -2.2362
 3729SOL    HW222821   3.579   3.973   5.071 -0.2634 -0.9308  0.6613
 3730SOL     OW22822   2.293   1.512  12.353  0.0889  0.0587  0.2155
 3730SOL    HW122823   2.214   1.514  12.298  0.9691 -4.3155 -1.2007
 3730SOL    HW222824   2.291   1.598  12.395  0.1408 -0.1217  0.5881
 3731SOL     OW22825   3.238   0.813   5.741  0.3879  0.0068 -0.3103
 3731SOL    HW122826   3.223   0.809   5.836  0.3785  1.0203 -0.2705
 3731SOL    HW222827   3.317   0.761   5.730  0.5595  0.1498  0.2572
 3732SOL     OW22828   3.375   0.798   2.265 -1.0286  0.0883 -0.0051
 3732SOL    HW122829   3.414   0.785   2.179 -1.1491 -0.6623  0.0513
 3732SOL    HW222830   3.312   0.727   2.248 -1.6667  0.8903 -0.9890
 3733SOL     OW22831   0.481   1.319   2.319 -0.4433 -0.2859  0.7461
 3733SOL    HW122832   0.417   1.306   2.389 -1.6197  1.4961 -0.0104
 3733SOL    HW222833   0.562   1.330   2.370 -0.1454 -0.8673  0.4064
 3734SOL     OW22834   1.084   1.810   0.574 -0.2744  0.1990  0.1195
 3734SOL    HW122835   1.164   1.784   0.620 -0.1784 -1.9589 -1.2254
 3734SOL    HW222836   1.105   1.803   0.481  0.3967 -0.0217  0.2848
 3735SOL     OW22837   0.152   4.057   9.051  0.5983  0.2176  0.0251
 3735SOL    HW122838   0.086   4.079   8.986 -0.1959 -0.3717  0.6376
 3735SOL    HW222839   0.182   4.146   9.073  1.5936 -0.2601  0.6417
 3736SOL     OW22840   0.705   1.112   2.305 -0.1785 -0.7321  0.0352
 3736SOL    HW122841   0.680   1.106   2.397 -3.5877  1.9532 -0.7073
 3736SOL    HW222842   0.684   1.202   2.281 -1.5395 -0.6945  1.3669
 3737SOL     OW22843   2.575   4.163   2.365  0.4629  0.1381  0.2868
 3737SOL    HW122844   2.551   4.252   2.390 -1.4315  0.0577 -1.2562
 3737SOL    HW222845   2.490   4.120   2.354  0.1061  1.4232 -2.0868
 3738SOL     OW22846   4.121   1.199  15.466 -0.4777  0.0267  0.5514
 3738SOL    HW122847   4.055   1.158  15.411 -1.1178  1.4134  0.2808
 3738SOL    HW222848   4.067   1.238  15.534 -0.3122  0.2864  0.5352
 3739SOL     OW22849   4.508   2.331   2.275  0.1991 -0.1149  0.0460
 3739SOL    HW122850   4.541   2.243   2.297 -0.7565 -0.2934  0.8027
 3739SOL    HW222851   4.591   2.377   2.264  0.2237  0.0053  0.6890
 3740SOL     OW22852   3.090   2.023  11.735 -0.0142  0.2534  0.3795
 3740SOL    HW122853   3.057   1.968  11.806 -0.7297  0.4631  0.2063
 3740SOL    HW222854   3.183   2.007  11.751 -0.6445 -1.4911  2.3690
 3741SOL     OW22855   2.946   3.280   4.563 -1.1064 -0.2856  0.7263
 3741SOL    HW122856   2.930   3.197   4.608  1.2369 -0.7374  0.7299
 3741SOL    HW222857   2.856   3.314   4.557 -0.5553  1.1959  0.9580
 3742SOL     OW22858   2.738   1.612  15.119  0.0962 -0.0388  0.0436
 3742SOL    HW122859   2.673   1.547  15.145  2.0295 -1.9548  0.0820
 3742SOL    HW222860   2.688   1.691  15.097 -0.2719 -0.3209 -0.1217
 3743SOL     OW22861   4.081   1.251   5.454  0.0936  0.7582 -0.1113
 3743SOL    HW122862   4.028   1.238   5.376 -0.0111 -0.4312  0.1549
 3743SOL    HW222863   4.142   1.318   5.422  0.1457 -0.0123 -1.6181
 3744SOL     OW22864   1.145   2.613   1.139  0.1653  0.3032  0.1997
 3744SOL    HW122865   1.066   2.660   1.113  0.0487  0.1893  0.3482
 3744SOL    HW222866   1.107   2.527   1.159 -1.0939  0.4965 -1.3179
 3745SOL     OW22867   4.575   2.329   0.562 -0.5987 -0.4528  0.5991
 3745SOL    HW122868   4.536   2.296   0.480  0.6847  1.7870 -0.9218
 3745SOL    HW222869   4.667   2.308   0.551 -0.2241  0.8114  1.3938
 3746SOL     OW22870   4.520   2.281   5.365 -0.4988 -0.4540  0.1264
 3746SOL    HW122871   4.483   2.369   5.371 -0.1117 -0.2391 -0.6791
 3746SOL    HW222872   4.573   2.281   5.286  0.1336  0.1753  0.5567
 3747SOL     OW22873   1.850   2.093   3.972 -0.3504  0.0152 -0.0813
 3747SOL    HW122874   1.786   2.147   3.924 -1.1619  2.8225  4.2238
 3747SOL    HW222875   1.875   2.038   3.897 -0.5459  0.5114 -0.5078
 3748SOL     OW22876   2.867   2.207  15.292 -0.3244 -0.0644 -0.1187
 3748SOL    HW122877   2.796   2.199  15.355 -1.4947  0.8787 -1.3292
 3748SOL    HW222878   2.933   2.252  15.344 -0.2654 -1.2346  0.8117
 3749SOL     OW22879   2.667   4.004   7.005  0.2020  0.0805 -0.2329
 3749SOL    HW122880   2.577   3.974   6.995  0.3771 -0.0090 -1.4570
 3749SOL    HW222881   2.687   3.933   7.067 -1.2144 -0.6031 -0.5667
 3750SOL     OW22882   3.176   1.571  12.541  0.5138 -0.1603  0.2627
 3750SOL    HW122883   3.145   1.601  12.626  4.0648  1.5450  0.9462
 3750SOL    HW222884   3.240   1.506  12.571  0.1482 -0.5121  0.2872
 3751SOL     OW22885   1.893   3.628   4.495 -0.3111  0.3652 -0.4175
 3751SOL    HW122886   1.816   3.669   4.456  0.4994  0.5600 -1.8030
 3751SOL    HW222887   1.865   3.542   4.524  0.6931  0.6543  1.4784
 3752SOL     OW22888   1.439   3.497   6.688  0.1398 -0.4747 -0.2000
 3752SOL    HW122889   1.530   3.467   6.684  1.6303  3.6689  1.3106
 3752SOL    HW222890   1.452   3.581   6.733 -0.7652 -0.1629 -0.5209
 3753SOL     OW22891   1.462   4.266   2.630 -0.4069 -0.8986 -0.2562
 3753SOL    HW122892   1.509   4.184   2.614 -0.5955 -1.1895  0.7199
 3753SOL    HW222893   1.530   4.334   2.633  1.0386 -2.3079 -1.1017
 3754SOL     OW22894   3.948   0.236  16.570 -0.0848 -0.2798 -0.4332
 3754SOL    HW122895   3.995   0.317  16.549 -0.3607  0.8412  3.1260
 3754SOL    HW222896   3.888   0.226  16.497 -1.2832  1.2373  0.3366
 3755SOL     OW22897   2.044   4.425   7.534 -0.7626  0.5614  0.2391
 3755SOL    HW122898   2.079   4.431   7.445 -0.6187  1.3959  0.3528
 3755SOL    HW222899   1.963   4.475   7.525 -2.7530 -2.5404  0.9055
 3756SOL     OW22900   3.031   1.145   9.133 -0.4079  0.0807 -0.2312
 3756SOL    HW122901   3.023   1.172   9.224  0.5566 -1.2211  0.2464
 3756SOL    HW222902   3.124   1.152   9.111 -0.6072 -1.6746 -1.6766
 3757SOL     OW22903   0.819   2.572   5.989  0.4032  0.5554 -0.6247
 3757SOL    HW122904   0.840   2.527   5.907  0.2578  0.4036 -0.5798
 3757SOL    HW222905   0.725   2.555   5.984  0.6771 -0.9331 -0.7204
 3758SOL     OW22906   2.806   3.630  13.026 -0.4767  0.2606  0.1596
 3758SOL    HW122907   2.782   3.550  12.980  1.2650 -0.3511  0.2975
 3758SOL    HW222908   2.896   3.650  13.001 -0.7128 -0.9338 -1.6594
 3759SOL     OW22909   0.642   2.448  10.646 -0.3338  0.3271  0.1478
 3759SOL    HW122910   0.597   2.465  10.564  2.9338  3.2321 -1.0640
 3759SOL    HW222911   0.675   2.531  10.681  0.5602 -0.2335  0.6390
 3760SOL     OW22912   4.625   4.564   8.378 -0.3241  0.2254 -0.3558
 3760SOL    HW122913   4.713   4.593   8.353 -0.0668 -0.4814 -0.2573
 3760SOL    HW222914   4.581   4.649   8.373  0.6324  0.7544  0.1536
 3761SOL     OW22915   0.774   1.339  16.556  0.8001 -0.0054  0.2847
 3761SOL    HW122916   0.738   1.413  16.604 -0.1130  0.2770 -0.8285
 3761SOL    HW222917   0.720   1.341  16.476  0.4301  1.4364  0.5659
 3762SOL     OW22918   3.439   0.492   4.045  0.0334 -0.3568 -0.1381
 3762SOL    HW122919   3.365   0.438   4.017 -1.2237 -0.2694  3.0095
 3762SOL    HW222920   3.474   0.529   3.963  2.1267 -1.2149  0.3541
 3763SOL     OW22921   3.913   0.065   9.322 -0.6115  0.6682  0.2809
 3763SOL    HW122922   3.954   0.109   9.397 -1.0073  2.4919 -0.5612
 3763SOL    HW222923   3.931   4.712   9.338  1.1621  1.2968  1.8632
 3764SOL     OW22924   3.969   3.179  12.981  0.5304  0.1104  0.0497
 3764SOL    HW122925   4.017   3.227  13.048  3.1462 -2.7490  0.2252
 3764SOL    HW222926   3.892   3.157  13.034 -0.0824  0.0940 -0.8363
 3765SOL     OW22927   1.634   0.658   2.183 -0.0465 -0.3823  1.0118
 3765SOL    HW122928   1.696   0.706   2.238  0.7007  0.7846 -0.8499
 3765SOL    HW222929   1.562   0.653   2.246  0.6235 -1.9550  1.6425
 3766SOL     OW22930   0.120   4.204   6.577 -0.1522 -0.3159 -0.2412
 3766SOL    HW122931   0.181   4.276   6.557  0.9176 -2.3543 -4.3380
 3766SOL    HW222932   0.112   4.201   6.673  2.5695 -0.8406 -0.0294
 3767SOL     OW22933   2.283   2.472   2.027  0.4374 -0.0039  0.2244
 3767SOL    HW122934   2.230   2.413   2.080  0.0582  1.9644  2.0242
 3767SOL    HW222935   2.221   2.542   2.006  1.1070  0.7561  0.7798
 3768SOL     OW22936   0.880   3.526   7.192 -0.0029  0.3004  0.1758
 3768SOL    HW122937   0.837   3.518   7.107 -0.2846  0.4304  0.3074
 3768SOL    HW222938   0.805   3.508   7.249  0.6314 -1.4376  0.4521
 3769SOL     OW22939   3.562   2.814   4.035  0.1225 -0.2569 -0.2318
 3769SOL    HW122940   3.520   2.898   4.018  1.9420  0.4951 -0.9103
 3769SOL    HW222941   3.568   2.812   4.131 -2.8649  2.2312  0.0327
 3770SOL     OW22942   4.213   1.637   9.994 -0.3524 -0.3562  0.3632
 3770SOL    HW122943   4.123   1.630  10.024 -0.9883  2.0157 -0.9998
 3770SOL    HW222944   4.196   1.693   9.919 -0.0911  0.3911  0.8599
 3771SOL     OW22945   4.511   1.718  13.563 -0.1559  0.1869  0.8144
 3771SOL    HW122946   4.453   1.753  13.496 -0.4780 -0.8782  0.5339
 3771SOL    HW222947   4.521   1.793  13.622  0.7160 -0.5656  1.6079
 3772SOL     OW22948   2.026   3.379   1.516 -0.0389 -0.4487  0.3822
 3772SOL    HW122949   2.022   3.299   1.568  1.3734 -0.1731  0.9164
 3772SOL    HW222950   1.941   3.378   1.471 -0.6342  0.3030  1.4810
 3773SOL     OW22951   3.704   2.591   0.654  0.0734 -0.0536  0.0258
 3773SOL    HW122952   3.671   2.572   0.742  1.0292  0.3112  0.4693
 3773SOL    HW222953   3.789   2.626   0.681 -0.9521  0.5803  2.4001
 3774SOL     OW22954   2.615   2.161   2.115  0.5754 -0.0670 -0.0927
 3774SOL    HW122955   2.619   2.188   2.023 -3.0349 -0.8057 -0.4656
 3774SOL    HW222956   2.614   2.249   2.152 -0.1703  0.2293 -0.8183
 3775SOL     OW22957   0.695   3.779   4.064 -0.6612  0.1010 -0.2191
 3775SOL    HW122958   0.666   3.853   4.012  0.6775  1.2661  0.7041
 3775SOL    HW222959   0.613   3.766   4.112  0.2640 -2.4981  0.6981
 3776SOL     OW22960   3.597   0.901  16.696  0.1994  0.3195  0.1052
 3776SOL    HW122961   3.568   0.813  16.669 -0.5918  0.6922 -0.2698
 3776SOL    HW222962   3.523   0.950  16.660  1.5305  2.7009  0.6754
 3777SOL     OW22963   0.177   4.185   6.283 -0.0979 -0.1497 -0.2668
 3777SOL    HW122964   0.171   4.278   6.261  0.5531  0.0955  0.5988
 3777SOL    HW222965   0.133   4.173   6.368  1.8055 -2.5483  0.3676
 3778SOL     OW22966   0.018   2.122   3.352 -0.4281 -0.0982 -0.7740
 3778SOL    HW122967   4.666   2.120   3.321 -1.3920  1.4571  1.9042
 3778SOL    HW222968   0.058   2.125   3.266  0.2058  1.2781 -0.4365
 3779SOL     OW22969   0.568   3.179   3.153 -1.0595  0.7325  0.9141
 3779SOL    HW122970   0.647   3.152   3.200  1.7995  1.1060 -3.6822
 3779SOL    HW222971   0.523   3.095   3.157  0.7110 -0.2539  0.1266
 3780SOL     OW22972   1.018   3.814   2.768  0.3664 -0.8707 -0.0193
 3780SOL    HW122973   1.101   3.802   2.813  0.5454 -0.5500 -0.2612
 3780SOL    HW222974   0.987   3.724   2.772 -0.1921 -0.7319 -1.0577
 3781SOL     OW22975   0.520   4.386   2.536 -0.3048 -0.1041 -0.0259
 3781SOL    HW122976   0.510   4.308   2.482 -2.8747  0.7199 -0.7267
 3781SOL    HW222977   0.530   4.351   2.625 -0.2780 -0.3012 -0.1075
 3782SOL     OW22978   2.876   2.952  14.969 -0.1107 -0.3814 -1.0059
 3782SOL    HW122979   2.928   2.985  15.042  0.8669 -0.1319 -1.8200
 3782SOL    HW222980   2.939   2.894  14.927 -0.0648 -1.2325  0.2216
 3783SOL     OW22981   4.272   0.485  16.052 -0.1899 -0.0559 -0.1554
 3783SOL    HW122982   4.190   0.472  16.005  0.0581 -0.8496 -0.3713
 3783SOL    HW222983   4.259   0.437  16.134  0.9452  0.8503  0.5685
 3784SOL     OW22984   3.799   4.416   5.610 -0.3761 -1.0422  0.5646
 3784SOL    HW122985   3.750   4.336   5.628 -0.3576 -1.8601 -3.0335
 3784SOL    HW222986   3.729   4.479   5.629  0.6123 -1.0824  4.3805
 3785SOL     OW22987   2.979   4.236   4.036 -0.1047  0.3611 -0.0027
 3785SOL    HW122988   3.070   4.228   4.064 -0.8413 -0.3627  2.2297
 3785SOL    HW222989   2.948   4.145   4.041  0.8016 -0.0850 -2.2018
 3786SOL     OW22990   2.290   0.523  14.175  0.8259  0.2188 -0.1519
 3786SOL    HW122991   2.383   0.518  14.156  1.0083  0.5102  0.6443
 3786SOL    HW222992   2.272   0.615  14.192 -1.8406 -0.5045  1.0304
 3787SOL     OW22993   4.011   3.420  17.395 -0.0364 -0.5312 -0.1353
 3787SOL    HW122994   3.951   3.461  17.333 -1.7611 -1.6927  0.7655
 3787SOL    HW222995   4.095   3.426  17.350 -0.0250 -0.3944 -0.0954
 3788SOL     OW22996   2.629   2.906  17.694  0.4645  0.0118 -0.4008
 3788SOL    HW122997   2.583   2.878   0.020  3.0850 -1.2429  0.6906
 3788SOL    HW222998   2.714   2.872  17.721  1.0026  0.9595 -0.8882
 3789SOL     OW22999   4.256   1.970   4.388 -0.0542 -0.0108 -0.2449
 3789SOL    HW123000   4.257   1.931   4.476 -0.0772  0.0133 -0.2340
 3789SOL    HW223001   4.275   2.061   4.407 -2.2355  0.0492  1.7070
 3790SOL     OW23002   3.489   4.246   5.018  0.3605 -0.3137  0.1139
 3790SOL    HW123003   3.419   4.199   4.972 -0.5734  2.3484 -1.2050
 3790SOL    HW223004   3.441   4.328   5.027  1.6382  0.6851 -2.3239
 3791SOL     OW23005   1.395   4.451   7.505  0.0570 -0.1348 -0.2637
 3791SOL    HW123006   1.460   4.401   7.455 -0.3381 -1.8435  0.9386
 3791SOL    HW223007   1.321   4.454   7.445 -1.0449 -1.5484  1.0316
 3792SOL     OW23008   3.663   0.173  17.513 -0.0427 -0.7807 -0.4364
 3792SOL    HW123009   3.743   0.206  17.471 -2.0344  1.5030 -2.4200
 3792SOL    HW223010   3.599   0.166  17.443 -0.7395  1.2929  0.0009
 3793SOL     OW23011   2.752   0.536   6.657  0.2758  0.3014  0.0489
 3793SOL    HW123012   2.750   0.601   6.586 -2.4527 -0.9197 -1.0250
 3793SOL    HW223013   2.669   0.500   6.625 -0.5228  2.3214 -0.1875
 3794SOL     OW23014   2.187   3.211   7.204 -0.3645  0.3858 -0.2473
 3794SOL    HW123015   2.235   3.184   7.126  1.4195 -1.7378  1.5913
 3794SOL    HW223016   2.179   3.126   7.247 -0.1650 -0.5984 -2.1960
 3795SOL     OW23017   0.628   4.137   2.101 -0.1239 -0.1812  0.0514
 3795SOL    HW123018   0.628   4.204   2.032  0.7764  1.3270  1.4932
 3795SOL    HW223019   0.637   4.199   2.175  0.6885  0.0817 -0.2618
 3796SOL     OW23020   4.078   3.463   8.596 -0.0271 -0.2637 -0.1012
 3796SOL    HW123021   4.147   3.528   8.612  1.7204 -2.0087 -0.5504
 3796SOL    HW223022   4.122   3.409   8.530  1.4401 -0.1198  0.7397
 3797SOL     OW23023   3.690   3.699   9.310 -0.1274 -0.2589  0.1970
 3797SOL    HW123024   3.635   3.685   9.233  2.2549 -2.2908 -1.1463
 3797SOL    HW223025   3.631   3.697   9.385 -1.5507 -0.4448 -0.9138
 3798SOL     OW23026   1.335   0.756   6.756  0.4930  0.1431  0.0207
 3798SOL    HW123027   1.361   0.721   6.841  0.3181 -2.0972 -0.8522
 3798SOL    HW223028   1.326   0.850   6.773 -0.4581  0.1572 -0.5197
 3799SOL     OW23029   2.441   4.709  13.005  0.0795  0.2670  0.0907
 3799SOL    HW123030   2.460   4.697  12.912 -1.7786 -0.7020 -0.1685
 3799SOL    HW223031   2.514   0.028  13.025 -0.1706  0.7004 -0.2338
 3800SOL     OW23032   1.301   1.170   3.946 -0.7748 -0.1118 -0.1216
 3800SOL    HW123033   1.246   1.201   3.873 -2.0132 -0.7774  0.5223
 3800SOL    HW223034   1.296   1.250   3.998 -0.6956 -0.5404  0.5470
 3801SOL     OW23035   3.816   3.911   8.009  0.2909  0.1116  0.0753
 3801SOL    HW123036   3.896   3.921   8.060  0.7137  0.4828 -0.6626
 3801SOL    HW223037   3.748   3.930   8.074 -0.6159 -0.7781 -0.6168
 3802SOL     OW23038   1.366   1.491   9.383 -0.7145 -0.2716 -0.3291
 3802SOL    HW123039   1.356   1.550   9.308  1.7654  0.0295 -0.4230
 3802SOL    HW223040   1.397   1.410   9.343 -1.3024 -0.6655  0.0165
 3803SOL     OW23041   4.358   1.649   8.164  0.4613  0.0811  0.0678
 3803SOL    HW123042   4.379   1.687   8.250 -3.4159 -0.5923  1.2741
 3803SOL    HW223043   4.341   1.558   8.185  1.0197 -0.4082 -1.5941
 3804SOL     OW23044   2.903   0.182   7.917 -0.1957  0.0206  0.1608
 3804SOL    HW123045   2.931   0.227   7.837  1.9718 -1.1721  0.2430
 3804SOL    HW223046   2.913   0.088   7.898  0.3440 -0.1649  1.3571
 3805SOL     OW23047   3.455   3.976   1.882  0.3861 -0.3292 -0.0978
 3805SOL    HW123048   3.515   4.050   1.882  0.1888 -0.1741  0.6901
 3805SOL    HW223049   3.464   3.949   1.973  0.1677  0.8230  0.2570
 3806SOL     OW23050   1.231   0.402   7.369 -0.0957 -0.6347  0.1898
 3806SOL    HW123051   1.187   0.487   7.364  0.8592 -0.1602  0.0452
 3806SOL    HW223052   1.159   0.349   7.335 -0.0885 -0.1903 -0.5087
 3807SOL     OW23053   1.589   3.062   0.670  0.0562 -0.0746  0.5403
 3807SOL    HW123054   1.516   3.021   0.623 -0.7231  1.3575  0.5123
 3807SOL    HW223055   1.643   2.987   0.696 -1.7628 -1.8004 -0.6186
 3808SOL     OW23056   3.897   0.089   0.921  0.2314  0.4980 -0.2386
 3808SOL    HW123057   3.960   0.149   0.881 -0.3121  1.0773 -0.2120
 3808SOL    HW223058   3.881   0.136   1.003 -1.4226  1.5250 -1.1576
 3809SOL     OW23059   4.009   0.741  12.379 -0.1776  0.1691 -0.2127
 3809SOL    HW123060   4.016   0.666  12.437 -2.8305  1.3022  1.6111
 3809SOL    HW223061   3.923   0.743  12.336  0.0736  1.4665 -0.6574
 3810SOL     OW23062   1.762   0.958   3.719  0.9155 -0.6411 -0.9774
 3810SOL    HW123063   1.718   0.888   3.767  1.9402  0.4432  1.6028
 3810SOL    HW223064   1.842   0.962   3.773  0.1845  3.2588 -0.1599
 3811SOL     OW23065   1.232   2.672   8.524 -0.0422 -0.4187 -0.0278
 3811SOL    HW123066   1.181   2.751   8.543 -1.1941 -1.0297 -0.5947
 3811SOL    HW223067   1.323   2.693   8.545 -0.6400  1.5813  0.6032
 3812SOL     OW23068   3.280   1.802   1.602  0.8503  0.0135 -0.0488
 3812SOL    HW123069   3.200   1.806   1.654  1.2332 -1.1150  0.6316
 3812SOL    HW223070   3.305   1.710   1.593 -0.0520 -0.4319  1.9008
 3813SOL     OW23071   0.166   1.086   9.174  0.4789 -0.0062 -0.3960
 3813SOL    HW123072   0.217   1.163   9.195 -1.3972  0.5630  2.0040
 3813SOL    HW223073   0.118   1.107   9.093 -0.0274 -2.6295 -0.7900
 3814SOL     OW23074   0.582   3.390   4.642 -0.3156 -0.3190 -0.3637
 3814SOL    HW123075   0.632   3.461   4.601  0.8861 -0.8684  0.1534
 3814SOL    HW223076   0.528   3.370   4.566  1.6460 -0.0328 -1.8370
 3815SOL     OW23077   4.132   1.263   6.831 -0.3228 -0.0160 -0.0849
 3815SOL    HW123078   4.151   1.180   6.787  1.0137  0.1096  0.2729
 3815SOL    HW223079   4.116   1.241   6.923 -1.3022  2.3943  0.3080
 3816SOL     OW23080   3.102   1.954   8.009 -0.5408 -0.2767 -0.0561
 3816SOL    HW123081   3.077   1.961   8.101 -3.3047 -2.5092 -0.6445
 3816SOL    HW223082   3.089   1.861   7.991  1.8485 -0.6271 -0.0192
 3817SOL     OW23083   0.314   1.931   2.046 -0.3192  0.0479  0.1359
 3817SOL    HW123084   0.317   1.959   2.138 -0.7655 -1.9472  0.7560
 3817SOL    HW223085   0.303   1.837   2.059  0.3821 -0.1124 -0.4636
 3818SOL     OW23086   2.733   1.846   8.170  0.0957 -0.4244  0.1987
 3818SOL    HW123087   2.698   1.813   8.253 -1.0496 -2.2636 -0.9966
 3818SOL    HW223088   2.654   1.877   8.126  0.0144 -0.0135  0.6281
 3819SOL     OW23089   2.628   3.861  16.097 -0.0764  0.3139  0.5245
 3819SOL    HW123090   2.659   3.860  16.006  0.1250 -2.6621  0.6520
 3819SOL    HW223091   2.654   3.943  16.139 -0.7691  2.1571 -2.6142
 3820SOL     OW23092   2.556   1.352   5.811  0.0642 -0.1096  0.0490
 3820SOL    HW123093   2.636   1.301   5.796  0.0695  0.4974 -1.9426
 3820SOL    HW223094   2.597   1.435   5.835  1.1653 -0.1951 -1.5865
 3821SOL     OW23095   0.979   3.266  10.579 -0.1582  0.0200 -0.0809
 3821SOL    HW123096   1.057   3.266  10.635  1.4502  1.2731 -2.3100
 3821SOL    HW223097   0.942   3.350  10.607 -3.5000 -0.5693 -2.8036
 3822SOL     OW23098   0.627   0.505   3.016  0.4852 -0.0197  0.5431
 3822SOL    HW123099   0.541   0.547   3.009  0.9331  0.7381 -0.4377
 3822SOL    HW223100   0.612   0.459   3.098  1.2560  0.3675  0.9014
 3823SOL     OW23101   2.316   2.678   3.006 -0.3255 -0.1622  0.0684
 3823SOL    HW123102   2.340   2.755   2.955 -2.3764  0.4264 -0.0001
 3823SOL    HW223103   2.328   2.604   2.946  0.7582 -0.7690  1.0399
 3824SOL     OW23104   1.691   3.113   5.028  0.4181 -0.1808 -0.0412
 3824SOL    HW123105   1.708   3.104   5.122 -0.0198 -0.9888 -0.0378
 3824SOL    HW223106   1.768   3.161   4.999 -1.1792  1.6775 -1.1606
 3825SOL     OW23107   3.113   0.158   2.004  0.4749 -0.2848  0.1606
 3825SOL    HW123108   3.043   0.221   2.024 -1.5729 -1.5466 -3.0279
 3825SOL    HW223109   3.064   0.114   1.935 -1.6886  0.0839  1.4413
 3826SOL     OW23110   1.925   1.690  14.458  0.3487  0.2471  0.4559
 3826SOL    HW123111   1.953   1.773  14.419 -0.5383 -0.7436 -2.2853
 3826SOL    HW223112   1.912   1.629  14.386  1.2122  1.5912 -0.8407
 3827SOL     OW23113   0.614   3.515  15.348 -0.1237  0.2120  0.1019
 3827SOL    HW123114   0.563   3.468  15.415 -0.8371  2.6883  1.2937
 3827SOL    HW223115   0.641   3.441  15.294  0.0188 -1.9136  3.0803
 3828SOL     OW23116   1.481   4.609   2.235 -0.2243 -0.0480  0.3160
 3828SOL    HW123117   1.481   4.703   2.253  0.1456  0.0646 -0.2834
 3828SOL    HW223118   1.394   4.594   2.197 -0.1022 -0.1939  0.0954
 3829SOL     OW23119   2.284   2.229   8.842  0.2711  0.0921  0.8463
 3829SOL    HW123120   2.342   2.205   8.914 -2.5669  0.6008  3.3050
 3829SOL    HW223121   2.341   2.289   8.795 -0.9773 -0.3494 -1.2634
 3830SOL     OW23122   3.665   3.779   4.742 -0.2826  0.1225  0.0234
 3830SOL    HW123123   3.622   3.696   4.764  1.5059 -0.9686 -0.5537
 3830SOL    HW223124   3.756   3.750   4.733 -0.3515 -1.0037  3.0629
 3831SOL     OW23125   3.090   2.867  14.818  0.1237  0.1522  0.0008
 3831SOL    HW123126   3.159   2.824  14.767 -0.5477 -0.8786 -0.0475
 3831SOL    HW223127   3.148   2.924  14.868 -3.1628  3.1451  0.3840
 3832SOL     OW23128   2.598   3.064   8.627  0.7372 -0.2205  0.0202
 3832SOL    HW123129   2.558   3.132   8.573 -0.6627 -0.9112  0.2102
 3832SOL    HW223130   2.672   3.111   8.665  0.0881  0.4002  0.5092
 3833SOL     OW23131   0.329   4.088  13.755  0.1098 -0.2146  0.5198
 3833SOL    HW123132   0.370   4.140  13.686  0.3394  2.6559  2.8319
 3833SOL    HW223133   0.261   4.154  13.766  0.5430 -0.0575  2.1485
 3834SOL     OW23134   2.209   2.986  10.401  0.6739  0.3540 -0.4329
 3834SOL    HW123135   2.127   2.987  10.451  0.8522 -1.3867 -0.0890
 3834SOL    HW223136   2.204   2.897  10.365 -0.7815 -0.3981  1.5597
 3835SOL     OW23137   2.499   4.451   6.388 -0.0036 -0.0599 -0.4613
 3835SOL    HW123138   2.443   4.380   6.356 -1.1983  0.3836  0.6987
 3835SOL    HW223139   2.428   4.513   6.375 -0.3104 -0.2391  0.4014
 3836SOL     OW23140   2.175   3.218   3.821 -0.1193  0.1099  0.0431
 3836SOL    HW123141   2.216   3.233   3.906 -0.0929 -1.8869  0.3757
 3836SOL    HW223142   2.156   3.124   3.820  3.6056 -0.6828  2.0661
 3837SOL     OW23143   4.713   4.131   8.873 -0.4111 -0.5811  0.3834
 3837SOL    HW123144   4.650   4.202   8.876 -1.0760 -1.1142 -0.9720
 3837SOL    HW223145   4.698   4.082   8.792  1.4976 -1.1604  0.3592
 3838SOL     OW23146   4.530   1.944   2.989  0.3012 -0.6873  0.3702
 3838SOL    HW123147   4.567   1.877   2.931  1.7159  0.4920 -0.0971
 3838SOL    HW223148   4.462   1.978   2.931  1.6773 -1.0808 -1.4890
 3839SOL     OW23149   4.202   4.267   8.117 -0.0165  0.0573  0.4584
 3839SOL    HW123150   4.165   4.237   8.200  0.3348  0.0301  0.6072
 3839SOL    HW223151   4.219   4.361   8.118  2.2950 -0.3522  1.0486
 3840SOL     OW23152   1.867   0.209   2.054 -0.3479  0.5432 -0.4245
 3840SOL    HW123153   1.798   0.273   2.072  1.2173  1.2698  3.0097
 3840SOL    HW223154   1.829   0.131   2.095  1.7513  0.3647  1.1652
 3841SOL     OW23155   0.644   0.251   7.594  0.4610  0.2701 -0.2683
 3841SOL    HW123156   0.589   0.227   7.668 -0.0579 -0.2974 -0.8316
 3841SOL    HW223157   0.602   0.336   7.578 -0.5156 -0.0389  0.6503
 3842SOL     OW23158   0.223   0.027   5.998 -1.3390 -0.5610  0.0059
 3842SOL    HW123159   0.315   0.032   6.021 -1.5372  0.7534  0.5191
 3842SOL    HW223160   0.214   0.116   5.964 -1.2921 -1.4336 -2.3127
 3843SOL     OW23161   2.907   0.591   6.890 -1.0074  0.3137  0.1625
 3843SOL    HW123162   2.876   0.556   6.807 -3.4065  1.7024  0.4826
 3843SOL    HW223163   2.839   0.655   6.911 -2.3602 -0.9925 -0.2645
 3844SOL     OW23164   3.743   4.012  14.510  0.0491  0.0814  0.3820
 3844SOL    HW123165   3.801   3.959  14.565  0.0507 -0.5045 -0.1806
 3844SOL    HW223166   3.798   4.028  14.433  0.2655  1.0291  0.7347
 3845SOL     OW23167   4.223   3.982   1.642 -0.4337 -0.4928  0.4139
 3845SOL    HW123168   4.307   3.964   1.599  0.0538 -3.1515  2.4472
 3845SOL    HW223169   4.218   4.077   1.631 -0.3869 -0.1483  3.2683
 3846SOL     OW23170   1.272   1.981  10.655 -0.2451  0.2982  0.0851
 3846SOL    HW123171   1.365   1.998  10.642 -1.0568  3.6617 -1.4314
 3846SOL    HW223172   1.242   1.995  10.565 -1.1975  0.8723  0.4867
 3847SOL     OW23173   4.504   1.507  12.324  0.5909  0.3921  0.4674
 3847SOL    HW123174   4.580   1.451  12.340 -0.9637 -0.7756  3.6865
 3847SOL    HW223175   4.546   1.586  12.291  1.5595  0.0897  0.9722
 3848SOL     OW23176   3.080   1.024  17.272  0.1021  0.3397  1.0340
 3848SOL    HW123177   3.127   0.991  17.196 -0.9214  2.4473 -0.5297
 3848SOL    HW223178   2.996   0.980  17.260 -0.3520  1.8836 -1.4299
 3849SOL     OW23179   4.587   3.556   4.537  0.2411  0.8563  0.0012
 3849SOL    HW123180   4.506   3.566   4.487 -1.0245 -1.1891  1.6871
 3849SOL    HW223181   4.586   3.642   4.581  4.0905  0.4275  0.8907
 3850SOL     OW23182   2.097   3.821   3.563  0.2327  0.8901 -0.3765
 3850SOL    HW123183   2.013   3.802   3.522 -0.4399  0.6879  1.1187
 3850SOL    HW223184   2.068   3.868   3.641  0.8005 -2.4591  1.8743
 3851SOL     OW23185   1.032   4.680   9.202 -0.3639 -0.1071 -0.8735
 3851SOL    HW123186   1.051   0.006   9.134  0.9571  1.2165  0.7452
 3851SOL    HW223187   0.972   4.617   9.163  0.7069 -0.7500 -1.4619
 3852SOL     OW23188   4.342   1.540   7.206  0.4253 -0.0360 -0.5147
 3852SOL    HW123189   4.428   1.504   7.226  1.3839  1.5098 -1.7657
 3852SOL    HW223190   4.303   1.517   7.290  0.6965 -0.3181 -0.4671
 3853SOL     OW23191   0.173   4.422   3.218 -0.4975  0.1346  0.1691
 3853SOL    HW123192   0.217   4.457   3.295 -0.0155  1.1481 -0.5633
 3853SOL    HW223193   0.206   4.470   3.142  0.1212  1.6467  1.3944
 3854SOL     OW23194   1.045   1.321   5.413 -0.4781  0.5947 -0.0314
 3854SOL    HW123195   1.061   1.280   5.328 -2.4199 -1.6887  0.6783
 3854SOL    HW223196   1.108   1.393   5.420 -0.6903  0.7654  0.1067
 3855SOL     OW23197   4.453   0.393   2.035 -0.4868 -0.4551  0.1646
 3855SOL    HW123198   4.531   0.446   2.019 -0.3922 -1.0340 -1.2477
 3855SOL    HW223199   4.460   0.380   2.130 -0.2507 -0.1275  0.1955
 3856SOL     OW23200   4.178   2.940   9.528 -0.2730  0.2174  0.2315
 3856SOL    HW123201   4.232   3.018   9.515  0.7659 -0.2389  1.7131
 3856SOL    HW223202   4.097   2.988   9.544  0.0184  0.7391  0.1770
 3857SOL     OW23203   4.494   1.988  13.683  0.3869  0.2735  0.2687
 3857SOL    HW123204   4.560   2.012  13.748  0.1983 -0.3141  0.6746
 3857SOL    HW223205   4.417   1.998  13.739 -0.1424 -1.1715 -0.2033
 3858SOL     OW23206   0.969   4.541   7.982  0.0750  0.2928 -0.8005
 3858SOL    HW123207   0.951   4.517   7.892  0.0387 -1.9388 -0.1969
 3858SOL    HW223208   0.898   4.491   8.023  0.2902  0.1447 -0.6078
 3859SOL     OW23209   0.240   3.633   5.466  0.7002 -0.4484  0.2919
 3859SOL    HW123210   0.188   3.629   5.546  2.5823  1.3388  1.6118
 3859SOL    HW223211   0.288   3.549   5.472 -0.7547 -0.9953  4.0167
 3860SOL     OW23212   2.836   2.885   0.125 -0.3401 -0.2574  0.0330
 3860SOL    HW123213   2.884   2.876   0.043 -1.4054 -0.5937 -0.5448
 3860SOL    HW223214   2.895   2.866   0.198  0.3054 -2.0178 -0.9556
 3861SOL     OW23215   1.042   3.893  10.688  0.0738 -0.1012 -0.0935
 3861SOL    HW123216   0.957   3.936  10.679  0.6918  1.0119 -0.5183
 3861SOL    HW223217   1.019   3.800  10.689 -2.0016  0.4063 -1.1400
 3862SOL     OW23218   2.013   1.006  17.248 -0.1827 -0.1568  0.2955
 3862SOL    HW123219   1.929   0.963  17.230 -0.1276  0.2619 -0.9809
 3862SOL    HW223220   2.072   0.942  17.207 -1.3780 -1.1514  0.1228
 3863SOL     OW23221   1.935   2.904  13.090 -0.3109  0.5358  0.0958
 3863SOL    HW123222   1.981   2.952  13.158  0.7970 -2.1309  1.2118
 3863SOL    HW223223   1.863   2.961  13.062 -0.3933  0.1281 -0.5377
 3864SOL     OW23224   0.464   1.784   7.949 -0.2978  0.3208  0.2867
 3864SOL    HW123225   0.376   1.751   7.933  0.5449 -1.5800 -0.4522
 3864SOL    HW223226   0.518   1.727   7.895 -2.5737 -1.6897  0.1624
 3865SOL     OW23227   1.053   3.239  14.946 -0.0999 -0.1945  0.8651
 3865SOL    HW123228   1.148   3.226  14.943 -0.0894  0.0072  0.3107
 3865SOL    HW223229   1.053   3.330  14.975  1.4779 -0.9975  3.4379
 3866SOL     OW23230   1.663   1.393   5.908  0.0754  0.3885 -0.4164
 3866SOL    HW123231   1.699   1.386   5.996  2.2239 -2.1757 -1.4974
 3866SOL    HW223232   1.741   1.432   5.868  0.3411  1.3716  1.0688
 3867SOL     OW23233   2.386   0.506  10.768 -0.4530 -0.2138  0.2810
 3867SOL    HW123234   2.344   0.503  10.854 -0.0947 -1.8748  0.3850
 3867SOL    HW223235   2.418   0.416  10.765  0.7630  0.1304  3.2532
 3868SOL     OW23236   0.484   2.488  13.313  0.3586 -0.2396 -0.4116
 3868SOL    HW123237   0.491   2.554  13.243  0.2946  0.4401  0.2188
 3868SOL    HW223238   0.528   2.525  13.390  0.0763  1.8625 -1.2457
 3869SOL     OW23239   0.949   2.600  11.764  0.2374  0.1436 -0.3431
 3869SOL    HW123240   0.978   2.667  11.702  1.4330  1.0175  1.1673
 3869SOL    HW223241   1.031   2.552  11.752  0.6770  1.4707 -2.6705
 3870SOL     OW23242   3.275   4.273   4.125  0.8180  0.1977  0.0330
 3870SOL    HW123243   3.335   4.330   4.075  1.0281  0.5407  0.6816
 3870SOL    HW223244   3.309   4.184   4.120  0.4161  0.0895 -0.8229
 3871SOL     OW23245   2.831   1.617   9.689  0.8646 -0.2123  0.2422
 3871SOL    HW123246   2.798   1.702   9.719  0.3983 -0.0819 -0.6352
 3871SOL    HW223247   2.921   1.629   9.721  0.9059 -0.7560  0.3193
 3872SOL     OW23248   2.960   3.836   2.224 -0.2746  0.2353 -0.4412
 3872SOL    HW123249   2.893   3.889   2.180  1.9924  1.6100 -2.2646
 3872SOL    HW223250   3.030   3.901   2.235  0.6183 -0.8424  0.1857
 3873SOL     OW23251   4.167   2.802   6.338 -0.3405  0.2679 -0.0082
 3873SOL    HW123252   4.177   2.823   6.431 -2.1703 -0.1457  0.2721
 3873SOL    HW223253   4.138   2.892   6.321 -0.0264  0.0004 -1.9745
 3874SOL     OW23254   1.640   0.569   3.717 -0.0550  0.5627 -0.1647
 3874SOL    HW123255   1.609   0.638   3.776 -2.3898 -2.2660  1.9701
 3874SOL    HW223256   1.557   0.523   3.700  0.8732 -0.4730 -1.8412
 3875SOL     OW23257   2.070   4.652  17.387 -0.3850 -0.4987 -0.2656
 3875SOL    HW123258   2.031   4.733  17.419 -0.3450  0.2047 -2.0224
 3875SOL    HW223259   2.101   4.618  17.471 -2.4648 -0.7493  0.3949
 3876SOL     OW23260   1.651   4.470   2.429 -0.4746  0.4755 -0.3753
 3876SOL    HW123261   1.598   4.510   2.359 -0.8038 -1.6406 -1.3434
 3876SOL    HW223262   1.666   4.382   2.394  1.7436  0.6660  0.0899
 3877SOL     OW23263   1.694   0.863   1.892  0.6049 -0.4565 -0.0398
 3877SOL    HW123264   1.649   0.797   1.946 -1.0916 -0.2756 -1.2663
 3877SOL    HW223265   1.779   0.819   1.887  1.5501  1.1117  2.0731
 3878SOL     OW23266   0.725   0.750   2.283  0.3929  0.5747 -0.9989
 3878SOL    HW123267   0.813   0.729   2.252  0.8124  1.5571 -0.4885
 3878SOL    HW223268   0.742   0.770   2.375  0.8743  2.3037 -1.4620
 3879SOL     OW23269   4.406   3.459   4.219 -0.3722  0.2634  0.5554
 3879SOL    HW123270   4.326   3.491   4.177  0.8408 -0.0258 -2.0096
 3879SOL    HW223271   4.375   3.374   4.249  0.2010  0.5121  1.8523
 3880SOL     OW23272   0.204   1.328   3.887 -0.3980 -0.3264 -0.1026
 3880SOL    HW123273   0.121   1.284   3.904  0.0394 -1.0191  0.2398
 3880SOL    HW223274   0.187   1.393   3.818  2.7277  0.6235  0.0303
 3881SOL     OW23275   0.749   1.125   7.949 -0.3265 -0.1346 -0.0198
 3881SOL    HW123276   0.704   1.104   7.867 -0.8355 -1.1884  0.5371
 3881SOL    HW223277   0.679   1.137   8.012 -0.1164 -3.1752  0.8244
 3882SOL     OW23278   3.524   3.285   3.248  0.2811 -0.1313 -0.2490
 3882SOL    HW123279   3.580   3.332   3.310 -2.0668  1.2805  0.7960
 3882SOL    HW223280   3.437   3.299   3.285  0.0470 -1.5827 -0.2804
 3883SOL     OW23281   2.101   2.417  10.745  0.5395 -0.2084 -0.3984
 3883SOL    HW123282   2.154   2.438  10.822  0.7881 -0.9600 -0.3594
 3883SOL    HW223283   2.017   2.401  10.788  0.3053 -2.1754 -1.6024
 3884SOL     OW23284   4.713   2.024  14.855  0.0881 -0.5292  0.2846
 3884SOL    HW123285   0.013   1.952  14.806 -1.2362 -1.8070  1.1089
 3884SOL    HW223286   0.021   2.094  14.811 -1.6624  0.0853 -0.6070
 3885SOL     OW23287   0.823   3.222   6.837  0.3985  0.5455  0.1703
 3885SOL    HW123288   0.749   3.217   6.898 -0.1946 -2.5472 -0.8503
 3885SOL    HW223289   0.889   3.259   6.897 -0.4714  0.6816  1.0502
 3886SOL     OW23290   1.171   4.009  13.195  0.1700 -0.2670 -0.3732
 3886SOL    HW123291   1.089   4.001  13.147  0.4091 -1.0239 -0.6645
 3886SOL    HW223292   1.189   3.922  13.231 -0.7081 -1.0975 -1.9232
 3887SOL     OW23293   3.445   4.692   0.536  0.1582  0.7592 -0.1950
 3887SOL    HW123294   3.419   0.020   0.472  1.3259  1.5601  0.1613
 3887SOL    HW223295   3.498   4.632   0.484  1.9776  1.1030  1.2815
 3888SOL     OW23296   2.856   4.677   9.488 -0.1934 -0.3912  0.2015
 3888SOL    HW123297   2.817   4.710   9.407 -1.2353 -0.9193  0.4985
 3888SOL    HW223298   2.943   4.716   9.478 -0.7808  0.5515 -1.1569
 3889SOL     OW23299   1.388   2.785   3.691 -0.2041 -0.2621 -0.4966
 3889SOL    HW123300   1.412   2.861   3.744 -0.8760 -0.2039 -0.2753
 3889SOL    HW223301   1.309   2.759   3.738  1.9947 -0.5357  3.0520
 3890SOL     OW23302   4.333   2.542   3.810 -0.0836  0.2925  0.1336
 3890SOL    HW123303   4.426   2.565   3.811 -0.4212  1.6812  0.1459
 3890SOL    HW223304   4.315   2.544   3.903  0.9037 -1.7074  0.3549
 3891SOL     OW23305   0.720   2.268   2.205  0.4876  0.3947  0.5563
 3891SOL    HW123306   0.719   2.361   2.183 -0.9456 -0.2614 -2.2058
 3891SOL    HW223307   0.757   2.232   2.125  1.0517 -1.6710  1.7499
 3892SOL     OW23308   2.860   2.611   7.610  0.0842 -0.1058  0.1636
 3892SOL    HW123309   2.907   2.577   7.534 -0.1213  1.3680 -0.6211
 3892SOL    HW223310   2.853   2.534   7.667 -0.1434 -1.1221 -1.2356
 3893SOL     OW23311   3.229   0.664   5.382 -0.1645  0.0226  0.3874
 3893SOL    HW123312   3.257   0.592   5.440 -0.9010  1.6693  2.7892
 3893SOL    HW223313   3.140   0.633   5.370  0.4313 -2.0768  1.3468
 3894SOL     OW23314   1.971   3.163   6.449  0.4116  0.0359 -0.3743
 3894SOL    HW123315   2.063   3.186   6.462 -0.5248  1.3228  3.8259
 3894SOL    HW223316   1.935   3.241   6.406  0.8538 -0.1152 -1.0200
 3895SOL     OW23317   1.329   2.039  10.109  0.1739  0.5878 -0.2629
 3895SOL    HW123318   1.257   2.082  10.155  2.1700  1.0264  2.4605
 3895SOL    HW223319   1.371   1.992  10.181  1.0801 -0.8785 -1.7569
 3896SOL     OW23320   3.618   4.399  14.046  0.2423  0.4466  0.6654
 3896SOL    HW123321   3.643   4.471  13.987  0.0023  0.6125  0.7675
 3896SOL    HW223322   3.537   4.437  14.078  1.5478  3.6516  0.2268
 3897SOL     OW23323   0.552   0.907   9.397  0.0272 -0.7662 -0.3814
 3897SOL    HW123324   0.491   0.907   9.471 -0.7308 -0.2672 -1.0043
 3897SOL    HW223325   0.488   0.890   9.328  0.3648  2.0525 -1.3761
 3898SOL     OW23326   0.784   2.155   5.075  0.4128  0.8510 -0.6011
 3898SOL    HW123327   0.754   2.240   5.106  1.0242  0.4904  0.9706
 3898SOL    HW223328   0.864   2.143   5.126  0.0704 -3.1793 -1.0085
 3899SOL     OW23329   2.349   0.730  11.425  0.5924 -0.7941 -0.1664
 3899SOL    HW123330   2.428   0.709  11.475 -0.2582  1.6092  2.1764
 3899SOL    HW223331   2.374   0.803  11.368 -1.0055 -0.4492 -0.4329
 3900SOL     OW23332   3.243   3.602   3.892 -0.5261  0.0821  0.0646
 3900SOL    HW123333   3.175   3.670   3.887  0.9553  1.5654 -0.1385
 3900SOL    HW223334   3.294   3.633   3.817 -3.3450  0.4686 -1.7056
 3901SOL     OW23335   1.306   3.100   1.449  0.0554 -0.0345 -0.3694
 3901SOL    HW123336   1.225   3.056   1.473 -0.1378  0.0170 -0.9397
 3901SOL    HW223337   1.343   3.035   1.390  1.1093  1.5239 -1.4194
 3902SOL     OW23338   1.829   1.062   1.581  0.2220 -0.2653  0.2395
 3902SOL    HW123339   1.898   1.125   1.559  0.7543 -1.0581 -0.3308
 3902SOL    HW223340   1.878   1.003   1.638  0.0369 -0.9719 -0.3298
 3903SOL     OW23341   1.894   2.162   3.305 -0.0011  0.0451  0.5400
 3903SOL    HW123342   1.821   2.165   3.367  1.3127  1.1168  2.0220
 3903SOL    HW223343   1.947   2.096   3.350  1.0225  0.6852  0.2567
 3904SOL     OW23344   3.014   1.957   2.430 -0.9710 -0.2952 -0.0936
 3904SOL    HW123345   2.967   2.016   2.488  0.3321  0.5172  0.1308
 3904SOL    HW223346   2.982   1.988   2.345 -2.6399  0.4949  0.8315
 3905SOL     OW23347   2.524   2.425  15.227 -0.6079  0.6588  0.0615
 3905SOL    HW123348   2.430   2.444  15.221 -0.1760  3.1093  0.7552
 3905SOL    HW223349   2.532   2.378  15.145 -0.3186 -1.0233  1.0653
 3906SOL     OW23350   0.876   1.491   7.878  0.3084 -0.4560 -0.2960
 3906SOL    HW123351   0.865   1.446   7.794 -1.9227  0.8474 -0.6925
 3906SOL    HW223352   0.901   1.580   7.852  1.1584 -1.4708 -3.0077
 3907SOL     OW23353   0.282   3.169   5.082 -0.3028 -0.3209  0.1391
 3907SOL    HW123354   0.318   3.164   4.994  0.1375  1.5062  0.2168
 3907SOL    HW223355   0.188   3.164   5.063 -0.3375  1.2711 -0.1357
 3908SOL     OW23356   1.065   1.798   2.103  0.2866 -0.2214 -0.7384
 3908SOL    HW123357   1.069   1.703   2.111 -1.1442 -0.2542 -0.4001
 3908SOL    HW223358   1.129   1.826   2.168  0.1411  3.3477 -2.0842
 3909SOL     OW23359   1.776   2.058   1.312  0.0343 -0.2510  0.1713
 3909SOL    HW123360   1.845   2.106   1.267  1.4170 -1.4095  1.0944
 3909SOL    HW223361   1.831   2.014   1.375 -0.5833 -1.3047 -0.0203
 3910SOL     OW23362   0.054   2.050   8.343 -0.2310 -0.2571 -0.2681
 3910SOL    HW123363   0.004   2.024   8.265 -2.0748 -2.8570  1.7618
 3910SOL    HW223364   0.123   2.099   8.298  0.1586  0.1836  0.8312
 3911SOL     OW23365   2.730   2.907  11.965 -0.3205 -0.7700 -0.1429
 3911SOL    HW123366   2.776   2.986  11.995 -0.4309 -0.4806 -0.7483
 3911SOL    HW223367   2.648   2.939  11.927 -0.0515  0.7909  0.6041
 3912SOL     OW23368   3.891   2.437   2.181 -0.1228 -0.2050 -0.5140
 3912SOL    HW123369   3.875   2.369   2.116  0.5518 -2.1719  1.3930
 3912SOL    HW223370   3.964   2.396   2.227 -1.4729 -0.0984  1.7194
 3913SOL     OW23371   2.160   4.382   4.657  0.3439 -0.1142 -0.1506
 3913SOL    HW123372   2.174   4.290   4.633 -0.1620  0.1518 -1.4867
 3913SOL    HW223373   2.173   4.423   4.571  3.3581 -2.0119 -0.5922
 3914SOL     OW23374   4.320   2.645  12.566  0.0317 -0.3210  0.5621
 3914SOL    HW123375   4.413   2.627  12.577  0.0453  0.0733  1.1204
 3914SOL    HW223376   4.317   2.646  12.470 -0.2783  0.0886  0.5773
 3915SOL     OW23377   4.456   0.644   3.422  0.3577  0.1510 -0.2528
 3915SOL    HW123378   4.407   0.726   3.432 -2.9210 -2.0966  2.3363
 3915SOL    HW223379   4.499   0.650   3.507  0.9967 -1.2797 -0.4856
 3916SOL     OW23380   2.680   3.405   8.262 -0.1922  0.0391 -0.3965
 3916SOL    HW123381   2.701   3.400   8.168  1.3465  2.3355 -0.1792
 3916SOL    HW223382   2.608   3.468   8.261  0.0598  0.3792  2.8256
 3917SOL     OW23383   2.278   1.544   8.486 -0.5546 -0.1436  0.5267
 3917SOL    HW123384   2.209   1.479   8.497  0.4194 -1.0055  1.6135
 3917SOL    HW223385   2.287   1.545   8.391  0.4900  0.5865  0.6264
 3918SOL     OW23386   0.883   3.226   7.519 -0.0466  0.0731  0.0423
 3918SOL    HW123387   0.880   3.133   7.541 -0.2477 -0.4414 -2.0830
 3918SOL    HW223388   0.959   3.231   7.462 -0.1713 -1.3566 -0.2476
 3919SOL     OW23389   4.043   4.041   3.383  0.1174  0.1069  0.3964
 3919SOL    HW123390   3.950   4.051   3.401 -0.2030 -0.6952 -0.8628
 3919SOL    HW223391   4.037   3.956   3.339 -0.9908 -0.3020  1.3486
 3920SOL     OW23392   0.278   4.258  12.644  0.1333  0.2340  0.8786
 3920SOL    HW123393   0.332   4.324  12.599 -1.6705  2.4082  1.8867
 3920SOL    HW223394   0.204   4.314  12.666 -0.1955  0.5123 -0.8803
 3921SOL     OW23395   1.626   4.718   2.907  0.3522 -0.0763  0.1626
 3921SOL    HW123396   1.605   4.654   2.975 -1.5131 -0.1653 -0.5260
 3921SOL    HW223397   1.713   0.009   2.934  1.4442 -2.2752 -0.9330
 3922SOL     OW23398   4.260   1.701   7.550 -0.5541 -0.1572 -0.5943
 3922SOL    HW123399   4.272   1.606   7.547  1.1228  0.0262 -0.1134
 3922SOL    HW223400   4.228   1.708   7.460  1.8490 -0.5938 -1.4947
 3923SOL     OW23401   4.266   1.201   1.029 -0.3840 -0.3325  0.4598
 3923SOL    HW123402   4.346   1.164   1.067  0.7705  1.2274 -0.4432
 3923SOL    HW223403   4.222   1.119   1.004 -0.1255 -0.0829 -0.8397
 3924SOL     OW23404   0.774   0.680   2.835 -1.0279 -0.2755  0.2126
 3924SOL    HW123405   0.776   0.640   2.922  2.4089 -0.1830  0.1499
 3924SOL    HW223406   0.726   0.615   2.783  0.0423 -1.8382  1.1892
 3925SOL     OW23407   2.379   1.895  11.856  0.3691 -0.3236  0.0280
 3925SOL    HW123408   2.449   1.960  11.853 -0.0125  0.1923  2.4119
 3925SOL    HW223409   2.343   1.921  11.941  1.6474 -0.2575  0.5504
 3926SOL     OW23410   1.193   3.980   3.029 -0.0368  0.5692 -0.6841
 3926SOL    HW123411   1.229   4.043   2.966  0.3356 -0.5261 -1.5701
 3926SOL    HW223412   1.119   4.027   3.068 -0.6417 -1.8656  1.1116
 3927SOL     OW23413   3.518   2.002  16.614  0.5118  0.7114  0.2627
 3927SOL    HW123414   3.454   2.003  16.686  1.5498 -0.2526  1.1973
 3927SOL    HW223415   3.501   1.914  16.580  0.5023  0.6302  0.4752
 3928SOL     OW23416   0.809   4.013   9.240  0.2750 -0.3734 -0.1812
 3928SOL    HW123417   0.899   3.982   9.238 -0.0539 -1.4077  0.8188
 3928SOL    HW223418   0.759   3.931   9.240  1.0497 -0.8344  1.4317
 3929SOL     OW23419   2.635   0.423   0.992 -0.0809  0.0264 -0.0443
 3929SOL    HW123420   2.674   0.365   0.927  0.5049 -0.2383  0.5385
 3929SOL    HW223421   2.566   0.359   1.011 -0.5382  0.6093  0.2564
 3930SOL     OW23422   3.216   2.714   6.657 -0.0400 -0.1826  0.3076
 3930SOL    HW123423   3.307   2.692   6.639 -0.3831 -0.1436 -1.4127
 3930SOL    HW223424   3.194   2.675   6.742  2.0975 -1.5546  0.2291
 3931SOL     OW23425   3.187   3.577   9.212  0.0464 -0.5181 -0.0607
 3931SOL    HW123426   3.114   3.532   9.255  0.3426  0.2840  1.2679
 3931SOL    HW223427   3.141   3.597   9.131  1.2295  1.2583 -0.2886
 3932SOL     OW23428   1.781   1.137   0.148  0.5722 -0.8154 -0.2965
 3932SOL    HW123429   1.717   1.135   0.220  1.1606 -0.3637  0.2411
 3932SOL    HW223430   1.723   1.098   0.083 -2.1852 -0.4132  1.9111
 3933SOL     OW23431   4.326   2.362   2.750 -0.1820 -0.2007  0.1567
 3933SOL    HW123432   4.326   2.454   2.773  2.8643 -0.5599  1.5833
 3933SOL    HW223433   4.314   2.368   2.656 -1.5751  1.7403  0.4545
 3934SOL     OW23434   0.821   0.284   1.670  0.2822 -0.7267 -0.4151
 3934SOL    HW123435   0.730   0.271   1.643 -0.0716  1.8933 -0.5070
 3934SOL    HW223436   0.808   0.335   1.750  0.0033  1.5607 -1.9121
 3935SOL     OW23437   2.835   3.299   2.228  0.1871 -0.0293 -0.7622
 3935SOL    HW123438   2.797   3.371   2.277  1.9725 -1.1597  2.2758
 3935SOL    HW223439   2.832   3.334   2.139 -2.0031  1.6417 -0.0005
 3936SOL     OW23440   0.647   2.030   2.340 -0.2606 -0.7055 -0.3735
 3936SOL    HW123441   0.721   1.971   2.324 -0.6353 -0.9226 -1.3060
 3936SOL    HW223442   0.674   2.112   2.299  1.7475 -0.8492  0.6468
 3937SOL     OW23443   2.469   0.919  13.500  0.2170 -0.0884  0.0986
 3937SOL    HW123444   2.534   0.975  13.458  2.2340 -1.1978  1.7628
 3937SOL    HW223445   2.507   0.907  13.587  0.6509  0.2420 -0.0474
 3938SOL     OW23446   3.323   4.440   5.028 -0.0900  0.3935 -0.7951
 3938SOL    HW123447   3.340   4.532   5.008  1.3831 -0.2709 -2.5761
 3938SOL    HW223448   3.354   4.446   5.119 -0.6221 -0.0239 -0.5874
 3939SOL     OW23449   1.279   3.151   4.482  0.0766  0.2611 -0.5148
 3939SOL    HW123450   1.186   3.148   4.504  0.1947 -2.9471 -0.3957
 3939SOL    HW223451   1.275   3.243   4.458  0.5245  0.0985 -1.2147
 3940SOL     OW23452   4.700   1.508   6.898  0.4713 -0.0833  0.3455
 3940SOL    HW123453   4.687   1.585   6.953 -1.9026 -1.5636  1.8736
 3940SOL    HW223454   0.037   1.465   6.937  0.6227 -0.6621 -0.5824
 3941SOL     OW23455   4.331   2.835   1.700  0.0200 -0.0192  0.2261
 3941SOL    HW123456   4.293   2.761   1.748  0.7926 -1.6450 -1.6540
 3941SOL    HW223457   4.282   2.828   1.618 -0.6640 -0.3626  0.6699
 3942SOL     OW23458   2.721   0.205   6.186 -0.5540 -0.4764  0.0757
 3942SOL    HW123459   2.752   0.263   6.117  0.4053 -1.6130 -0.4546
 3942SOL    HW223460   2.808   0.185   6.220 -0.8738 -1.4187  0.3579
 3943SOL     OW23461   0.974   0.757   0.971 -0.6345 -0.0794  0.2275
 3943SOL    HW123462   1.027   0.776   1.048 -0.1884 -1.9103  0.3715
 3943SOL    HW223463   1.023   0.688   0.925 -0.3470 -0.5361  1.2335
 3944SOL     OW23464   4.207   0.167   7.783  0.2355  0.1811  0.2198
 3944SOL    HW123465   4.119   0.129   7.782  0.3129 -0.1253  3.6220
 3944SOL    HW223466   4.210   0.196   7.692  1.9416  0.6784  0.4215
 3945SOL     OW23467   2.727   4.690   1.951  0.1046  0.0856 -0.4633
 3945SOL    HW123468   2.696   0.023   2.007 -0.9610 -1.5430  1.0337
 3945SOL    HW223469   2.807   4.723   1.911 -0.8795  1.6785 -1.1467
 3946SOL     OW23470   4.499   1.409  16.662 -0.1160  0.2533 -0.4688
 3946SOL    HW123471   4.429   1.350  16.688  0.4169 -0.3337 -0.3550
 3946SOL    HW223472   4.567   1.384  16.724 -1.6764  0.6898  1.4114
 3947SOL     OW23473   1.867   3.859  12.249  0.3231  0.0835 -0.0476
 3947SOL    HW123474   1.956   3.880  12.277  0.0453  0.8254  0.2828
 3947SOL    HW223475   1.819   3.888  12.327 -1.7414  1.2660 -1.7687
 3948SOL     OW23476   1.199   3.474   6.530 -0.0242 -0.0465 -0.0642
 3948SOL    HW123477   1.284   3.476   6.573  0.0345  0.7815 -0.2039
 3948SOL    HW223478   1.177   3.387   6.561  0.2894 -0.1238 -0.0588
 3949SOL     OW23479   0.398   3.048   9.666  0.0179  0.1054  0.0577
 3949SOL    HW123480   0.391   3.129   9.716 -0.3579 -0.0852  0.3132
 3949SOL    HW223481   0.487   3.070   9.639  0.4792 -2.6593 -0.7195
 3950SOL     OW23482   1.050   3.180   5.627  0.5974 -0.2581 -0.0377
 3950SOL    HW123483   1.020   3.097   5.665 -0.3933 -0.5285 -1.4186
 3950SOL    HW223484   1.118   3.138   5.574  0.1023 -1.3307  0.1702
 3951SOL     OW23485   0.305   2.133   1.547 -0.0849 -0.0336  0.6972
 3951SOL    HW123486   0.213   2.106   1.552  0.4444 -2.0472 -0.3335
 3951SOL    HW223487   0.345   2.047   1.564  0.3444  0.1446  0.5749
 3952SOL     OW23488   4.561   0.659   4.723 -0.4176  0.0082 -0.0806
 3952SOL    HW123489   4.568   0.703   4.638 -2.3189 -0.8009 -0.6454
 3952SOL    HW223490   4.542   0.570   4.693  2.2667 -0.5805 -0.0739
 3953SOL     OW23491   4.300   2.073   6.445 -0.0090  0.2876 -0.4069
 3953SOL    HW123492   4.369   2.048   6.384 -1.0271 -0.8842 -1.0847
 3953SOL    HW223493   4.339   2.131   6.511  1.1221  1.0530 -1.7635
 3954SOL     OW23494   4.176   3.909   7.497 -0.1417  0.4483 -0.3166
 3954SOL    HW123495   4.244   3.929   7.561 -1.3277 -0.3840  1.2304
 3954SOL    HW223496   4.127   3.841   7.544 -3.5255  1.2731 -2.6468
 3955SOL     OW23497   0.272   1.049   1.700  0.2124 -0.4191  0.5964
 3955SOL    HW123498   0.340   1.020   1.761 -2.0973 -2.8196  2.0521
 3955SOL    HW223499   0.324   1.083   1.627  0.2728  2.3282  1.9285
 3956SOL     OW23500   4.222   1.985   8.848  0.6534  0.1439  0.4286
 3956SOL    HW123501   4.290   2.052   8.843  0.0014  0.7726  0.0965
 3956SOL    HW223502   4.164   2.017   8.780  1.2318  2.6020  1.0774
 3957SOL     OW23503   0.129   0.020   7.749 -0.1238  0.0924  0.3044
 3957SOL    HW123504   0.209   0.016   7.696 -1.1087  0.1644 -1.1827
 3957SOL    HW223505   0.162   4.706   7.822  1.9649  0.2395 -0.5279
 3958SOL     OW23506   2.697   2.371  13.999  0.2766  0.1771  0.0571
 3958SOL    HW123507   2.793   2.372  13.994  0.2422 -2.5565 -0.8205
 3958SOL    HW223508   2.675   2.358  14.091 -1.3117 -0.8581 -0.4816
 3959SOL     OW23509   4.272   1.743  15.073  0.4195 -0.3601  0.1340
 3959SOL    HW123510   4.308   1.737  14.984 -1.4415  1.2441 -0.7237
 3959SOL    HW223511   4.286   1.837  15.082 -0.1946 -0.2437 -0.1560
 3960SOL     OW23512   4.046   0.899   6.981 -0.3009  0.0102  0.1048
 3960SOL    HW123513   4.067   0.808   7.000  0.5162  0.4107  1.0787
 3960SOL    HW223514   4.101   0.938   7.049 -0.4051  1.9234 -0.9020
 3961SOL     OW23515   3.989   0.240   9.942  0.0810 -0.0025  0.0524
 3961SOL    HW123516   3.913   0.294   9.963 -0.6608  0.0637 -2.7938
 3961SOL    HW223517   4.033   0.294   9.877 -1.6351  0.1723 -0.9707
 3962SOL     OW23518   4.406   3.799   3.727 -0.7668  0.1352 -0.2597
 3962SOL    HW123519   4.373   3.884   3.698  1.1306  0.2981 -1.9176
 3962SOL    HW223520   4.328   3.756   3.761  0.2205 -0.3175  1.4116
 3963SOL     OW23521   2.898   0.299   7.173 -0.0433  0.6762 -0.8406
 3963SOL    HW123522   2.919   0.206   7.177  0.9013  0.9526  0.8353
 3963SOL    HW223523   2.874   0.310   7.265  0.8606  0.1677 -0.5416
 3964SOL     OW23524   0.255   2.850   5.917 -0.0002 -0.4237  0.5492
 3964SOL    HW123525   0.297   2.934   5.898 -0.2766 -0.5400 -0.5501
 3964SOL    HW223526   0.184   2.885   5.972  0.9063  0.8304  0.9314
 3965SOL     OW23527   0.890   3.706   1.302 -0.2943  0.4057  0.1296
 3965SOL    HW123528   0.920   3.631   1.353  0.5597  0.5022 -0.2401
 3965SOL    HW223529   0.877   3.656   1.222  1.1686 -1.5763  1.1390
 3966SOL     OW23530   3.546   4.661   2.448 -0.2937 -0.1080  0.0148
 3966SOL    HW123531   3.637   4.663   2.478  0.1006  0.1388 -1.1882
 3966SOL    HW223532   3.520   0.010   2.477 -1.5085 -0.7458  0.8528
 3967SOL     OW23533   2.603   0.456   6.367  0.0370 -0.0561  0.0484
 3967SOL    HW123534   2.567   0.507   6.295  0.3644  0.7547  0.4574
 3967SOL    HW223535   2.676   0.405   6.331 -0.2559 -0.5094  0.0882
 3968SOL     OW23536   2.516   1.358   4.834 -0.0113 -0.4357  0.2952
 3968SOL    HW123537   2.459   1.321   4.766  0.4372 -0.6783  0.0548
 3968SOL    HW223538   2.475   1.433   4.877 -0.4979 -0.4953 -0.0637
 3969SOL     OW23539   2.966   3.110  17.189 -0.0399 -0.1018 -0.3388
 3969SOL    HW123540   3.056   3.107  17.157  0.7471 -0.1358  1.8432
 3969SOL    HW223541   2.977   3.178  17.256  0.4838 -0.7325  0.2147
 3970SOL     OW23542   3.871   3.774  15.195 -0.7577 -0.2835 -0.0447
 3970SOL    HW123543   3.839   3.863  15.202  0.6049  0.3459 -1.7058
 3970SOL    HW223544   3.964   3.790  15.210 -0.8800  2.7881 -2.5680
 3971SOL     OW23545   0.288   0.738   2.176  0.1624 -0.3311  0.2281
 3971SOL    HW123546   0.344   0.816   2.189  0.3059  0.0159 -2.5242
 3971SOL    HW223547   0.348   0.664   2.182 -0.8457 -1.3946 -3.2338
 3972SOL     OW23548   0.708   4.287  15.619 -0.2483  0.5242 -0.3540
 3972SOL    HW123549   0.737   4.316  15.706 -1.1474 -0.2338  0.2082
 3972SOL    HW223550   0.622   4.328  15.607 -0.4629 -0.2226 -1.3361
 3973SOL     OW23551   4.542   2.699   1.782  0.6646 -0.8085 -0.2197
 3973SOL    HW123552   4.499   2.747   1.712  1.2937  1.1390  0.7301
 3973SOL    HW223553   4.472   2.642   1.815  1.2470 -1.3848  0.0315
 3974SOL     OW23554   3.417   2.305  11.852 -0.2939 -0.5995  0.1621
 3974SOL    HW123555   3.445   2.313  11.943  2.0713 -0.5573 -0.5681
 3974SOL    HW223556   3.495   2.341  11.809  1.0654 -2.9466  0.6912
 3975SOL     OW23557   2.962   0.402   9.666  0.0334  0.3091 -0.2055
 3975SOL    HW123558   2.996   0.348   9.595  1.3161  2.7446 -1.4601
 3975SOL    HW223559   2.981   0.355   9.747 -1.7960 -2.7624 -1.5596
 3976SOL     OW23560   4.539   2.244   4.088 -0.1515  0.0360  0.4578
 3976SOL    HW123561   4.573   2.170   4.139 -1.0079  2.6486  4.8098
 3976SOL    HW223562   4.493   2.203   4.015 -2.0916 -2.5871  3.1946
 3977SOL     OW23563   4.227   3.250   2.664  0.1186  0.5648  0.5832
 3977SOL    HW123564   4.288   3.287   2.728 -0.3419  0.7362  0.9153
 3977SOL    HW223565   4.273   3.262   2.580 -0.3236 -0.4668  0.1952
 3978SOL     OW23566   3.701   2.346   3.123  0.1477  0.8987 -0.2440
 3978SOL    HW123567   3.725   2.292   3.199 -2.5871 -0.2006 -0.1650
 3978SOL    HW223568   3.612   2.370   3.149  0.2216 -0.8166  1.6187
 3979SOL     OW23569   2.494   3.878   5.056 -0.0193  0.5005 -0.0958
 3979SOL    HW123570   2.510   3.799   5.004  0.8334  1.7054 -1.6726
 3979SOL    HW223571   2.401   3.892   5.037 -0.1199 -0.9883 -0.7295
 3980SOL     OW23572   3.825   1.030   6.908 -0.0442  0.1264  0.3817
 3980SOL    HW123573   3.851   1.089   6.979 -0.6359 -0.4609  1.0915
 3980SOL    HW223574   3.893   0.964   6.922 -0.8541 -0.5779  0.9984
 3981SOL     OW23575   3.853   2.694   5.800  0.4093 -0.1408  0.4988
 3981SOL    HW123576   3.915   2.633   5.840 -1.1746 -1.0292  1.6092
 3981SOL    HW223577   3.792   2.698   5.873  1.1743  0.1734  1.1241
 3982SOL     OW23578   3.347   1.747   1.852 -0.5630 -0.2531  0.3875
 3982SOL    HW123579   3.340   1.665   1.899  1.6362 -1.9053 -2.1359
 3982SOL    HW223580   3.388   1.728   1.767  2.0463  1.1298  1.3680
 3983SOL     OW23581   3.566   1.799   9.069  0.0215  0.1879  0.5116
 3983SOL    HW123582   3.543   1.784   8.977  0.2406  0.0523  0.4814
 3983SOL    HW223583   3.617   1.879   9.056  2.2345 -1.1023  1.2827
 3984SOL     OW23584   4.110   3.241  16.179  0.0466  0.5732  0.5766
 3984SOL    HW123585   4.089   3.302  16.109 -2.3322  1.1215  1.7589
 3984SOL    HW223586   4.205   3.246  16.168  0.1541 -2.4901  0.2700
 3985SOL     OW23587   0.790   4.279   5.539  0.3800  0.8014  0.3127
 3985SOL    HW123588   0.876   4.315   5.521 -0.3244  3.7685  2.8421
 3985SOL    HW223589   0.733   4.354   5.519 -0.8142 -0.0689  0.4022
 3986SOL     OW23590   1.576   1.569   5.543  0.5259 -0.2657 -0.0132
 3986SOL    HW123591   1.579   1.634   5.613 -0.1099  0.3723 -0.5763
 3986SOL    HW223592   1.647   1.513   5.574  1.2095 -0.0936 -1.3068
 3987SOL     OW23593   3.266   2.044   5.188  0.7401 -0.1495 -0.0574
 3987SOL    HW123594   3.216   2.030   5.268 -0.7384 -1.5677 -1.2429
 3987SOL    HW223595   3.253   2.137   5.172  0.6562 -0.4703 -1.7933
 3988SOL     OW23596   3.695   2.629  15.398 -0.0412  0.5738 -0.1857
 3988SOL    HW123597   3.609   2.620  15.357  0.3740 -0.0020 -0.9431
 3988SOL    HW223598   3.747   2.594  15.325 -2.7819 -0.5962 -1.5367
 3989SOL     OW23599   2.586   0.417   0.482 -0.0017  0.0128  0.0389
 3989SOL    HW123600   2.630   0.499   0.459 -3.2650  0.7323 -3.5568
 3989SOL    HW223601   2.495   0.435   0.462  0.8250  3.1459 -0.8975
 3990SOL     OW23602   1.355   4.311   2.386 -0.0210 -0.1076 -0.2650
 3990SOL    HW123603   1.386   4.299   2.475 -1.1823 -3.2093 -0.2977
 3990SOL    HW223604   1.294   4.383   2.401  1.4435  1.1211 -0.1743
 3991SOL     OW23605   1.586   1.286   7.229  0.4591 -0.7835 -0.3102
 3991SOL    HW123606   1.541   1.370   7.234  0.9091 -0.4799 -1.3191
 3991SOL    HW223607   1.670   1.300   7.274  0.5721  0.4217 -0.8975
 3992SOL     OW23608   3.764   3.101  16.454 -0.0859  0.0999  0.9870
 3992SOL    HW123609   3.814   3.170  16.411  0.0173  0.4797  1.7103
 3992SOL    HW223610   3.762   3.117  16.549  0.3920  0.4521  0.9378
 3993SOL     OW23611   2.327   4.473   4.877 -0.7029  0.2754  0.0250
 3993SOL    HW123612   2.359   4.395   4.923  0.4804  1.1379  0.6640
 3993SOL    HW223613   2.288   4.427   4.803  0.4534  0.1185 -0.4851
 3994SOL     OW23614   4.406   2.657   7.537  0.7274 -0.1076  0.1026
 3994SOL    HW123615   4.358   2.586   7.493 -0.4295  0.3707  0.6151
 3994SOL    HW223616   4.362   2.655   7.622 -0.2282 -0.0927 -0.3875
 3995SOL     OW23617   2.872   0.717   3.745 -0.6566  0.2251 -0.1524
 3995SOL    HW123618   2.782   0.744   3.725 -0.0473  0.5883 -2.4829
 3995SOL    HW223619   2.900   0.690   3.657  0.6630  3.2403 -0.6790
 3996SOL     OW23620   3.203   3.123  14.975  0.1549 -0.2190  0.6291
 3996SOL    HW123621   3.147   3.095  15.046 -0.4495  0.5707  0.4616
 3996SOL    HW223622   3.268   3.174  15.024 -2.1027  2.9555  0.3151
 3997SOL     OW23623   3.678   3.750   6.566 -0.7003 -0.6103  0.2282
 3997SOL    HW123624   3.731   3.709   6.633 -0.1990  2.3386  1.6409
 3997SOL    HW223625   3.723   3.824   6.525 -0.7996 -1.0506 -0.6890
 3998SOL     OW23626   3.514   4.569   3.668 -0.3534  0.4021  0.2510
 3998SOL    HW123627   3.553   4.495   3.623 -1.7433 -1.0752  1.4455
 3998SOL    HW223628   3.432   4.571   3.618 -0.2123  1.4256  0.0626
 3999SOL     OW23629   2.299   0.862   9.137 -0.1039 -0.2314  0.0173
 3999SOL    HW123630   2.283   0.897   9.225  2.3778  2.9414 -0.8108
 3999SOL    HW223631   2.216   0.888   9.098  0.1805 -0.4478 -0.7214
 4000SOL     OW23632   2.948   3.922  17.398 -0.2544 -0.4714 -0.0251
 4000SOL    HW123633   3.025   3.944  17.450 -0.2501  1.6916 -0.9671
 4000SOL    HW223634   2.907   4.007  17.385  0.1113 -0.2095  0.5874
 4001SOL     OW23635   2.888   1.426  14.943  0.4365  0.4384 -0.1086
 4001SOL    HW123636   2.835   1.499  14.974 -0.2328  0.3381 -1.0117
 4001SOL    HW223637   2.829   1.352  14.960  0.1565  0.6816 -0.0097
 4002SOL     OW23638   0.778   1.305   8.816  0.5104  0.4692 -0.6670
 4002SOL    HW123639   0.835   1.335   8.745  1.2455  0.7745  0.0461
 4002SOL    HW223640   0.842   1.303   8.887 -1.7007  0.6944  1.3284
 4003SOL     OW23641   3.893   4.188   2.299 -0.0027  0.1547 -0.0050
 4003SOL    HW123642   3.980   4.219   2.274  0.3661 -1.1103 -0.2911
 4003SOL    HW223643   3.922   4.097   2.311  0.9732  0.1518 -2.4803
 4004SOL     OW23644   2.834   4.424   3.308  0.1605 -0.4837  0.1991
 4004SOL    HW123645   2.862   4.360   3.243  1.2795  1.5792 -1.3811
 4004SOL    HW223646   2.916   4.446   3.353  0.0694 -2.7776  1.4709
 4005SOL     OW23647   0.060   3.619   5.665 -0.0121  0.2366  0.1998
 4005SOL    HW123648   0.099   3.552   5.721 -1.2239 -1.1780 -0.6667
 4005SOL    HW223649   0.052   3.696   5.722  1.2378  0.4499  0.1038
 4006SOL     OW23650   2.952   4.490   7.273 -0.1903 -0.2744 -0.2075
 4006SOL    HW123651   2.891   4.441   7.328  1.3045  0.0052  1.6929
 4006SOL    HW223652   3.017   4.513   7.340 -0.3887  3.1389 -1.1665
 4007SOL     OW23653   1.480   2.138  15.032  0.4566  0.0479 -0.1746
 4007SOL    HW123654   1.491   2.188  15.113  0.7766 -0.2618 -0.0312
 4007SOL    HW223655   1.567   2.105  15.012  1.8982  2.4758  2.0144
 4008SOL     OW23656   3.184   4.396   4.356 -0.1100  0.4417  0.1385
 4008SOL    HW123657   3.211   4.483   4.328  0.5904 -0.1544 -1.0209
 4008SOL    HW223658   3.206   4.338   4.283  2.8510  1.4042  0.2716
 4009SOL     OW23659   1.410   0.135   7.824 -0.7676 -0.3104  0.5588
 4009SOL    HW123660   1.364   0.061   7.784  0.5294 -0.9361  0.2293
 4009SOL    HW223661   1.373   0.203   7.767  0.6359  0.4783  0.5751
 4010SOL     OW23662   2.168   4.206   5.520 -0.3272  0.0173  0.0147
 4010SOL    HW123663   2.130   4.132   5.473  0.6182 -0.5352  0.1040
 4010SOL    HW223664   2.146   4.279   5.462 -2.6918 -0.9364 -0.2769
 4011SOL     OW23665   2.052   4.077  17.494 -0.2888  0.3524 -0.1493
 4011SOL    HW123666   2.078   4.096  17.584  0.0107 -0.9333  0.0210
 4011SOL    HW223667   1.960   4.105  17.488 -0.0671  0.8367 -1.5348
 4012SOL     OW23668   4.321   1.197  16.746  0.4330  0.0275 -0.1402
 4012SOL    HW123669   4.336   1.118  16.798 -0.4450 -0.3253 -0.4277
 4012SOL    HW223670   4.259   1.257  16.788  1.2019  3.2020 -3.5190
 4013SOL     OW23671   4.413   4.045   9.799 -0.3132 -0.3655 -0.1812
 4013SOL    HW123672   4.494   4.037   9.850 -0.3111  0.7107 -0.0163
 4013SOL    HW223673   4.351   4.058   9.871 -1.1509  1.4419 -1.2318
 4014SOL     OW23674   1.623   1.236   5.277 -0.3160 -0.3436  0.3213
 4014SOL    HW123675   1.528   1.227   5.278 -0.2810 -0.9286 -2.3518
 4014SOL    HW223676   1.666   1.155   5.250 -0.2572 -0.5504  1.0291
 4015SOL     OW23677   1.396   0.434  13.894  0.4433 -0.1411 -0.4932
 4015SOL    HW123678   1.338   0.401  13.826 -0.5383  0.9250 -0.1684
 4015SOL    HW223679   1.422   0.511  13.844 -0.2765 -0.8661 -1.9968
 4016SOL     OW23680   1.020   3.127   5.946  0.3267 -0.8291  0.3900
 4016SOL    HW123681   1.092   3.113   5.884 -0.1333 -2.6831  0.2811
 4016SOL    HW223682   0.995   3.035   5.947  0.0487 -0.7387  1.6385
 4017SOL     OW23683   0.969   3.889   5.172 -0.1714 -0.3720  0.0408
 4017SOL    HW123684   0.911   3.915   5.244 -0.6351 -2.4387  0.4101
 4017SOL    HW223685   0.992   3.980   5.151  1.3820  0.1170  3.8241
 4018SOL     OW23686   1.786   1.349   5.492  0.1360  0.1053  0.1766
 4018SOL    HW123687   1.792   1.257   5.520  1.7111  0.1087 -0.1418
 4018SOL    HW223688   1.753   1.329   5.404 -0.2584  0.7664  0.1827
 4019SOL     OW23689   0.859   3.380   4.730 -0.0044 -0.5198  0.3026
 4019SOL    HW123690   0.784   3.439   4.721  1.0732  0.7661 -0.3756
 4019SOL    HW223691   0.859   3.335   4.645 -0.5920  0.9755 -0.5011
 4020SOL     OW23692   3.133   1.236   5.204  0.3770 -0.4686  0.1355
 4020SOL    HW123693   3.215   1.194   5.180  0.1740 -0.0627 -1.2751
 4020SOL    HW223694   3.097   1.247   5.115 -1.4171 -1.6558  0.7143
 4021SOL     OW23695   1.554   1.234   9.327 -0.4450 -0.1951 -0.2092
 4021SOL    HW123696   1.555   1.203   9.236 -0.8041  0.5523 -0.4732
 4021SOL    HW223697   1.543   1.152   9.374  0.1472  0.4971  1.1233
 4022SOL     OW23698   2.987   4.283   3.620 -0.7962 -0.4123  0.0751
 4022SOL    HW123699   2.961   4.361   3.668 -0.8087 -0.6567  0.4637
 4022SOL    HW223700   2.916   4.221   3.637 -1.3722  0.6363  1.4613
 4023SOL     OW23701   3.208   1.553   8.181  0.4894 -0.1524 -0.7030
 4023SOL    HW123702   3.235   1.609   8.109  1.6761 -1.8580 -1.5928
 4023SOL    HW223703   3.251   1.582   8.262 -0.2614  0.2246 -0.4432
 4024SOL     OW23704   4.192   3.611   5.902 -0.2385 -0.2083 -0.4298
 4024SOL    HW123705   4.144   3.683   5.942  2.0949  1.0092  0.1688
 4024SOL    HW223706   4.258   3.599   5.970 -0.1217 -0.7340 -0.6396
 4025SOL     OW23707   4.343   4.407   6.840  0.0411  0.6340  0.1039
 4025SOL    HW123708   4.430   4.374   6.863  1.4894  3.7859 -0.7884
 4025SOL    HW223709   4.364   4.449   6.756  0.3639 -0.2332 -0.2550
 4026SOL     OW23710   4.433   4.621   6.616  0.2630  0.3768 -0.3057
 4026SOL    HW123711   4.342   4.635   6.590  0.5211  0.5182 -1.1320
 4026SOL    HW223712   4.477   4.643   6.534 -2.0743  0.3444 -1.5918
 4027SOL     OW23713   4.514   1.106   2.539  0.6334 -0.4444  0.5326
 4027SOL    HW123714   4.504   1.031   2.598 -2.5231  1.3689  2.2508
 4027SOL    HW223715   4.452   1.087   2.469  0.5442  0.0897  0.4646
 4028SOL     OW23716   1.089   3.141  13.721 -0.2714  0.1890 -0.1262
 4028SOL    HW123717   1.144   3.137  13.643 -0.4384 -4.1022 -0.0380
 4028SOL    HW223718   1.001   3.149  13.682 -0.3456  1.7285  0.3587
 4029SOL     OW23719   0.515   4.116   9.882 -0.1866 -0.0298 -0.5875
 4029SOL    HW123720   0.599   4.159   9.866  0.6513 -1.6788 -0.5395
 4029SOL    HW223721   0.499   4.108   9.976  2.8494 -0.4948 -0.1192
 4030SOL     OW23722   1.374   2.714   1.267 -0.3998  0.1813  0.1271
 4030SOL    HW123723   1.393   2.620   1.262 -0.1005  0.3898 -3.1940
 4030SOL    HW223724   1.287   2.706   1.228 -0.4569 -0.1503  0.3265
 4031SOL     OW23725   0.254   4.340   8.642 -0.9640 -0.3639  0.5767
 4031SOL    HW123726   0.287   4.390   8.568  2.0695 -1.8484  0.9050
 4031SOL    HW223727   0.164   4.334   8.611 -0.0693  1.8127 -2.4932
 4032SOL     OW23728   3.561   2.877   7.222  0.4857 -0.0790  0.3434
 4032SOL    HW123729   3.620   2.950   7.241 -1.3164  1.6307 -0.5908
 4032SOL    HW223730   3.534   2.894   7.132  4.9410  0.0060 -0.9578
 4033SOL     OW23731   0.341   0.419   0.841 -0.3473  0.0808 -0.7060
 4033SOL    HW123732   0.360   0.479   0.769 -0.2733  0.8142 -0.0723
 4033SOL    HW223733   0.300   0.347   0.793  1.3274 -0.4110 -1.4174
 4034SOL     OW23734   2.066   4.737  16.523 -0.0211  0.0659  0.0160
 4034SOL    HW123735   2.109   4.656  16.550 -1.1151  0.2420  2.3309
 4034SOL    HW223736   2.009   4.705  16.454 -0.3799  1.2259 -0.2242
 4035SOL     OW23737   4.665   3.585   7.186  0.1504  0.8802 -0.0948
 4035SOL    HW123738   4.686   3.654   7.249 -0.1075 -1.5211  2.5660
 4035SOL    HW223739   4.734   3.604   7.122  0.1254  1.3197  0.0102
 4036SOL     OW23740   4.064   1.597   2.895 -0.1237 -0.5617 -0.2833
 4036SOL    HW123741   4.148   1.610   2.851  0.3697  0.6638  1.0343
 4036SOL    HW223742   4.018   1.671   2.856 -1.6725 -1.0490  0.6087
 4037SOL     OW23743   2.347   0.042  13.616  0.2621  0.3403 -0.2758
 4037SOL    HW123744   2.301   0.118  13.582 -0.4083  0.5975  1.1846
 4037SOL    HW223745   2.330   0.048  13.710  1.4596  1.1302 -0.1039
 4038SOL     OW23746   1.365   4.475   6.826 -0.3268 -0.2720 -0.1134
 4038SOL    HW123747   1.333   4.548   6.880 -0.7082 -0.7265  0.2804
 4038SOL    HW223748   1.403   4.534   6.761  0.1690 -0.3744  0.0840
 4039SOL     OW23749   1.467   3.429   5.663  0.2838  0.0448 -0.5140
 4039SOL    HW123750   1.468   3.517   5.703 -0.7096 -1.2284  2.3319
 4039SOL    HW223751   1.388   3.427   5.608  0.9776 -0.2358 -1.4979
 4040SOL     OW23752   0.453   3.374   5.790  0.7890 -0.1000  0.9673
 4040SOL    HW123753   0.434   3.401   5.700  0.7486  0.0806  1.0293
 4040SOL    HW223754   0.523   3.312   5.772  1.8011  0.6554  2.3129
 4041SOL     OW23755   4.074   4.363   1.722 -0.0481 -0.3479 -0.0546
 4041SOL    HW123756   4.119   4.445   1.742 -0.1295 -0.0479 -1.1174
 4041SOL    HW223757   4.006   4.362   1.789 -0.9460 -0.4437 -0.9599
 4042SOL     OW23758   2.721   1.844   1.329 -0.1179 -0.4089 -0.0434
 4042SOL    HW123759   2.770   1.926   1.332 -1.0089  0.0704  1.8683
 4042SOL    HW223760   2.650   1.859   1.392  1.5827 -0.5241  1.9052
 4043SOL     OW23761   1.809   3.115   1.589 -0.2962 -0.4705 -0.2455
 4043SOL    HW123762   1.874   3.126   1.520 -0.8242  0.3345 -0.6129
 4043SOL    HW223763   1.818   3.021   1.600 -0.1819 -0.4748 -0.3750
 4044SOL     OW23764   3.367   4.135   6.332 -0.4378  0.5347 -0.5593
 4044SOL    HW123765   3.411   4.062   6.375 -0.6124 -1.6134 -4.0600
 4044SOL    HW223766   3.437   4.173   6.280  1.9740 -1.0408  1.5443
 4045SOL     OW23767   2.208   2.581   8.029  0.0197 -0.1176  0.1063
 4045SOL    HW123768   2.121   2.541   8.024 -0.1871  0.5282 -1.6180
 4045SOL    HW223769   2.192   2.664   7.983  2.0188  0.2736  0.1041
 4046SOL     OW23770   3.250   0.938   5.031  0.4448 -0.0322 -0.5602
 4046SOL    HW123771   3.277   0.994   5.104 -2.5666  0.2126  0.3290
 4046SOL    HW223772   3.303   0.862   5.056  0.9085  0.9188  1.3281
 4047SOL     OW23773   1.098   1.354  13.977  0.2906  0.1603 -0.3242
 4047SOL    HW123774   1.115   1.298  14.052 -3.0307 -0.5881 -0.1219
 4047SOL    HW223775   1.158   1.428  13.990  0.2822 -0.6702  4.4131
 4048SOL     OW23776   0.876   2.618   8.958 -0.2483  0.5212 -0.0968
 4048SOL    HW123777   0.786   2.598   8.984  0.2940 -0.9596  0.6762
 4048SOL    HW223778   0.934   2.593   9.030  1.0900 -2.1586 -2.1132
 4049SOL     OW23779   4.255   1.628   4.169  0.1667 -0.4018  0.2945
 4049SOL    HW123780   4.321   1.697   4.162  0.4100 -0.3550  2.9882
 4049SOL    HW223781   4.264   1.585   4.084 -1.9538 -0.6600  0.2006
 4050SOL     OW23782   0.508   1.328   3.170 -0.0765  0.8404  0.6203
 4050SOL    HW123783   0.441   1.312   3.237  0.5656 -2.6433  0.3942
 4050SOL    HW223784   0.484   1.267   3.101  1.0616  0.8955  0.1799
 4051SOL     OW23785   3.136   1.110  10.541  0.0585  0.7903 -0.5417
 4051SOL    HW123786   3.063   1.066  10.498 -0.4541  2.1199 -1.0033
 4051SOL    HW223787   3.142   1.068  10.627  0.8420 -0.2233 -1.0885
 4052SOL     OW23788   0.043   0.241   0.645 -0.2825 -0.8490  0.5810
 4052SOL    HW123789   4.700   0.210   0.684 -0.7318 -1.1463 -0.5868
 4052SOL    HW223790   0.105   0.201   0.705 -1.5460  0.8308  2.9807
 4053SOL     OW23791   2.453   4.189  13.572  0.8453 -0.0091  0.7203
 4053SOL    HW123792   2.482   4.261  13.629 -0.1919 -0.6554  2.0484
 4053SOL    HW223793   2.438   4.239  13.491  0.0780 -1.4607 -0.0290
 4054SOL     OW23794   4.712   2.778   7.355  0.4954  0.4751  0.3227
 4054SOL    HW123795   4.717   2.723   7.276 -1.4681 -1.4084  1.5012
 4054SOL    HW223796   4.725   2.868   7.326 -0.0849 -0.1455 -1.9073
 4055SOL     OW23797   2.709   3.036  17.280 -0.2652 -0.9886  0.2622
 4055SOL    HW123798   2.691   2.959  17.226 -0.2801  0.1813 -1.3888
 4055SOL    HW223799   2.787   3.062  17.231  0.0910 -1.2836  0.6655
 4056SOL     OW23800   3.806   4.170   5.911 -0.0145  0.5300 -0.5759
 4056SOL    HW123801   3.876   4.118   5.870 -1.2728 -1.1646 -0.6014
 4056SOL    HW223802   3.749   4.178   5.835  1.5254  1.3518 -1.6373
 4057SOL     OW23803   4.183   1.509   2.175 -0.1914  0.3283 -0.9853
 4057SOL    HW123804   4.179   1.593   2.220  0.6390 -0.1451 -0.0113
 4057SOL    HW223805   4.166   1.536   2.085 -1.2341 -1.7716 -1.4248
 4058SOL     OW23806   0.269   4.116   5.152 -0.1864 -0.3684  0.2078
 4058SOL    HW123807   0.202   4.081   5.212 -1.2564  1.4552  0.0853
 4058SOL    HW223808   0.299   4.037   5.108 -1.0153 -0.8213  0.4405
 4059SOL     OW23809   1.795   0.550   7.136 -0.3241  0.4619 -0.3205
 4059SOL    HW123810   1.779   0.616   7.204  0.0531  2.0068 -1.7297
 4059SOL    HW223811   1.886   0.530   7.156 -0.4677  0.5053  0.3844
 4060SOL     OW23812   1.967   1.308   1.750 -0.0487  0.5869 -0.5373
 4060SOL    HW123813   1.981   1.259   1.831 -0.1214 -1.5256 -1.8142
 4060SOL    HW223814   1.888   1.358   1.770  0.6543  1.4642  0.0219
 4061SOL     OW23815   2.255   4.671   5.037 -0.8862 -0.2828 -0.1488
 4061SOL    HW123816   2.321   4.662   5.106 -1.8674  1.3603  1.0058
 4061SOL    HW223817   2.287   4.600   4.981  2.3916 -0.8101  2.4247
 4062SOL     OW23818   3.526   4.682  13.937  0.0280 -0.0369  0.0327
 4062SOL    HW123819   3.610   4.698  13.892 -1.0144  0.5029 -1.7173
 4062SOL    HW223820   3.454   4.678  13.874  1.3899  0.6244 -1.5783
 4063SOL     OW23821   0.685   0.190   5.967  0.1049 -0.2729  0.0814
 4063SOL    HW123822   0.771   0.188   6.008  1.3371 -2.5179 -2.6148
 4063SOL    HW223823   0.700   0.223   5.878 -0.4109 -1.5537 -0.4758
 4064SOL     OW23824   4.450   0.957   4.187 -0.2249 -0.0832  0.1158
 4064SOL    HW123825   4.382   0.907   4.143  0.7966  0.3376 -1.9293
 4064SOL    HW223826   4.436   0.942   4.280  2.2561  1.0875  0.6687
 4065SOL     OW23827   3.187   0.023   0.239  0.6632  0.6626 -0.2777
 4065SOL    HW123828   3.193   4.666   0.239 -2.5509  0.4312 -0.2432
 4065SOL    HW223829   3.274   0.047   0.272  1.2651 -1.4849 -0.3165
 4066SOL     OW23830   2.255   0.737   8.786 -0.2853  0.0503  0.2925
 4066SOL    HW123831   2.269   0.645   8.807 -0.6268 -0.5013 -1.9046
 4066SOL    HW223832   2.328   0.783   8.828  0.7991 -0.5456 -0.9282
 4067SOL     OW23833   1.860   3.533  16.199  0.0847 -0.1423 -0.0271
 4067SOL    HW123834   1.900   3.447  16.212 -0.1915 -0.0147  1.6897
 4067SOL    HW223835   1.928   3.598  16.219 -0.6866  1.4591 -2.5842
 4068SOL     OW23836   0.183   0.020   6.266 -0.2096 -0.0155 -0.5264
 4068SOL    HW123837   0.197   0.036   6.173  3.2948 -2.8780 -0.4861
 4068SOL    HW223838   0.102   0.065   6.289 -0.5759 -0.6946 -0.4819
 4069SOL     OW23839   2.338   2.606   0.501 -0.1744 -0.3995 -0.5686
 4069SOL    HW123840   2.411   2.568   0.453  0.5951  0.3964 -0.0199
 4069SOL    HW223841   2.391   2.659   0.560 -0.3101  1.9647 -2.5816
 4070SOL     OW23842   2.212   4.150   7.287 -0.4655  0.2908  0.3134
 4070SOL    HW123843   2.156   4.219   7.251  0.6343  1.5226  0.9513
 4070SOL    HW223844   2.214   4.090   7.213 -1.9722  0.3502  0.2179
 4071SOL     OW23845   3.879   1.133   3.404 -0.3876  0.3689 -0.2036
 4071SOL    HW123846   3.859   1.145   3.311  2.6139  1.9836 -0.6261
 4071SOL    HW223847   3.900   1.223   3.429  1.8186  0.1997 -1.4512
 4072SOL     OW23848   4.300   0.121   6.973  0.2075 -0.7537  0.1317
 4072SOL    HW123849   4.236   0.140   6.904  1.6993  1.6785 -0.5718
 4072SOL    HW223850   4.381   0.097   6.927  0.1056  1.2833 -1.1198
 4073SOL     OW23851   0.538   3.118   3.612  0.0925 -0.7058 -0.0529
 4073SOL    HW123852   0.572   3.035   3.579 -2.8237 -1.6964 -0.6347
 4073SOL    HW223853   0.447   3.120   3.581 -0.4648  2.1006  1.6808
 4074SOL     OW23854   0.182   1.218   4.892 -0.2639 -0.1998 -0.2235
 4074SOL    HW123855   0.168   1.288   4.956 -1.3984  1.1056 -1.8698
 4074SOL    HW223856   0.226   1.262   4.819 -1.0696  0.4387 -0.3303
 4075SOL     OW23857   1.641   3.276  10.441 -0.0703  1.0078 -0.2448
 4075SOL    HW123858   1.736   3.284  10.438  0.1876 -2.1753 -1.0639
 4075SOL    HW223859   1.615   3.355  10.393  0.1722 -0.5556 -2.9828
 4076SOL     OW23860   0.794   4.705   6.565 -0.2967  0.5599 -0.4177
 4076SOL    HW123861   0.749   0.035   6.517  1.2921  1.5299 -0.5013
 4076SOL    HW223862   0.720   4.670   6.614 -0.3770  1.5156  0.1357
 4077SOL     OW23863   1.495   2.603   4.081 -0.3735 -0.4596 -0.3848
 4077SOL    HW123864   1.567   2.546   4.108  0.3872  0.0475 -1.3166
 4077SOL    HW223865   1.486   2.654   4.162  2.1647  0.3849 -0.5988
 4078SOL     OW23866   4.602   3.355   2.986 -0.2943 -0.6080 -0.0600
 4078SOL    HW123867   4.605   3.411   3.064  0.0562 -2.4502  1.2467
 4078SOL    HW223868   4.649   3.410   2.924 -1.0963 -1.0797 -1.0848
 4079SOL     OW23869   2.527   1.383   2.442 -0.2565  0.1716  0.8051
 4079SOL    HW123870   2.497   1.296   2.418 -0.5942  0.0743  1.5803
 4079SOL    HW223871   2.622   1.372   2.453 -0.3418 -0.9210  0.4312
 4080SOL     OW23872   3.131   2.992   6.377  0.1418  0.2355 -0.0895
 4080SOL    HW123873   3.221   2.978   6.407  0.2984 -2.3203 -1.7017
 4080SOL    HW223874   3.099   2.902   6.372  1.0488 -0.1403  0.7528
 4081SOL     OW23875   4.592   2.138   8.508  0.0320  0.5665 -0.0228
 4081SOL    HW123876   4.616   2.231   8.506 -0.1201  0.5712 -1.6663
 4081SOL    HW223877   4.656   2.098   8.449  0.8735  2.7276 -0.6132
 4082SOL     OW23878   2.821   3.106  17.589 -0.0137  0.1067  0.8782
 4082SOL    HW123879   2.865   3.177  17.543 -2.7394  1.8261  0.9877
 4082SOL    HW223880   2.872   3.029  17.563 -4.5068 -2.7247  0.5093
 4083SOL     OW23881   0.427   0.122   6.881 -1.0738 -0.1929  0.2565
 4083SOL    HW123882   0.517   0.107   6.910 -1.7594 -2.5956  1.0577
 4083SOL    HW223883   0.424   0.217   6.897  2.1226  0.0958 -0.7732
 4084SOL     OW23884   0.962   0.504   6.664  0.4237  0.3050 -0.2331
 4084SOL    HW123885   0.958   0.583   6.717 -0.6781  0.4071 -0.4642
 4084SOL    HW223886   1.053   0.482   6.683 -0.1265 -2.8059 -1.1236
 4085SOL     OW23887   2.168   2.128   1.959  0.1507  0.0156  0.3049
 4085SOL    HW123888   2.242   2.068   1.968  1.8284  2.3279  1.8127
 4085SOL    HW223889   2.211   2.169   1.885  0.7614 -0.1693  0.5555
 4086SOL     OW23890   4.706   0.984   5.203  0.2388  0.4198 -0.3127
 4086SOL    HW123891   0.022   0.906   5.188 -1.3558 -0.6485 -0.6359
 4086SOL    HW223892   0.039   1.047   5.199  0.5331 -0.0250 -2.0425
 4087SOL     OW23893   4.565   3.721   5.197 -0.1889 -0.1161  0.4551
 4087SOL    HW123894   4.528   3.740   5.111  1.8124  2.1023  0.0786
 4087SOL    HW223895   4.553   3.804   5.244  2.4560  0.7348 -0.3617
 4088SOL     OW23896   4.308   3.256   6.713 -0.3579  0.4877  0.3412
 4088SOL    HW123897   4.308   3.352   6.704  1.3737  0.4859  0.2986
 4088SOL    HW223898   4.272   3.252   6.802 -0.3633  2.4747  0.4482
 4089SOL     OW23899   2.765   3.758   8.127  0.1763 -0.4878 -0.6143
 4089SOL    HW123900   2.842   3.767   8.071  0.6800 -1.8262 -0.1389
 4089SOL    HW223901   2.806   3.761   8.213  0.5064  0.9402 -0.8272
 4090SOL     OW23902   1.340   4.645   7.685 -0.1369  0.0563 -0.0150
 4090SOL    HW123903   1.250   4.671   7.662 -0.7238 -1.8314  0.1923
 4090SOL    HW223904   1.353   4.582   7.615 -0.7112 -0.9707  0.8139
 4091SOL     OW23905   3.138   0.706   3.371 -0.5581 -0.7993  0.1423
 4091SOL    HW123906   3.072   0.642   3.346  0.8657 -1.4807 -1.9173
 4091SOL    HW223907   3.095   0.787   3.344 -0.0484 -1.1379 -1.7100
 4092SOL     OW23908   0.341   4.555   8.493 -0.4966 -0.0758  0.3179
 4092SOL    HW123909   0.384   4.585   8.412 -1.0540  1.5394  0.6052
 4092SOL    HW223910   0.275   4.625   8.496  0.0774  0.4016  1.6647
 4093SOL     OW23911   0.718   3.052   7.224  0.7778 -0.0954 -0.4237
 4093SOL    HW123912   0.807   3.018   7.211  0.8632 -0.5291  1.3233
 4093SOL    HW223913   0.730   3.105   7.303  2.8474 -0.2513 -0.6424
 4094SOL     OW23914   2.524   2.459  11.041 -0.4974 -0.1018 -0.5555
 4094SOL    HW123915   2.544   2.533  11.098 -0.1424 -2.2183  2.0255
 4094SOL    HW223916   2.609   2.430  11.010 -1.1672 -1.6935 -0.8948
 4095SOL     OW23917   3.795   2.933   9.303 -0.2273 -0.0733 -0.5307
 4095SOL    HW123918   3.807   2.871   9.375  1.0850 -0.5063 -1.1178
 4095SOL    HW223919   3.774   3.011   9.354  2.5759 -0.3184  0.9567
 4096SOL     OW23920   0.581   2.894   5.138 -0.3013  0.0126  0.5512
 4096SOL    HW123921   0.511   2.829   5.138  0.7644 -1.1592 -0.2937
 4096SOL    HW223922   0.585   2.910   5.043  0.7333 -0.1218  0.5670
 4097SOL     OW23923   2.858   1.388   4.419  0.3420  0.7406 -0.1510
 4097SOL    HW123924   2.801   1.376   4.344 -0.8842 -0.8461  1.0311
 4097SOL    HW223925   2.800   1.413   4.491 -1.0652  2.2596 -1.8102
 4098SOL     OW23926   4.127   3.528   7.836 -0.1628 -0.1229 -0.1883
 4098SOL    HW123927   4.043   3.496   7.869  0.8376  0.5168  2.9723
 4098SOL    HW223928   4.175   3.450   7.863  0.2205 -0.1060 -0.8245
 4099SOL     OW23929   1.905   0.087  10.048  0.3049  0.1437 -0.2609
 4099SOL    HW123930   1.821   0.132  10.041  0.1339 -0.0650  0.3830
 4099SOL    HW223931   1.959   0.155  10.008  2.3634 -1.0265  0.5522
 4100SOL     OW23932   4.285   2.994  14.124  0.7527 -0.1940 -0.6785
 4100SOL    HW123933   4.334   2.919  14.159 -1.0908 -1.6366 -1.1708
 4100SOL    HW223934   4.277   3.041  14.207  0.4307 -1.1199 -0.1762
 4101SOL     OW23935   3.344   4.524   6.377  0.6392  0.0486 -0.3378
 4101SOL    HW123936   3.293   4.604   6.360  0.3185 -0.3021 -1.0644
 4101SOL    HW223937   3.330   4.520   6.472  3.4515  3.1982  0.1822
 4102SOL     OW23938   3.419   0.268   7.472  0.2506 -0.2701 -0.5340
 4102SOL    HW123939   3.447   0.354   7.503  0.8852 -0.6308 -0.1283
 4102SOL    HW223940   3.499   0.220   7.494 -0.0933 -1.1464 -1.1649
 4103SOL     OW23941   1.963   3.618   2.682 -0.7368  0.3858 -0.6755
 4103SOL    HW123942   2.003   3.538   2.647  0.3282  0.6721 -0.1341
 4103SOL    HW223943   1.983   3.610   2.776  0.3814  0.4531 -0.9066
 4104SOL     OW23944   4.489   0.855   2.693  0.0806 -0.0432  0.0087
 4104SOL    HW123945   4.408   0.897   2.664 -0.0818  0.5548  1.3424
 4104SOL    HW223946   4.465   0.835   2.784 -2.1781  0.6286 -0.4444
 4105SOL     OW23947   0.192   2.114   2.747  0.0306  0.0768 -0.3663
 4105SOL    HW123948   0.117   2.060   2.725  0.0620 -0.8530  1.8260
 4105SOL    HW223949   0.153   2.199   2.766  0.5092  0.0673  0.6916
 4106SOL     OW23950   2.914   0.259   5.050 -0.1975 -0.3514 -0.6061
 4106SOL    HW123951   2.871   0.175   5.067  1.1747 -0.6691  1.3763
 4106SOL    HW223952   3.006   0.244   5.071 -0.3662 -0.2800  0.1915
 4107SOL     OW23953   3.206   3.582   3.028  0.0903  0.0080 -0.0650
 4107SOL    HW123954   3.192   3.597   3.122  1.2325  1.3529 -0.1128
 4107SOL    HW223955   3.171   3.493   3.024  1.4261 -0.5404  0.5350
 4108SOL     OW23956   1.471   0.396   9.740  0.2622 -0.0620 -0.3114
 4108SOL    HW123957   1.536   0.337   9.702 -0.7157 -1.0376 -0.4982
 4108SOL    HW223958   1.439   0.332   9.804  1.1349 -1.2092 -1.0174
 4109SOL     OW23959   3.233   0.362   3.902  0.6589 -0.0945  0.1873
 4109SOL    HW123960   3.213   0.301   3.832  1.3802  0.1080 -0.1913
 4109SOL    HW223961   3.158   0.419   3.891  3.1341  2.8476 -1.4513
 4110SOL     OW23962   0.699   3.291   9.008  0.0037 -0.6707  0.0620
 4110SOL    HW123963   0.730   3.208   8.972  1.0928 -0.4444  0.4938
 4110SOL    HW223964   0.655   3.276   9.092  0.3505 -0.5474  0.2646
 4111SOL     OW23965   3.068   0.646   3.089  0.2746  0.1944  0.1578
 4111SOL    HW123966   3.056   0.713   3.021  0.8837 -0.7659 -0.8947
 4111SOL    HW223967   3.163   0.653   3.103  0.5345 -0.1677 -1.3808
 4112SOL     OW23968   4.584   1.842  11.208 -0.6730  0.4229  0.6986
 4112SOL    HW123969   4.535   1.794  11.275 -0.7589 -1.2185 -0.5197
 4112SOL    HW223970   4.594   1.921  11.261  0.1183  0.1676  0.9347
 4113SOL     OW23971   4.311   4.275   4.779 -0.4795  0.4756 -0.4116
 4113SOL    HW123972   4.400   4.298   4.802 -0.2353 -0.5203 -0.3580
 4113SOL    HW223973   4.327   4.223   4.701  0.0451  0.8028 -0.5197
 4114SOL     OW23974   1.959   2.917   6.593 -0.7045 -0.2822  0.0853
 4114SOL    HW123975   2.019   2.932   6.667  0.4478  1.3649 -1.1768
 4114SOL    HW223976   1.955   3.005   6.556  0.3303 -0.4568 -0.4451
 4115SOL     OW23977   1.256   0.919   0.852 -0.6288  0.1856  0.2777
 4115SOL    HW123978   1.265   0.860   0.926  0.9752 -1.4468 -1.2092
 4115SOL    HW223979   1.345   0.911   0.817 -1.0553  2.3956 -1.2857
 4116SOL     OW23980   4.382   1.775  16.058 -0.5429 -0.1984 -0.1121
 4116SOL    HW123981   4.406   1.683  16.067  0.3012  0.0924  0.6661
 4116SOL    HW223982   4.465   1.813  16.029 -0.4049  0.2780  0.8805
 4117SOL     OW23983   3.039   2.164  15.087 -0.1272  0.0229 -0.4648
 4117SOL    HW123984   2.967   2.201  15.138  1.9525  1.6223  1.3294
 4117SOL    HW223985   2.992   2.096  15.038 -1.8463 -1.0846  2.6670
 4118SOL     OW23986   3.762   1.752  10.007 -0.1942 -0.3723 -0.1942
 4118SOL    HW123987   3.792   1.742  10.097 -1.7158  1.9677  0.5506
 4118SOL    HW223988   3.758   1.846   9.993  3.9478 -0.2019 -0.1226
 4119SOL     OW23989   3.191   2.581  17.680  0.6723 -0.2384 -0.1418
 4119SOL    HW123990   3.167   2.503  17.730 -1.4558  0.2735 -0.3843
 4119SOL    HW223991   3.283   2.604  17.697  0.9321 -0.2213 -1.6130
 4120SOL     OW23992   0.421   2.818   8.825  0.0273  0.0722  0.2057
 4120SOL    HW123993   0.494   2.876   8.802 -0.7100 -0.2199 -2.8356
 4120SOL    HW223994   0.371   2.875   8.884  4.1311  1.9655  1.8691
 4121SOL     OW23995   1.923   0.438   4.457  0.0986 -0.1977 -0.1284
 4121SOL    HW123996   1.968   0.487   4.388  0.9928  3.1852  2.8892
 4121SOL    HW223997   1.976   0.359   4.465  0.4098  0.1444  1.1523
 4122SOL     OW23998   4.306   1.207  15.678 -0.1544  0.0823  0.4624
 4122SOL    HW123999   4.273   1.295  15.699  0.4957  0.5656 -0.5504
 4122SOL    HW224000   4.258   1.180  15.599 -0.9501 -2.8072  1.9370
 4123SOL     OW24001   1.376   4.222   7.056 -0.3654 -0.1038 -0.4985
 4123SOL    HW124002   1.405   4.180   6.975 -0.5554 -1.5864  0.2006
 4123SOL    HW224003   1.285   4.194   7.062 -0.5885  0.3926 -1.5649
 4124SOL     OW24004   4.442   2.294  16.185 -0.3278  0.2754 -0.0048
 4124SOL    HW124005   4.504   2.296  16.258  0.0071  2.0186 -0.3419
 4124SOL    HW224006   4.359   2.313  16.230 -0.4589 -0.4548  0.0670
 4125SOL     OW24007   4.317   1.927   6.081 -0.0085  0.4297  0.5249
 4125SOL    HW124008   4.341   1.950   6.171 -2.2584 -1.9415  1.7430
 4125SOL    HW224009   4.397   1.907   6.033 -1.1256  1.2884 -1.7298
 4126SOL     OW24010   1.272   2.886  15.443  0.1889 -0.4371 -0.5325
 4126SOL    HW124011   1.315   2.802  15.457  0.4896 -0.1221  0.4000
 4126SOL    HW224012   1.254   2.910  15.534  3.8442  0.3092 -0.0244
 4127SOL     OW24013   3.373   2.702  16.192  0.9754 -0.2184  0.0120
 4127SOL    HW124014   3.409   2.614  16.203 -1.6417 -1.3651 -0.6366
 4127SOL    HW224015   3.409   2.709  16.103 -0.9373 -1.6367 -0.8752
 4128SOL     OW24016   0.882   0.804  10.980 -0.2249  0.5388 -0.2134
 4128SOL    HW124017   0.963   0.807  10.929  0.3209  1.1220  0.7153
 4128SOL    HW224018   0.859   0.711  10.972  0.8161  0.1316  1.5874
 4129SOL     OW24019   4.153   3.112  16.900 -0.1182  0.2745 -0.0238
 4129SOL    HW124020   4.058   3.109  16.898 -0.0264 -3.0332 -0.1731
 4129SOL    HW224021   4.169   3.066  16.817 -0.9750  0.4064 -0.2593
 4130SOL     OW24022   0.505   0.903   2.201  0.0683 -0.0352 -0.3092
 4130SOL    HW124023   0.579   0.845   2.216 -0.4557 -0.8641 -0.9162
 4130SOL    HW224024   0.540   0.982   2.242 -0.5903 -0.5704  1.2767
 4131SOL     OW24025   2.611   1.443   6.998 -0.1190  0.2880  0.2550
 4131SOL    HW124026   2.642   1.447   6.908  0.2253  1.3461  0.4251
 4131SOL    HW224027   2.522   1.479   6.988 -0.2995 -0.0703  0.5564
 4132SOL     OW24028   4.601   0.953   7.072 -0.2179  0.9720 -0.2520
 4132SOL    HW124029   4.566   0.966   6.984 -1.4277 -0.7942 -0.0245
 4132SOL    HW224030   4.675   0.896   7.052 -0.1429  0.9391  0.1246
 4133SOL     OW24031   2.945   1.796   2.868  0.3969  0.2502  0.2588
 4133SOL    HW124032   3.021   1.769   2.815  0.3897 -0.0455  0.4001
 4133SOL    HW224033   2.989   1.843   2.939  1.7667 -0.5418 -0.0602
 4134SOL     OW24034   0.960   1.427  16.807  0.2795  0.4219 -0.9279
 4134SOL    HW124035   1.007   1.510  16.814 -2.0381  1.7295 -0.7527
 4134SOL    HW224036   0.875   1.458  16.839  0.6971  2.4418 -1.7560
 4135SOL     OW24037   4.123   3.862   4.937  0.2880  0.4363 -0.1213
 4135SOL    HW124038   4.143   3.955   4.943 -0.7069  0.6455 -0.0844
 4135SOL    HW224039   4.204   3.845   4.889 -0.8797 -3.1908 -0.8177
 4136SOL     OW24040   0.362   0.570   7.181 -0.4333  0.2451  0.8158
 4136SOL    HW124041   0.355   0.516   7.259 -0.0225 -1.4786 -0.3499
 4136SOL    HW224042   0.453   0.599   7.184 -0.4842  0.4281  0.6474
 4137SOL     OW24043   2.649   3.893  12.213  0.0732 -0.6347 -0.1243
 4137SOL    HW124044   2.727   3.861  12.167  1.2122 -1.0362  2.0731
 4137SOL    HW224045   2.689   3.907  12.299  1.1614  0.9005 -0.8686
 4138SOL     OW24046   2.748   4.602  10.789  0.0701  0.2491 -0.2800
 4138SOL    HW124047   2.693   4.650  10.728  0.1748  0.6202 -0.0892
 4138SOL    HW224048   2.704   4.518  10.779  1.0936 -0.3207  0.0113
 4139SOL     OW24049   3.271   1.489   3.652 -0.3992 -0.0617  0.0484
 4139SOL    HW124050   3.360   1.518   3.631 -1.2409  0.2416 -3.0563
 4139SOL    HW224051   3.266   1.512   3.745 -2.1937 -1.8030  0.3787
 4140SOL     OW24052   1.806   3.361   5.772 -0.6467 -0.2888 -0.3616
 4140SOL    HW124053   1.713   3.353   5.793 -1.4736 -0.2969 -4.0425
 4140SOL    HW224054   1.802   3.405   5.687  3.5476 -0.6264 -0.7238
 4141SOL     OW24055   3.022   1.110   3.094 -0.4781 -0.2727  0.2989
 4141SOL    HW124056   3.058   1.101   3.006 -3.0162  2.9161 -1.0407
 4141SOL    HW224057   3.107   1.134   3.129 -0.5094 -1.6423  1.3331
 4142SOL     OW24058   1.432   4.561  15.307 -0.1738 -0.0620  0.6840
 4142SOL    HW124059   1.349   4.513  15.312 -0.9169  1.0228 -1.4227
 4142SOL    HW224060   1.419   4.632  15.244  1.6555 -0.0553  0.3313
 4143SOL     OW24061   1.719   3.848   6.815  0.1304 -0.1024 -0.0301
 4143SOL    HW124062   1.719   3.941   6.837 -0.1587 -0.1148  0.0199
 4143SOL    HW224063   1.707   3.848   6.720 -0.7650 -2.4844  0.0767
 4144SOL     OW24064   4.375   0.937  13.970  0.5244 -0.4067 -0.0833
 4144SOL    HW124065   4.334   0.853  13.951 -1.1098  0.7625 -1.6540
 4144SOL    HW224066   4.458   0.921  13.926  0.1479 -1.4289 -0.4168
 4145SOL     OW24067   3.918   3.305  16.828  0.0271  0.4826 -0.4006
 4145SOL    HW124068   3.826   3.283  16.809 -0.5469  2.4530  0.1374
 4145SOL    HW224069   3.965   3.281  16.748 -1.5615  0.4326 -1.3310
 4146SOL     OW24070   1.181   0.456   1.079 -0.5003  0.1139  0.5279
 4146SOL    HW124071   1.195   0.524   1.145 -3.2325  0.3216  0.8948
 4146SOL    HW224072   1.176   0.372   1.126  0.4608 -0.0714  0.3008
 4147SOL     OW24073   2.242   3.630  16.631 -0.1419 -0.1165 -0.1723
 4147SOL    HW124074   2.166   3.664  16.678  0.2043  2.2925 -1.3442
 4147SOL    HW224075   2.286   3.584  16.703  0.9366  0.6514 -0.3255
 4148SOL     OW24076   3.547   0.689   0.645 -0.0021  0.4487 -0.1682
 4148SOL    HW124077   3.465   0.719   0.607  0.3152  2.8152  1.0299
 4148SOL    HW224078   3.521   0.662   0.733  0.7652 -3.0289 -0.9816
 4149SOL     OW24079   0.019   3.154   3.498  0.6663 -0.1096 -0.5997
 4149SOL    HW124080   4.686   3.118   3.550  3.7359  0.0765  3.8090
 4149SOL    HW224081   4.708   3.181   3.420 -0.7117  3.2476  1.4349
 4150SOL     OW24082   2.705   0.401   5.736  0.4023 -0.6295  0.2070
 4150SOL    HW124083   2.639   0.461   5.700  1.2873 -0.0795 -0.5015
 4150SOL    HW224084   2.650   0.340   5.786  1.0516 -1.7606 -0.4725
 4151SOL     OW24085   1.463   2.685  17.370 -0.1100 -0.6741 -0.5698
 4151SOL    HW124086   1.537   2.743  17.354  0.5445 -0.0528  4.7417
 4151SOL    HW224087   1.402   2.712  17.301  0.1439 -1.3751 -1.0783
 4152SOL     OW24088   3.195   1.135   4.472 -0.2305 -0.8395  0.0983
 4152SOL    HW124089   3.197   1.199   4.542  0.5897 -2.3520  1.4515
 4152SOL    HW224090   3.103   1.153   4.452 -0.4888 -1.5579  0.6449
 4153SOL     OW24091   1.871   2.708   5.073 -0.2131  0.1549  0.2458
 4153SOL    HW124092   1.788   2.755   5.083  0.6912  1.7873 -0.0050
 4153SOL    HW224093   1.897   2.738   4.986  0.7873  0.7453  0.7463
 4154SOL     OW24094   1.254   0.251  15.292 -0.7036  0.4441 -0.5225
 4154SOL    HW124095   1.267   0.324  15.230  1.3480 -0.0441 -0.6713
 4154SOL    HW224096   1.247   0.181  15.227 -1.3404 -0.3283  0.3941
 4155SOL     OW24097   1.318   4.389  10.096  0.2836 -0.4869  0.2670
 4155SOL    HW124098   1.223   4.389  10.084  0.7675 -0.4449 -3.4863
 4155SOL    HW224099   1.358   4.449  10.034  0.1438 -0.7186 -0.0475
 4156SOL     OW24100   3.594   0.529   9.487  0.4008  0.2817 -0.0571
 4156SOL    HW124101   3.648   0.590   9.436 -0.2868 -0.0831 -1.2098
 4156SOL    HW224102   3.658   0.519   9.558  0.5298 -0.0557 -0.2214
 4157SOL     OW24103   0.929   3.154   1.804 -0.9352  0.7856  0.4000
 4157SOL    HW124104   0.930   3.183   1.713 -1.8275 -2.0757 -0.5081
 4157SOL    HW224105   0.852   3.097   1.813  1.0192 -1.4033  3.3387
 4158SOL     OW24106   2.177   0.457   8.801  0.2200 -0.5284  0.4324
 4158SOL    HW124107   2.163   0.423   8.890 -1.5727  2.3030  1.2367
 4158SOL    HW224108   2.090   0.443   8.764  0.5151 -0.2821 -0.3472
 4159SOL     OW24109   2.094   0.381   5.149  0.5203 -0.0820  0.0537
 4159SOL    HW124110   2.102   0.299   5.099 -0.4369  0.4109 -0.8934
 4159SOL    HW224111   2.050   0.430   5.079  0.0355  1.7294  1.6387
 4160SOL     OW24112   3.820   3.742  12.152 -0.4993 -0.0093  0.1059
 4160SOL    HW124113   3.773   3.722  12.233 -0.9630  1.9355  0.3102
 4160SOL    HW224114   3.747   3.723  12.093 -1.0343 -0.4662  0.9241
 4161SOL     OW24115   3.558   0.877   1.461 -0.2749  0.0973 -0.3763
 4161SOL    HW124116   3.550   0.899   1.368 -1.2910  1.3958  0.0176
 4161SOL    HW224117   3.652   0.897   1.459  0.0716 -1.2642  2.5913
 4162SOL     OW24118   1.766   4.618   2.616  0.0290 -0.5967  0.1125
 4162SOL    HW124119   1.718   4.567   2.682  0.1978 -1.0648 -0.1243
 4162SOL    HW224120   1.741   4.576   2.534 -1.2609  2.3260 -1.0002
 4163SOL     OW24121   2.424   4.003  16.849 -0.2671 -0.5478 -0.2627
 4163SOL    HW124122   2.340   4.013  16.803 -1.6516 -3.4594  1.6436
 4163SOL    HW224123   2.431   3.908  16.858 -1.2840 -0.8402 -2.4807
 4164SOL     OW24124   2.041   4.299  15.845 -0.3229 -0.4553  0.0557
 4164SOL    HW124125   2.076   4.214  15.818 -0.5174 -0.8290  0.9823
 4164SOL    HW224126   2.071   4.363  15.780 -2.4834  0.8284  0.3407
 4165SOL     OW24127   3.191   4.358   9.430 -0.0687 -0.1259  0.1144
 4165SOL    HW124128   3.113   4.352   9.485  0.1379 -0.4454  0.3670
 4165SOL    HW224129   3.260   4.333   9.492  0.0669 -1.0526 -0.4195
 4166SOL     OW24130   0.390   3.294   9.799  0.2767 -0.3715 -0.0766
 4166SOL    HW124131   0.486   3.302   9.796  0.2631 -0.1169  0.1760
 4166SOL    HW224132   0.361   3.380   9.829  1.8069 -0.1062  0.6245
 4167SOL     OW24133   2.029   0.914   3.799 -0.1710  0.0521  0.3110
 4167SOL    HW124134   2.071   0.830   3.817  0.0674 -0.0506 -0.7040
 4167SOL    HW224135   2.058   0.970   3.871  0.3154 -1.6350  1.4412
 4168SOL     OW24136   3.376   3.427  17.658  0.4362 -0.0217 -0.4383
 4168SOL    HW124137   3.311   3.418  17.728  0.6306 -1.8025 -0.5086
 4168SOL    HW224138   3.367   3.513  17.616  0.0772 -0.1564 -0.6337
 4169SOL     OW24139   1.089   4.029   8.049  0.0548  0.3785 -0.6896
 4169SOL    HW124140   1.136   4.053   8.129 -0.4685 -3.7072  0.8564
 4169SOL    HW224141   1.120   4.098   7.991 -0.4780  0.4213 -0.9250
 4170SOL     OW24142   0.202   3.539  12.615  0.3758  0.5590 -0.3230
 4170SOL    HW124143   0.272   3.491  12.659  0.6293  1.8267  0.6961
 4170SOL    HW224144   0.254   3.613  12.582 -2.3753  1.7259 -2.1200
 4171SOL     OW24145   0.613   2.784   4.005 -0.3033  0.7734 -0.2969
 4171SOL    HW124146   0.568   2.807   4.086 -1.4334  0.3930 -0.8249
 4171SOL    HW224147   0.638   2.695   4.028  0.3381  1.5472  2.0226
 4172SOL     OW24148   1.374   1.525   7.243 -0.3962 -0.2821 -0.4415
 4172SOL    HW124149   1.415   1.584   7.306  2.7631 -2.7945 -0.1696
 4172SOL    HW224150   1.317   1.581   7.190  2.2702  2.1713 -0.7678
 4173SOL     OW24151   4.565   2.798  12.741 -0.3860 -0.7302  0.2072
 4173SOL    HW124152   4.598   2.711  12.719 -0.2142 -0.7104  0.3897
 4173SOL    HW224153   4.634   2.847  12.697 -0.8879  0.6535  0.9553
 4174SOL     OW24154   1.582   3.225   1.342 -0.3162  0.1613  0.0226
 4174SOL    HW124155   1.576   3.214   1.437 -0.0058 -0.5836 -0.0451
 4174SOL    HW224156   1.558   3.136   1.318 -0.0385  0.2831 -0.6938
 4175SOL     OW24157   2.080   4.270  10.199  0.4126 -0.1792 -0.2881
 4175SOL    HW124158   2.003   4.275  10.256 -0.4708 -0.1741 -1.4795
 4175SOL    HW224159   2.118   4.356  10.215  0.4128 -0.5553  1.6540
 4176SOL     OW24160   1.255   3.679   8.821  0.2374  0.1039 -0.0008
 4176SOL    HW124161   1.185   3.743   8.836 -0.8081 -0.8688 -0.7116
 4176SOL    HW224162   1.219   3.600   8.859 -0.7987  0.5735 -0.0015
 4177SOL     OW24163   3.540   4.361   9.057  0.4061 -0.1791  0.0635
 4177SOL    HW124164   3.536   4.440   9.003  0.0777  0.2637  0.7315
 4177SOL    HW224165   3.476   4.390   9.122  1.7546  1.7749  0.5206
 4178SOL     OW24166   0.336   1.830   1.087 -0.2687  0.6158  0.5491
 4178SOL    HW124167   0.265   1.890   1.110 -0.4017 -0.7041  3.6224
 4178SOL    HW224168   0.295   1.744   1.085 -0.4730  0.7068  0.7932
 4179SOL     OW24169   2.786   0.174   3.235 -0.0265  0.6975  0.3036
 4179SOL    HW124170   2.749   0.254   3.198  0.0906  0.4244 -0.3997
 4179SOL    HW224171   2.872   0.168   3.195  0.0960 -2.6076  1.0791
 4180SOL     OW24172   0.422   3.069   5.851 -0.0155 -1.1535  0.3009
 4180SOL    HW124173   0.384   3.056   5.764 -2.1188 -1.1542  1.2167
 4180SOL    HW224174   0.514   3.050   5.836  0.4865  2.1583 -0.8213
 4181SOL     OW24175   2.432   1.488  17.654  0.3366  0.5388 -0.4176
 4181SOL    HW124176   2.432   1.544  17.732  0.6426  1.8187 -1.3367
 4181SOL    HW224177   2.406   1.408  17.699  1.0808  1.3173  1.4344
 4182SOL     OW24178   2.552   4.202   5.308  0.0576 -0.0313 -0.4566
 4182SOL    HW124179   2.629   4.236   5.352 -0.7643  1.4129 -0.1435
 4182SOL    HW224180   2.500   4.195   5.388 -0.0899  4.1962 -0.2346
 4183SOL     OW24181   2.534   0.029   3.776 -0.3367  0.0661 -0.2494
 4183SOL    HW124182   2.562   0.047   3.866  0.3961  0.6873 -0.6076
 4183SOL    HW224183   2.576   0.095   3.721 -1.7077  2.2485  1.3034
 4184SOL     OW24184   1.778   2.809   3.431  0.0856  0.3660  0.2356
 4184SOL    HW124185   1.774   2.718   3.458  0.0671  1.5481  4.1985
 4184SOL    HW224186   1.810   2.799   3.341  0.5126  0.2822  0.4015
 4185SOL     OW24187   1.486   2.540   2.139  0.0042 -0.1127  0.2693
 4185SOL    HW124188   1.573   2.577   2.154 -0.4824 -0.0932  3.1239
 4185SOL    HW224189   1.432   2.614   2.167  1.0272  1.5788 -2.1875
 4186SOL     OW24190   3.731   2.476   3.476  0.1400 -0.1918  0.2002
 4186SOL    HW124191   3.701   2.467   3.566  0.3213  0.1049  0.2877
 4186SOL    HW224192   3.723   2.386   3.444 -0.1581  0.2109 -0.8674
 4187SOL     OW24193   2.916   4.537  16.611  0.3682 -0.1125  0.2633
 4187SOL    HW124194   2.928   4.554  16.704  1.1373  1.5449 -0.1472
 4187SOL    HW224195   3.003   4.538  16.571  0.2459  2.2002  0.0657
 4188SOL     OW24196   0.704   0.307   8.849 -0.5372 -0.2302  0.0663
 4188SOL    HW124197   0.764   0.351   8.789 -0.7948  0.8310  0.5915
 4188SOL    HW224198   0.659   0.375   8.899 -0.1062 -0.4467  0.7550
 4189SOL     OW24199   0.737   3.065   5.267  0.3389  0.1279  0.0225
 4189SOL    HW124200   0.677   3.085   5.339 -1.0571  1.0801 -1.3976
 4189SOL    HW224201   0.699   2.988   5.225  0.7141  0.5990 -1.1827
 4190SOL     OW24202   3.262   0.176   6.058 -0.3854 -0.3199  0.3231
 4190SOL    HW124203   3.275   0.270   6.072  1.7058 -0.6238  0.3371
 4190SOL    HW224204   3.171   0.177   6.028  0.3033  0.4097 -1.7875
 4191SOL     OW24205   3.805   4.554  13.002 -0.1134 -0.3331 -0.5991
 4191SOL    HW124206   3.802   4.619  13.072  0.6462  2.3225 -3.0285
 4191SOL    HW224207   3.829   4.477  13.052  0.9463  1.0492  1.0085
 4192SOL     OW24208   0.351   0.607   6.546 -0.1939 -0.6740 -0.5255
 4192SOL    HW124209   0.271   0.572   6.585  0.0466  0.8559  1.3327
 4192SOL    HW224210   0.317   0.673   6.485 -0.2071 -0.1367  0.0740
 4193SOL     OW24211   4.429   2.899  12.958 -0.5618 -0.7229 -0.8636
 4193SOL    HW124212   4.474   2.879  12.876  1.1866  0.8404 -0.2719
 4193SOL    HW224213   4.404   2.811  12.987 -0.7836 -0.5374 -0.4912
 4194SOL     OW24214   3.689   0.291   5.709 -0.6495  0.5253 -0.3494
 4194SOL    HW124215   3.615   0.323   5.762 -0.7596  2.4740 -1.6833
 4194SOL    HW224216   3.756   0.352   5.742  1.5849 -2.2241  0.1472
 4195SOL     OW24217   0.324   2.704   5.121 -0.2974  0.0985  0.5413
 4195SOL    HW124218   0.272   2.688   5.042  0.5935 -2.7171  0.5307
 4195SOL    HW224219   0.322   2.613   5.153 -0.8736 -0.0232  0.1502
 4196SOL     OW24220   4.435   1.264   7.805  0.2638  0.5883  0.2501
 4196SOL    HW124221   4.361   1.207   7.824 -0.1379  1.0076 -0.0651
 4196SOL    HW224222   4.494   1.246   7.879 -0.2308 -3.3847 -0.3191
 4197SOL     OW24223   1.312   0.761   3.621 -0.4208 -0.0503  0.2495
 4197SOL    HW124224   1.389   0.764   3.564  0.7931 -1.3108  1.8347
 4197SOL    HW224225   1.286   0.854   3.616 -2.5189 -0.5082  2.7385
 4198SOL     OW24226   2.236   2.151   6.511 -0.2184 -0.2310 -0.1739
 4198SOL    HW124227   2.169   2.193   6.456  2.5540  4.1209 -0.2356
 4198SOL    HW224228   2.250   2.226   6.569 -0.8964  0.4615 -0.9018
 4199SOL     OW24229   0.775   0.170   2.639  0.0861 -0.0790 -0.3271
 4199SOL    HW124230   0.711   0.101   2.657 -1.5215  1.6031  0.3659
 4199SOL    HW224231   0.810   0.182   2.727  3.1188 -1.1347 -1.4141
 4200SOL     OW24232   0.738   4.170  11.656  0.0389  0.1124  0.5585
 4200SOL    HW124233   0.754   4.084  11.696  0.5776 -0.2721 -0.4789
 4200SOL    HW224234   0.816   4.215  11.689  2.2183 -2.7651 -0.5859
 4201SOL     OW24235   0.377   0.046   3.200 -0.0428 -0.2659 -0.5910
 4201SOL    HW124236   0.288   0.080   3.208 -0.0148 -0.3115 -0.1177
 4201SOL    HW224237   0.383   4.729   3.277 -4.1955  1.2355  0.7950
 4202SOL     OW24238   0.317   1.954  10.181  0.0940  0.3223 -0.5533
 4202SOL    HW124239   0.313   1.989  10.092  1.1761  0.2830 -0.6101
 4202SOL    HW224240   0.400   1.909  10.171 -0.5013 -1.0665  0.8460
 4203SOL     OW24241   0.713   2.445   8.026  0.5647 -0.4273 -0.6218
 4203SOL    HW124242   0.740   2.387   8.097  2.2356  0.0576 -0.8630
 4203SOL    HW224243   0.742   2.392   7.952  0.3719  1.9374 -2.4064
 4204SOL     OW24244   4.411   2.294  14.745  0.1430 -0.6866 -0.2365
 4204SOL    HW124245   4.471   2.281  14.672  0.1023  1.9130 -0.7228
 4204SOL    HW224246   4.476   2.335  14.802 -0.2636  0.6976 -0.7778
 4205SOL     OW24247   2.891   3.773   4.450 -0.2862 -0.0206  0.1413
 4205SOL    HW124248   2.849   3.856   4.426 -0.7269  0.3490  2.1519
 4205SOL    HW224249   2.842   3.739   4.525 -2.4775 -0.1762 -1.3597
 4206SOL     OW24250   4.460   0.221  13.605  0.0344 -0.0455  0.5645
 4206SOL    HW124251   4.422   0.176  13.681 -1.3070  0.5170  0.2295
 4206SOL    HW224252   4.395   0.291  13.610 -1.0164 -0.9264 -0.8874
 4207SOL     OW24253   1.266   4.622   5.182 -0.3154 -0.4869  0.3281
 4207SOL    HW124254   1.279   4.619   5.087 -0.0008 -2.3565  0.4344
 4207SOL    HW224255   1.358   4.620   5.206 -0.3836 -0.1971  0.6185
 4208SOL     OW24256   1.582   0.809  11.462 -0.0248  0.1500 -0.6628
 4208SOL    HW124257   1.629   0.878  11.508 -0.9723  0.3814 -0.0477
 4208SOL    HW224258   1.569   0.737  11.525 -1.0588 -1.3266 -2.5622
 4209SOL     OW24259   1.380   4.144   5.862  0.5279 -0.4831  0.1449
 4209SOL    HW124260   1.348   4.065   5.820 -1.0296 -0.0711  0.5546
 4209SOL    HW224261   1.381   4.119   5.954  1.1580  1.5599  0.6966
 4210SOL     OW24262   1.709   1.425  13.322  0.5697 -0.3370  0.0588
 4210SOL    HW124263   1.687   1.440  13.230 -1.1968  0.9850  0.7088
 4210SOL    HW224264   1.775   1.493  13.333 -0.0102  0.2441 -0.1015
 4211SOL     OW24265   0.571   3.774   2.905  0.2077  0.3071  0.3164
 4211SOL    HW124266   0.640   3.805   2.964  2.0112 -4.3131  0.5847
 4211SOL    HW224267   0.617   3.734   2.832 -0.4063 -0.1236  0.1622
 4212SOL     OW24268   0.907   0.244   4.511 -0.2601 -0.3368  0.5216
 4212SOL    HW124269   0.821   0.237   4.552  0.2102  0.4847  1.6235
 4212SOL    HW224270   0.960   0.173   4.545 -2.2483 -0.8910  2.4800
 4213SOL     OW24271   3.092   1.959   1.917  0.7229 -0.2554 -0.3846
 4213SOL    HW124272   3.066   1.898   1.849  1.0014 -0.2634 -0.4842
 4213SOL    HW224273   3.104   2.039   1.866 -1.2356  0.4259  0.2089
 4214SOL     OW24274   1.329   1.696  16.144  0.2440 -0.2090  0.3107
 4214SOL    HW124275   1.282   1.612  16.144  0.1036 -0.1276 -0.2625
 4214SOL    HW224276   1.352   1.712  16.236 -0.2904  0.7919  0.2694
 4215SOL     OW24277   3.915   2.562   3.731 -0.0308 -0.5063  0.2825
 4215SOL    HW124278   3.830   2.528   3.758  0.3403 -0.9179  0.9169
 4215SOL    HW224279   3.944   2.613   3.808  0.8289  0.0889 -0.4279
 4216SOL     OW24280   1.904   3.133   3.216  0.2374  0.3286  0.2193
 4216SOL    HW124281   1.909   3.134   3.311  0.5438  1.5548  0.1813
 4216SOL    HW224282   1.966   3.201   3.190 -0.3685  0.5275 -0.7186
 4217SOL     OW24283   0.283   0.345   4.759 -0.4836 -0.5352  0.5118
 4217SOL    HW124284   0.220   0.276   4.738 -0.5155 -0.4219  0.2436
 4217SOL    HW224285   0.227   0.407   4.807  0.3997  1.5112 -1.1245
 4218SOL     OW24286   1.817   1.145  12.844 -0.0105  0.1835  0.6168
 4218SOL    HW124287   1.782   1.200  12.774 -2.2284 -0.4383  1.2392
 4218SOL    HW224288   1.761   1.168  12.919 -0.9166 -0.0355  0.0085
 4219SOL     OW24289   4.510   4.005   2.635  0.5238 -0.4278 -0.3063
 4219SOL    HW124290   4.604   4.018   2.627  0.8952 -1.4481  2.1247
 4219SOL    HW224291   4.503   3.909   2.635  0.5530 -0.4294 -0.5715
 4220SOL     OW24292   3.979   2.716   4.778 -0.0757 -0.3687  0.2990
 4220SOL    HW124293   3.948   2.789   4.832  1.4081  0.1846  0.4097
 4220SOL    HW224294   3.901   2.691   4.729 -1.4916  1.7160  1.5233
 4221SOL     OW24295   2.971   1.242  17.161  0.3984  0.3601 -0.3659
 4221SOL    HW124296   2.996   1.179  17.229 -3.9564  0.6797  1.5157
 4221SOL    HW224297   3.059   1.272  17.137  1.1818  0.1574  2.2378
 4222SOL     OW24298   4.486   3.600  14.585 -0.0654  0.1408  0.1490
 4222SOL    HW124299   4.504   3.568  14.497  2.2303  2.2891 -0.1301
 4222SOL    HW224300   4.568   3.578  14.629  0.0129  0.8356  0.3481
 4223SOL     OW24301   0.880   0.092   5.214 -0.2824  0.8108 -0.3801
 4223SOL    HW124302   0.911   0.174   5.253  1.0294 -0.1219  0.5393
 4223SOL    HW224303   0.797   0.120   5.174 -0.6584  0.0024 -0.1533
 4224SOL     OW24304   4.452   2.816   5.337  0.5288  0.0469 -0.2004
 4224SOL    HW124305   4.534   2.781   5.300  0.4711  0.9978 -1.2262
 4224SOL    HW224306   4.414   2.862   5.262 -0.0882  1.3004  0.8765
 4225SOL     OW24307   3.773   1.662   1.921 -0.1518 -0.8741  0.0531
 4225SOL    HW124308   3.833   1.640   1.849  0.0211  1.1547 -0.4150
 4225SOL    HW224309   3.748   1.753   1.910  1.7206 -0.5639 -1.7376
 4226SOL     OW24310   1.376   3.864  11.777  0.3980  0.5760 -0.1286
 4226SOL    HW124311   1.467   3.838  11.783 -0.3707 -2.1529 -0.2987
 4226SOL    HW224312   1.372   3.930  11.846 -1.3301  1.1842 -0.8036
 4227SOL     OW24313   1.842   0.289   5.777  0.4940  0.3507 -0.0532
 4227SOL    HW124314   1.763   0.339   5.753  2.1691  3.8410  1.6997
 4227SOL    HW224315   1.834   0.287   5.872 -3.6787  0.7997 -0.3876
 4228SOL     OW24316   4.017   1.933   1.674 -0.0399  0.0421  0.1615
 4228SOL    HW124317   3.986   2.019   1.645  1.3306  0.1864 -0.9146
 4228SOL    HW224318   3.985   1.863   1.617 -0.2933  0.9431 -0.8184
 4229SOL     OW24319   0.728   4.154   0.509  0.4197  0.1884 -0.2474
 4229SOL    HW124320   0.740   4.062   0.533  0.7455 -0.0325 -1.2983
 4229SOL    HW224321   0.747   4.195   0.593  0.3913 -0.9075  0.3043
 4230SOL     OW24322   4.383   3.812   8.837  0.2766  0.7006 -0.0606
 4230SOL    HW124323   4.446   3.838   8.904 -1.8586 -0.8615  2.5385
 4230SOL    HW224324   4.315   3.876   8.857  0.4834  0.3038  1.9089
 4231SOL     OW24325   0.247   1.456  17.364 -0.4645  0.0801 -0.2721
 4231SOL    HW124326   0.177   1.518  17.385 -0.1880 -0.5659  2.5021
 4231SOL    HW224327   0.258   1.418  17.451  1.7955 -1.2500 -1.1452
 4232SOL     OW24328   4.216   0.316   1.899 -0.3122 -0.1368  0.6364
 4232SOL    HW124329   4.155   0.347   1.966  0.6921 -1.8243  2.3283
 4232SOL    HW224330   4.298   0.330   1.948 -0.9533 -0.8884  1.9150
 4233SOL     OW24331   3.638   0.659  13.339  0.1504  0.4997  0.6006
 4233SOL    HW124332   3.660   0.658  13.432  0.6601 -0.1707  0.4691
 4233SOL    HW224333   3.550   0.696  13.343  0.3621  1.2525 -1.6725
 4234SOL     OW24334   2.314   0.122   6.471  0.4205 -0.2636  0.3575
 4234SOL    HW124335   2.264   0.190   6.425  1.2345 -0.5939 -1.0291
 4234SOL    HW224336   2.312   0.052   6.406  1.5257  1.9304 -2.0770
 4235SOL     OW24337   2.126   1.149   6.152 -0.1836  0.8355  0.0488
 4235SOL    HW124338   2.072   1.220   6.188 -2.2592 -0.1937 -1.0771
 4235SOL    HW224339   2.198   1.197   6.111  0.3437  0.6311  0.7489
 4236SOL     OW24340   0.287   1.946   2.936  0.1436  0.2179  0.0499
 4236SOL    HW124341   0.381   1.954   2.917  0.1016  1.9867  0.5503
 4236SOL    HW224342   0.254   2.030   2.904 -1.3087 -0.3491  0.0954
 4237SOL     OW24343   2.052   3.614   3.189  0.0654 -0.1182  0.4989
 4237SOL    HW124344   1.963   3.619   3.224  0.3712  2.5120  0.8942
 4237SOL    HW224345   2.058   3.681   3.121  0.9321  1.0459  1.7133
 4238SOL     OW24346   1.029   2.615   8.174  0.3717  0.0862  0.6287
 4238SOL    HW124347   1.111   2.664   8.184 -0.7155  1.5713  2.4495
 4238SOL    HW224348   1.053   2.523   8.167  0.1342 -0.0272  1.2922
 4239SOL     OW24349   1.987   3.397   9.601  0.4617 -0.4803 -0.5507
 4239SOL    HW124350   2.029   3.459   9.661 -2.0130  1.2325 -0.5710
 4239SOL    HW224351   1.942   3.343   9.666 -0.7148  0.5864 -0.4833
 4240SOL     OW24352   0.239   2.689   1.178 -0.0061 -0.5155  0.6192
 4240SOL    HW124353   0.169   2.740   1.218 -0.2587 -0.6654  0.3747
 4240SOL    HW224354   0.279   2.652   1.256 -0.9748 -0.1191  1.2994
 4241SOL     OW24355   2.573   0.583   9.634 -0.4095  0.0309  0.9816
 4241SOL    HW124356   2.512   0.628   9.575  0.9321  0.6689  0.0482
 4241SOL    HW224357   2.658   0.588   9.588 -0.6861 -1.0243  0.3585
 4242SOL     OW24358   0.491   2.497   2.983 -0.6512 -0.1199  0.3536
 4242SOL    HW124359   0.506   2.590   2.963  0.2521 -0.1686  0.8179
 4242SOL    HW224360   0.441   2.472   2.906 -1.7467  0.9296  0.7267
 4243SOL     OW24361   1.753   1.477   1.863  0.2101 -0.1227 -0.1216
 4243SOL    HW124362   1.706   1.395   1.868  0.3312 -0.0323  2.4969
 4243SOL    HW224363   1.677   1.534   1.856 -0.1262 -0.8581 -2.5621
 4244SOL     OW24364   3.449   4.090   9.930 -0.2008  0.4713  0.6268
 4244SOL    HW124365   3.416   4.175   9.957  0.1826  0.1963  1.9287
 4244SOL    HW224366   3.517   4.075   9.995  1.1573  0.5024 -0.7962
 4245SOL     OW24367   2.817   1.380   7.921 -0.1079 -0.3239  0.4352
 4245SOL    HW124368   2.730   1.382   7.881 -0.3829 -1.3425  0.9803
 4245SOL    HW224369   2.807   1.443   7.992 -0.5939 -0.4562  0.4864
 4246SOL     OW24370   4.314   0.416   3.362  0.3077  0.1370 -0.1811
 4246SOL    HW124371   4.370   0.480   3.406  1.3088 -1.4976  0.9345
 4246SOL    HW224372   4.238   0.466   3.334 -0.8128 -0.3286  2.0024
 4247SOL     OW24373   1.134   0.422   6.064  1.1999  0.4498 -0.0181
 4247SOL    HW124374   1.183   0.359   6.117  1.0973 -0.2615 -0.7735
 4247SOL    HW224375   1.173   0.419   5.977 -0.7924  4.7971 -1.0890
 4248SOL     OW24376   4.232   3.930   2.508  0.0412  0.7617  0.4459
 4248SOL    HW124377   4.223   3.939   2.603  1.3033 -3.1093  0.9395
 4248SOL    HW224378   4.316   3.884   2.515 -1.2882 -1.6433  0.6464
 4249SOL     OW24379   3.714   2.833  17.571  0.8084 -0.4127 -0.1290
 4249SOL    HW124380   3.710   2.789  17.656 -2.0353 -0.9673 -0.5463
 4249SOL    HW224381   3.737   2.924  17.591 -4.0771  0.4015  1.6338
 4250SOL     OW24382   1.881   1.838   7.214  0.0860 -0.3784 -0.6843
 4250SOL    HW124383   1.967   1.879   7.210  0.6171 -1.5261 -1.1835
 4250SOL    HW224384   1.841   1.910   7.262 -0.4307 -1.4835  0.5358
 4251SOL     OW24385   3.172   4.015   9.515 -0.1875  0.7003  0.4643
 4251SOL    HW124386   3.083   4.038   9.489 -1.3337 -1.4949  2.4608
 4251SOL    HW224387   3.203   3.992   9.427 -2.7281 -0.5929 -0.1022
 4252SOL     OW24388   1.780   2.093   4.468 -0.2403  0.2302  0.7285
 4252SOL    HW124389   1.705   2.106   4.526 -0.1576  0.9138  0.6793
 4252SOL    HW224390   1.836   2.038   4.522  1.2411 -0.5578 -1.6162
 4253SOL     OW24391   3.038   0.751  15.652 -0.4103  0.0250  0.0921
 4253SOL    HW124392   3.114   0.783  15.700  0.3412 -1.4568 -0.1087
 4253SOL    HW224393   3.062   0.659  15.640 -2.5665 -0.6474  0.8995
 4254SOL     OW24394   1.702   3.235   0.844 -0.0273  0.5001  0.4497
 4254SOL    HW124395   1.797   3.225   0.845 -0.1453 -0.6924 -0.3255
 4254SOL    HW224396   1.672   3.217   0.755  0.6869  0.9354  0.1251
 4255SOL     OW24397   3.232   0.298  13.172 -0.6216  0.2763 -0.5460
 4255SOL    HW124398   3.237   0.203  13.164  0.4158  0.1359  1.7582
 4255SOL    HW224399   3.159   0.326  13.226  1.7060  2.2195  1.5791
 4256SOL     OW24400   0.778   4.494   3.983  0.2553  0.4230 -0.4869
 4256SOL    HW124401   0.768   4.560   4.052  2.1263  0.0109  0.1574
 4256SOL    HW224402   0.873   4.484   3.984  0.1564 -0.7487 -1.4769
 4257SOL     OW24403   1.983   1.225   4.927  0.6154  0.2577  0.7724
 4257SOL    HW124404   2.061   1.255   4.974  0.0176  2.0508  0.6068
 4257SOL    HW224405   1.960   1.156   4.989 -2.3118  1.1960  0.7312
 4258SOL     OW24406   1.128   3.018   1.930  0.3731  0.0802 -0.2613
 4258SOL    HW124407   1.113   2.947   1.868  1.6908 -1.3818  1.0742
 4258SOL    HW224408   1.056   3.074   1.903 -0.0606  1.3455  3.4542
 4259SOL     OW24409   4.582   3.536   6.839 -0.2157  0.3976  0.0179
 4259SOL    HW124410   4.541   3.511   6.921  1.1051 -1.6748  0.0383
 4259SOL    HW224411   4.673   3.513   6.861  0.4529  0.0017 -3.0910
 4260SOL     OW24412   1.274   4.383   0.630 -0.0485  0.0697 -0.2735
 4260SOL    HW124413   1.313   4.439   0.696 -1.4953  0.4958  0.2283
 4260SOL    HW224414   1.205   4.347   0.686  0.5210  0.0127  0.3770
 4261SOL     OW24415   0.373   2.906   4.407 -0.8651  0.1397 -0.2990
 4261SOL    HW124416   0.298   2.871   4.455 -1.5481  0.2843 -1.2519
 4261SOL    HW224417   0.427   2.942   4.477 -1.5727 -0.3807  0.5219
 4262SOL     OW24418   1.477   1.503   1.365 -0.3909 -0.4437 -0.0654
 4262SOL    HW124419   1.448   1.425   1.411  0.9399 -1.1353 -0.3990
 4262SOL    HW224420   1.519   1.465   1.288  1.5379  2.4960 -0.4692
 4263SOL     OW24421   0.759   4.458   4.348 -0.9251  0.3339 -0.1199
 4263SOL    HW124422   0.761   4.386   4.411  3.4466  2.5933  2.3277
 4263SOL    HW224423   0.737   4.415   4.265  1.6346 -1.4830  0.1140
 4264SOL     OW24424   4.489   0.043   8.309 -0.3852 -0.4021  0.0461
 4264SOL    HW124425   4.452   0.027   8.222  1.5673 -0.5931 -0.7555
 4264SOL    HW224426   4.471   0.137   8.308 -0.6389 -0.4518 -0.0358
 4265SOL     OW24427   2.897   4.131   2.077  0.5977  0.0439  0.5215
 4265SOL    HW124428   2.976   4.178   2.105 -0.0197  0.4765  1.5064
 4265SOL    HW224429   2.845   4.198   2.033  0.6754  1.3505  2.4219
 4266SOL     OW24430   1.040   2.816   3.643  0.1924  0.3437 -0.2312
 4266SOL    HW124431   1.064   2.902   3.677 -0.1267  1.2227 -2.2665
 4266SOL    HW224432   1.068   2.761   3.717  2.3942 -0.9670 -2.0456
 4267SOL     OW24433   3.379   3.994   3.359  0.2477  0.1526  0.4557
 4267SOL    HW124434   3.450   3.951   3.311  1.5459  1.8613  0.8555
 4267SOL    HW224435   3.333   3.929   3.413  1.0050 -0.2606  0.6006
 4268SOL     OW24436   1.024   2.485   6.842  0.0416  0.7796 -0.1252
 4268SOL    HW124437   0.992   2.548   6.907  1.4101  1.3973 -0.0500
 4268SOL    HW224438   1.075   2.430   6.901 -0.1773 -0.0410 -0.7082
 4269SOL     OW24439   3.506   1.731   6.595 -0.0345  0.2689 -0.1508
 4269SOL    HW124440   3.496   1.787   6.672 -0.7576 -4.2552  3.0745
 4269SOL    HW224441   3.505   1.644   6.635 -0.9094  1.5990  2.7092
 4270SOL     OW24442   4.041   1.108   2.548 -0.5219  0.1699 -0.3258
 4270SOL    HW124443   4.002   1.048   2.612 -0.6759  0.6697  0.0598
 4270SOL    HW224444   3.990   1.186   2.570 -2.1599 -1.2758  1.0025
 4271SOL     OW24445   4.431   3.356   9.298 -0.6028 -0.3127  0.0108
 4271SOL    HW124446   4.485   3.411   9.355 -0.1953  0.6894 -1.3558
 4271SOL    HW224447   4.484   3.276   9.290  0.2376  0.1895  0.5018
 4272SOL     OW24448   1.518   3.782  16.583 -0.0321 -0.4904 -0.6082
 4272SOL    HW124449   1.487   3.842  16.652 -2.4402  1.2795 -3.2358
 4272SOL    HW224450   1.589   3.834  16.545  1.7832 -1.6956  1.1341
 4273SOL     OW24451   2.631   3.153   8.302 -0.0338  0.2889 -0.0353
 4273SOL    HW124452   2.648   3.246   8.288 -1.4267  0.4278 -0.7457
 4273SOL    HW224453   2.726   3.138   8.306  0.0238  0.3867 -1.0002
 4274SOL     OW24454   3.792   2.045   8.619  0.5094  0.0128 -0.2500
 4274SOL    HW124455   3.816   1.982   8.687 -0.6531 -0.9614 -0.7386
 4274SOL    HW224456   3.703   2.060   8.653  0.8482  1.3133  0.0502
 4275SOL     OW24457   0.683   4.386   6.995  0.5725  0.2897 -0.1447
 4275SOL    HW124458   0.624   4.442   6.945 -0.0184 -0.4967 -0.3181
 4275SOL    HW224459   0.712   4.320   6.933 -0.2841 -1.6540  1.5450
 4276SOL     OW24460   3.918   1.793   7.998 -0.5233  0.4711 -0.2764
 4276SOL    HW124461   3.966   1.861   7.952 -1.7628 -0.8810 -3.6005
 4276SOL    HW224462   3.954   1.795   8.086 -1.3273  0.4031  0.0591
 4277SOL     OW24463   1.397   3.175   1.717 -0.1018 -0.0688  0.4518
 4277SOL    HW124464   1.482   3.210   1.691 -1.0483  3.6028  2.3596
 4277SOL    HW224465   1.342   3.169   1.640  0.5881  1.4358 -0.1560
 4278SOL     OW24466   2.193   2.875   8.045  0.5244 -0.0163  0.2767
 4278SOL    HW124467   2.191   2.909   8.135 -1.7912 -0.5325  0.4372
 4278SOL    HW224468   2.265   2.927   8.010  0.6263 -0.3561 -0.0128
 4279SOL     OW24469   0.705   2.135   5.388 -0.5730  0.0260 -0.4072
 4279SOL    HW124470   0.669   2.205   5.334 -1.8452 -0.5933 -0.3508
 4279SOL    HW224471   0.700   2.185   5.470  0.6452  2.9328 -2.1030
 4280SOL     OW24472   0.833   3.711   4.331  0.0299  0.1311  0.9320
 4280SOL    HW124473   0.812   3.743   4.243 -0.1784 -2.0720  0.1976
 4280SOL    HW224474   0.843   3.617   4.316  1.2626  0.4260 -0.1052
 4281SOL     OW24475   2.542   1.265   1.198 -0.1421 -0.1915 -0.3661
 4281SOL    HW124476   2.533   1.358   1.221 -2.4860 -0.5057 -0.0621
 4281SOL    HW224477   2.455   1.230   1.214 -0.8810  1.0229 -1.6964
 4282SOL     OW24478   3.289   1.392  15.994  0.6899  0.1273  1.0180
 4282SOL    HW124479   3.217   1.401  16.056  2.1261  1.0303  2.5763
 4282SOL    HW224480   3.318   1.483  15.984 -0.7232  0.7219  2.3649
 4283SOL     OW24481   4.342   1.765   9.244  0.3215  0.2566 -0.7859
 4283SOL    HW124482   4.252   1.765   9.278  1.6866  0.9430  2.7889
 4283SOL    HW224483   4.355   1.860   9.249 -0.7916  0.3202  0.8518
 4284SOL     OW24484   1.212   0.636   1.299  0.3876  1.1238  0.4834
 4284SOL    HW124485   1.149   0.624   1.369  1.6204 -0.0099  1.4011
 4284SOL    HW224486   1.293   0.622   1.348  0.2249 -0.0216  0.4233
 4285SOL     OW24487   2.730   2.852   3.608 -0.2535  0.5228  0.0495
 4285SOL    HW124488   2.792   2.779   3.617 -1.9538 -0.7275  1.5433
 4285SOL    HW224489   2.784   2.917   3.563  0.7146  0.6057  1.3007
 4286SOL     OW24490   4.459   1.978  14.950 -0.3959 -0.2060  0.4022
 4286SOL    HW124491   4.549   1.992  14.921 -0.0905 -2.5263  0.2910
 4286SOL    HW224492   4.427   1.904  14.898 -1.3437 -0.1654  0.9312
 4287SOL     OW24493   1.448   4.030   1.947  0.5577  0.1472 -0.0418
 4287SOL    HW124494   1.522   3.971   1.962 -0.1447 -0.0494  2.6419
 4287SOL    HW224495   1.457   4.071   2.033 -1.1761 -0.0905  0.2545
 4288SOL     OW24496   1.806   2.516   7.500  0.0125 -0.0846  0.0167
 4288SOL    HW124497   1.826   2.445   7.439 -0.3856  1.7793 -2.2819
 4288SOL    HW224498   1.717   2.549   7.487  0.5491  1.5793  0.5144
 4289SOL     OW24499   4.157   0.577   2.217 -0.4916  0.3405 -0.0439
 4289SOL    HW124500   4.124   0.622   2.140 -0.4750 -0.4736 -0.5210
 4289SOL    HW224501   4.223   0.634   2.256  0.7816 -2.0702  1.3236
 4290SOL     OW24502   3.744   2.386  11.387 -0.4760 -0.2005 -0.2302
 4290SOL    HW124503   3.715   2.440  11.460 -0.0035  1.2708 -1.1241
 4290SOL    HW224504   3.657   2.352  11.365 -0.2031 -1.2479  0.2930
 4291SOL     OW24505   3.085   3.452   7.149 -0.0461 -0.0318 -0.4090
 4291SOL    HW124506   3.164   3.402   7.169 -0.8519 -1.2013 -0.2022
 4291SOL    HW224507   3.041   3.389   7.093  1.5673  0.2085 -1.9459
 4292SOL     OW24508   4.358   3.752   5.526  0.3634  0.3120  0.3806
 4292SOL    HW124509   4.304   3.674   5.523 -0.4289  0.9218 -1.0311
 4292SOL    HW224510   4.403   3.745   5.610  0.2435 -0.2862  0.3904
 4293SOL     OW24511   2.674   3.842   7.802  0.1677 -0.0218 -0.0850
 4293SOL    HW124512   2.725   3.864   7.880  1.2935  1.4675 -1.2551
 4293SOL    HW224513   2.671   3.746   7.808 -2.6393  0.0997  0.5049
 4294SOL     OW24514   3.244   1.377   0.356  1.4030  0.2145  0.4315
 4294SOL    HW124515   3.317   1.361   0.296  3.0576 -1.1702  2.7936
 4294SOL    HW224516   3.232   1.288   0.389  1.1380  0.3173  0.6136
 4295SOL     OW24517   2.557   0.954   6.492  0.0789  0.2798  0.2918
 4295SOL    HW124518   2.590   0.987   6.575  0.3588  0.6272  0.0409
 4295SOL    HW224519   2.500   1.026   6.467 -0.5877 -0.7625 -1.2126
 4296SOL     OW24520   3.959   4.220   7.983 -0.2044 -0.0329 -0.2059
 4296SOL    HW124521   4.042   4.225   8.031 -1.0940  0.7213  1.2728
 4296SOL    HW224522   3.969   4.147   7.922 -0.4968 -0.4698  0.2683
 4297SOL     OW24523   3.065   1.455   5.621  0.2243 -0.2770 -0.4340
 4297SOL    HW124524   3.096   1.368   5.597 -2.8298 -1.9824  1.9365
 4297SOL    HW224525   3.045   1.494   5.536 -0.2360 -0.7272 -0.5250
 4298SOL     OW24526   4.635   2.722   7.650 -0.1521 -0.1901 -0.2925
 4298SOL    HW124527   4.684   2.784   7.596 -0.5099  0.4818  0.1469
 4298SOL    HW224528   4.567   2.691   7.591  0.7181  2.7867 -2.8350
 4299SOL     OW24529   0.676   0.771   4.476  0.3606 -0.3511  0.5439
 4299SOL    HW124530   0.618   0.807   4.409  0.2808  0.2814  0.9520
 4299SOL    HW224531   0.611   0.733   4.536 -0.4008 -2.2688 -1.4713
 4300SOL     OW24532   1.765   3.867  16.150 -0.7473 -0.1727  0.5796
 4300SOL    HW124533   1.832   3.931  16.171 -0.8218  0.3056 -0.6861
 4300SOL    HW224534   1.822   3.806  16.103 -0.7999  0.2869 -0.0738
 4301SOL     OW24535   2.078   4.501   7.026  0.2340  0.3600 -0.0012
 4301SOL    HW124536   2.171   4.510   7.044  0.2442 -1.7424  1.1004
 4301SOL    HW224537   2.072   4.508   6.931 -1.6710 -1.2367 -0.0296
 4302SOL     OW24538   0.386   1.335   7.008 -0.3695  0.1415 -0.1369
 4302SOL    HW124539   0.433   1.381   6.938 -1.5366 -1.0245 -1.6999
 4302SOL    HW224540   0.360   1.406   7.065 -0.5055  1.2544 -1.5881
 4303SOL     OW24541   1.433   0.496   7.210  0.9907  0.8131 -0.3578
 4303SOL    HW124542   1.498   0.497   7.281 -1.9317  2.8484  2.2954
 4303SOL    HW224543   1.362   0.463   7.265  0.4249  1.8093 -0.4921
 4304SOL     OW24544   4.428   3.631   7.772 -0.1512 -0.4943 -0.0015
 4304SOL    HW124545   4.368   3.603   7.841  0.6753 -1.4985  0.3167
 4304SOL    HW224546   4.442   3.723   7.792 -1.1215 -0.3084 -0.2070
 4305SOL     OW24547   2.623   2.204   1.132 -0.0552  0.0488 -0.3287
 4305SOL    HW124548   2.573   2.209   1.051 -1.8920 -2.0806  0.6541
 4305SOL    HW224549   2.676   2.284   1.132 -1.1086  0.7457 -0.4334
 4306SOL     OW24550   2.656   4.207   4.068  0.2733 -0.3425  0.2572
 4306SOL    HW124551   2.637   4.301   4.066 -0.5603 -0.4642  3.0312
 4306SOL    HW224552   2.691   4.193   3.980  1.6694  0.2227  0.7106
 4307SOL     OW24553   3.034   3.675   8.995  0.0775 -0.4322 -0.2118
 4307SOL    HW124554   3.033   3.769   9.014  2.4427 -0.6892  1.1136
 4307SOL    HW224555   2.940   3.669   8.976 -0.4146 -0.2847  2.1346
 4308SOL     OW24556   0.223   3.955   4.144  0.1052 -0.5485 -0.0967
 4308SOL    HW124557   0.166   3.991   4.076 -0.0696  2.3059  1.5865
 4308SOL    HW224558   0.222   3.861   4.124  1.3560 -0.5943  0.0726
 4309SOL     OW24559   0.793   0.122   9.730 -0.2660 -0.3711  0.2606
 4309SOL    HW124560   0.884   0.149   9.744  0.0643 -1.3696 -0.0048
 4309SOL    HW224561   0.776   0.139   9.638  0.9691 -2.3159 -0.3215
 4310SOL     OW24562   0.222   2.912   4.676 -0.0611 -0.2460  0.3371
 4310SOL    HW124563   0.226   3.008   4.676  0.1188 -0.2478  3.3673
 4310SOL    HW224564   0.131   2.904   4.705  0.8062 -0.8480  2.9485
 4311SOL     OW24565   4.646   3.005   1.521 -0.0915  0.3690 -0.9427
 4311SOL    HW124566   4.591   3.027   1.596  0.4200 -0.6148 -0.2783
 4311SOL    HW224567   4.726   3.050   1.551  0.1534 -0.0636 -0.9501
 4312SOL     OW24568   3.459   2.410   6.060 -0.2046 -0.1553 -1.1021
 4312SOL    HW124569   3.460   2.325   6.103 -0.7092  1.0280  1.2332
 4312SOL    HW224570   3.515   2.392   5.984  0.5493  0.3151 -0.6602
 4313SOL     OW24571   3.819   1.327   1.094 -0.1993  0.2521 -0.4308
 4313SOL    HW124572   3.793   1.242   1.129 -0.0176 -0.2597 -1.5635
 4313SOL    HW224573   3.744   1.355   1.042 -1.5401 -0.0529  1.3132
 4314SOL     OW24574   2.315   1.187   5.322 -0.2408 -0.2023  0.8405
 4314SOL    HW124575   2.376   1.226   5.260  0.4422 -0.5740  1.2732
 4314SOL    HW224576   2.353   1.099   5.325 -2.5210 -1.3444 -3.4484
 4315SOL     OW24577   3.697   0.570   7.939  0.0656  0.0664 -0.7221
 4315SOL    HW124578   3.733   0.524   7.863 -1.0841  1.9318 -2.3977
 4315SOL    HW224579   3.782   0.599   7.973  0.4965 -0.0375 -1.7039
 4316SOL     OW24580   4.510   0.067   4.902  0.2230 -0.4860 -0.3354
 4316SOL    HW124581   4.450   0.078   4.975 -0.7886  2.2462 -1.5847
 4316SOL    HW224582   4.581   0.020   4.947 -1.0563 -2.1368 -0.0493
 4317SOL     OW24583   2.907   0.000  17.302  0.4379 -0.8693  0.0834
 4317SOL    HW124584   2.829   4.706  17.258 -2.0200  1.9236  2.3382
 4317SOL    HW224585   2.873   0.076  17.350  1.7188  0.2003 -0.6986
 4318SOL     OW24586   0.419   3.789  16.871 -0.1401 -0.9585 -0.1409
 4318SOL    HW124587   0.401   3.807  16.779  1.1464  0.4709 -0.1055
 4318SOL    HW224588   0.444   3.877  16.900  1.5210 -0.8768 -1.8172
 4319SOL     OW24589   2.074   4.595   8.964  0.2918  0.2209 -0.0751
 4319SOL    HW124590   2.095   4.510   9.004  0.6445  1.1641  1.7556
 4319SOL    HW224591   1.981   4.594   8.945 -0.3163 -0.9987  3.0797
 4320SOL     OW24592   2.994   4.413  17.223 -0.3010 -0.3087 -0.1985
 4320SOL    HW124593   2.948   4.487  17.182  1.9111  0.8094 -0.6336
 4320SOL    HW224594   3.057   4.462  17.275  0.3943 -2.0432  0.5810
 4321SOL     OW24595   2.262   2.334   0.701  0.1354  0.7138 -0.2150
 4321SOL    HW124596   2.188   2.275   0.715  0.6083 -0.2243 -1.6320
 4321SOL    HW224597   2.230   2.406   0.754 -1.4452 -0.8320  0.9271
 4322SOL     OW24598   2.429   4.406   6.889 -0.3447  0.0541 -0.0167
 4322SOL    HW124599   2.481   4.351   6.947 -0.8301  1.5109  1.7979
 4322SOL    HW224600   2.491   4.412   6.816 -1.0387  1.5313 -0.4921
 4323SOL     OW24601   3.583   4.142   3.710 -0.7589 -0.2830 -0.4406
 4323SOL    HW124602   3.515   4.075   3.711 -2.3422  1.3069 -1.6928
 4323SOL    HW224603   3.539   4.220   3.677  1.6597  1.5180  0.6081
 4324SOL     OW24604   1.623   2.919   2.714 -0.2576  0.3086  0.4464
 4324SOL    HW124605   1.657   3.008   2.710 -1.0239  0.6104  0.6820
 4324SOL    HW224606   1.530   2.936   2.704  0.1114 -0.4401 -4.4688
 4325SOL     OW24607   0.282   1.825   9.910  0.1797 -0.2204  0.3067
 4325SOL    HW124608   0.321   1.873   9.837  1.2823 -1.7204 -0.0909
 4325SOL    HW224609   0.191   1.856   9.908  0.3813  0.3756  0.3623
 4326SOL     OW24610   0.877   1.140  16.693  0.5667  0.3574 -0.2730
 4326SOL    HW124611   0.894   1.094  16.610  1.2416 -2.4674  1.4373
 4326SOL    HW224612   0.851   1.223  16.652  0.1986  0.8058  0.8720
 4327SOL     OW24613   2.563   3.617   7.699 -0.4969  0.1157  0.1601
 4327SOL    HW124614   2.518   3.687   7.652  1.8674 -1.9645 -5.2177
 4327SOL    HW224615   2.485   3.590   7.747 -1.1974  1.0422 -0.4533
 4328SOL     OW24616   0.081   0.926   6.670 -0.0045  0.1220 -0.0221
 4328SOL    HW124617   0.059   0.867   6.743 -2.4756  0.3433 -0.5791
 4328SOL    HW224618   0.068   1.012   6.709 -3.7691 -0.9293  1.0966
 4329SOL     OW24619   4.530   2.758   2.462  0.8694  0.1779 -0.1067
 4329SOL    HW124620   4.555   2.769   2.370  1.3120 -1.7775 -0.2278
 4329SOL    HW224621   4.479   2.839   2.461 -0.0086 -0.3796 -1.2497
 4330SOL     OW24622   4.191   4.082   1.988  0.4023 -0.0600  0.0127
 4330SOL    HW124623   4.169   4.154   2.048  2.0140 -0.3121  0.8933
 4330SOL    HW224624   4.104   4.050   1.963  0.5673  1.2654 -2.2442
 4331SOL     OW24625   0.184   2.790  15.688  0.1475 -0.0522  0.4830
 4331SOL    HW124626   0.098   2.770  15.650  0.6872  0.5267 -1.0467
 4331SOL    HW224627   0.189   2.717  15.751  2.1131  0.8729  1.3905
 4332SOL     OW24628   4.192   2.347   7.959  0.3473 -0.2351  0.1451
 4332SOL    HW124629   4.149   2.325   7.876  0.4637 -1.2331  0.3445
 4332SOL    HW224630   4.261   2.281   7.963 -2.0867 -2.7335  0.6237
 4333SOL     OW24631   1.074   0.433  10.119  0.2680 -0.7634  0.1006
 4333SOL    HW124632   1.066   0.504  10.182 -2.6817 -1.9903  1.1107
 4333SOL    HW224633   1.040   0.481  10.044 -0.8791  0.0332  1.1169
 4334SOL     OW24634   2.841   3.846   3.931 -0.2906  0.0835  0.8148
 4334SOL    HW124635   2.929   3.884   3.930  0.1572 -0.9805  0.4946
 4334SOL    HW224636   2.799   3.883   3.854  1.8002 -1.7512 -1.2086
 4335SOL     OW24637   2.283   2.525   4.051  0.3902  0.2388  0.2738
 4335SOL    HW124638   2.303   2.489   4.138 -1.6539 -0.8612  0.3067
 4335SOL    HW224639   2.220   2.458   4.023  1.7134 -1.1520  0.6448
 4336SOL     OW24640   2.728   0.338  17.162  0.1826  0.1620 -0.0985
 4336SOL    HW124641   2.641   0.374  17.145  0.9450  1.8185 -0.4222
 4336SOL    HW224642   2.721   0.296  17.248  2.1037  0.2302  0.0966
 4337SOL     OW24643   0.087   2.323  14.789  0.3998 -0.3439  0.0923
 4337SOL    HW124644   0.108   2.367  14.707 -2.6171  1.7236  0.4283
 4337SOL    HW224645   0.164   2.344  14.841  0.3452 -2.1754  0.9323
 4338SOL     OW24646   0.816   3.689   8.407 -0.4840  0.2841 -0.8221
 4338SOL    HW124647   0.855   3.740   8.337  1.2400 -1.3436 -1.0568
 4338SOL    HW224648   0.745   3.646   8.359 -0.6302 -2.3167  1.6831
 4339SOL     OW24649   2.688   3.281   5.378  0.3919 -0.5952 -0.5293
 4339SOL    HW124650   2.656   3.364   5.414 -0.5976 -1.7108  1.1519
 4339SOL    HW224651   2.630   3.221   5.425 -2.7536 -0.5722 -4.3544
 4340SOL     OW24652   3.949   0.046   7.695  0.2284  0.3062 -0.7093
 4340SOL    HW124653   3.912   0.117   7.641  0.2414 -0.8493 -2.2545
 4340SOL    HW224654   3.878   0.028   7.757  0.4692 -1.4912 -0.9578
 4341SOL     OW24655   0.373   4.637  13.125 -0.0881 -0.0535  0.2643
 4341SOL    HW124656   0.326   4.556  13.103 -1.6330  0.6426  0.9583
 4341SOL    HW224657   0.320   4.696  13.071 -0.8758 -1.0670 -0.0688
 4342SOL     OW24658   0.844   0.801  14.053  0.1528 -0.3125  0.3900
 4342SOL    HW124659   0.882   0.834  13.972 -1.4363 -2.3917 -1.1846
 4342SOL    HW224660   0.926   0.817  14.099  0.5037 -1.0964  0.0388
 4343SOL     OW24661   0.966   0.023   6.876 -0.0172  1.2408  0.3279
 4343SOL    HW124662   1.022   0.090   6.914  1.8348  0.4210 -0.9372
 4343SOL    HW224663   0.991   0.032   6.784  0.3240  1.2524  0.4225
 4344SOL     OW24664   0.161   1.601  12.943  0.5077  0.6022  0.3381
 4344SOL    HW124665   0.121   1.525  12.984 -2.2048  0.8862 -1.8669
 4344SOL    HW224666   0.081   1.644  12.913  0.2451 -0.4146 -0.3877
 4345SOL     OW24667   2.408   0.962   5.912  0.4538 -1.0808  0.0036
 4345SOL    HW124668   2.313   0.961   5.924  0.2922 -1.6817 -1.4092
 4345SOL    HW224669   2.424   0.990   5.822  0.1378 -0.4389  0.1453
 4346SOL     OW24670   3.500   3.910   1.280 -0.2276  0.6610 -0.3390
 4346SOL    HW124671   3.530   3.962   1.355  2.2960 -0.3076 -0.6738
 4346SOL    HW224672   3.583   3.874   1.250 -0.2376 -0.2053  0.6574
 4347SOL     OW24673   0.152   4.601  17.663  0.2873 -0.0950  0.7401
 4347SOL    HW124674   0.118   4.546  17.592  0.7800  3.2320 -2.0431
 4347SOL    HW224675   0.224   4.543  17.687  1.2317  0.1695 -1.4353
 4348SOL     OW24676   1.877   2.540  16.466 -0.5293 -0.3465 -0.1282
 4348SOL    HW124677   1.889   2.613  16.527 -4.2667  1.0204 -1.0494
 4348SOL    HW224678   1.937   2.473  16.498  1.0902  2.4513  2.7128
 4349SOL     OW24679   3.985   0.499  11.389  0.4386  0.0466 -0.2426
 4349SOL    HW124680   3.968   0.537  11.475 -1.2648 -1.2866  0.0292
 4349SOL    HW224681   4.029   0.416  11.410 -1.6584 -0.6950  1.2233
 4350SOL     OW24682   2.643   0.907   4.017 -0.1668 -0.5358  0.3420
 4350SOL    HW124683   2.732   0.942   4.009 -0.2515 -0.2083  0.8241
 4350SOL    HW224684   2.661   0.822   4.057  1.3411 -1.2058 -1.7874
 4351SOL     OW24685   4.015   4.534   5.060 -0.5875 -0.2032 -0.2904
 4351SOL    HW124686   4.059   4.509   5.141 -1.3634  1.1669  0.5428
 4351SOL    HW224687   4.085   4.532   4.994  0.2645  0.3037  0.6092
 4352SOL     OW24688   2.933   0.487   2.317  0.2746  0.1279 -0.1555
 4352SOL    HW124689   2.934   0.547   2.391 -0.3600 -0.4372  0.3149
 4352SOL    HW224690   2.938   0.401   2.359 -2.5659  0.2066  0.4018
 4353SOL     OW24691   2.609   3.837   6.271  0.0145 -0.8437 -0.0733
 4353SOL    HW124692   2.698   3.873   6.277  0.4362 -1.8086 -0.4047
 4353SOL    HW224693   2.568   3.916   6.238 -0.9169 -0.9914  0.7373
 4354SOL     OW24694   2.664   1.092   7.987  0.3950  1.0406 -0.8983
 4354SOL    HW124695   2.655   0.997   7.984  1.1118  0.9740 -0.9465
 4354SOL    HW224696   2.607   1.107   8.062  0.4967 -2.1471 -0.1692
 4355SOL     OW24697   0.840   2.204   5.930  0.6131  0.2713 -0.3670
 4355SOL    HW124698   0.887   2.142   5.875 -1.9405  0.0857 -2.3873
 4355SOL    HW224699   0.797   2.138   5.985  3.1543  0.3208  1.6527
 4356SOL     OW24700   4.090   1.207  11.420 -0.2618  0.4209  0.3092
 4356SOL    HW124701   4.017   1.209  11.483 -1.2353 -2.0666 -0.7268
 4356SOL    HW224702   4.080   1.119  11.383  4.2507  0.1095 -0.1414
 4357SOL     OW24703   0.661   2.220   3.925  0.1151 -0.5656 -0.4164
 4357SOL    HW124704   0.732   2.273   3.887 -1.1090  1.2447 -0.2005
 4357SOL    HW224705   0.663   2.240   4.018 -0.6275  1.6833 -0.8890
 4358SOL     OW24706   0.273   0.853   3.071 -0.4934 -0.0525 -0.2492
 4358SOL    HW124707   0.275   0.889   2.982  0.9139  1.5254  0.4305
 4358SOL    HW224708   0.179   0.843   3.084  0.1328 -2.3584  2.5031
 4359SOL     OW24709   3.251   0.781   0.049  0.3729 -0.0661 -0.1738
 4359SOL    HW124710   3.222   0.871   0.034 -1.8752 -0.3804  2.3864
 4359SOL    HW224711   3.326   0.782  17.742 -0.4641  0.2590 -1.2259
 4360SOL     OW24712   0.018   4.336   7.815  0.3840 -0.0102 -0.0895
 4360SOL    HW124713   4.715   4.361   7.733  1.1789 -1.1799 -0.8421
 4360SOL    HW224714   0.104   4.310   7.785  1.7884  4.3104  0.2090
 4361SOL     OW24715   0.805   4.191  10.121 -0.5128  0.7411 -0.1604
 4361SOL    HW124716   0.749   4.199  10.043 -1.0873 -0.1076  0.1716
 4361SOL    HW224717   0.741   4.147  10.176 -0.4779  1.5196  0.4992
 4362SOL     OW24718   2.097   3.795   7.536 -0.1304 -0.5113  0.1209
 4362SOL    HW124719   2.185   3.792   7.500 -0.2109  0.5842 -0.1947
 4362SOL    HW224720   2.043   3.815   7.459  1.3021  2.0162 -0.2306
 4363SOL     OW24721   0.333   3.167   6.086 -0.0268  0.7747 -0.4610
 4363SOL    HW124722   0.402   3.119   6.131 -1.0972  1.0829  1.4751
 4363SOL    HW224723   0.370   3.148   5.999 -1.0994 -1.3772 -0.4511
 4364SOL     OW24724   4.283   2.470  10.724 -0.0039  0.7093  0.2856
 4364SOL    HW124725   4.209   2.495  10.779  0.7926  3.0053  0.2721
 4364SOL    HW224726   4.343   2.440  10.792  1.5086  2.1398 -0.4276
 4365SOL     OW24727   2.655   1.876   2.148  0.3154  0.0275 -0.0937
 4365SOL    HW124728   2.633   1.968   2.160 -2.2752 -0.7697  1.2157
 4365SOL    HW224729   2.642   1.842   2.237  0.2890  0.8001  0.2051
 4366SOL     OW24730   0.318   4.188   8.293 -0.3283  0.1269  0.2071
 4366SOL    HW124731   0.406   4.226   8.293 -0.6411  0.8407 -1.5557
 4366SOL    HW224732   0.288   4.211   8.205  1.2222 -1.2108 -0.6698
 4367SOL     OW24733   0.454   4.449  10.824 -0.3296 -0.1155  0.1883
 4367SOL    HW124734   0.490   4.409  10.903  0.7632  0.6505  0.0881
 4367SOL    HW224735   0.535   4.460  10.773  0.4359 -2.0550  0.9912
 4368SOL     OW24736   4.425   0.208   4.417 -0.8401  0.2049  0.5310
 4368SOL    HW124737   4.377   0.170   4.490 -0.4640 -2.0323 -0.3697
 4368SOL    HW224738   4.409   0.301   4.434 -1.0249  0.6453 -1.9229
 4369SOL     OW24739   1.203   0.658   5.535  0.1721 -0.5848  0.5120
 4369SOL    HW124740   1.266   0.638   5.466 -1.1407  0.3764 -0.9703
 4369SOL    HW224741   1.126   0.620   5.492 -1.6259  1.7861  1.6578
 4370SOL     OW24742   1.415   4.472   3.435  0.0161  0.2553 -0.8120
 4370SOL    HW124743   1.497   4.431   3.408 -0.8805 -1.2915 -1.1830
 4370SOL    HW224744   1.437   4.527   3.511 -1.5311 -1.0167  0.5719
 4371SOL     OW24745   2.475   1.423   7.367 -0.0334 -0.2214  0.5965
 4371SOL    HW124746   2.385   1.412   7.336  1.3071 -1.9714 -2.7112
 4371SOL    HW224747   2.536   1.393   7.300 -0.0527  1.0365  0.0082
 4372SOL     OW24748   4.043   0.791   5.421  0.0457 -0.3032 -0.2023
 4372SOL    HW124749   3.979   0.724   5.442 -1.0551  0.3517 -1.4791
 4372SOL    HW224750   3.993   0.873   5.429  0.1685 -0.3874  1.3307
 4373SOL     OW24751   1.360   4.590   4.916 -0.1345 -0.1987  0.2290
 4373SOL    HW124752   1.324   4.642   4.844  1.8355 -0.4737 -0.9349
 4373SOL    HW224753   1.453   4.610   4.905 -0.3026  0.0612 -0.7374
 4374SOL     OW24754   1.352   1.859   2.222  0.0811 -0.6711  0.0536
 4374SOL    HW124755   1.366   1.922   2.152  0.0931 -2.8057 -1.8699
 4374SOL    HW224756   1.307   1.915   2.285 -0.8745 -2.3390  0.8633
 4375SOL     OW24757   2.314   0.368   4.019 -0.2330 -0.1611  0.0539
 4375SOL    HW124758   2.245   0.335   3.962  1.9010 -2.6079 -1.0927
 4375SOL    HW224759   2.385   0.345   3.960  1.1451 -0.8809  2.0046
 4376SOL     OW24760   0.249   3.986  10.230  0.5459 -0.1685 -0.1320
 4376SOL    HW124761   0.293   4.012  10.311 -1.4644  1.3583  0.4503
 4376SOL    HW224762   0.319   3.943  10.179 -0.6227  0.2927 -2.1274
 4377SOL     OW24763   1.875   4.216   4.589 -0.2555  0.0200  0.1198
 4377SOL    HW124764   1.956   4.178   4.555 -1.1581  0.2822 -2.3407
 4377SOL    HW224765   1.907   4.303   4.612  1.7882 -0.7092  0.0607
 4378SOL     OW24766   1.816   1.289  10.735  0.3771 -0.0497  0.1190
 4378SOL    HW124767   1.760   1.212  10.724  0.2869  0.1187 -0.5738
 4378SOL    HW224768   1.782   1.336  10.811  0.6900 -0.7469  0.7003
 4379SOL     OW24769   4.069   0.068   1.849  0.5679 -0.3299 -0.2030
 4379SOL    HW124770   4.123   0.144   1.869 -1.5585  0.6678  1.7662
 4379SOL    HW224771   4.031   0.038   1.932 -1.2880 -1.6643 -1.5526
 4380SOL     OW24772   2.993   0.958   4.978  0.6032  0.0637  0.1592
 4380SOL    HW124773   3.021   1.045   4.950 -1.4728  0.6482 -0.0673
 4380SOL    HW224774   3.079   0.940   5.016 -0.0744 -0.3296  1.5139
 4381SOL     OW24775   4.376   0.237   2.403 -0.6605  0.1272 -0.7368
 4381SOL    HW124776   4.301   0.253   2.345 -1.3769  0.4677  0.2861
 4381SOL    HW224777   4.430   0.310   2.373 -1.6634  1.3501  0.4399
 4382SOL     OW24778   1.316   3.296  11.203 -0.3667  0.0486  0.4038
 4382SOL    HW124779   1.312   3.211  11.159  1.2165  1.1479 -1.8572
 4382SOL    HW224780   1.358   3.338  11.128  1.8945  1.6840  2.6135
 4383SOL     OW24781   3.476   0.002   4.511 -0.0898  0.1929  0.3985
 4383SOL    HW124782   3.524   4.680   4.567  0.5804  0.4375  0.0956
 4383SOL    HW224783   3.540   0.017   4.442  0.7832  1.2879  1.4555
 4384SOL     OW24784   0.098   2.211  14.464 -0.1161  0.0512  0.2003
 4384SOL    HW124785   0.169   2.205  14.400  0.6167 -1.5541  1.1591
 4384SOL    HW224786   0.132   2.142  14.521 -0.3954  0.3358  0.7176
 4385SOL     OW24787   2.696   3.336   2.935  0.4222 -0.2261 -0.2545
 4385SOL    HW124788   2.714   3.266   2.998  0.3968 -0.1963 -0.2147
 4385SOL    HW224789   2.730   3.297   2.854 -1.8997  1.0053 -1.8195
 4386SOL     OW24790   0.015   2.905   6.040 -0.2315  0.1103 -0.3555
 4386SOL    HW124791   4.687   2.974   6.038 -0.2995  0.0537 -0.0851
 4386SOL    HW224792   4.706   2.832   6.081 -0.1697 -0.5829 -1.5364
 4387SOL     OW24793   2.291   2.314   7.662 -0.0212 -0.3189 -0.4266
 4387SOL    HW124794   2.299   2.333   7.755  1.6317  0.5697 -0.7398
 4387SOL    HW224795   2.250   2.390   7.620 -1.9733 -0.6845  0.8147
 4388SOL     OW24796   0.998   4.266   4.276  0.3306  0.2872 -0.3079
 4388SOL    HW124797   1.038   4.191   4.321 -1.2218 -1.2022 -1.4208
 4388SOL    HW224798   0.911   4.229   4.283  0.4528 -0.4360 -2.3588
 4389SOL     OW24799   1.196   3.141   6.287  0.0942  0.0865 -0.3114
 4389SOL    HW124800   1.143   3.221   6.275 -0.1945 -0.2538 -1.3296
 4389SOL    HW224801   1.178   3.122   6.379 -2.1770 -0.3900 -0.8405
 4390SOL     OW24802   3.043   3.154  11.545 -0.2808  0.5124 -0.6383
 4390SOL    HW124803   2.978   3.130  11.611 -1.0511  3.2967 -0.3931
 4390SOL    HW224804   3.030   3.093  11.472 -1.2782 -0.8073  0.6461
 4391SOL     OW24805   3.904   3.861   8.393 -0.3434  0.1295 -0.3885
 4391SOL    HW124806   3.882   3.769   8.408  0.7090 -0.1362 -0.4807
 4391SOL    HW224807   3.941   3.881   8.478  2.1516  0.7457 -1.6149
 4392SOL     OW24808   0.404   3.251   7.847  0.1864 -0.4205 -0.1804
 4392SOL    HW124809   0.355   3.175   7.878 -0.8689  0.8272  1.2406
 4392SOL    HW224810   0.493   3.216   7.847  1.8620  3.8162  1.2183
 4393SOL     OW24811   1.316   0.634   4.733  0.4822  0.2893  0.8066
 4393SOL    HW124812   1.279   0.629   4.821 -0.6202  0.4641  0.3600
 4393SOL    HW224813   1.264   0.709   4.704 -0.7044 -0.5584  0.7168
 4394SOL     OW24814   2.859   3.516   3.069 -0.0518  0.0905 -0.4860
 4394SOL    HW124815   2.809   3.447   3.026  1.6753 -0.9499 -0.8096
 4394SOL    HW224816   2.889   3.562   2.991 -0.5733  1.4678  0.1240
 4395SOL     OW24817   3.239   0.781  15.819  0.4014  0.3184  0.9548
 4395SOL    HW124818   3.284   0.854  15.862  1.2716  1.2211 -1.4992
 4395SOL    HW224819   3.249   0.709  15.881  0.2465  1.2892  2.1185
 4396SOL     OW24820   0.166   4.608  12.444  0.0579 -0.1424 -0.4843
 4396SOL    HW124821   0.097   4.634  12.505 -0.0967 -2.1012  0.1832
 4396SOL    HW224822   0.114   4.592  12.365 -0.3630  0.6152 -0.3623
 4397SOL     OW24823   1.723   2.295   8.000  0.3364  0.3766  0.2516
 4397SOL    HW124824   1.671   2.368   7.968  0.1605 -0.3793 -1.1522
 4397SOL    HW224825   1.660   2.260   8.063 -0.8697  0.5379 -0.8738
 4398SOL     OW24826   4.349   3.453   8.488 -0.6799  0.4209  0.0157
 4398SOL    HW124827   4.348   3.485   8.578  0.8039 -0.2495  0.2570
 4398SOL    HW224828   4.385   3.366   8.502 -0.1125  0.5672 -0.5281
 4399SOL     OW24829   4.394   4.667   4.037  0.0660  0.0625 -0.2560
 4399SOL    HW124830   4.440   4.594   4.079 -2.5777 -1.0641  0.6572
 4399SOL    HW224831   4.454   4.656   3.963  1.7939  0.4302  1.0774
 4400SOL     OW24832   1.762   3.349  16.550 -0.0198  0.0114  0.6180
 4400SOL    HW124833   1.685   3.314  16.593 -0.9093 -1.5954 -2.2540
 4400SOL    HW224834   1.744   3.348  16.456 -1.1377  2.9778  0.8286
 4401SOL     OW24835   3.304   4.300   1.840 -0.3050  0.5378 -0.0005
 4401SOL    HW124836   3.279   4.264   1.925  0.4981  0.2361  0.1050
 4401SOL    HW224837   3.282   4.221   1.792  0.2909  0.7805 -0.6749
 4402SOL     OW24838   3.062   2.574   5.268 -0.0829  0.0431 -0.4333
 4402SOL    HW124839   2.985   2.525   5.241 -1.1737  0.4929  1.9016
 4402SOL    HW224840   3.017   2.646   5.311 -0.5639  0.5230 -1.7319
 4403SOL     OW24841   1.388   0.213   0.992  0.0249 -0.4356  0.0282
 4403SOL    HW124842   1.463   0.211   0.932  0.0310 -2.7478  0.1306
 4403SOL    HW224843   1.341   0.132   0.975 -0.9977 -0.0434  1.0295
 4404SOL     OW24844   1.436   4.398  12.966  0.4278 -0.3097 -0.5279
 4404SOL    HW124845   1.460   4.474  12.911 -0.3429  1.1936  1.2183
 4404SOL    HW224846   1.422   4.324  12.907  2.2506 -1.1836  0.1705
 4405SOL     OW24847   3.719   3.153   3.875 -0.4449  0.3410  0.3861
 4405SOL    HW124848   3.653   3.208   3.832 -0.5644 -0.5659 -0.5938
 4405SOL    HW224849   3.791   3.216   3.884  0.2103 -0.2413 -0.8970
 4406SOL     OW24850   2.493   4.559   8.944  0.1085 -0.2182  0.2335
 4406SOL    HW124851   2.490   4.512   9.027 -4.3126 -1.2013 -0.4481
 4406SOL    HW224852   2.553   4.510   8.888  1.4995  1.7334  0.0501
 4407SOL     OW24853   2.969   4.163  11.755  0.2801  0.6840  0.2970
 4407SOL    HW124854   2.937   4.223  11.689  0.4126 -1.9556 -2.1852
 4407SOL    HW224855   2.905   4.188  11.821 -0.4943  1.8631 -0.9090
 4408SOL     OW24856   1.635   0.807   3.903  0.4200 -0.2146 -0.0658
 4408SOL    HW124857   1.629   0.752   3.981  0.7571  2.4352  1.8519
 4408SOL    HW224858   1.570   0.873   3.928  1.5257 -0.0577  2.3967
 4409SOL     OW24859   2.496   1.140  11.353  0.6273  0.1742 -0.2740
 4409SOL    HW124860   2.505   1.191  11.433  0.5024 -1.0000  0.4783
 4409SOL    HW224861   2.532   1.205  11.292  0.5698  1.2935  0.9062
 4410SOL     OW24862   3.896   1.694   0.524  0.4764 -0.4715  0.1823
 4410SOL    HW124863   3.872   1.770   0.471 -0.9706 -0.6551  0.5733
 4410SOL    HW224864   3.947   1.738   0.592  0.5844  0.8683 -0.7484
 4411SOL     OW24865   2.393   0.939   3.958 -0.3203 -0.4088  0.1630
 4411SOL    HW124866   2.483   0.907   3.968 -0.5389 -0.3865  2.2537
 4411SOL    HW224867   2.408   1.012   3.898  0.6471 -1.2310 -0.5848
 4412SOL     OW24868   0.745   4.234  12.889  0.0472 -0.0037  0.0936
 4412SOL    HW124869   0.723   4.164  12.827  2.4385 -2.0422  1.5475
 4412SOL    HW224870   0.827   4.260  12.847  0.0815  0.3949  0.4125
 4413SOL     OW24871   3.458   2.673  15.925 -0.3815  0.3213 -0.5226
 4413SOL    HW124872   3.448   2.759  15.885  1.2241  0.4446 -0.6362
 4413SOL    HW224873   3.516   2.629  15.864  0.7288  3.6817 -1.8735
 4414SOL     OW24874   1.258   1.781   2.946  0.3680 -0.0942  0.4582
 4414SOL    HW124875   1.202   1.705   2.932  1.2654 -0.9373  1.5148
 4414SOL    HW224876   1.219   1.837   3.013  0.2574 -0.2576  0.5277
 4415SOL     OW24877   3.748   3.196   6.987 -0.2029  0.0591  0.1724
 4415SOL    HW124878   3.753   3.124   6.923  0.4838  1.5175 -1.4298
 4415SOL    HW224879   3.667   3.239   6.960  0.1326  1.6695  1.7347
 4416SOL     OW24880   2.932   0.836   0.980  0.3728 -0.1985  0.3669
 4416SOL    HW124881   2.917   0.763   1.040  0.0309  0.6606  1.3239
 4416SOL    HW224882   2.842   0.868   0.975 -0.1515 -1.4879  1.6047
 4417SOL     OW24883   3.210   3.615   8.529 -0.0161 -0.5763  0.2416
 4417SOL    HW124884   3.283   3.563   8.495  0.5346 -0.7323  1.6801
 4417SOL    HW224885   3.190   3.551   8.597 -0.8447 -0.3300  0.2213
 4418SOL     OW24886   0.631   3.236  17.107  0.3771  0.1270 -0.2057
 4418SOL    HW124887   0.716   3.239  17.151  0.0317 -1.2962  0.5693
 4418SOL    HW224888   0.576   3.225  17.184  0.6580  0.3352  0.0248
 4419SOL     OW24889   3.219   1.707   8.684  0.3603  0.2169  0.0816
 4419SOL    HW124890   3.140   1.734   8.731  0.4731  2.0581 -0.8265
 4419SOL    HW224891   3.237   1.623   8.728 -0.3785  0.3140  0.5697
 4420SOL     OW24892   3.552   2.835  13.592 -0.3856  0.2068 -0.0671
 4420SOL    HW124893   3.586   2.917  13.629  0.5203  0.6001 -1.7993
 4420SOL    HW224894   3.554   2.773  13.666  1.5991 -0.7755 -0.9344
 4421SOL     OW24895   4.637   4.614   9.386  0.6341  0.3620  0.2127
 4421SOL    HW124896   4.723   4.608   9.428  0.0685 -0.8095  1.2276
 4421SOL    HW224897   4.655   4.672   9.312 -0.6467  0.5993  0.0878
 4422SOL     OW24898   0.527   1.734   2.954  0.3179  0.3062  0.2986
 4422SOL    HW124899   0.522   1.712   3.047  0.8603 -2.3506 -0.2914
 4422SOL    HW224900   0.617   1.763   2.941  0.9276 -1.1949  1.1047
 4423SOL     OW24901   3.378   0.640   8.532  0.2913 -0.0189 -0.5362
 4423SOL    HW124902   3.394   0.702   8.461 -0.0627  0.0063 -0.5909
 4423SOL    HW224903   3.310   0.584   8.495 -0.3971  1.5447 -1.6500
 4424SOL     OW24904   0.299   1.089  10.797  0.4524  0.7186  0.1539
 4424SOL    HW124905   0.283   1.101  10.703 -1.2034 -0.4284  0.2856
 4424SOL    HW224906   0.299   0.994  10.804 -1.8577  0.7370  0.4284
 4425SOL     OW24907   1.998   4.311  14.754  0.5334  0.5469 -0.2030
 4425SOL    HW124908   2.075   4.255  14.751 -0.1809 -0.6543  3.2886
 4425SOL    HW224909   1.930   4.262  14.800  0.5389  0.9851  0.2715
 4426SOL     OW24910   1.764   2.650   7.967 -0.2008  0.1810 -0.2890
 4426SOL    HW124911   1.680   2.676   7.928 -0.1702 -0.7221 -0.9694
 4426SOL    HW224912   1.807   2.734   7.979 -0.2810  0.2859 -0.7334
 4427SOL     OW24913   2.890   3.652  16.674 -0.6480 -0.2990 -0.0710
 4427SOL    HW124914   2.946   3.580  16.704 -0.3396  0.1293  0.3875
 4427SOL    HW224915   2.935   3.733  16.698 -1.8140 -0.2822  2.0339
 4428SOL     OW24916   0.651   3.461   7.922 -0.2294  0.2176  0.6204
 4428SOL    HW124917   0.612   3.506   7.847 -0.6164  0.4646  0.9737
 4428SOL    HW224918   0.571   3.460   7.975  0.4244  2.3347  1.6378
 4429SOL     OW24919   1.504   3.201   3.782 -0.6188 -0.5436 -0.5075
 4429SOL    HW124920   1.589   3.180   3.820 -0.3367  1.4139 -0.0874
 4429SOL    HW224921   1.456   3.119   3.796  1.0799 -1.6457 -1.2106
 4430SOL     OW24922   0.209   2.527   9.378 -0.1565 -0.2037 -0.2649
 4430SOL    HW124923   0.176   2.504   9.291  0.9690  0.6503 -0.9114
 4430SOL    HW224924   0.161   2.466   9.434 -0.1402  2.1833  2.3162
 4431SOL     OW24925   4.157   2.217  17.350  0.4625  0.7975  0.2907
 4431SOL    HW124926   4.180   2.132  17.388 -0.2764  0.7633  0.6621
 4431SOL    HW224927   4.237   2.266  17.363 -0.4027  1.9057  1.4016
 4432SOL     OW24928   1.082   2.916   2.571  0.4221  0.2532  0.3045
 4432SOL    HW124929   1.053   2.937   2.482 -0.5227 -0.0949  0.5385
 4432SOL    HW224930   1.004   2.904   2.624  0.9540 -1.5942  0.6756
 4433SOL     OW24931   3.975   1.515   6.582 -0.8155  0.6237 -0.0596
 4433SOL    HW124932   3.921   1.476   6.651  0.4057  1.8274  1.5635
 4433SOL    HW224933   3.909   1.543   6.519  1.2456  0.0756 -2.4756
 4434SOL     OW24934   1.269   0.070   9.754  0.0877  0.4034  0.1751
 4434SOL    HW124935   1.203   0.004   9.774 -0.9823  0.6471 -2.4523
 4434SOL    HW224936   1.278   0.054   9.660 -0.9940 -1.9269  0.4690
 4435SOL     OW24937   0.636   1.943   8.077 -0.0323 -0.6954 -0.2749
 4435SOL    HW124938   0.581   1.889   8.021 -0.5189  0.8607 -1.2982
 4435SOL    HW224939   0.672   1.880   8.140 -1.8276 -0.3090  1.1517
 4436SOL     OW24940   1.515   2.761   2.321 -0.2210 -0.1815 -0.4334
 4436SOL    HW124941   1.546   2.692   2.381  1.5775 -0.1469 -1.3268
 4436SOL    HW224942   1.577   2.830   2.344 -1.3717  0.7956 -0.2578
 4437SOL     OW24943   3.011   1.791   4.497  0.0601 -0.0469  0.2373
 4437SOL    HW124944   3.061   1.865   4.462  3.0825 -3.1403 -1.8863
 4437SOL    HW224945   2.924   1.831   4.489  0.6730  1.2443  0.0298
 4438SOL     OW24946   4.258   0.991   9.568  0.2369 -0.2352  0.3667
 4438SOL    HW124947   4.217   0.908   9.544 -2.0327  1.1998 -0.6911
 4438SOL    HW224948   4.180   1.047   9.571 -1.4796 -2.6912  1.1178
 4439SOL     OW24949   0.669   1.755   1.947 -0.7655 -0.0067 -0.3387
 4439SOL    HW124950   0.721   1.691   1.995 -1.5698 -1.4797 -1.4354
 4439SOL    HW224951   0.604   1.761   2.017 -0.5674  0.2381 -0.1756
 4440SOL     OW24952   2.090   2.737  17.334 -0.2461 -0.2886  0.8931
 4440SOL    HW124953   2.037   2.808  17.298  2.2598  1.2656  0.3365
 4440SOL    HW224954   2.030   2.663  17.323  1.6291 -2.0139  2.2596
 4441SOL     OW24955   3.557   2.727  13.085 -0.2123  0.1436 -0.3252
 4441SOL    HW124956   3.549   2.795  13.152  0.7721  0.2086 -0.2669
 4441SOL    HW224957   3.615   2.776  13.027 -0.5967  0.0792 -0.7587
 4442SOL     OW24958   2.260   4.212   6.626  0.4009 -0.0287 -0.6182
 4442SOL    HW124959   2.325   4.146   6.651  2.4288  2.2989  0.2048
 4442SOL    HW224960   2.256   4.199   6.532 -3.1512 -3.3645 -0.0142
 4443SOL     OW24961   2.637   3.170   3.828  0.1929  0.1450  0.3312
 4443SOL    HW124962   2.572   3.173   3.898  2.2254 -0.3961  2.2661
 4443SOL    HW224963   2.689   3.092   3.843  0.2116 -0.0679 -0.8238
 4444SOL     OW24964   0.363   0.634   3.231  0.2520 -0.1552 -0.4048
 4444SOL    HW124965   0.323   0.699   3.173 -1.1461 -0.8086 -0.1469
 4444SOL    HW224966   0.302   0.632   3.304  1.7572  0.2462  0.8676
 4445SOL     OW24967   0.057   2.362   9.528  0.3781 -0.0393  0.4933
 4445SOL    HW124968   4.715   2.312   9.531  0.6326 -0.5233 -0.8597
 4445SOL    HW224969   0.096   2.319   9.604 -0.8466 -0.1747  1.0362
 4446SOL     OW24970   0.558   4.328   8.981  0.1945  0.2061  0.6658
 4446SOL    HW124971   0.573   4.365   9.068 -0.4280  1.0359  0.4211
 4446SOL    HW224972   0.558   4.235   9.004  0.1799 -0.3311 -1.5245
 4447SOL     OW24973   3.599   4.222   2.623 -0.0951 -0.1398  0.2935
 4447SOL    HW124974   3.681   4.255   2.587  0.6128 -2.2909 -0.1024
 4447SOL    HW224975   3.528   4.218   2.559  0.0648  0.4430  0.0804
 4448SOL     OW24976   0.448   2.458   4.735 -0.1663 -0.3433 -0.4100
 4448SOL    HW124977   0.530   2.433   4.777  0.6670  1.5053 -0.9384
 4448SOL    HW224978   0.444   2.549   4.764 -1.5110 -0.5197 -0.0679
 4449SOL     OW24979   1.514   4.020   5.096 -0.1115  0.2932 -0.2173
 4449SOL    HW124980   1.440   4.031   5.156  0.5816  1.8156  0.3885
 4449SOL    HW224981   1.497   4.089   5.032  1.5529 -0.5503 -1.5602
 4450SOL     OW24982   3.731   4.693   3.336 -0.6328 -0.3406 -0.7504
 4450SOL    HW124983   3.719   0.046   3.360  0.1010 -0.6434  0.8076
 4450SOL    HW224984   3.778   4.652   3.409 -0.8186 -0.6727 -0.8153
 4451SOL     OW24985   4.135   1.207   7.685 -0.0634 -0.2643  0.1607
 4451SOL    HW124986   4.091   1.277   7.637 -0.1077 -0.6832 -0.4069
 4451SOL    HW224987   4.121   1.232   7.777 -1.7543  0.6241 -0.3397
 4452SOL     OW24988   1.339   2.216  17.049  0.0807  0.1714  0.4003
 4452SOL    HW124989   1.298   2.145  17.099  0.7212 -0.7409 -0.3770
 4452SOL    HW224990   1.270   2.281  17.065 -1.3585 -0.7791 -1.9243
 4453SOL     OW24991   3.699   4.488  11.114 -0.0577 -0.1769  0.2081
 4453SOL    HW124992   3.618   4.437  11.119 -0.4100  0.4137  0.5156
 4453SOL    HW224993   3.663   4.577  11.109  2.2254  0.7889  0.6335
 4454SOL     OW24994   1.827   3.744   5.393 -0.1375  0.0993 -0.5410
 4454SOL    HW124995   1.805   3.820   5.339 -3.2836  1.3453  2.5408
 4454SOL    HW224996   1.800   3.774   5.479 -0.3187  1.2372 -1.0022
 4455SOL     OW24997   3.224   0.177   8.891 -0.5806 -0.6340 -0.2442
 4455SOL    HW124998   3.219   0.272   8.890 -2.7488 -0.7316  1.1086
 4455SOL    HW224999   3.153   0.162   8.828 -0.6130  0.2636 -0.4162
 4456SOL     OW25000   1.674   4.477   3.328  0.7107  0.1200  0.0328
 4456SOL    HW125001   1.738   4.525   3.276  0.1664  0.9478  0.1213
 4456SOL    HW225002   1.730   4.425   3.386 -0.1401  1.6856  2.2576
 4457SOL     OW25003   4.548   3.517   8.898 -0.0247 -0.0842 -0.0570
 4457SOL    HW125004   4.598   3.456   8.952 -1.3169 -1.1862 -0.1109
 4457SOL    HW225005   4.539   3.595   8.953 -2.8278  0.0873 -0.7453
 4458SOL     OW25006   1.660   3.833  11.820  0.2475 -0.6664 -0.2852
 4458SOL    HW125007   1.732   3.883  11.859 -0.6411 -0.5253  1.1856
 4458SOL    HW225008   1.668   3.756  11.876 -1.2447  0.0547  0.9195
 4459SOL     OW25009   3.374   4.085   7.679  0.0095  0.0541  0.4304
 4459SOL    HW125010   3.304   4.039   7.725  0.0072  2.6400  3.0028
 4459SOL    HW225011   3.450   4.058   7.730  0.4550  0.6778  0.0896
 4460SOL     OW25012   3.375   1.119   5.171  0.1010 -0.5651  0.2603
 4460SOL    HW125013   3.439   1.139   5.102 -0.1201 -1.4018 -0.1982
 4460SOL    HW225014   3.437   1.106   5.243 -0.3001  1.2760  0.9412
 4461SOL     OW25015   2.987   0.273  14.162 -0.0269 -0.1411 -0.3181
 4461SOL    HW125016   3.076   0.281  14.129  0.2124 -0.0328  0.3507
 4461SOL    HW225017   2.986   0.206  14.230  1.5878  0.9147  0.7447
 4462SOL     OW25018   2.115   4.277   7.754  0.2240 -0.5966  0.3051
 4462SOL    HW125019   2.049   4.211   7.736  0.1879 -0.3551 -0.4818
 4462SOL    HW225020   2.102   4.339   7.682  2.1246  3.1936  3.2019
 4463SOL     OW25021   3.545   0.166  11.620  0.0981  0.2155  0.4846
 4463SOL    HW125022   3.552   0.185  11.714  1.0029  0.8820  0.2773
 4463SOL    HW225023   3.516   0.075  11.623  0.8725  0.0357  2.9309
 4464SOL     OW25024   0.607   0.785   9.122 -0.0312  0.5587  0.1479
 4464SOL    HW125025   0.532   0.845   9.127 -0.8915 -0.5107  0.2032
 4464SOL    HW225026   0.673   0.840   9.163  2.2049  0.2523 -3.0836
 4465SOL     OW25027   3.735   2.117   9.298 -0.4961  0.2925  0.1459
 4465SOL    HW125028   3.722   2.090   9.389 -1.0724  1.2102  0.3398
 4465SOL    HW225029   3.786   2.198   9.299 -1.0007  0.5660  2.5482
 4466SOL     OW25030   1.573   4.053   6.262 -0.1999 -0.4158  0.0168
 4466SOL    HW125031   1.592   4.040   6.169 -0.3682  1.0596 -0.2352
 4466SOL    HW225032   1.661   4.058   6.299 -1.0118  1.7516  1.6765
 4467SOL     OW25033   0.468   1.895   9.103 -0.3120 -0.1658  0.1147
 4467SOL    HW125034   0.454   1.827   9.036 -0.8435 -1.6322  1.7086
 4467SOL    HW225035   0.400   1.956   9.075 -1.4160 -1.2621  0.3742
 4468SOL     OW25036   2.350   0.433   7.621 -0.3407 -0.0925 -0.6268
 4468SOL    HW125037   2.419   0.401   7.563 -0.4143 -0.8514 -0.2826
 4468SOL    HW225038   2.390   0.467   7.702  0.9846 -0.7253 -1.0246
 4469SOL     OW25039   4.323   2.477   8.905  0.0176  0.0021  0.0181
 4469SOL    HW125040   4.248   2.424   8.878  0.0138 -0.4622  0.9432
 4469SOL    HW225041   4.279   2.504   8.986 -0.4385  0.9508 -0.5431
 4470SOL     OW25042   3.507   1.762  16.472  0.5547 -0.1843 -0.3061
 4470SOL    HW125043   3.462   1.681  16.446  1.0533 -0.9412  1.1915
 4470SOL    HW225044   3.490   1.822  16.399 -0.2928  0.4532  0.4199
 4471SOL     OW25045   0.297   3.825   5.960 -0.2887 -0.1307 -0.0857
 4471SOL    HW125046   0.252   3.773   6.027  1.0129  1.6671  2.1951
 4471SOL    HW225047   0.382   3.781   5.961 -0.1592  0.1201  0.0449
 4472SOL     OW25048   1.147   2.648   4.872 -0.7923 -0.3211  0.1850
 4472SOL    HW125049   1.234   2.621   4.844 -0.6832 -1.8675  1.9995
 4472SOL    HW225050   1.126   2.733   4.832  0.4705  0.5328  1.3029
 4473SOL     OW25051   3.930   1.330   0.110 -0.8065 -0.5475  0.5055
 4473SOL    HW125052   4.018   1.367   0.114 -0.7419 -0.6202 -0.2196
 4473SOL    HW225053   3.870   1.401   0.136  2.1117  2.5649 -1.1984
 4474SOL     OW25054   4.616   4.006   4.464  0.0947 -0.0190 -0.5728
 4474SOL    HW125055   4.564   3.943   4.414 -3.1815  1.2494  1.2446
 4474SOL    HW225056   4.689   4.022   4.404 -0.1841  0.9568 -0.6556
 4475SOL     OW25057   2.155   0.297  15.580 -0.3978  0.0830  0.0613
 4475SOL    HW125058   2.099   0.363  15.621  1.7449  1.8988  0.0473
 4475SOL    HW225059   2.102   0.218  15.564 -0.8929  0.0980  1.6564
 4476SOL     OW25060   0.758   0.125   9.203  0.4051 -0.4140 -0.5928
 4476SOL    HW125061   0.798   0.100   9.120  2.6432 -0.6154  0.5561
 4476SOL    HW225062   0.831   0.167   9.248  1.3634 -2.6516 -0.0796
 4477SOL     OW25063   1.521   1.140   2.300  0.2552 -0.5154 -0.1781
 4477SOL    HW125064   1.594   1.114   2.244  1.0321 -1.7399  1.4089
 4477SOL    HW225065   1.482   1.211   2.249 -0.3549  0.3728  1.5036
 4478SOL     OW25066   0.129   2.150   8.679  0.4308 -0.1415  0.1132
 4478SOL    HW125067   0.174   2.114   8.603  0.1689 -0.8364  0.2888
 4478SOL    HW225068   0.085   2.229   8.647  1.1265 -0.5936 -1.9469
 4479SOL     OW25069   1.670   2.817   0.729  0.3641 -0.4607  0.0770
 4479SOL    HW125070   1.705   2.780   0.810  0.4893 -0.1357  0.1714
 4479SOL    HW225071   1.693   2.761   0.654  0.5166 -0.7406  0.3356
 4480SOL     OW25072   0.475   3.824   5.671 -0.0288  0.4119  0.1490
 4480SOL    HW125073   0.458   3.754   5.609  1.0898  0.3232 -0.0573
 4480SOL    HW225074   0.489   3.768   5.748  1.3326  1.9942  1.0667
 4481SOL     OW25075   0.741   0.859   1.857 -0.1635  0.1931  0.3403
 4481SOL    HW125076   0.797   0.870   1.934 -1.0169  1.4061  0.7773
 4481SOL    HW225077   0.796   0.898   1.789  0.4610 -0.0847  0.6834
 4482SOL     OW25078   2.614   0.832   9.993 -0.4329 -0.1993  0.0026
 4482SOL    HW125079   2.620   0.927  10.005 -0.4920 -0.4276  1.9262
 4482SOL    HW225080   2.687   0.809  10.051 -0.2345  1.2716  0.3546
 4483SOL     OW25081   1.470   1.758   5.785  0.1852 -0.2236  0.1915
 4483SOL    HW125082   1.419   1.830   5.749 -0.6908 -0.8671  0.1510
 4483SOL    HW225083   1.528   1.796   5.851  0.2651 -1.4813  0.8472
 4484SOL     OW25084   3.469   2.044   5.485  0.4928 -0.8292 -0.6938
 4484SOL    HW125085   3.532   2.040   5.557 -0.9895  3.4413  0.8428
 4484SOL    HW225086   3.506   1.969   5.438 -0.1514 -1.4676 -0.1772
 4485SOL     OW25087   3.709   2.221  15.102  0.1501  0.5318  0.3392
 4485SOL    HW125088   3.664   2.193  15.182  2.1975 -3.7870  0.0288
 4485SOL    HW225089   3.644   2.282  15.069 -1.1198  0.0282  1.9271
 4486SOL     OW25090   4.597   1.160   7.251  0.0925  0.1299  0.6697
 4486SOL    HW125091   4.602   1.105   7.172  0.7220  0.2251  0.6458
 4486SOL    HW225092   4.549   1.101   7.310  3.2719 -0.3532  2.7357
 4487SOL     OW25093   0.018   4.678   6.773  0.2999  0.3126  0.4695
 4487SOL    HW125094   4.669   4.708   6.799 -0.0729 -0.1335 -0.2966
 4487SOL    HW225095   0.010   4.583   6.776  1.2740  0.0843 -5.5376
 4488SOL     OW25096   3.553   1.765  17.124  0.0329  0.2384  0.7610
 4488SOL    HW125097   3.604   1.732  17.198  0.8832 -1.2634 -0.4895
 4488SOL    HW225098   3.609   1.837  17.098  0.0977 -0.0406  0.1369
 4489SOL     OW25099   0.871   3.127   8.877 -0.1674 -0.6700  0.0795
 4489SOL    HW125100   0.950   3.161   8.835 -0.3861  0.9014  0.9448
 4489SOL    HW225101   0.897   3.090   8.962  2.9564 -0.6232 -0.8373
 4490SOL     OW25102   3.459   2.947   6.972  0.3098  0.3273  0.1709
 4490SOL    HW125103   3.476   3.041   6.961 -0.6306  0.1395 -3.0486
 4490SOL    HW225104   3.376   2.934   6.925  1.2890 -1.1241 -1.1465
 4491SOL     OW25105   1.429   1.548   3.742 -0.4329 -0.1732 -0.0704
 4491SOL    HW125106   1.463   1.620   3.797  0.1424  0.3413 -1.0911
 4491SOL    HW225107   1.505   1.529   3.688  0.3039  0.3692  0.7595
 4492SOL     OW25108   1.075   3.539  14.571 -0.0789  0.1603  0.8796
 4492SOL    HW125109   1.030   3.538  14.487  0.7198  0.1132  0.4502
 4492SOL    HW225110   1.103   3.630  14.562 -1.1737  0.3938 -0.0464
 4493SOL     OW25111   1.469   0.527   1.105 -0.0506 -0.4556  0.1802
 4493SOL    HW125112   1.423   0.450   1.070 -0.2283 -0.3292  0.1319
 4493SOL    HW225113   1.415   0.596   1.068  0.1499  0.2715  1.2604
 4494SOL     OW25114   0.215   2.545   3.081  0.1995 -0.3190 -0.3542
 4494SOL    HW125115   0.297   2.503   3.059  1.1024 -1.0227  4.2689
 4494SOL    HW225116   0.230   2.629   3.037 -0.7055  1.4085  2.6006
 4495SOL     OW25117   1.775   2.699   1.405 -0.1460  0.4608 -0.0700
 4495SOL    HW125118   1.866   2.713   1.377  0.3190 -0.1182  1.1727
 4495SOL    HW225119   1.739   2.639   1.340 -1.1654  2.1404 -1.0514
 4496SOL     OW25120   2.120   1.548   1.685  0.1144 -0.2683  0.5359
 4496SOL    HW125121   2.090   1.563   1.596  0.7166 -0.2100  0.3442
 4496SOL    HW225122   2.063   1.478   1.718 -0.6184 -1.1444 -2.6344
 4497SOL     OW25123   3.743   2.388   7.978 -0.2692 -0.5976  0.4910
 4497SOL    HW125124   3.709   2.303   7.953 -0.1008 -0.4773 -0.1272
 4497SOL    HW225125   3.818   2.367   8.035  0.6693 -1.9919 -1.2788
 4498SOL     OW25126   3.861   3.085   4.774 -0.9806 -0.3557  0.4153
 4498SOL    HW125127   3.854   3.172   4.812 -0.1190 -0.1273  0.0598
 4498SOL    HW225128   3.945   3.056   4.811  1.0381  1.1400 -2.9324
 4499SOL     OW25129   3.796   2.705  11.900 -0.4180  0.2778 -0.0217
 4499SOL    HW125130   3.814   2.663  11.984  0.5602  0.4631 -0.1442
 4499SOL    HW225131   3.735   2.775  11.923 -0.6944  0.5105 -1.4681
 4500SOL     OW25132   1.189   0.253   8.656 -0.0820  0.2808  0.3918
 4500SOL    HW125133   1.122   0.185   8.661 -0.5218  0.7260  0.5409
 4500SOL    HW225134   1.153   0.309   8.587  1.1832 -0.2980 -0.7566
 4501SOL     OW25135   2.309   4.496   2.913 -0.1364  0.2018  0.0221
 4501SOL    HW125136   2.397   4.513   2.947 -0.0018  0.0427 -0.2475
 4501SOL    HW225137   2.324   4.424   2.852 -1.4229 -1.3446  1.5156
 4502SOL     OW25138   3.247   3.905   1.219 -0.3269  0.0282  0.1919
 4502SOL    HW125139   3.214   3.879   1.305  1.7637  2.6456  1.7632
 4502SOL    HW225140   3.341   3.912   1.230 -0.2879 -2.8393  1.5070
 4503SOL     OW25141   3.160   0.704   0.864  0.1426 -0.2908 -0.1669
 4503SOL    HW125142   3.107   0.776   0.898  0.5485 -0.6233  1.1667
 4503SOL    HW225143   3.118   0.687   0.780  1.1766  0.5188 -0.8439
 4504SOL     OW25144   0.329   2.442  17.231  0.6724  0.2432  0.1414
 4504SOL    HW125145   0.324   2.412  17.140  3.2959  0.9662 -0.2258
 4504SOL    HW225146   0.385   2.378  17.276 -0.2520  0.0131  0.9796
 4505SOL     OW25147   1.947   3.184   3.486 -0.0627  0.1186 -0.3497
 4505SOL    HW125148   2.042   3.175   3.494 -0.0816  1.0604  0.8676
 4505SOL    HW225149   1.938   3.268   3.530 -1.3514 -0.2274  0.0513
 4506SOL     OW25150   2.847   2.849   1.423 -0.3854  0.6713 -0.3706
 4506SOL    HW125151   2.871   2.940   1.409  1.1402 -0.0121 -2.2878
 4506SOL    HW225152   2.761   2.869   1.460 -0.8301  0.2139 -1.1649
 4507SOL     OW25153   0.602   1.691   5.884  0.6187 -0.6677  0.1981
 4507SOL    HW125154   0.583   1.774   5.840  2.4920  0.7575  2.0547
 4507SOL    HW225155   0.671   1.654   5.828 -0.1045 -2.4769  0.5090
 4508SOL     OW25156   0.547   4.259   2.767 -0.5967  0.3316 -0.2588
 4508SOL    HW125157   0.495   4.185   2.736 -2.4949  1.1359  1.0232
 4508SOL    HW225158   0.551   4.252   2.862  0.2910  0.0899 -0.3184
 4509SOL     OW25159   4.152   4.220   5.733  0.0277 -0.5890 -0.1758
 4509SOL    HW125160   4.215   4.161   5.690  1.2213  0.0927  0.6304
 4509SOL    HW225161   4.074   4.165   5.731 -1.1839  1.0476  2.4161
 4510SOL     OW25162   2.924   2.919   6.104  0.0622 -0.2753 -0.3525
 4510SOL    HW125163   2.862   2.935   6.034 -1.9036 -0.0421  1.4582
 4510SOL    HW225164   2.898   2.980   6.173  0.2800 -0.3195 -0.2297
 4511SOL     OW25165   3.149   3.869  11.981 -0.0305 -0.2389  0.5579
 4511SOL    HW125166   3.146   3.910  11.895  0.2951 -0.5498  0.4011
 4511SOL    HW225167   3.195   3.937  12.031  0.4735 -0.5301  0.4937
 4512SOL     OW25168   1.393   0.127   3.425  0.0860  0.6757  0.0970
 4512SOL    HW125169   1.325   0.064   3.402  1.9790 -0.6546 -1.8080
 4512SOL    HW225170   1.463   0.088   3.374  0.4831  3.3610 -1.4238
 4513SOL     OW25171   3.158   0.720   4.687  0.0325  0.0820 -0.4590
 4513SOL    HW125172   3.201   0.681   4.611  0.9235 -0.8958  0.5454
 4513SOL    HW225173   3.162   0.813   4.665 -1.6439  0.5174  1.0881
 4514SOL     OW25174   3.380   1.033   1.567  0.1547 -0.1725  0.3648
 4514SOL    HW125175   3.313   0.966   1.577  0.1932 -0.0004  1.7831
 4514SOL    HW225176   3.444   0.984   1.515  0.1491  0.3217 -0.1008
 4515SOL     OW25177   4.677   2.651   9.570  0.3279 -0.0690 -0.2817
 4515SOL    HW125178   4.705   2.560   9.579  1.1301 -0.0494 -2.5143
 4515SOL    HW225179   4.677   2.673   9.663 -0.6982 -1.3700  0.0312
 4516SOL     OW25180   2.264   0.013   4.722 -0.1782 -0.6434 -0.4617
 4516SOL    HW125181   2.358   0.025   4.710 -0.1611 -0.5127 -0.1937
 4516SOL    HW225182   2.262   4.702   4.803 -0.0194 -1.6703 -1.0895
 4517SOL     OW25183   4.328   0.282   0.636  0.3471  0.0249 -0.0599
 4517SOL    HW125184   4.269   0.356   0.645  0.2027 -0.3474  1.9336
 4517SOL    HW225185   4.282   0.200   0.650 -0.7858  0.8095  0.7207
 4518SOL     OW25186   4.182   3.850   9.382  0.1118 -0.3016  0.2252
 4518SOL    HW125187   4.222   3.896   9.455  0.5944 -0.6850  0.2017
 4518SOL    HW225188   4.095   3.853   9.420  0.2685 -0.7643  0.6093
 4519SOL     OW25189   2.257   3.224   0.402  0.1467  0.1582 -0.2833
 4519SOL    HW125190   2.278   3.172   0.325 -0.8921 -0.7469  0.0352
 4519SOL    HW225191   2.310   3.303   0.396  1.3704 -0.7951 -1.9504
 4520SOL     OW25192   2.011   2.245   1.582  0.3667  0.0232  0.1166
 4520SOL    HW125193   1.960   2.317   1.620  1.7597  1.0604  0.0340
 4520SOL    HW225194   1.974   2.172   1.631  0.1385  0.9306  1.3123
 4521SOL     OW25195   0.179   1.449   2.754  0.1073 -1.0798 -0.1361
 4521SOL    HW125196   0.244   1.518   2.768 -0.4096 -0.7394  0.5881
 4521SOL    HW225197   0.101   1.503   2.767  0.4074 -0.6769 -0.0056
 4522SOL     OW25198   3.798   3.424   8.955 -0.3681  0.3543  0.4274
 4522SOL    HW125199   3.818   3.343   8.906  2.0979  0.5795  1.0506
 4522SOL    HW225200   3.719   3.396   9.001 -0.8753  1.0289 -0.0439
 4523SOL     OW25201   2.766   1.252  16.105  0.1416 -0.6111  0.0456
 4523SOL    HW125202   2.745   1.171  16.152 -2.4272  0.0152 -0.0405
 4523SOL    HW225203   2.680   1.295  16.108 -0.2110 -1.1589 -2.5322
 4524SOL     OW25204   0.960   4.044   8.589  0.2590  0.3784 -0.4961
 4524SOL    HW125205   0.873   4.069   8.558  0.5787  1.8639 -0.1785
 4524SOL    HW225206   0.998   4.132   8.591 -0.0479  0.4972  0.0988
 4525SOL     OW25207   2.417   1.133   7.698 -0.7127 -0.0659 -0.2358
 4525SOL    HW125208   2.383   1.119   7.787 -0.8794  2.5704  0.0983
 4525SOL    HW225209   2.509   1.144   7.720 -0.5491  0.8045 -1.3933
 4526SOL     OW25210   3.103   1.019   0.008 -0.0753  0.1549  0.3798
 4526SOL    HW125211   3.020   1.038  17.715  0.9135  1.4342 -0.8833
 4526SOL    HW225212   3.161   1.055  17.694 -0.4473 -2.0350 -1.1388
 4527SOL     OW25213   0.940   2.307   1.424 -0.3068  0.5133 -0.3374
 4527SOL    HW125214   0.921   2.218   1.394 -2.3835  0.5316  0.9276
 4527SOL    HW225215   0.868   2.330   1.482 -2.3644 -3.0248 -1.4792
 4528SOL     OW25216   3.544   2.468   2.160  0.4715  0.4989  0.3311
 4528SOL    HW125217   3.577   2.557   2.150  1.5338  0.1110  0.4020
 4528SOL    HW225218   3.454   2.473   2.127  1.4836  2.1753 -2.1808
 4529SOL     OW25219   2.235   1.033   3.276 -0.1340 -0.2489  0.1475
 4529SOL    HW125220   2.228   1.128   3.268 -1.7211 -0.4084 -0.4115
 4529SOL    HW225221   2.287   1.007   3.200  0.7719  0.8222  0.4074
 4530SOL     OW25222   1.082   2.160  12.823 -0.0590  0.8424  0.1040
 4530SOL    HW125223   1.051   2.112  12.899 -1.3103  1.2333 -0.1599
 4530SOL    HW225224   1.161   2.110  12.799 -1.2018 -0.2051 -1.5027
 4531SOL     OW25225   1.613   1.037  16.055  0.5223  0.0704 -0.3806
 4531SOL    HW125226   1.578   0.986  15.982 -1.1084  0.7609 -0.0740
 4531SOL    HW225227   1.636   1.118  16.010  1.8091  0.2228  0.5317
 4532SOL     OW25228   2.373   4.310   5.142  0.1694  0.0645  0.3752
 4532SOL    HW125229   2.451   4.308   5.197  0.0354  0.3880  0.5764
 4532SOL    HW225230   2.354   4.217   5.129  0.0163  0.3237 -1.2335
 4533SOL     OW25231   0.798   2.988   8.483 -0.2511  0.4626 -0.3366
 4533SOL    HW125232   0.822   2.914   8.538  0.6424 -0.8693 -2.5132
 4533SOL    HW225233   0.846   2.959   8.406 -2.5254 -2.5460 -0.6048
 4534SOL     OW25234   3.898   1.444   0.827  0.3951 -0.3866  0.5591
 4534SOL    HW125235   3.937   1.516   0.876 -2.5667  2.0977 -0.6935
 4534SOL    HW225236   3.809   1.450   0.861 -0.0082  0.0511 -0.5605
 4535SOL     OW25237   1.480   1.063   6.518 -1.0564  0.0218  0.3927
 4535SOL    HW125238   1.458   1.029   6.432  0.6955  2.4911 -1.0186
 4535SOL    HW225239   1.574   1.079   6.520 -0.8440 -1.2513  0.7158
 4536SOL     OW25240   4.056   1.283   7.410 -0.7091 -0.2816 -0.4484
 4536SOL    HW125241   4.029   1.227   7.483  0.4510  0.6980  0.7493
 4536SOL    HW225242   3.980   1.339   7.395  0.0108  0.2894 -1.9257
 4537SOL     OW25243   3.735   2.661   4.640  0.1546 -0.1079 -0.3015
 4537SOL    HW125244   3.664   2.721   4.613 -1.5616 -2.2174 -0.4809
 4537SOL    HW225245   3.751   2.618   4.556  0.1191 -2.9604  1.1705
 4538SOL     OW25246   2.662   0.297   7.050 -0.1222 -0.0098  0.2987
 4538SOL    HW125247   2.683   0.252   6.968 -0.2063 -2.2992  1.5122
 4538SOL    HW225248   2.752   0.323   7.070 -0.3672  0.0069  1.4055
 4539SOL     OW25249   1.029   3.310   6.157 -0.6740  0.1537  0.3631
 4539SOL    HW125250   1.084   3.383   6.129  1.4658 -1.2819  0.8249
 4539SOL    HW225251   1.038   3.241   6.092  0.8409 -2.2905  3.1183
 4540SOL     OW25252   1.244   1.555  13.230 -0.0247  0.1250  0.8030
 4540SOL    HW125253   1.229   1.646  13.203  0.5825 -0.0079  0.0132
 4540SOL    HW225254   1.277   1.510  13.152 -1.0074  1.8308 -0.6063
 4541SOL     OW25255   1.378   2.568  14.851 -0.1280 -0.0264 -0.3519
 4541SOL    HW125256   1.400   2.645  14.903 -1.3296  0.0357  0.0666
 4541SOL    HW225257   1.367   2.599  14.761 -0.6122 -0.3188 -0.3950
 4542SOL     OW25258   2.094   0.104  16.796 -0.6516 -0.1739  0.2900
 4542SOL    HW125259   2.000   0.113  16.813 -0.5350 -1.3365  1.5826
 4542SOL    HW225260   2.101   0.088  16.702 -0.0016  1.4225  0.0696
 4543SOL     OW25261   1.674   1.655   3.120  0.8080  0.1949  0.6174
 4543SOL    HW125262   1.744   1.720   3.120 -0.4431  1.5285 -1.7821
 4543SOL    HW225263   1.678   1.628   3.212  1.6435  0.1349  0.5611
 4544SOL     OW25264   0.957   0.543   6.262 -0.0082 -0.5448  0.4875
 4544SOL    HW125265   0.909   0.608   6.211 -0.3615 -0.6198  0.7288
 4544SOL    HW225266   1.013   0.506   6.194  0.0214 -1.5909  1.0875
 4545SOL     OW25267   1.892   1.553   2.523  0.1868 -0.8256 -0.0875
 4545SOL    HW125268   1.832   1.598   2.582  1.7698 -1.0223  1.6381
 4545SOL    HW225269   1.845   1.589   2.447 -0.1242 -0.5713  0.2271
 4546SOL     OW25270   4.162   3.785  14.441  0.1320 -0.1409 -0.2714
 4546SOL    HW125271   4.213   3.763  14.519 -1.1722  0.3947  0.7273
 4546SOL    HW225272   4.196   3.739  14.364  0.4788  0.1242 -0.2761
 4547SOL     OW25273   2.825   0.905  11.639  0.4098 -0.2845 -0.2237
 4547SOL    HW125274   2.885   0.910  11.565  1.5058  1.9724  0.8398
 4547SOL    HW225275   2.880   0.889  11.715  0.2721 -0.9080 -0.2547
 4548SOL     OW25276   3.494   0.682   5.700  0.3106  0.5594 -0.0746
 4548SOL    HW125277   3.505   0.609   5.761  0.1351  0.1239 -0.5707
 4548SOL    HW225278   3.574   0.731   5.720  1.1082 -0.8917  0.3538
 4549SOL     OW25279   3.559   0.460   3.567 -0.1016  0.3717 -0.0933
 4549SOL    HW125280   3.604   0.513   3.501  0.2333 -0.0265 -0.1839
 4549SOL    HW225281   3.472   0.471   3.530 -0.9729  0.9844  2.1831
 4550SOL     OW25282   3.221   3.911   8.231  0.1641 -0.3808  0.3374
 4550SOL    HW125283   3.223   3.817   8.212  0.3261 -0.1006 -1.0057
 4550SOL    HW225284   3.127   3.923   8.240  0.1315 -0.1379 -0.4223
 4551SOL     OW25285   1.463   2.148   6.811  0.2248  0.3840 -0.0015
 4551SOL    HW125286   1.544   2.122   6.767 -0.8295 -0.2000 -1.6416
 4551SOL    HW225287   1.455   2.234   6.771  2.6760  0.2890 -0.7135
 4552SOL     OW25288   3.152   0.685  13.362  0.2713  0.2358  0.3534
 4552SOL    HW125289   3.155   0.593  13.391 -2.4024 -0.5648 -1.8854
 4552SOL    HW225290   3.089   0.676  13.290  1.6989  2.7087 -1.1875
 4553SOL     OW25291   3.234   3.548   5.308 -0.1037 -0.2511 -0.2146
 4553SOL    HW125292   3.306   3.486   5.317  0.4312  0.4249  0.1683
 4553SOL    HW225293   3.240   3.561   5.213 -2.3788  0.2683 -0.2813
 4554SOL     OW25294   3.409   4.619   4.126 -0.5718 -0.0427  0.4618
 4554SOL    HW125295   3.343   4.621   4.195 -1.0973 -0.3424 -0.0311
 4554SOL    HW225296   3.403   4.707   4.089 -3.8754 -0.6186 -0.4000
 4555SOL     OW25297   2.006   1.680   8.225 -0.7727  0.7905  0.5367
 4555SOL    HW125298   1.924   1.645   8.192  0.3574  0.1389 -1.5280
 4555SOL    HW225299   2.054   1.675   8.143 -2.1268 -0.0087 -0.1966
 4556SOL     OW25300   4.527   2.148  17.178 -0.2188 -0.0938 -0.4174
 4556SOL    HW125301   4.525   2.084  17.107 -0.1941  0.2236 -0.7027
 4556SOL    HW225302   4.446   2.197  17.165 -0.2262 -0.2532 -0.9554
 4557SOL     OW25303   2.565   4.345  10.768  0.6965  0.2669 -0.7120
 4557SOL    HW125304   2.549   4.251  10.772  2.1416  0.2022  3.0174
 4557SOL    HW225305   2.492   4.375  10.822  0.2345  1.2207 -1.8661
 4558SOL     OW25306   0.827   4.075   8.234 -0.1720 -0.5855  0.3110
 4558SOL    HW125307   0.881   3.998   8.253 -0.7365 -1.1801 -0.5013
 4558SOL    HW225308   0.884   4.148   8.258 -2.1138  0.8301  0.6564
 4559SOL     OW25309   0.304   2.362  12.375 -0.5368  0.3304 -0.3165
 4559SOL    HW125310   0.273   2.452  12.366 -0.4178  0.3015 -1.0071
 4559SOL    HW225311   0.283   2.348  12.467  0.2322  1.5226  0.0444
 4560SOL     OW25312   1.155   1.721   7.647 -0.6878  0.1205  0.0125
 4560SOL    HW125313   1.128   1.659   7.580  0.4459  0.9429 -1.2169
 4560SOL    HW225314   1.066   1.745   7.671  0.1697  2.1419  1.1892
 4561SOL     OW25315   0.861   4.470   4.928 -0.2706  0.0579 -0.9561
 4561SOL    HW125316   0.939   4.452   4.875  0.8228 -2.4707  1.5086
 4561SOL    HW225317   0.889   4.424   5.007  1.4249 -0.8480 -2.0881
 4562SOL     OW25318   2.265   0.386   2.778  0.1107  0.2308 -0.5217
 4562SOL    HW125319   2.297   0.308   2.733 -0.2347 -0.6353  0.7277
 4562SOL    HW225320   2.173   0.363   2.792  0.2126  0.0194 -0.1832
 4563SOL     OW25321   4.697   3.190   5.149  0.5770  0.3103  0.5349
 4563SOL    HW125322   4.731   3.279   5.163 -1.3600  1.3552 -1.5700
 4563SOL    HW225323   4.738   3.147   5.224 -2.4851 -2.5422  0.5429
 4564SOL     OW25324   3.712   1.710   4.894 -0.1218 -0.3068  0.6110
 4564SOL    HW125325   3.747   1.799   4.900 -0.8811  0.0479 -0.3519
 4564SOL    HW225326   3.642   1.711   4.829  0.6449  1.4281 -0.1712
 4565SOL     OW25327   1.327   1.510   8.095  0.0445 -0.1594  0.1921
 4565SOL    HW125328   1.270   1.563   8.039  0.1323 -2.3549 -2.0070
 4565SOL    HW225329   1.310   1.420   8.068  0.4987 -0.1333 -0.1824
 4566SOL     OW25330   2.553   0.550   6.107 -0.1225 -0.2502 -0.1044
 4566SOL    HW125331   2.485   0.509   6.053 -2.8421 -0.3799  3.4234
 4566SOL    HW225332   2.561   0.627   6.050 -0.4691 -0.0243  0.1481
 4567SOL     OW25333   3.925   1.489  11.475  0.4591 -0.0459  0.1947
 4567SOL    HW125334   3.951   1.580  11.458 -2.3743  0.8622  0.7515
 4567SOL    HW225335   3.918   1.461  11.383  1.7279 -0.8758  0.3521
 4568SOL     OW25336   3.461   2.065   9.211 -0.5979  0.0390 -0.1708
 4568SOL    HW125337   3.439   1.999   9.277 -1.6833  1.2357  0.6449
 4568SOL    HW225338   3.544   2.101   9.244 -0.1736 -1.1810  0.0835
 4569SOL     OW25339   0.325   0.547   6.075  0.1487 -0.3091 -0.1316
 4569SOL    HW125340   0.324   0.643   6.070 -1.3015 -0.1553  2.6735
 4569SOL    HW225341   0.414   0.533   6.105  0.4444  0.0024 -0.8606
 4570SOL     OW25342   2.463   3.746  16.859 -0.5152  0.3143 -0.0892
 4570SOL    HW125343   2.424   3.667  16.820 -1.2603  0.2640  0.7624
 4570SOL    HW225344   2.547   3.718  16.896 -1.4466 -0.5658  1.3948
 4571SOL     OW25345   0.427   0.791   0.587 -0.3320 -0.3903 -0.3317
 4571SOL    HW125346   0.489   0.722   0.564  0.7754  0.7687 -0.8184
 4571SOL    HW225347   0.367   0.775   0.515 -0.8975 -0.4512  0.1463
 4572SOL     OW25348   0.615   0.852   3.601  0.1208 -0.1229 -0.8150
 4572SOL    HW125349   0.593   0.917   3.668 -0.0100  0.2798 -1.2520
 4572SOL    HW225350   0.664   0.914   3.546  1.2718  1.6593  2.1962
 4573SOL     OW25351   2.362   0.114   7.560  0.1763 -0.7524  0.2332
 4573SOL    HW125352   2.419   0.187   7.537 -1.7391  0.2759 -1.2161
 4573SOL    HW225353   2.329   0.152   7.641 -0.1888  1.5863 -1.0189
 4574SOL     OW25354   4.723   0.863   3.082 -0.2230 -0.5714  0.1546
 4574SOL    HW125355   4.699   0.771   3.091 -0.8631 -0.3237  0.9606
 4574SOL    HW225356   4.682   0.880   2.997 -0.8496 -3.3418 -0.1016
 4575SOL     OW25357   2.397   2.164   2.739 -0.0177 -0.7554  0.1762
 4575SOL    HW125358   2.384   2.149   2.645 -0.6788 -1.7582  0.4217
 4575SOL    HW225359   2.317   2.209   2.767 -0.1909 -2.3590  2.2466
 4576SOL     OW25360   4.269   1.432   5.360  0.2480  0.6517 -0.5973
 4576SOL    HW125361   4.303   1.514   5.395 -2.1290  0.8746  1.1856
 4576SOL    HW225362   4.319   1.428   5.278 -0.3589 -1.7082 -0.8578
 4577SOL     OW25363   0.882   2.430  17.216  0.4574 -0.0359 -0.5236
 4577SOL    HW125364   0.901   2.514  17.173  0.1661 -0.7604 -2.0661
 4577SOL    HW225365   0.817   2.405  17.151 -0.8905  0.9207  0.4552
 4578SOL     OW25366   3.073   1.922  16.613 -0.1187 -0.1113  0.3388
 4578SOL    HW125367   3.097   1.948  16.701 -1.5942 -0.8022  0.9445
 4578SOL    HW225368   3.119   1.986  16.558 -1.7019  0.5608 -0.1944
 4579SOL     OW25369   0.410   1.356   8.717  0.2663 -0.5520  0.2636
 4579SOL    HW125370   0.445   1.401   8.640  1.1072 -0.3313  0.7748
 4579SOL    HW225371   0.328   1.403   8.727  1.6175  1.2280  3.0570
 4580SOL     OW25372   0.136   3.767   9.179 -0.2830  0.1297  0.3400
 4580SOL    HW125373   0.126   3.850   9.132  0.5453  0.4988  0.8088
 4580SOL    HW225374   0.045   3.747   9.200 -0.0383 -0.0065  1.2642
 4581SOL     OW25375   0.793   3.553  14.623  0.3794  0.1238  0.0479
 4581SOL    HW125376   0.780   3.489  14.554  0.6975 -1.0091  1.0496
 4581SOL    HW225377   0.888   3.565  14.618  0.6536 -1.4025  1.8089
 4582SOL     OW25378   3.824   0.632   6.514 -0.0001 -0.1271 -0.1565
 4582SOL    HW125379   3.827   0.536   6.514  0.3617 -0.1157 -0.2096
 4582SOL    HW225380   3.912   0.652   6.545  0.2128  1.7909 -2.0802
 4583SOL     OW25381   2.193   2.219  14.792 -0.5033 -0.1871 -0.1269
 4583SOL    HW125382   2.200   2.135  14.747  1.2049 -1.0860  1.8530
 4583SOL    HW225383   2.173   2.280  14.721 -1.4843  0.3490  0.6151
 4584SOL     OW25384   1.361   1.204   7.501 -0.2277 -0.6281 -0.2408
 4584SOL    HW125385   1.312   1.219   7.420 -3.1159 -1.1839  1.4095
 4584SOL    HW225386   1.399   1.290   7.521  0.3869 -1.6462  2.9966
 4585SOL     OW25387   2.858   0.809   5.842 -0.0404 -0.4140 -0.1714
 4585SOL    HW125388   2.866   0.865   5.765 -0.3868  0.8410  0.6896
 4585SOL    HW225389   2.900   0.726   5.822  0.7557 -0.9300  3.6300
 4586SOL     OW25390   2.996   0.618   8.052  0.7151  0.1212 -0.4072
 4586SOL    HW125391   2.945   0.551   8.096  0.6951  0.1028 -0.4588
 4586SOL    HW225392   3.078   0.572   8.037  0.7559  0.0526  0.0213
 4587SOL     OW25393   1.108   2.041   1.188  0.4233  0.2952 -0.1434
 4587SOL    HW125394   1.117   1.972   1.253  2.4950  1.2107  0.5355
 4587SOL    HW225395   1.064   2.005   1.111  1.4245 -2.7361  0.7035
 4588SOL     OW25396   3.837   0.208   7.522 -0.1064 -0.2089 -0.3159
 4588SOL    HW125397   3.789   0.280   7.480 -2.0118 -1.7403 -0.7528
 4588SOL    HW225398   3.915   0.213   7.468  0.9868  0.0899  1.2850
 4589SOL     OW25399   4.427   3.882   5.861  0.6695  0.1560 -0.2688
 4589SOL    HW125400   4.403   3.932   5.783  0.1734 -0.4234 -0.4872
 4589SOL    HW225401   4.378   3.925   5.932 -0.5567 -2.0848  0.2482
 4590SOL     OW25402   0.795   3.531   1.117 -0.6847 -0.0888  0.0092
 4590SOL    HW125403   0.864   3.506   1.054  1.0153 -1.2542  2.3419
 4590SOL    HW225404   0.751   3.446   1.122 -0.2421 -0.3591 -0.4998
 4591SOL     OW25405   4.170   2.142   5.429  0.2360 -0.6406  0.0095
 4591SOL    HW125406   4.180   2.234   5.454  3.8521 -0.6802 -1.2203
 4591SOL    HW225407   4.077   2.139   5.410 -0.2517 -2.0356  2.6005
 4592SOL     OW25408   0.028   2.953   9.986  0.0487 -0.0434 -0.5020
 4592SOL    HW125409   0.110   3.004   9.980 -0.0549  0.3580  1.3310
 4592SOL    HW225410   0.030   2.929  10.079 -1.4064 -1.5246 -0.8654
 4593SOL     OW25411   0.456   0.586   8.069  0.0353  0.3545  1.1456
 4593SOL    HW125412   0.409   0.599   8.151 -2.5893  1.2828 -0.4993
 4593SOL    HW225413   0.497   0.672   8.059  1.4096 -0.6455 -1.9248
 4594SOL     OW25414   3.948   3.719   2.432 -0.1025  0.2982  0.1341
 4594SOL    HW125415   3.882   3.656   2.461  0.6438  0.1285  1.4393
 4594SOL    HW225416   3.929   3.792   2.489  1.7803  0.6752  0.2964
 4595SOL     OW25417   2.928   0.866   5.548 -0.6903  0.0676  0.1337
 4595SOL    HW125418   2.929   0.805   5.475 -0.1628  0.5012 -0.2158
 4595SOL    HW225419   3.018   0.896   5.536  0.2595 -1.5647  2.9242
 4596SOL     OW25420   0.701   4.562  10.347 -0.0265 -0.2008  0.4599
 4596SOL    HW125421   0.784   4.570  10.301 -0.7097  1.1497 -0.5371
 4596SOL    HW225422   0.670   4.482  10.304 -1.3914  0.0711  0.9604
 4597SOL     OW25423   2.707   1.304   1.833 -0.1487  0.2550  0.0486
 4597SOL    HW125424   2.656   1.246   1.776  0.4825 -0.2829  0.0194
 4597SOL    HW225425   2.788   1.252   1.834 -0.4242 -0.0939  3.4689
 4598SOL     OW25426   1.828   4.217  11.012  0.1446 -0.4921  0.1277
 4598SOL    HW125427   1.765   4.250  11.075 -0.6067  2.6202 -2.2781
 4598SOL    HW225428   1.765   4.194  10.944 -1.4490  1.2734  1.0267
 4599SOL     OW25429   0.374   2.119   3.274  0.3094 -0.3570 -0.2301
 4599SOL    HW125430   0.336   2.204   3.250  0.8947  0.3211  1.2381
 4599SOL    HW225431   0.296   2.067   3.256  1.2540 -1.5859 -0.7292
 4600SOL     OW25432   1.665   2.603  12.473  0.6498  0.0175  0.6675
 4600SOL    HW125433   1.663   2.593  12.569  1.7025  0.3415  0.7296
 4600SOL    HW225434   1.642   2.513  12.450 -0.6949  0.7495 -0.8113
 4601SOL     OW25435   1.345   4.565   1.875  0.2253 -0.5231 -0.4252
 4601SOL    HW125436   1.280   4.591   1.940  0.8733 -0.5360  0.2206
 4601SOL    HW225437   1.287   4.592   1.803 -2.5309 -0.8213  1.6599
 4602SOL     OW25438   1.160   1.175   2.135  0.1311  0.0992  0.3032
 4602SOL    HW125439   1.106   1.181   2.214 -1.4744  0.2557 -0.8016
 4602SOL    HW225440   1.146   1.264   2.101 -1.0659 -0.3248 -0.2959
 4603SOL     OW25441   1.252   3.532   5.245 -0.1184  0.5586  0.0433
 4603SOL    HW125442   1.184   3.557   5.183 -0.5355 -2.3184 -0.6513
 4603SOL    HW225443   1.335   3.536   5.196 -0.4154 -1.7423 -0.6494
 4604SOL     OW25444   4.539   4.685   6.387  0.1355  0.8371 -0.0145
 4604SOL    HW125445   4.509   4.651   6.303 -0.5020  0.4580  0.3659
 4604SOL    HW225446   4.582   0.022   6.347 -2.8449  2.3697 -0.3611
 4605SOL     OW25447   0.448   4.319   5.118  0.2019 -0.6280  0.2243
 4605SOL    HW125448   0.389   4.392   5.136  0.8473  0.4989 -2.2960
 4605SOL    HW225449   0.382   4.249   5.119  1.2697 -1.6370  0.5240
 4606SOL     OW25450   4.551   1.070  12.201  0.1756 -0.0330  0.0999
 4606SOL    HW125451   4.477   1.118  12.163  1.6883  0.9052 -1.6832
 4606SOL    HW225452   4.624   1.132  12.188 -0.6470  1.3568  2.1110
 4607SOL     OW25453   0.931   0.268   2.189  0.2015 -0.6588  0.0748
 4607SOL    HW125454   0.897   0.315   2.265 -1.0425  0.2755 -1.0614
 4607SOL    HW225455   0.878   0.189   2.197 -1.1266  0.0164 -2.0251
 4608SOL     OW25456   0.821   4.393  13.492 -0.0816 -0.2403 -0.2567
 4608SOL    HW125457   0.781   4.358  13.572 -1.9806  0.0942 -1.0710
 4608SOL    HW225458   0.832   4.486  13.510 -0.8847 -0.4797  1.4921
 4609SOL     OW25459   0.663   3.044   1.845 -0.2355  0.4051 -0.5958
 4609SOL    HW125460   0.593   2.983   1.867 -0.7286  0.4349 -2.1200
 4609SOL    HW225461   0.614   3.126   1.840  1.2909  1.3317 -0.5822
 4610SOL     OW25462   2.933   3.982   5.402  0.4210  0.4472  0.1560
 4610SOL    HW125463   2.848   3.945   5.379 -0.0645 -0.0397  2.7206
 4610SOL    HW225464   2.988   3.907   5.380 -1.5590 -1.3772  1.3915
 4611SOL     OW25465   1.344   1.481   4.992  0.1478 -0.2162  0.1656
 4611SOL    HW125466   1.361   1.538   4.917  1.5505 -0.1736  0.5240
 4611SOL    HW225467   1.320   1.396   4.953 -2.9984  0.6328  0.2159
 4612SOL     OW25468   3.660   2.694  14.477  0.2986 -0.0647  0.1507
 4612SOL    HW125469   3.640   2.739  14.560 -0.6520 -0.6701  0.2503
 4612SOL    HW225470   3.705   2.622  14.520  0.0349 -0.7571 -0.7528
 4613SOL     OW25471   3.705   2.751   3.597  0.2555 -0.1026  0.5215
 4613SOL    HW125472   3.765   2.813   3.637  0.5447  0.6417 -1.0600
 4613SOL    HW225473   3.768   2.681   3.579 -3.3921 -3.3587  0.4623
 4614SOL     OW25474   1.900   1.256   0.716  0.3615 -0.2740  0.2780
 4614SOL    HW125475   1.867   1.187   0.658 -1.9533  2.6889 -1.9449
 4614SOL    HW225476   1.912   1.218   0.804 -1.4596 -1.9843 -0.1954
 4615SOL     OW25477   1.463   0.594   9.052 -0.1653  0.1043 -0.2202
 4615SOL    HW125478   1.480   0.521   8.993  3.5449  0.8774 -0.1426
 4615SOL    HW225479   1.424   0.549   9.127  1.0961  0.1573  0.4691
 4616SOL     OW25480   1.542   2.780   7.907  0.1097  0.3701 -0.1362
 4616SOL    HW125481   1.513   2.799   7.997 -1.4155  0.5732 -0.6611
 4616SOL    HW225482   1.541   2.870   7.875  0.5159  0.7012  0.7706
 4617SOL     OW25483   4.723   3.098  13.551  0.1461  0.2463 -0.1865
 4617SOL    HW125484   0.041   3.022  13.547 -1.1238 -0.7296  0.1807
 4617SOL    HW225485   0.026   3.158  13.613  1.7779  0.7945 -1.8133
 4618SOL     OW25486   0.149   1.461   8.723  0.5070  0.0623  0.7822
 4618SOL    HW125487   0.056   1.473   8.739  1.0749  1.0766  3.3177
 4618SOL    HW225488   0.178   1.476   8.813  0.4079  0.8849  0.6716
 4619SOL     OW25489   2.718   2.937   7.080 -0.2517  0.2808 -0.1794
 4619SOL    HW125490   2.769   2.857   7.090 -2.1467 -1.0134 -0.9045
 4619SOL    HW225491   2.679   2.966   7.162 -0.4778  2.3230 -1.0021
 4620SOL     OW25492   4.097   2.878   0.611 -0.5384 -0.2289 -0.0717
 4620SOL    HW125493   4.152   2.952   0.635 -0.6026  0.6788 -2.7094
 4620SOL    HW225494   4.157   2.836   0.548 -0.4077 -2.2258  1.3862
 4621SOL     OW25495   0.673   0.643  10.761 -0.1411  0.1160 -0.3741
 4621SOL    HW125496   0.694   0.604  10.845 -1.0016 -0.0763 -0.2423
 4621SOL    HW225497   0.666   0.737  10.781  3.1465  0.3781 -0.5248
 4622SOL     OW25498   3.690   4.435   2.921 -0.1096  0.5372  0.2032
 4622SOL    HW125499   3.656   4.521   2.894 -1.1232 -0.0238 -0.3498
 4622SOL    HW225500   3.703   4.476   3.006 -0.4946 -0.2987  0.6654
 4623SOL     OW25501   2.746   1.351   3.954 -0.2735  0.2652  0.5030
 4623SOL    HW125502   2.672   1.338   3.895 -0.2457 -4.0684  1.4489
 4623SOL    HW225503   2.805   1.285   3.917 -0.2082  1.4346 -1.5166
 4624SOL     OW25504   2.964   0.547  12.178 -0.5947 -0.1942 -0.0937
 4624SOL    HW125505   3.014   0.627  12.192 -0.4854  0.3971 -3.7890
 4624SOL    HW225506   3.020   0.483  12.223 -0.8634 -0.0036  0.5021
 4625SOL     OW25507   2.488   1.031   3.383 -0.0379 -0.0773 -0.2922
 4625SOL    HW125508   2.394   1.048   3.381  0.2135  1.1392 -1.5888
 4625SOL    HW225509   2.496   1.045   3.478  0.0066  1.0146 -0.4504
 4626SOL     OW25510   3.035   3.600   2.087  0.2725 -0.1935  0.0774
 4626SOL    HW125511   2.954   3.548   2.091 -0.7052  1.3058 -0.2665
 4626SOL    HW225512   3.005   3.683   2.123  1.3906 -0.3650  1.3886
 4627SOL     OW25513   0.678   2.878   9.741 -0.2826  0.0310  0.0812
 4627SOL    HW125514   0.642   2.842   9.660 -0.2150  1.5060 -0.6062
 4627SOL    HW225515   0.681   2.969   9.711  1.0100 -0.5503 -1.5915
 4628SOL     OW25516   0.335   1.091   4.521  0.5243  0.0851  0.7767
 4628SOL    HW125517   0.365   1.159   4.462 -0.6102  0.1580  0.2902
 4628SOL    HW225518   0.252   1.128   4.554  0.1623  1.7024 -1.9827
 4629SOL     OW25519   1.788   0.851   2.313 -0.6802 -0.0974 -0.1733
 4629SOL    HW125520   1.769   0.927   2.368 -0.5145 -1.0457  1.1776
 4629SOL    HW225521   1.878   0.838   2.345 -0.8956  0.6684  0.7411
 4630SOL     OW25522   2.643   4.362   4.813  0.1770  0.0406  0.2218
 4630SOL    HW125523   2.681   4.319   4.737 -0.5396 -0.5133  0.1759
 4630SOL    HW225524   2.656   4.290   4.874  3.0423  0.3878  0.0003
 4631SOL     OW25525   0.946   4.439   1.935 -0.5019 -0.0093  0.3184
 4631SOL    HW125526   0.946   4.507   2.003  3.5335 -0.1265  0.3888
 4631SOL    HW225527   0.956   4.501   1.863  1.2505 -0.2812  0.3311
 4632SOL     OW25528   0.499   1.218   0.546  0.3454  0.3256  0.3089
 4632SOL    HW125529   0.494   1.150   0.613 -1.8360  0.6557  0.4799
 4632SOL    HW225530   0.512   1.163   0.469 -1.9194  1.6721 -1.0450
 4633SOL     OW25531   2.866   0.386  16.943 -0.4645 -0.2418 -0.5102
 4633SOL    HW125532   2.820   0.352  17.019  0.0217  2.2074  0.8995
 4633SOL    HW225533   2.936   0.321  16.935  0.2320  0.0964  2.6665
 4634SOL     OW25534   0.598   4.044   2.388 -0.2664  0.2118  0.1283
 4634SOL    HW125535   0.641   3.972   2.342 -1.0377  0.3889 -0.8752
 4634SOL    HW225536   0.675   4.091   2.422 -1.5407  0.7651  2.1995
 4635SOL     OW25537   4.144   0.813   5.925 -0.2842  0.2181  0.4190
 4635SOL    HW125538   4.216   0.846   5.871  2.6412 -1.0137  3.5844
 4635SOL    HW225539   4.192   0.797   6.007  1.2500 -0.9410 -0.6979
 4636SOL     OW25540   4.492   1.547   3.506  0.2392 -0.1066  0.3317
 4636SOL    HW125541   4.514   1.638   3.521  0.2428 -0.2618  1.2542
 4636SOL    HW225542   4.446   1.556   3.422 -3.1586  0.5791  2.2632
 4637SOL     OW25543   2.228   0.326   8.042 -0.7456  0.4416 -0.1400
 4637SOL    HW125544   2.148   0.335   8.095 -0.9265  1.9108 -0.6930
 4637SOL    HW225545   2.284   0.266   8.092 -2.3106  0.6082  1.8559
 4638SOL     OW25546   4.298   0.735   8.898  0.3410  0.3234  0.6336
 4638SOL    HW125547   4.352   0.679   8.955  2.7344 -0.3082 -2.2763
 4638SOL    HW225548   4.301   0.694   8.812  0.1706 -0.5606  1.0497
 4639SOL     OW25549   0.296   1.123   8.646 -0.3423  0.0897 -0.3835
 4639SOL    HW125550   0.326   1.114   8.555  2.4799 -1.3603  0.6847
 4639SOL    HW225551   0.334   1.205   8.678  1.0274 -1.0881  1.0109
 4640SOL     OW25552   4.365   2.323   9.914 -0.3603 -0.0812  0.4848
 4640SOL    HW125553   4.386   2.288  10.001 -0.2010  0.9509  0.8649
 4640SOL    HW225554   4.451   2.317   9.874 -0.2500 -2.2987  1.0621
 4641SOL     OW25555   0.603   1.509   2.719  0.2345  0.1517 -0.1260
 4641SOL    HW125556   0.670   1.563   2.679  0.1330  0.0095 -0.4852
 4641SOL    HW225557   0.540   1.576   2.747 -1.1099 -1.4508  0.6929
 4642SOL     OW25558   3.680   3.990   5.412 -0.2413 -0.8691  0.2410
 4642SOL    HW125559   3.648   3.902   5.430  0.4145 -1.5732 -2.0480
 4642SOL    HW225560   3.669   3.994   5.317 -0.2517 -0.1150  0.2709
 4643SOL     OW25561   0.266   1.364   6.707 -0.6030 -0.1512 -0.2145
 4643SOL    HW125562   0.320   1.408   6.772 -2.4569 -0.0141  1.2309
 4643SOL    HW225563   0.195   1.329   6.761 -0.3079 -0.0528  0.2336
 4644SOL     OW25564   4.307   4.239   1.605 -0.3747 -0.3737 -0.1848
 4644SOL    HW125565   4.233   4.299   1.615 -1.2468 -1.8652  2.3958
 4644SOL    HW225566   4.380   4.301   1.600 -1.8725  1.5922  2.0471
 4645SOL     OW25567   0.524   3.429  14.690  0.0511  0.1785  0.2239
 4645SOL    HW125568   0.575   3.444  14.611 -0.5492  0.1138 -0.1766
 4645SOL    HW225569   0.534   3.334  14.699  1.0239  0.2241 -0.5367
 4646SOL     OW25570   2.292   3.299   4.064 -0.1417  0.0751 -0.0313
 4646SOL    HW125571   2.332   3.378   4.100 -0.6702 -0.9871  2.8764
 4646SOL    HW225572   2.206   3.292   4.105 -0.4189  1.0730 -0.4553
 4647SOL     OW25573   3.817   0.737   4.982 -0.0253 -0.1993 -0.8128
 4647SOL    HW125574   3.775   0.823   4.974 -1.0265 -0.7768 -1.8187
 4647SOL    HW225575   3.795   0.709   4.893 -1.4713 -2.1172  0.1420
 4648SOL     OW25576   3.817   3.736  16.047 -0.3801 -0.4485 -0.1490
 4648SOL    HW125577   3.805   3.757  15.954 -0.7201  0.8706  0.1956
 4648SOL    HW225578   3.904   3.767  16.074 -0.2977 -1.2038  0.4710
 4649SOL     OW25579   4.638   2.906  14.185 -0.0327  0.3758 -0.5089
 4649SOL    HW125580   4.640   2.947  14.271  0.8600 -0.9115  0.0861
 4649SOL    HW225581   4.561   2.850  14.199  2.4514 -3.1381 -1.0215
 4650SOL     OW25582   3.262   1.634  12.077 -0.0839  0.4412  0.2650
 4650SOL    HW125583   3.188   1.615  12.135  0.0881 -1.1452 -0.0220
 4650SOL    HW225584   3.338   1.595  12.121 -1.9004 -1.2326  1.9457
 4651SOL     OW25585   1.619   3.640   1.273 -0.2634  0.5106 -0.3584
 4651SOL    HW125586   1.667   3.575   1.223  1.1995 -0.5105  2.4047
 4651SOL    HW225587   1.530   3.606   1.269 -0.0595  0.2490 -2.3138
 4652SOL     OW25588   0.299   1.240  12.833 -0.7964 -0.0954  0.3912
 4652SOL    HW125589   0.247   1.252  12.912 -0.0786  0.2628  0.8107
 4652SOL    HW225590   0.386   1.243  12.872 -1.0292  1.7580  0.7584
 4653SOL     OW25591   4.058   3.444   2.638 -0.3307 -0.4047  0.5513
 4653SOL    HW125592   3.984   3.398   2.599 -0.9693  0.7463  0.3962
 4653SOL    HW225593   4.121   3.372   2.642  0.8628  0.4140 -3.5781
 4654SOL     OW25594   4.262   2.177   9.403 -0.5728 -0.4113 -0.0238
 4654SOL    HW125595   4.217   2.260   9.419 -0.0589  0.3642 -2.6907
 4654SOL    HW225596   4.224   2.157   9.317 -0.6437  0.9019 -0.3065
 4655SOL     OW25597   2.142   3.871  11.692  0.0916 -0.4913 -0.5069
 4655SOL    HW125598   2.136   3.783  11.728 -1.2509  0.1053  0.7548
 4655SOL    HW225599   2.236   3.890  11.692  0.1400 -0.7389 -2.6095
 4656SOL     OW25600   0.939   2.416   3.473  0.4719 -0.6597 -0.1810
 4656SOL    HW125601   0.932   2.321   3.475 -1.6446 -0.4686  0.6246
 4656SOL    HW225602   0.949   2.438   3.380 -1.5654 -0.5093 -0.3541
 4657SOL     OW25603   0.489   2.560   8.008  0.1800  0.2192 -0.1695
 4657SOL    HW125604   0.499   2.572   8.102 -1.1762 -1.1380  0.1414
 4657SOL    HW225605   0.572   2.514   7.990 -0.4630 -1.3799  0.9664
 4658SOL     OW25606   1.289   1.620   4.747 -0.1139 -0.3875  0.1078
 4658SOL    HW125607   1.221   1.683   4.772  1.3642  0.8360  1.0348
 4658SOL    HW225608   1.240   1.542   4.720 -0.7812 -0.6802  2.1237
 4659SOL     OW25609   1.006   1.715   3.178 -0.0786  0.5260 -0.0856
 4659SOL    HW125610   0.990   1.723   3.272 -0.2856 -1.0459  0.0085
 4659SOL    HW225611   0.953   1.785   3.140  1.1739  1.4100 -0.2100
 4660SOL     OW25612   3.505   4.136   6.642  0.4367 -0.2459 -0.3608
 4660SOL    HW125613   3.580   4.087   6.675  1.5729  2.1687  0.6590
 4660SOL    HW225614   3.541   4.224   6.644 -0.0913  0.0047 -2.5187
 4661SOL     OW25615   0.110   2.475  16.380  0.3962 -0.5604  0.6020
 4661SOL    HW125616   0.172   2.545  16.365 -0.6299  0.4499  1.0738
 4661SOL    HW225617   0.053   2.473  16.303  1.3276 -1.2561 -0.0735
 4662SOL     OW25618   2.385   3.001   7.864 -0.1232 -0.2237  0.3603
 4662SOL    HW125619   2.443   3.033   7.933  0.3451  1.8144 -0.9806
 4662SOL    HW225620   2.347   3.080   7.826  1.1330  0.9539  1.5085
 4663SOL     OW25621   1.700   0.372   2.176  0.8123  0.7545  0.3034
 4663SOL    HW125622   1.677   0.453   2.130 -1.0034  0.5533  0.8150
 4663SOL    HW225623   1.620   0.320   2.165  1.2435  0.3326 -0.7523
 4664SOL     OW25624   1.932   1.907   4.599  0.0599  0.1492 -0.5458
 4664SOL    HW125625   2.006   1.896   4.658 -0.2064  2.5045  0.2275
 4664SOL    HW225626   1.881   1.833   4.631 -1.0738  1.4305  0.6155
 4665SOL     OW25627   3.324   3.449   2.710  0.5064 -0.3723  0.4248
 4665SOL    HW125628   3.354   3.358   2.712 -0.0961 -0.5763 -0.0173
 4665SOL    HW225629   3.407   3.484   2.678  0.4233 -0.9647 -0.4444
 4666SOL     OW25630   0.919   0.213   4.233  0.2945  0.0437  1.3660
 4666SOL    HW125631   0.904   0.217   4.327  0.8572 -0.3047  1.4726
 4666SOL    HW225632   0.978   0.286   4.218 -0.1110 -0.0133 -0.5079
 4667SOL     OW25633   3.930   4.531   0.268 -0.5807  0.5472  0.5339
 4667SOL    HW125634   3.841   4.544   0.238 -0.3583  2.7135  0.8372
 4667SOL    HW225635   3.979   4.605   0.231  0.8010 -0.5605  0.1103
 4668SOL     OW25636   3.610   2.518   4.948  0.3945 -0.2118 -0.2039
 4668SOL    HW125637   3.574   2.492   5.033 -2.0135  2.0563 -0.5570
 4668SOL    HW225638   3.540   2.484   4.892 -0.1528  0.9047 -0.1893
 4669SOL     OW25639   3.427   1.840   6.036  0.1084 -0.1485  0.0324
 4669SOL    HW125640   3.366   1.912   6.022  0.7054  0.5147  0.8165
 4669SOL    HW225641   3.486   1.859   5.963  0.3939 -1.8413 -0.1674
 4670SOL     OW25642   2.611   4.104   7.910  0.2113  0.0711 -0.4698
 4670SOL    HW125643   2.610   4.022   7.862  0.6565 -0.3843  0.2903
 4670SOL    HW225644   2.527   4.141   7.886  0.9639  2.2749  0.2321
 4671SOL     OW25645   0.849   4.052   6.885  0.1834  0.0617 -0.7138
 4671SOL    HW125646   0.786   4.116   6.852 -0.9086  0.1413  1.5578
 4671SOL    HW225647   0.853   4.071   6.978 -3.9013 -0.8617 -0.3414
 4672SOL     OW25648   1.340   1.976   4.874 -0.2529  0.5003 -0.1527
 4672SOL    HW125649   1.401   1.914   4.914  0.2963  0.6412 -0.7801
 4672SOL    HW225650   1.376   2.064   4.881  1.1332 -0.2277  1.8382
 4673SOL     OW25651   1.599   3.198   5.539  0.2006 -0.2558  0.2083
 4673SOL    HW125652   1.669   3.246   5.496 -0.0936  0.6437  0.7338
 4673SOL    HW225653   1.548   3.270   5.576  0.5771  1.0781 -1.9291
 4674SOL     OW25654   2.762   2.610   2.939  0.2906 -0.2259 -0.4547
 4674SOL    HW125655   2.844   2.613   2.989 -0.1983  2.0573  0.2313
 4674SOL    HW225656   2.783   2.547   2.870  0.4526 -1.0394  0.3338
 4675SOL     OW25657   4.702   1.732   2.876 -0.2666 -0.5495  0.1594
 4675SOL    HW125658   0.046   1.707   2.916  0.2035  2.1067  0.8422
 4675SOL    HW225659   4.653   1.650   2.878 -0.9296 -0.1951 -1.5196
 4676SOL     OW25660   4.000   0.680  10.417  0.4278  0.1426  0.3150
 4676SOL    HW125661   3.990   0.625  10.495  0.6866  0.5577  0.6338
 4676SOL    HW225662   4.052   0.631  10.353  1.4501  1.6186  0.0284
 4677SOL     OW25663   3.456   3.040  14.826  0.1906 -0.2940 -0.0628
 4677SOL    HW125664   3.408   3.025  14.907  0.3579  0.2117  0.1231
 4677SOL    HW225665   3.388   3.086  14.776 -1.9875 -2.2725  1.0587
 4678SOL     OW25666   1.589   2.598   2.522 -0.0011  0.1511  0.3573
 4678SOL    HW125667   1.594   2.506   2.498 -0.2637  0.2810 -0.1818
 4678SOL    HW225668   1.509   2.599   2.575  0.8873 -1.9760  1.7507
 4679SOL     OW25669   2.197   3.882  14.546  0.1150 -0.0343 -0.5229
 4679SOL    HW125670   2.129   3.875  14.614  0.8463  1.1557  0.3313
 4679SOL    HW225671   2.172   3.804  14.497 -0.5716  1.0187 -1.8568
 4680SOL     OW25672   1.949   3.859   7.327  0.1669  0.4741  0.0358
 4680SOL    HW125673   1.959   3.781   7.273 -2.5200  1.2597 -1.5984
 4680SOL    HW225674   1.948   3.926   7.258  3.5460  0.0903 -0.3598
 4681SOL     OW25675   0.869   2.270   7.847 -0.1954 -0.3766 -0.0687
 4681SOL    HW125676   0.841   2.188   7.806 -2.1605  1.1415 -1.7863
 4681SOL    HW225677   0.934   2.231   7.904  1.0652 -1.1880 -2.0472
 4682SOL     OW25678   3.456   1.176  14.729  0.3508  0.0687  0.3531
 4682SOL    HW125679   3.393   1.234  14.687 -0.3183  0.3896  1.8106
 4682SOL    HW225680   3.493   1.129  14.653 -2.2292  0.2371 -0.9919
 4683SOL     OW25681   4.653   3.863   1.718  0.7449  0.5448 -0.2072
 4683SOL    HW125682   4.651   3.768   1.731 -1.8387  0.2087 -3.1599
 4683SOL    HW225683   4.683   3.892   1.805 -1.1618 -0.8487  0.9270
 4684SOL     OW25684   4.522   3.673   8.133 -0.2024 -0.0175 -0.1095
 4684SOL    HW125685   4.513   3.587   8.174 -0.2188 -0.0810 -0.2462
 4684SOL    HW225686   4.534   3.743   8.197  1.2593  0.0522 -0.4555
 4685SOL     OW25687   1.732   3.193   8.386 -0.4845 -0.2502  0.2090
 4685SOL    HW125688   1.768   3.278   8.410  1.6052 -0.6780 -1.4539
 4685SOL    HW225689   1.805   3.154   8.338  1.5390  1.5010  1.8529
 4686SOL     OW25690   2.070   3.799   9.901 -0.2769 -0.1032 -0.0841
 4686SOL    HW125691   2.002   3.862   9.926 -0.4182 -0.8073  1.3313
 4686SOL    HW225692   2.147   3.855   9.905 -1.3978  1.5123 -1.2412
 4687SOL     OW25693   2.920   4.612  13.090  0.1595  0.4600  0.1150
 4687SOL    HW125694   2.882   4.653  13.013  1.6112  2.3445  0.3986
 4687SOL    HW225695   2.930   4.523  13.058  0.1668 -0.0888  1.6422
 4688SOL     OW25696   4.722   0.488   5.484 -0.5795 -0.2051 -0.4737
 4688SOL    HW125697   0.044   0.556   5.454 -0.1647 -0.6016 -0.5426
 4688SOL    HW225698   0.018   0.477   5.573  2.5458  2.7108 -1.3037
 4689SOL     OW25699   3.290   2.845   9.434 -0.2455  0.0416 -1.2246
 4689SOL    HW125700   3.325   2.902   9.503 -1.7270  0.9831 -1.2515
 4689SOL    HW225701   3.231   2.791   9.487  1.3252 -0.2358  0.2596
 4690SOL     OW25702   3.235   3.620   8.195  0.2474 -0.6919  0.1938
 4690SOL    HW125703   3.263   3.559   8.263 -1.5977 -2.8838 -1.0141
 4690SOL    HW225704   3.189   3.565   8.133 -1.8603  1.0000  0.2608
 4691SOL     OW25705   1.073   4.381   5.517  0.2151  0.5736  0.1163
 4691SOL    HW125706   1.140   4.317   5.491  1.7029  1.3499  2.0558
 4691SOL    HW225707   1.069   4.435   5.438 -1.5003  1.1444  0.5931
 4692SOL     OW25708   2.593   3.718   2.240 -0.4806 -0.0597  0.1840
 4692SOL    HW125709   2.638   3.801   2.249 -0.6406  0.0131  0.3143
 4692SOL    HW225710   2.607   3.697   2.148 -0.2142  2.2067 -0.2866
 4693SOL     OW25711   1.781   2.085   8.836  0.1276 -0.4540 -0.1000
 4693SOL    HW125712   1.802   2.057   8.747  1.1461  0.2524 -0.0822
 4693SOL    HW225713   1.871   2.098   8.865  0.1996  1.1649 -1.0259
 4694SOL     OW25714   1.778   1.171   9.772 -0.4471  0.5145  0.2440
 4694SOL    HW125715   1.683   1.166   9.769 -0.2592 -1.9612 -1.2532
 4694SOL    HW225716   1.794   1.158   9.866 -1.5262  0.8817  0.4779
 4695SOL     OW25717   3.584   0.951   4.995 -0.3060 -0.6979 -0.0693
 4695SOL    HW125718   3.638   1.024   5.025  0.6072 -0.9237 -1.1492
 4695SOL    HW225719   3.590   0.905   5.079 -1.5766  1.2922  1.1071
 4696SOL     OW25720   1.212   0.670   6.512  0.1646  0.3159 -0.0200
 4696SOL    HW125721   1.183   0.581   6.534 -0.7661  1.4864  3.5362
 4696SOL    HW225722   1.229   0.716   6.595 -2.5955 -0.3526  0.9158
 4697SOL     OW25723   3.023   1.169  16.399 -0.5318  0.1952 -0.3972
 4697SOL    HW125724   2.960   1.135  16.335 -1.6784  1.7291 -0.0869
 4697SOL    HW225725   2.987   1.114  16.470  1.8071 -0.8218  0.0022
 4698SOL     OW25726   1.360   2.208   6.040  0.1382 -0.9278  0.1562
 4698SOL    HW125727   1.405   2.140   6.091 -0.0396 -2.1438 -1.3054
 4698SOL    HW225728   1.419   2.282   6.055  1.1165 -1.7053  0.1524
 4699SOL     OW25729   0.284   3.866   2.849  0.4914  0.6273  0.2980
 4699SOL    HW125730   0.299   3.941   2.792  0.6963  2.5868  2.9348
 4699SOL    HW225731   0.372   3.865   2.885  1.5068 -1.0819 -2.2156
 4700SOL     OW25732   4.292   4.616   5.840 -0.1585  0.6385 -0.0404
 4700SOL    HW125733   4.322   4.682   5.777 -0.6804  0.9615  0.0447
 4700SOL    HW225734   4.218   4.659   5.882 -0.6949  0.9722 -1.3193
 4701SOL     OW25735   0.194   0.681   1.447  0.2381  0.5084  0.4095
 4701SOL    HW125736   0.181   0.682   1.542  0.8404 -2.5946  0.5501
 4701SOL    HW225737   0.290   0.676   1.445  0.2869  0.7386  2.2019
 4702SOL     OW25738   1.960   0.407  13.989 -0.5720 -0.3706 -0.1350
 4702SOL    HW125739   1.871   0.400  13.954 -0.0151  3.2601 -2.3208
 4702SOL    HW225740   1.984   0.315  13.992  0.4322 -0.1679 -2.3037
 4703SOL     OW25741   0.003   4.097   5.344 -0.5355  0.4288  0.7116
 4703SOL    HW125742   0.058   4.020   5.334 -3.1952 -1.5443  1.1482
 4703SOL    HW225743   4.656   4.060   5.368 -0.5118 -0.2879 -0.3149
 4704SOL     OW25744   2.591   2.048   4.701 -0.3300 -0.5792 -0.0636
 4704SOL    HW125745   2.645   2.125   4.685 -0.4875 -0.1546  1.3722
 4704SOL    HW225746   2.545   2.078   4.780 -0.2779 -0.3631 -0.1139
 4705SOL     OW25747   3.597   0.170   5.041 -0.0151 -0.0627 -0.3669
 4705SOL    HW125748   3.670   0.231   5.051  0.5693 -1.4187  3.4930
 4705SOL    HW225749   3.527   0.235   5.040 -1.0844 -1.1949 -0.0644
 4706SOL     OW25750   3.277   3.980  13.265  0.0861 -0.0491 -0.3696
 4706SOL    HW125751   3.338   3.906  13.271 -0.7482 -0.8546 -1.7584
 4706SOL    HW225752   3.241   3.981  13.353  0.0616 -1.4083 -0.3605
 4707SOL     OW25753   3.896   1.413   3.505  0.7179 -0.2274  0.0862
 4707SOL    HW125754   3.910   1.473   3.432 -1.0111 -0.1690 -0.1805
 4707SOL    HW225755   3.931   1.462   3.580 -0.1144 -1.3043  1.1965
 4708SOL     OW25756   2.274   0.894   4.990 -0.0301  0.6068  0.2248
 4708SOL    HW125757   2.248   0.984   4.971  0.0948  0.4612 -0.6279
 4708SOL    HW225758   2.356   0.894   4.941 -0.0226 -3.8371  0.2156
 4709SOL     OW25759   2.400   1.977   2.047 -0.4472 -0.0156 -0.3502
 4709SOL    HW125760   2.469   2.025   2.093  0.8502  0.2994 -2.6425
 4709SOL    HW225761   2.367   1.908   2.106 -0.0505 -0.0642 -0.1889
 4710SOL     OW25762   0.681   1.334  15.150  0.0485  0.1466  0.2874
 4710SOL    HW125763   0.745   1.324  15.221 -0.9206  2.2202  1.4624
 4710SOL    HW225764   0.608   1.354  15.208  0.2661  0.4304  0.4646
 4711SOL     OW25765   2.301   0.647   1.457  0.5435  0.4908  0.1048
 4711SOL    HW125766   2.264   0.563   1.431 -1.9196  1.1589  1.4261
 4711SOL    HW225767   2.224   0.690   1.496 -0.2299 -1.7437  1.0424
 4712SOL     OW25768   3.078   0.936  11.173  0.0098  0.4175 -0.2484
 4712SOL    HW125769   3.094   0.855  11.125  0.5464 -0.5225  1.5442
 4712SOL    HW225770   3.159   0.988  11.168  0.6658 -0.5806  0.1613
 4713SOL     OW25771   1.420   2.215   4.362  0.0456 -0.0735 -0.2135
 4713SOL    HW125772   1.438   2.124   4.339 -2.3863 -1.4454  3.3433
 4713SOL    HW225773   1.348   2.239   4.304 -1.7261 -1.6193  1.3421
 4714SOL     OW25774   2.775   0.306   2.851  0.1560  0.1034 -0.7952
 4714SOL    HW125775   2.760   0.212   2.859 -0.2514 -0.0413 -3.2172
 4714SOL    HW225776   2.868   0.315   2.832  0.8726 -2.2026  1.6422
 4715SOL     OW25777   0.652   2.396  14.099  0.7439 -0.2285 -0.1455
 4715SOL    HW125778   0.558   2.389  14.079  0.9725 -1.0826 -0.9458
 4715SOL    HW225779   0.651   2.405  14.194  0.7936  1.7413 -0.3287
 4716SOL     OW25780   2.073   2.520  16.692  0.3981  0.3554 -0.0535
 4716SOL    HW125781   2.106   2.479  16.772 -1.6497 -1.5529 -0.1865
 4716SOL    HW225782   2.134   2.592  16.678  1.1874 -0.0321  1.4605
 4717SOL     OW25783   3.978   0.112   5.375  0.6150  0.3396  0.4737
 4717SOL    HW125784   4.007   0.202   5.361  0.1972 -0.0020 -2.5504
 4717SOL    HW225785   3.998   0.092   5.467  2.4440  0.7259  0.1542
 4718SOL     OW25786   0.479   3.199   6.722  0.3454 -0.1485  0.8906
 4718SOL    HW125787   0.435   3.157   6.648 -0.4955  3.0538 -0.4006
 4718SOL    HW225788   0.568   3.206   6.688  0.1779 -2.1739  0.0175
 4719SOL     OW25789   1.283   3.332   0.276  0.5031 -0.3384  0.3254
 4719SOL    HW125790   1.340   3.409   0.269  1.4306 -1.0638 -0.0771
 4719SOL    HW225791   1.247   3.322   0.188 -2.0180 -0.2371  1.3500
 4720SOL     OW25792   2.784   1.902  13.170 -0.4050  0.4510 -0.0067
 4720SOL    HW125793   2.833   1.930  13.092 -1.7430  0.3698 -0.8811
 4720SOL    HW225794   2.780   1.992  13.202 -1.1881  1.8576 -3.9989
 4721SOL     OW25795   0.400   3.673  10.369 -0.1340 -0.4303  0.5659
 4721SOL    HW125796   0.344   3.713  10.435  0.8888  0.5247  0.8606
 4721SOL    HW225797   0.482   3.659  10.416 -0.0778 -2.3677 -0.1075
 4722SOL     OW25798   0.184   3.990   4.711 -0.2123 -0.1336 -0.3121
 4722SOL    HW125799   0.185   3.969   4.618  0.5909  0.9067 -0.5411
 4722SOL    HW225800   0.232   3.910   4.731  0.0486  0.3976  1.2452
 4723SOL     OW25801   3.451   2.275   0.932 -0.2286 -0.0227 -0.1278
 4723SOL    HW125802   3.465   2.359   0.888 -1.9652 -0.0732 -0.7890
 4723SOL    HW225803   3.365   2.244   0.905 -0.5433 -1.0533  2.0639
 4724SOL     OW25804   0.185   3.507  13.745 -0.4032 -0.2360 -0.9114
 4724SOL    HW125805   0.118   3.574  13.732  0.1715  0.8760  1.9396
 4724SOL    HW225806   0.266   3.556  13.736 -1.0879  1.0653 -0.1083
 4725SOL     OW25807   3.098   4.077   7.925 -0.1051 -0.3719  0.2727
 4725SOL    HW125808   3.078   4.093   8.017  1.3965 -0.9584  0.7107
 4725SOL    HW225809   3.034   4.127   7.875  0.3921 -1.4504 -1.4460
 4726SOL     OW25810   3.416   0.704   0.906  0.0562  0.0009  0.0966
 4726SOL    HW125811   3.393   0.796   0.921  0.5076  0.2010 -0.4230
 4726SOL    HW225812   3.327   0.671   0.893  0.1903  0.4867 -2.0195
 4727SOL     OW25813   4.520   3.649   9.400  0.4765 -0.3580 -0.6914
 4727SOL    HW125814   4.535   3.731   9.447  2.6576 -1.6388  0.8169
 4727SOL    HW225815   4.602   3.599   9.402  2.2957  2.5485 -3.9384
 4728SOL     OW25816   4.469   1.166   1.867  0.4608 -0.5991 -0.0278
 4728SOL    HW125817   4.540   1.167   1.802 -2.6202  3.3793 -3.3284
 4728SOL    HW225818   4.485   1.254   1.902 -4.1559  0.4501 -0.5450
 4729SOL     OW25819   2.576   4.597  10.368 -0.2481  0.1038 -0.1540
 4729SOL    HW125820   2.534   4.676  10.335  0.2163 -0.1822 -1.4612
 4729SOL    HW225821   2.502   4.536  10.358  1.7118 -2.5492  1.3685
 4730SOL     OW25822   4.289   4.000   7.068 -0.6392 -0.1002  0.4102
 4730SOL    HW125823   4.357   4.055   7.107 -0.5267 -0.3096  0.5111
 4730SOL    HW225824   4.312   3.998   6.975 -3.5150 -1.8060 -0.2669
 4731SOL     OW25825   3.966   3.629   6.881  0.1398 -0.2846 -0.2181
 4731SOL    HW125826   3.950   3.556   6.821  0.1175 -0.7735  0.3874
 4731SOL    HW225827   3.876   3.664   6.881 -0.2185 -1.3060  3.3218
 4732SOL     OW25828   4.653   0.830   8.930 -0.4140 -0.2114 -0.7164
 4732SOL    HW125829   4.641   0.908   8.985 -0.0597 -0.0295 -0.8981
 4732SOL    HW225830   4.670   0.755   8.988 -1.7105 -0.0675 -0.1371
 4733SOL     OW25831   0.285   0.971  14.429 -0.4816  0.5883 -0.0808
 4733SOL    HW125832   0.298   0.958  14.523 -0.7527 -0.7334 -0.2317
 4733SOL    HW225833   0.324   1.058  14.425 -0.5793  0.7689  2.3472
 4734SOL     OW25834   3.586   2.654   1.848 -0.1138 -0.2312  0.3246
 4734SOL    HW125835   3.516   2.596   1.879 -0.6447  0.4663  0.4488
 4734SOL    HW225836   3.646   2.661   1.923 -0.4412  1.5626  0.4243
 4735SOL     OW25837   1.387   3.364   2.722 -0.0931  0.1049 -0.8220
 4735SOL    HW125838   1.459   3.318   2.765  0.2297 -0.1156 -1.5886
 4735SOL    HW225839   1.387   3.326   2.634 -1.7313 -0.7876 -0.4255
 4736SOL     OW25840   4.341   2.406   6.355 -1.2389  0.3574  0.3509
 4736SOL    HW125841   4.356   2.377   6.445 -1.6743  0.3462  0.4185
 4736SOL    HW225842   4.270   2.351   6.321  0.0078 -0.5469 -0.7937
 4737SOL     OW25843   3.272   3.348   2.011  0.3729  0.1289 -0.0068
 4737SOL    HW125844   3.315   3.381   1.933 -1.2527  0.7141 -0.6568
 4737SOL    HW225845   3.227   3.426   2.045 -1.8932 -1.9179  1.7400
 4738SOL     OW25846   2.247   3.234   5.357  0.2846 -0.1264 -0.3539
 4738SOL    HW125847   2.154   3.240   5.336  0.3394 -2.6968 -1.3255
 4738SOL    HW225848   2.291   3.235   5.272  0.9863  1.0899  0.0215
 4739SOL     OW25849   2.582   0.546  13.229  0.3652  0.3238  0.3878
 4739SOL    HW125850   2.556   0.534  13.320 -2.3401  0.7025 -0.3256
 4739SOL    HW225851   2.645   0.617  13.240 -0.5412  0.8223  2.3449
 4740SOL     OW25852   2.926   2.605   6.088  0.0852 -0.1892  0.5170
 4740SOL    HW125853   3.007   2.606   6.036  1.3496  1.1601  2.5371
 4740SOL    HW225854   2.933   2.668   6.159 -1.4975 -1.1429  1.5219
 4741SOL     OW25855   1.034   4.166  11.256  0.3525 -0.0443 -0.1114
 4741SOL    HW125856   1.090   4.197  11.184  0.7423  0.3973  0.3822
 4741SOL    HW225857   1.081   4.210  11.326 -0.1580 -1.8335  1.3370
 4742SOL     OW25858   0.834   2.144   7.549  0.5569 -0.1288  0.0533
 4742SOL    HW125859   0.856   2.233   7.519 -0.1764 -0.3326 -1.0808
 4742SOL    HW225860   0.751   2.168   7.591 -0.6747 -0.7155 -2.0088
 4743SOL     OW25861   0.286   0.144   2.023  0.1123  0.5871 -0.0306
 4743SOL    HW125862   0.268   0.050   2.022  2.1022  0.2379 -1.5332
 4743SOL    HW225863   0.380   0.141   2.039  0.1302 -0.8802 -0.3867
 4744SOL     OW25864   1.023   1.136   2.399 -0.0534 -0.2325  0.0361
 4744SOL    HW125865   0.934   1.136   2.363 -0.5284  1.5507  1.1894
 4744SOL    HW225866   1.013   1.202   2.468  2.0746 -2.0475  2.0927
 4745SOL     OW25867   2.435   0.992   7.363 -0.1370 -0.3199 -0.4404
 4745SOL    HW125868   2.377   0.915   7.358  1.3485 -1.4159 -0.7299
 4745SOL    HW225869   2.373   1.055   7.325 -1.8935 -1.5032  0.4387
 4746SOL     OW25870   4.446   1.403   5.143 -1.0602 -0.0767  0.2972
 4746SOL    HW125871   4.536   1.416   5.113 -0.3478  1.4586  2.9986
 4746SOL    HW225872   4.439   1.308   5.135 -0.1338 -0.1901  0.8083
 4747SOL     OW25873   0.633   1.963   3.754 -0.3867 -0.6432 -0.8080
 4747SOL    HW125874   0.574   2.038   3.763  0.2515 -0.1706 -0.5605
 4747SOL    HW225875   0.580   1.915   3.691 -0.4166 -1.7509  0.0791
 4748SOL     OW25876   3.911   3.248   5.370  0.3438  0.6266 -0.3254
 4748SOL    HW125877   3.971   3.183   5.334 -1.3720 -1.4123  0.4923
 4748SOL    HW225878   3.844   3.263   5.303 -0.1495 -1.0184 -0.2154
 4749SOL     OW25879   0.665   0.487  11.289 -0.0951  0.4413 -0.3058
 4749SOL    HW125880   0.672   0.396  11.262 -0.2773  0.3520 -0.0496
 4749SOL    HW225881   0.730   0.493  11.359  0.1662 -0.9247 -0.4423
 4750SOL     OW25882   3.296   2.718   5.177 -0.2718 -0.1250 -0.1790
 4750SOL    HW125883   3.215   2.683   5.214 -0.4046  1.0364  0.5968
 4750SOL    HW225884   3.338   2.756   5.254  0.0290 -0.8698  0.0283
 4751SOL     OW25885   0.867   1.873   2.302 -0.1148 -0.1767  0.5045
 4751SOL    HW125886   0.933   1.817   2.344 -2.4174 -2.0654  1.5997
 4751SOL    HW225887   0.864   1.846   2.210 -0.9692 -1.0692  0.7965
 4752SOL     OW25888   1.083   1.768  10.267 -0.6133 -0.2144  0.4341
 4752SOL    HW125889   1.149   1.781  10.200 -1.4240 -0.7466 -0.4652
 4752SOL    HW225890   1.100   1.848  10.317  2.2184 -0.3390 -0.3156
 4753SOL     OW25891   3.124   0.295   3.511 -0.2516  0.4745 -0.4805
 4753SOL    HW125892   3.137   0.237   3.436 -0.7698  0.0686 -0.2512
 4753SOL    HW225893   3.157   0.233   3.576 -0.0236  2.6974  1.5246
 4754SOL     OW25894   3.928   3.842   9.107  0.0184 -0.0685  1.1733
 4754SOL    HW125895   3.877   3.819   9.030 -0.4312  0.2391  1.3804
 4754SOL    HW225896   3.924   3.752   9.139  0.3597 -0.1120  1.0938
 4755SOL     OW25897   0.464   1.174   5.935 -0.9360  0.1680 -0.4473
 4755SOL    HW125898   0.478   1.268   5.946  4.2150 -0.6569 -0.3139
 4755SOL    HW225899   0.408   1.173   5.857 -2.2237  0.5302  0.4546
 4756SOL     OW25900   3.413   4.104   7.412 -0.1278  0.1038 -0.4231
 4756SOL    HW125901   3.397   4.100   7.506  0.1204  0.5736 -0.3633
 4756SOL    HW225902   3.325   4.125   7.380 -0.7241 -2.3270 -0.3873
 4757SOL     OW25903   4.350   3.518   6.687  0.0666  0.3642  0.4647
 4757SOL    HW125904   4.436   3.524   6.728  0.3743 -1.3064  0.0681
 4757SOL    HW225905   4.349   3.587   6.620 -2.9120  1.6314  1.8077
 4758SOL     OW25906   2.217   3.519  14.674  0.1655 -0.2162 -0.0831
 4758SOL    HW125907   2.204   3.431  14.637 -0.1932 -0.7410  1.2952
 4758SOL    HW225908   2.169   3.575  14.613 -0.2043  0.4261  0.8130
 4759SOL     OW25909   2.218   1.142   9.237 -0.6723 -0.3755  0.1828
 4759SOL    HW125910   2.153   1.111   9.174  0.3830 -0.4020 -0.8936
 4759SOL    HW225911   2.168   1.128   9.317  0.2992 -1.2124  0.6440
 4760SOL     OW25912   3.419   4.086   8.237  0.2442 -0.1039  0.2755
 4760SOL    HW125913   3.477   4.010   8.245 -0.7973 -1.1314 -2.0642
 4760SOL    HW225914   3.338   4.039   8.216 -0.0578  0.2078  0.7287
 4761SOL     OW25915   4.019   4.024   4.156 -0.0964 -0.2421  0.3906
 4761SOL    HW125916   4.079   4.035   4.230 -1.2932  1.7955  1.0538
 4761SOL    HW225917   3.940   4.065   4.190  1.3836  0.5441  2.9100
 4762SOL     OW25918   4.272   2.890   8.307 -0.2782  0.0293 -0.4319
 4762SOL    HW125919   4.348   2.835   8.320  1.0810  2.1827  0.7247
 4762SOL    HW225920   4.210   2.878   8.379 -0.1328 -1.0888 -0.4938
 4763SOL     OW25921   4.563   1.421   9.272 -0.5044 -0.1561  0.1209
 4763SOL    HW125922   4.594   1.338   9.306  1.5240 -0.1899 -1.7212
 4763SOL    HW225923   4.551   1.467   9.355  1.4298 -0.7061  0.7153
 4764SOL     OW25924   0.296   2.319   1.336 -0.0625  0.4151 -0.3497
 4764SOL    HW125925   0.264   2.407   1.354  0.5754  0.4197  0.7759
 4764SOL    HW225926   0.323   2.282   1.421  0.5503  0.0515 -0.7005
 4765SOL     OW25927   1.642   3.659  16.302  0.8759  0.5485 -0.4080
 4765SOL    HW125928   1.670   3.732  16.248  0.7084  0.4133 -0.6809
 4765SOL    HW225929   1.711   3.594  16.285 -0.1934  0.0815 -2.9576
 4766SOL     OW25930   1.638   3.303  17.195 -0.3434 -0.2847 -0.0219
 4766SOL    HW125931   1.701   3.254  17.249 -1.9323 -0.3624  1.7452
 4766SOL    HW225932   1.647   3.391  17.230  0.6757 -1.0781  1.7212
 4767SOL     OW25933   4.616   3.017  13.116 -0.1475  0.4858  0.6978
 4767SOL    HW125934   4.542   2.978  13.070  1.8450 -0.1179 -2.0543
 4767SOL    HW225935   4.651   3.076  13.049 -0.1618 -0.1259  0.1451
 4768SOL     OW25936   2.575   3.495   5.154  0.3260 -0.4487  0.1911
 4768SOL    HW125937   2.660   3.472   5.116  0.0930 -0.6023 -0.2316
 4768SOL    HW225938   2.603   3.546   5.230  1.2348 -1.3914  0.4884
 4769SOL     OW25939   2.646   0.607  10.892  0.0699 -0.2538  0.2399
 4769SOL    HW125940   2.688   0.622  10.806 -1.8085  2.1740 -0.2351
 4769SOL    HW225941   2.568   0.563  10.857  0.0844 -0.5973  0.6447
 4770SOL     OW25942   4.059   2.339  11.403  0.4294 -0.3384 -0.3075
 4770SOL    HW125943   3.966   2.357  11.395  0.6252  1.0564  0.4528
 4770SOL    HW225944   4.095   2.344  11.315 -0.1709 -2.7117 -0.6895
 4771SOL     OW25945   3.045   1.670   0.105  0.3120 -0.0658 -0.3597
 4771SOL    HW125946   3.050   1.577   0.127  0.1732 -0.2084 -0.9245
 4771SOL    HW225947   3.101   1.664   0.027  1.8671  2.1972  0.5810
 4772SOL     OW25948   0.657   2.707   6.322 -0.3555  1.0692 -0.2175
 4772SOL    HW125949   0.726   2.648   6.290 -0.5410  0.9293 -0.3569
 4772SOL    HW225950   0.697   2.748   6.398  0.4163 -3.3265  1.7358
 4773SOL     OW25951   4.301   2.261   5.117  0.0125 -0.1443 -0.0308
 4773SOL    HW125952   4.316   2.237   5.208  3.8778  0.8277 -0.4207
 4773SOL    HW225953   4.365   2.329   5.096  0.3381  0.1845  2.0922
 4774SOL     OW25954   4.088   3.257  17.137  0.8281 -0.0847 -0.1219
 4774SOL    HW125955   4.162   3.288  17.189  0.3626  2.0322 -0.7099
 4774SOL    HW225956   4.125   3.199  17.071 -1.1268 -1.1505 -0.2704
 4775SOL     OW25957   1.926   4.086   7.555  0.1354 -0.1286  0.2526
 4775SOL    HW125958   1.851   4.107   7.500 -0.9299 -0.9434  1.3834
 4775SOL    HW225959   1.984   4.039   7.495 -0.5587  1.4587 -1.6386
 4776SOL     OW25960   4.647   0.210   1.737 -0.4954  1.2201  0.2782
 4776SOL    HW125961   4.660   0.293   1.691 -1.1763  0.2195 -1.7090
 4776SOL    HW225962   4.737   0.199   1.769  0.1094 -2.9225 -2.8226
 4777SOL     OW25963   1.210   2.868  10.702 -0.2923 -0.3296 -0.0900
 4777SOL    HW125964   1.129   2.847  10.749  0.3836  0.3350  1.3429
 4777SOL    HW225965   1.177   2.869  10.612 -2.5916  0.3275  0.7720
 4778SOL     OW25966   3.794   1.203   7.789  0.0741 -0.0506  0.5757
 4778SOL    HW125967   3.707   1.234   7.765 -0.3596 -1.1855  0.6869
 4778SOL    HW225968   3.825   1.176   7.703 -0.3095 -1.5824  0.9024
 4779SOL     OW25969   0.522   4.289   5.814  0.0236 -0.4406  0.2731
 4779SOL    HW125970   0.462   4.357   5.786 -1.4350 -0.8192  2.5142
 4779SOL    HW225971   0.462   4.244   5.873 -1.7677  1.1740 -0.3409
 4780SOL     OW25972   4.699   4.065   9.867 -0.3656 -0.2955 -0.2119
 4780SOL    HW125973   0.016   4.016   9.806  1.0563 -0.8534  1.5321
 4780SOL    HW225974   4.731   4.023   9.947  0.9565 -1.5928 -1.4081
 4781SOL     OW25975   1.116   2.542   5.612  0.3977 -0.0787  0.1486
 4781SOL    HW125976   1.069   2.485   5.673 -1.9336 -0.5543 -2.0719
 4781SOL    HW225977   1.053   2.552   5.541 -0.4741  2.9647  1.3521
 4782SOL     OW25978   4.231   2.747   8.722  0.1821 -0.2321 -0.5097
 4782SOL    HW125979   4.170   2.798   8.669  1.7608 -0.0672 -2.1650
 4782SOL    HW225980   4.280   2.812   8.771  0.1759 -1.1575  0.7181
 4783SOL     OW25981   1.358   2.789  10.409 -0.2757  0.2729  0.0214
 4783SOL    HW125982   1.383   2.800  10.318 -0.1890  0.0531  0.0183
 4783SOL    HW225983   1.412   2.850  10.458  0.3867 -0.4322  0.1607
 4784SOL     OW25984   1.432   0.570   0.753 -0.3135  0.2743 -0.3882
 4784SOL    HW125985   1.456   0.500   0.693  0.6984  1.1380 -1.0045
 4784SOL    HW225986   1.510   0.586   0.807 -0.8198  2.0513 -0.1841
 4785SOL     OW25987   1.147   0.702   7.217 -0.0615 -0.4566  0.2970
 4785SOL    HW125988   1.110   0.772   7.163  0.7171  0.7254  1.3146
 4785SOL    HW225989   1.235   0.698   7.179 -0.0687  1.0897  0.1399
 4786SOL     OW25990   3.822   4.211   6.973  0.1716 -0.1248 -0.0263
 4786SOL    HW125991   3.907   4.175   6.947  0.3681  0.1750  0.1962
 4786SOL    HW225992   3.849   4.243   7.060 -1.1670  0.7887  0.0381
 4787SOL     OW25993   3.665   4.612   4.785 -0.6130 -0.1496 -0.5197
 4787SOL    HW125994   3.676   4.619   4.880  1.3342  0.8664 -0.8106
 4787SOL    HW225995   3.751   4.580   4.758 -1.4528  0.5641 -4.0943
 4788SOL     OW25996   2.430   2.473   6.719 -0.5091 -0.0434  0.1414
 4788SOL    HW125997   2.363   2.457   6.652  1.1610 -0.6126 -1.3998
 4788SOL    HW225998   2.381   2.451   6.798 -1.3422  2.2888  0.2699
 4789SOL     OW25999   2.681   2.037   0.239 -0.6434  0.3603  0.0807
 4789SOL    HW126000   2.625   2.086   0.179 -2.7841  1.1657  2.7411
 4789SOL    HW226001   2.773   2.066   0.236 -0.6403  0.4704  1.5886
 4790SOL     OW26002   1.267   3.660   7.468  0.3444  0.0682 -0.5942
 4790SOL    HW126003   1.252   3.728   7.401 -0.1037  2.3604  1.8247
 4790SOL    HW226004   1.310   3.717   7.532 -0.9881  1.5775 -1.0381
 4791SOL     OW26005   1.712   4.084  13.336  0.6946  0.1949  0.2944
 4791SOL    HW126006   1.632   4.118  13.296 -0.6962 -1.9242  1.2524
 4791SOL    HW226007   1.771   4.125  13.273 -0.7691  1.4981 -0.2246
 4792SOL     OW26008   1.665   2.830   7.110 -0.0942 -0.3595 -0.0055
 4792SOL    HW126009   1.708   2.835   7.025  0.4381 -1.9743  0.1797
 4792SOL    HW226010   1.716   2.759   7.147  0.4255 -1.5968 -3.0855
 4793SOL     OW26011   1.417   4.372  10.389 -0.0535  0.1061  0.2975
 4793SOL    HW126012   1.372   4.384  10.306 -0.6300  2.8203  1.0216
 4793SOL    HW226013   1.412   4.465  10.410  2.0856  0.6834 -1.6703
 4794SOL     OW26014   0.673   2.793   2.825  0.4472 -0.3536  0.0315
 4794SOL    HW126015   0.634   2.792   2.912 -0.2343 -1.3907 -0.2865
 4794SOL    HW226016   0.679   2.700   2.804  0.4605 -0.2757 -0.3103
 4795SOL     OW26017   2.011   1.073  11.997 -0.0101 -0.6379 -0.0561
 4795SOL    HW126018   1.915   1.072  12.006  0.0164 -1.6124  0.1669
 4795SOL    HW226019   2.026   0.995  11.943  1.4685  0.5120 -1.3006
 4796SOL     OW26020   1.747   4.485  10.892 -0.1424 -0.0530  0.0781
 4796SOL    HW126021   1.836   4.517  10.873 -0.7274  1.6117  0.1659
 4796SOL    HW226022   1.759   4.391  10.906  0.3172  0.1445  1.0268
 4797SOL     OW26023   2.638   3.840   4.169 -0.5006 -0.2046  0.1251
 4797SOL    HW126024   2.564   3.898   4.184 -1.3065 -1.0020 -0.8132
 4797SOL    HW226025   2.669   3.881   4.089 -0.3427 -0.8784 -0.1539
 4798SOL     OW26026   4.262   0.207   8.223 -0.0773 -0.6138  0.1079
 4798SOL    HW126027   4.240   0.178   8.312 -1.9620  0.9385  0.1627
 4798SOL    HW226028   4.186   0.265   8.210  0.2269 -0.0281  0.9210
 4799SOL     OW26029   2.393   3.563   4.574  0.3670 -0.0226  0.0437
 4799SOL    HW126030   2.374   3.556   4.481 -1.7773 -0.6611  0.5289
 4799SOL    HW226031   2.463   3.629   4.577 -1.6666  2.2934 -3.1290
 4800SOL     OW26032   3.151   1.400  16.242 -0.4123  0.6684 -0.4035
 4800SOL    HW126033   3.126   1.308  16.246  0.5768  0.3032 -2.9846
 4800SOL    HW226034   3.072   1.453  16.230 -0.9758  0.3763  2.0350
 4801SOL     OW26035   3.001   1.282  10.381 -0.3707 -0.5488 -0.6250
 4801SOL    HW126036   2.942   1.335  10.435  0.6527  1.2209 -1.2074
 4801SOL    HW226037   3.054   1.248  10.453  0.2183  0.0608 -0.7603
 4802SOL     OW26038   3.275   2.955  15.575  0.3860  0.0534 -0.0718
 4802SOL    HW126039   3.288   3.036  15.624 -0.3450 -0.4598  0.9521
 4802SOL    HW226040   3.182   2.940  15.560  0.0396 -0.1943  2.4367
 4803SOL     OW26041   2.178   1.746  12.140  0.2022 -0.0879 -0.2191
 4803SOL    HW126042   2.250   1.738  12.203  1.4403  0.1253 -1.6119
 4803SOL    HW226043   2.164   1.840  12.127 -0.7365 -0.1914  0.0924
 4804SOL     OW26044   1.000   0.648   1.817  0.1298 -0.5922  0.6775
 4804SOL    HW126045   0.925   0.688   1.772  0.4376 -3.6186 -2.5961
 4804SOL    HW226046   0.964   0.621   1.901 -2.9602 -2.1174 -1.1319
 4805SOL     OW26047   0.707   4.255   7.742  0.5450 -0.4733  0.4051
 4805SOL    HW126048   0.627   4.205   7.728 -0.0270  0.8179 -0.8354
 4805SOL    HW226049   0.737   4.206   7.819  0.6528 -0.2012  0.5332
 4806SOL     OW26050   1.016   0.483   4.567 -0.2388 -0.2277 -0.0513
 4806SOL    HW126051   1.084   0.481   4.499  0.7479 -0.0124  0.9246
 4806SOL    HW226052   0.963   0.404   4.553  1.5237 -1.5229  0.5576
 4807SOL     OW26053   0.857   2.291   6.748 -0.0296 -0.0421  0.0863
 4807SOL    HW126054   0.768   2.324   6.762 -1.0474 -2.4293 -0.8764
 4807SOL    HW226055   0.906   2.355   6.800 -3.5884  3.2039 -0.6318
 4808SOL     OW26056   1.650   1.621  13.965 -0.0174  0.0302  0.6290
 4808SOL    HW126057   1.678   1.659  14.048  2.0960  2.8623 -1.3344
 4808SOL    HW226058   1.570   1.671  13.949 -0.3622 -0.5335  0.5907
 4809SOL     OW26059   4.606   1.578  13.226 -0.4947 -0.1648  0.2026
 4809SOL    HW126060   4.656   1.656  13.252  0.8476 -0.4733 -1.4328
 4809SOL    HW226061   4.575   1.539  13.308  0.2037 -0.7225  0.1975
 4810SOL     OW26062   2.152   1.554   7.193  0.0753  0.4870  0.2202
 4810SOL    HW126063   2.235   1.596   7.215  1.0339 -0.5937 -1.3216
 4810SOL    HW226064   2.120   1.612   7.124  0.6987  0.6442  0.0675
 4811SOL     OW26065   3.098   2.194   7.855  0.3633  0.4721 -0.4621
 4811SOL    HW126066   3.188   2.227   7.863  0.0657  1.0068  0.6197
 4811SOL    HW226067   3.097   2.112   7.904  0.6781  0.7205 -0.0437
 4812SOL     OW26068   2.922   0.649   9.773 -0.2621  0.1428  0.3537
 4812SOL    HW126069   2.911   0.631   9.866  1.5423 -1.1088  0.3239
 4812SOL    HW226070   2.942   0.562   9.739  1.3612  0.1242  1.3714
 4813SOL     OW26071   4.038   3.770   3.251  0.0287  0.5301  0.0091
 4813SOL    HW126072   4.082   3.693   3.214 -0.2968  0.4168 -0.1420
 4813SOL    HW226073   3.947   3.759   3.225  0.1026 -0.2351  0.0665
 4814SOL     OW26074   4.723   2.515   2.320 -0.0199  0.3018  0.5118
 4814SOL    HW126075   4.718   2.512   2.415  0.1631 -0.1247  0.5104
 4814SOL    HW226076   0.016   2.605   2.314 -0.5394  0.2903 -2.2496
 4815SOL     OW26077   1.300   0.324   3.881  0.2722  0.2416 -0.5412
 4815SOL    HW126078   1.233   0.280   3.934  1.0651 -2.3777 -1.6884
 4815SOL    HW226079   1.324   0.392   3.944 -1.4248  1.7454 -1.5250
 4816SOL     OW26080   2.124   2.280   2.717 -0.0474  0.2338 -0.1207
 4816SOL    HW126081   2.142   2.251   2.627 -0.9807 -1.0716  0.1144
 4816SOL    HW226082   2.042   2.235   2.737  0.6059 -1.6751 -1.7401
 4817SOL     OW26083   0.810   3.077  10.707  0.6734 -0.0350 -0.2537
 4817SOL    HW126084   0.741   3.071  10.641  0.8321 -0.5829 -0.3681
 4817SOL    HW226085   0.884   3.123  10.667 -0.7544 -0.1115 -3.0364
 4818SOL     OW26086   2.681   1.389  15.547  0.3559 -0.2687  0.4796
 4818SOL    HW126087   2.679   1.430  15.633  1.8979  0.2323  0.2852
 4818SOL    HW226088   2.768   1.401  15.510 -0.1099 -1.3480 -0.9652
 4819SOL     OW26089   2.482   1.924   1.150 -0.2793  0.3598  0.0301
 4819SOL    HW126090   2.515   2.013   1.160  0.1453  0.3262 -0.9940
 4819SOL    HW226091   2.546   1.872   1.198 -0.1805 -0.2291 -0.7235
 4820SOL     OW26092   0.014   2.391   8.569  0.0807 -0.1185 -0.2171
 4820SOL    HW126093   0.042   2.480   8.548  1.4689 -0.1854  1.3739
 4820SOL    HW226094   4.699   2.408   8.646 -2.3015 -0.2121 -1.8538
 4821SOL     OW26095   4.428   2.867   3.905  0.1301 -0.1430 -0.6442
 4821SOL    HW126096   4.352   2.886   3.850 -0.9993 -3.6996 -0.3268
 4821SOL    HW226097   4.429   2.937   3.971 -0.7150 -0.8123  0.0835
 4822SOL     OW26098   2.204   2.442   6.571 -0.0656 -0.0514 -0.0314
 4822SOL    HW126099   2.111   2.419   6.566  0.0397 -0.5614  0.3476
 4822SOL    HW226100   2.203   2.535   6.595  3.8286  0.8630 -3.4577
 4823SOL     OW26101   4.154   1.087   6.398 -0.3084 -0.0828  0.1954
 4823SOL    HW126102   4.140   1.109   6.306  1.8774 -2.7419 -0.7597
 4823SOL    HW226103   4.175   1.177   6.424  1.0387 -0.1256 -0.7287
 4824SOL     OW26104   1.266   2.336   2.760 -0.0813  0.6922  0.0381
 4824SOL    HW126105   1.264   2.388   2.679  1.9097  1.3750  0.4227
 4824SOL    HW226106   1.274   2.406   2.825 -1.5647 -0.1274  1.0841
 4825SOL     OW26107   4.050   1.639   0.188 -0.3138 -0.1772 -0.0866
 4825SOL    HW126108   4.145   1.632   0.177 -0.2277  2.3904 -0.9700
 4825SOL    HW226109   4.040   1.685   0.272 -0.1060 -1.2151  0.5121
 4826SOL     OW26110   1.691   2.812   4.438  0.1851 -0.1056 -0.4855
 4826SOL    HW126111   1.755   2.766   4.492  0.3746  0.5389 -0.1563
 4826SOL    HW226112   1.729   2.818   4.351  0.7303  0.7392 -0.1903
 4827SOL     OW26113   2.010   3.669   1.927 -0.2493  0.2502  0.1858
 4827SOL    HW126114   2.067   3.647   2.001  0.2151 -3.1947 -1.2081
 4827SOL    HW226115   2.046   3.753   1.901  0.0728 -0.9975 -3.3426
 4828SOL     OW26116   4.582   2.311   3.650 -0.4081  0.0439  0.3266
 4828SOL    HW126117   4.512   2.285   3.589  0.0299  0.1571 -0.2250
 4828SOL    HW226118   4.557   2.257   3.725 -0.7944  0.1776  0.2903
 4829SOL     OW26119   4.408   0.479  13.951 -0.3375  0.3387 -0.2255
 4829SOL    HW126120   4.494   0.486  13.991 -0.3129  0.1010 -0.2332
 4829SOL    HW226121   4.357   0.556  13.974 -0.5668 -0.0408  0.5354
 4830SOL     OW26122   1.097   3.655   6.810  0.3081 -0.1597  0.2908
 4830SOL    HW126123   1.117   3.687   6.722  2.7026 -0.6335  0.6776
 4830SOL    HW226124   1.146   3.572   6.807 -1.9718 -1.4972 -0.3360
 4831SOL     OW26125   0.260   3.137  17.427  0.0467  0.2384  0.4591
 4831SOL    HW126126   0.236   3.149  17.519 -1.1330  2.3516 -0.1244
 4831SOL    HW226127   0.243   3.044  17.415 -1.6833  0.2171  3.1835
 4832SOL     OW26128   2.667   1.762   3.083  0.0863 -0.1492 -0.0840
 4832SOL    HW126129   2.630   1.743   2.997 -1.3590  1.1801  0.2599
 4832SOL    HW226130   2.596   1.726   3.137  0.1519 -1.6319 -0.9857
 4833SOL     OW26131   1.206   3.669   1.596  0.6283  0.7916 -0.1968
 4833SOL    HW126132   1.252   3.622   1.526  2.3168  1.3206  0.5586
 4833SOL    HW226133   1.234   3.623   1.674 -0.1163  1.1151  0.2618
 4834SOL     OW26134   2.293   3.439   3.109  1.0182  0.3214  0.0965
 4834SOL    HW126135   2.281   3.533   3.118 -1.1007  0.2548 -2.2326
 4834SOL    HW226136   2.310   3.428   3.016 -1.9949  2.6744 -0.7298
 4835SOL     OW26137   3.081   3.616   1.824 -0.6811 -0.0174  0.0410
 4835SOL    HW126138   3.104   3.709   1.832 -0.3751  0.0663 -1.8363
 4835SOL    HW226139   3.047   3.592   1.910 -0.1477 -0.3828  0.1439
 4836SOL     OW26140   1.277   3.942   9.320 -0.2080 -0.7042  0.3112
 4836SOL    HW126141   1.370   3.940   9.298 -0.3689 -0.5285 -0.3786
 4836SOL    HW226142   1.283   3.964   9.413  1.0646  1.6054 -0.3173
 4837SOL     OW26143   1.084   4.042   5.913 -0.3986 -0.3516  0.4024
 4837SOL    HW126144   1.165   4.033   5.963  1.2635  1.5381 -1.9208
 4837SOL    HW226145   1.040   4.116   5.954  1.7692  1.5372 -0.6437
 4838SOL     OW26146   4.700   2.759   9.812 -0.0733 -0.2562  0.0424
 4838SOL    HW126147   0.056   2.755   9.802 -0.3570 -0.5893 -2.4823
 4838SOL    HW226148   4.687   2.830   9.875  0.8416  0.2644 -0.3684
 4839SOL     OW26149   2.399   4.081  14.563  0.1626  0.1647  0.0714
 4839SOL    HW126150   2.324   4.023  14.551 -0.5810  0.9293  1.0050
 4839SOL    HW226151   2.423   4.117  14.478  1.1973  0.2902  0.4140
 4840SOL     OW26152   4.079   0.210  10.219  0.1066 -0.2027  0.2095
 4840SOL    HW126153   4.151   0.272  10.209 -0.7185  0.5496 -1.1210
 4840SOL    HW226154   4.060   0.184  10.128 -2.0935 -2.8106  1.4278
 4841SOL     OW26155   0.829   0.739   6.093  0.8214  0.1689  0.2952
 4841SOL    HW126156   0.768   0.776   6.157 -0.7183 -0.8217 -0.5870
 4841SOL    HW226157   0.856   0.815   6.041 -2.4579 -0.6610 -2.5908
 4842SOL     OW26158   4.488   0.380  13.113 -0.5525 -0.3708  0.2011
 4842SOL    HW126159   4.395   0.364  13.131 -0.5320  0.5733  1.1470
 4842SOL    HW226160   4.469   0.455  13.057  2.3469 -0.3561 -0.7293
 4843SOL     OW26161   0.726   4.390   8.064 -0.2336 -0.5008  0.0328
 4843SOL    HW126162   0.644   4.433   8.038 -0.9409  0.5983  4.0565
 4843SOL    HW226163   0.733   4.318   8.002 -1.5188 -0.0073 -0.6763
 4844SOL     OW26164   1.908   2.065  15.313  0.2416 -0.0330 -0.0621
 4844SOL    HW126165   1.878   2.050  15.224 -0.5920 -0.2975  0.2673
 4844SOL    HW226166   1.993   2.023  15.297  1.7007  2.5136  0.9112
 4845SOL     OW26167   0.558   0.658   5.483  0.1797 -0.4021 -0.2518
 4845SOL    HW126168   0.485   0.600   5.505  0.6331 -0.4024  1.2277
 4845SOL    HW226169   0.523   0.747   5.489  0.2107 -0.5739  2.3539
 4846SOL     OW26170   4.412   2.904   4.247 -0.2194  0.2583 -0.1416
 4846SOL    HW126171   4.317   2.901   4.231 -0.5366 -1.3165  2.0549
 4846SOL    HW226172   4.438   2.815   4.269 -0.6347  0.0887 -0.3437
 4847SOL     OW26173   1.272   4.046   6.109  0.3167 -0.0050  0.0462
 4847SOL    HW126174   1.235   4.056   6.197  0.0845  2.7132 -0.3772
 4847SOL    HW226175   1.285   3.951   6.117 -0.1636  0.0580  1.6222
 4848SOL     OW26176   3.344   3.709   0.051 -0.1075 -0.2544  0.0148
 4848SOL    HW126177   3.268   3.759   0.083  0.7875 -0.5786  2.6406
 4848SOL    HW226178   3.369   3.646   0.119 -0.2059  0.0410  0.3303
 4849SOL     OW26179   4.353   3.890   4.757  0.2860 -0.0230  0.1735
 4849SOL    HW126180   4.428   3.895   4.816  1.1787  0.4546 -1.0015
 4849SOL    HW226181   4.361   3.800   4.726 -1.6589 -0.7017  1.6795
 4850SOL     OW26182   0.513   3.688  15.151  0.0111 -0.7907  0.0751
 4850SOL    HW126183   0.533   3.626  15.221  2.2015 -0.6326 -0.4023
 4850SOL    HW226184   0.517   3.774  15.192 -2.1090 -1.2801  1.3097
 4851SOL     OW26185   3.998   2.031   1.025  0.5854 -0.3898  0.2310
 4851SOL    HW126186   4.034   2.079   0.950 -1.6980  1.2703  0.1829
 4851SOL    HW226187   3.910   2.012   0.992  0.4483  2.0785 -0.8210
 4852SOL     OW26188   2.678   2.876   8.018 -0.3472  0.1736 -0.6298
 4852SOL    HW126189   2.655   2.967   8.001 -1.0761  0.2152  0.5442
 4852SOL    HW226190   2.591   2.846   8.046 -0.1327  1.6243  1.5812
 4853SOL     OW26191   1.728   4.406   7.650 -0.4410  0.2101  0.0351
 4853SOL    HW126192   1.720   4.312   7.668  0.1091 -0.3548 -2.7289
 4853SOL    HW226193   1.799   4.436   7.707 -0.6134  0.5440  0.0723
 4854SOL     OW26194   0.592   3.152  14.580 -0.3370  0.2387  0.5334
 4854SOL    HW126195   0.666   3.188  14.628 -1.7819  3.3368  0.4371
 4854SOL    HW226196   0.587   3.063  14.615 -0.4357  0.1426  0.2792
 4855SOL     OW26197   2.810   2.617   0.857  0.0199  0.4521  0.2449
 4855SOL    HW126198   2.753   2.666   0.798  1.1521  0.7000 -0.6242
 4855SOL    HW226199   2.853   2.688   0.904 -0.8980  1.6079 -0.6690
 4856SOL     OW26200   2.746   2.896   0.922 -0.1097  0.3999  0.4312
 4856SOL    HW126201   2.670   2.841   0.941 -2.2940  2.8278 -1.2751
 4856SOL    HW226202   2.701   2.977   0.898  0.3327  0.4239 -0.3269
 4857SOL     OW26203   1.476   3.197   8.338  0.3013  0.8285  0.2493
 4857SOL    HW126204   1.459   3.271   8.280 -0.9156 -1.1330 -1.9169
 4857SOL    HW226205   1.571   3.203   8.346  0.1146  2.3797  1.3525
 4858SOL     OW26206   1.150   2.435   2.115 -0.4070 -0.2250 -0.4305
 4858SOL    HW126207   1.113   2.485   2.187 -0.0774  0.1041 -0.4842
 4858SOL    HW226208   1.138   2.498   2.044 -1.2377  1.2734  1.0477
 4859SOL     OW26209   3.481   3.544   3.536 -0.4260  0.6937  0.4803
 4859SOL    HW126210   3.571   3.517   3.520 -1.5109 -2.5682 -0.0864
 4859SOL    HW226211   3.430   3.490   3.476  1.2103  1.6465 -1.7494
 4860SOL     OW26212   2.759   4.378   5.433  0.1404 -0.1608 -1.0168
 4860SOL    HW126213   2.779   4.468   5.409  1.0633 -0.5907 -1.8507
 4860SOL    HW226214   2.778   4.394   5.526  0.9123  1.2346 -1.4123
 4861SOL     OW26215   1.086   1.361  13.328 -0.0310  0.3715 -0.4020
 4861SOL    HW126216   0.996   1.392  13.325 -0.1655 -0.1939 -2.6043
 4861SOL    HW226217   1.127   1.429  13.274  2.8721 -0.5614  0.6179
 4862SOL     OW26218   3.593   1.620  13.625  0.2789 -0.3449 -0.0648
 4862SOL    HW126219   3.676   1.667  13.616  0.1451 -0.1861 -0.5081
 4862SOL    HW226220   3.615   1.531  13.649  1.9854 -0.1400 -0.9042
 4863SOL     OW26221   2.502   1.920   6.521 -0.3938  0.0468 -0.6594
 4863SOL    HW126222   2.472   1.873   6.443  0.4737 -0.8916 -0.4263
 4863SOL    HW226223   2.540   2.002   6.488  1.6599 -1.0794 -1.0596
 4864SOL     OW26224   3.153   2.217   6.858  0.9337  0.2299  0.4978
 4864SOL    HW126225   3.210   2.268   6.916 -0.0570  2.1379 -0.1894
 4864SOL    HW226226   3.119   2.290   6.805  1.1682  0.4019  0.5831
 4865SOL     OW26227   4.672   3.213   7.793  0.1163 -0.1051  0.2213
 4865SOL    HW126228   4.720   3.216   7.876  1.4807 -1.7134 -0.5091
 4865SOL    HW226229   4.615   3.137   7.808 -0.0578 -0.2225 -1.0407
 4866SOL     OW26230   1.684   3.810   6.559  0.0508 -0.0272  0.3696
 4866SOL    HW126231   1.619   3.752   6.519 -1.0641  1.4092  0.1128
 4866SOL    HW226232   1.709   3.876   6.494 -0.5678 -0.0777  0.0817
 4867SOL     OW26233   0.287   2.000   3.770  0.4378  0.0144  0.0043
 4867SOL    HW126234   0.339   1.936   3.721 -0.3370  0.2326 -1.1226
 4867SOL    HW226235   0.329   2.079   3.735  1.3243  0.2810  1.6612
 4868SOL     OW26236   2.820   1.377   3.595  0.4925 -0.1113 -0.2665
 4868SOL    HW126237   2.842   1.287   3.570 -0.3898 -0.4364  0.1478
 4868SOL    HW226238   2.795   1.395   3.504  0.4071 -2.6474 -0.7640
 4869SOL     OW26239   0.888   1.384   1.913  0.3651 -0.1383 -0.0572
 4869SOL    HW126240   0.965   1.440   1.919 -1.4407  2.6841 -2.9618
 4869SOL    HW226241   0.825   1.455   1.928 -0.3079 -0.3333 -1.9779
 4870SOL     OW26242   1.419   3.008   5.793 -0.3224  0.4581  0.0063
 4870SOL    HW126243   1.445   3.097   5.818 -0.2216  0.8274 -1.3778
 4870SOL    HW226244   1.391   3.011   5.701 -0.4844 -0.8278  0.0139
 4871SOL     OW26245   2.782   3.539   7.188  0.5555  0.0140  0.1603
 4871SOL    HW126246   2.731   3.619   7.174  4.2884  1.9233 -2.6195
 4871SOL    HW226247   2.867   3.581   7.203 -0.3916  1.4870  1.4282
 4872SOL     OW26248   1.637   3.749   6.063  0.3638  0.3836 -0.6805
 4872SOL    HW126249   1.669   3.839   6.056 -1.4055  0.9634 -1.4329
 4872SOL    HW226250   1.688   3.718   6.138  0.1887  1.5600 -0.0747
 4873SOL     OW26251   4.329   4.716   7.430  0.0976  0.3631  0.4649
 4873SOL    HW126252   4.304   4.717   7.522 -1.5353  1.6349  0.0010
 4873SOL    HW226253   4.377   4.634   7.425 -0.6114  0.1707 -3.4287
 4874SOL     OW26254   2.600   4.134   5.002  0.0337 -1.1615  0.4591
 4874SOL    HW126255   2.556   4.056   5.035 -0.3577 -0.6166  1.2379
 4874SOL    HW226256   2.656   4.166   5.072 -1.1467  0.0544  0.8478
 4875SOL     OW26257   0.988   4.509   3.441 -0.9009  0.1638  0.3981
 4875SOL    HW126258   0.902   4.474   3.463 -0.9920  0.9259  1.2424
 4875SOL    HW226259   0.970   4.595   3.479 -0.6415  0.8966 -1.1267
 4876SOL     OW26260   3.301   2.194  10.091 -0.0876 -0.2712 -0.0191
 4876SOL    HW126261   3.241   2.174  10.018  0.4314  2.0806 -1.0745
 4876SOL    HW226262   3.326   2.102  10.103 -1.4970 -0.2418  3.1407
 4877SOL     OW26263   3.677   3.169  11.316  0.1734  0.4874 -0.8049
 4877SOL    HW126264   3.768   3.150  11.339 -0.0178  1.2459  0.5316
 4877SOL    HW226265   3.692   3.263  11.326  2.7047  0.3621 -3.3847
 4878SOL     OW26266   0.889   3.950  15.473  0.3397  0.3671 -0.4293
 4878SOL    HW126267   0.817   3.887  15.468  0.3847  0.1967  1.0827
 4878SOL    HW226268   0.942   3.928  15.397  3.6315 -0.1618  1.9774
 4879SOL     OW26269   3.473   0.712   9.003  0.0594  0.4227 -0.3020
 4879SOL    HW126270   3.378   0.720   8.999 -0.0762 -0.8605  0.4259
 4879SOL    HW226271   3.488   0.753   9.088  0.5698  1.9347 -1.1049
 4880SOL     OW26272   0.522   2.843   7.257  0.0022  0.4634  0.1749
 4880SOL    HW126273   0.483   2.847   7.169  0.0505  2.1090  0.2308
 4880SOL    HW226274   0.594   2.905   7.252 -0.3473  0.6558 -2.9727
 4881SOL     OW26275   3.592   0.294  14.461  0.5826  0.6561 -0.4809
 4881SOL    HW126276   3.666   0.289  14.401  0.8553  2.3877 -0.2876
 4881SOL    HW226277   3.636   0.354  14.521 -0.1008  2.2797 -1.5897
 4882SOL     OW26278   2.269   3.212   6.436 -0.1861  0.0742  0.2944
 4882SOL    HW126279   2.323   3.291   6.425 -0.5436 -0.1266 -2.9334
 4882SOL    HW226280   2.261   3.195   6.343  1.2856  0.3865  0.1023
 4883SOL     OW26281   2.051   1.633   4.652 -0.2168  0.1926 -0.3303
 4883SOL    HW126282   2.025   1.541   4.650  4.4778 -1.1331  0.1234
 4883SOL    HW226283   2.041   1.645   4.747  1.2578 -0.2745 -0.1050
 4884SOL     OW26284   4.138   1.731   6.173  0.6730  0.0302  0.0228
 4884SOL    HW126285   4.210   1.773   6.126 -0.6271  0.2132 -1.7824
 4884SOL    HW226286   4.149   1.758   6.264 -0.7831  0.1408  0.1703
 4885SOL     OW26287   2.030   0.917   7.521 -0.2545 -0.3751  0.2252
 4885SOL    HW126288   2.103   0.891   7.465 -0.2357 -0.2680  0.2009
 4885SOL    HW226289   2.063   1.006   7.534  1.9294 -1.2914  0.9751
 4886SOL     OW26290   2.468   0.930   4.743  0.0031 -0.4028 -0.4581
 4886SOL    HW126291   2.391   0.986   4.739  0.9754  1.2171  3.4465
 4886SOL    HW226292   2.464   0.917   4.648  0.7390  0.0766 -0.5529
 4887SOL     OW26293   1.819   1.350   4.275  0.0588 -0.8395 -0.1303
 4887SOL    HW126294   1.907   1.313   4.267  0.7897  1.5318 -3.1201
 4887SOL    HW226295   1.851   1.438   4.252  1.0799 -0.4115  2.9707
 4888SOL     OW26296   4.711   3.390   8.706  0.4235  0.0818 -0.1438
 4888SOL    HW126297   0.035   3.367   8.774  0.8317 -2.6238 -1.4257
 4888SOL    HW226298   4.643   3.433   8.758 -0.1973  0.0077 -0.8902
 4889SOL     OW26299   4.381   1.844   5.777  0.1673 -0.0651 -0.5544
 4889SOL    HW126300   4.467   1.885   5.783 -0.7610  1.8780 -0.6450
 4889SOL    HW226301   4.317   1.915   5.782 -0.0022 -0.4147  2.5745
 4890SOL     OW26302   3.914   4.433   7.429 -0.1180 -0.4036 -0.2202
 4890SOL    HW126303   3.974   4.413   7.501  2.6207 -0.5549 -2.5672
 4890SOL    HW226304   3.830   4.397   7.458  0.4112 -1.3506  0.1253
 4891SOL     OW26305   4.457   3.724  13.355  0.5289 -0.0588  0.3171
 4891SOL    HW126306   4.458   3.631  13.376 -0.4053 -0.5308 -1.7013
 4891SOL    HW226307   4.375   3.739  13.308 -0.3279  0.9723  2.1400
 4892SOL     OW26308   2.775   3.456   7.632 -0.1791 -0.6382  1.0976
 4892SOL    HW126309   2.714   3.518   7.673  1.0668  0.5683  1.1002
 4892SOL    HW226310   2.716   3.410   7.572 -0.0795 -0.9220  1.2172
 4893SOL     OW26311   4.714   3.111  12.024 -0.0120 -0.2566  0.4741
 4893SOL    HW126312   0.053   3.059  12.006 -0.3086 -0.6783  0.4118
 4893SOL    HW226313   4.734   3.183  11.964  0.9360  0.2303  1.3815
 4894SOL     OW26314   4.192   4.398   0.791  0.1812  0.2477 -0.3061
 4894SOL    HW126315   4.193   4.371   0.699  0.6726 -1.0416  0.0875
 4894SOL    HW226316   4.144   4.480   0.776  1.9979  0.7930 -3.1252
 4895SOL     OW26317   3.874   2.327   9.377  0.2891  0.3140  0.3155
 4895SOL    HW126318   3.953   2.380   9.382 -0.0982  0.8839  0.4052
 4895SOL    HW226319   3.854   2.316   9.470  1.1207  1.1132  0.5835
 4896SOL     OW26320   0.772   2.717   5.315 -0.2746 -0.1778 -0.2876
 4896SOL    HW126321   0.816   2.796   5.348 -0.8811  1.6733 -3.8455
 4896SOL    HW226322   0.679   2.717   5.338 -0.9294  0.1123 -2.8481
 4897SOL     OW26323   1.485   4.044   4.076  0.3484  0.1139 -0.0431
 4897SOL    HW126324   1.461   4.080   4.162 -1.1734 -0.0799 -0.3949
 4897SOL    HW226325   1.453   4.117   4.024 -1.4194  0.9166  2.1549
 4898SOL     OW26326   2.285   1.394   5.780 -0.5792  0.0074  0.1658
 4898SOL    HW126327   2.264   1.387   5.686  0.4744  3.5997 -0.3154
 4898SOL    HW226328   2.379   1.377   5.786 -0.6642 -1.3596 -2.1301
 4899SOL     OW26329   3.249   3.002   8.115 -0.3944  0.3014  0.9865
 4899SOL    HW126330   3.309   2.938   8.077 -0.7412  0.9058 -0.5843
 4899SOL    HW226331   3.174   2.984   8.058 -0.7074  3.1393  0.4828
 4900SOL     OW26332   0.531   3.010  11.466 -0.0860  0.1145 -0.2146
 4900SOL    HW126333   0.448   2.963  11.467  1.1759 -2.0996  2.3331
 4900SOL    HW226334   0.534   3.078  11.400 -1.8902  3.0342  2.7420
 4901SOL     OW26335   0.350   0.052   1.385  0.1297  0.9490  0.1710
 4901SOL    HW126336   0.273   0.022   1.337 -0.4077  0.0544  1.6023
 4901SOL    HW226337   0.326   0.039   1.477  0.8615  0.3408  0.2823
 4902SOL     OW26338   2.591   1.656   5.551 -0.3455  0.1160  0.0199
 4902SOL    HW126339   2.666   1.699   5.510  1.3959 -0.7510  2.3020
 4902SOL    HW226340   2.616   1.639   5.641 -1.8856  0.8524  0.5830
 4903SOL     OW26341   2.975   3.916   8.779 -0.4577  0.5887  0.1066
 4903SOL    HW126342   3.031   3.972   8.834  0.0301  0.0763  0.1347
 4903SOL    HW226343   2.921   3.873   8.846 -0.4881  0.1121 -0.2228
 4904SOL     OW26344   2.494   0.979  10.414  0.7175 -0.1052  0.1343
 4904SOL    HW126345   2.567   1.031  10.380 -1.0220  3.6146  2.1492
 4904SOL    HW226346   2.476   1.008  10.503  2.5398  1.0178  0.1286
 4905SOL     OW26347   1.373   2.915   4.543  0.0053  0.1788  0.0663
 4905SOL    HW126348   1.337   3.000   4.516 -2.5663 -0.5988  1.0104
 4905SOL    HW226349   1.387   2.858   4.468  1.7263 -0.7789  1.1063
 4906SOL     OW26350   4.115   3.229   0.471 -0.1613 -0.1689  0.1119
 4906SOL    HW126351   4.160   3.231   0.555 -1.8495  0.9853  1.0001
 4906SOL    HW226352   4.185   3.252   0.411  0.8322 -0.0245  1.3364
 4907SOL     OW26353   2.695   1.565   8.754  0.7320 -0.2940 -0.1096
 4907SOL    HW126354   2.608   1.606   8.749  1.0143 -0.0155 -2.7510
 4907SOL    HW226355   2.672   1.496   8.817  0.0549 -0.6796 -0.7883
 4908SOL     OW26356   2.986   2.380   6.681 -0.0045  0.1295 -0.0183
 4908SOL    HW126357   2.891   2.366   6.687 -0.0468  1.1767  1.7926
 4908SOL    HW226358   2.989   2.468   6.718  0.8522  0.5508 -1.1059
 4909SOL     OW26359   0.842   4.727   5.746 -0.5523 -0.2786  0.2474
 4909SOL    HW126360   0.860   4.633   5.740  1.9884  0.1585  0.8531
 4909SOL    HW226361   0.747   4.729   5.746 -0.5316  0.8738  0.7348
 4910SOL     OW26362   0.103   1.321   3.050 -0.1349 -0.2217  0.4438
 4910SOL    HW126363   0.140   1.291   2.967 -2.7217 -2.7547  0.2028
 4910SOL    HW226364   0.088   1.241   3.101 -1.6498 -0.1239  0.1398
 4911SOL     OW26365   0.058   1.938   3.622 -0.1655  0.0354  0.0376
 4911SOL    HW126366   0.018   1.905   3.703 -0.4925 -0.0001 -0.1361
 4911SOL    HW226367   0.147   1.961   3.647 -0.3122 -0.6859  1.2004
 4912SOL     OW26368   4.208   4.275   0.523  0.3573 -0.2789  0.0743
 4912SOL    HW126369   4.218   4.349   0.464 -1.3085 -0.7158 -0.7655
 4912SOL    HW226370   4.285   4.220   0.517  0.6016 -0.0294  0.8630
 4913SOL     OW26371   2.996   3.213   3.719  0.5276 -0.1986 -0.2531
 4913SOL    HW126372   2.968   3.264   3.795  0.6922 -1.0589  0.3891
 4913SOL    HW226373   2.916   3.164   3.698  0.5517 -0.6653  0.7107
 4914SOL     OW26374   2.143   0.928   4.501 -0.5750  0.8849  0.3476
 4914SOL    HW126375   2.192   0.929   4.418 -2.8731 -0.2455 -1.0223
 4914SOL    HW226376   2.112   0.838   4.502 -0.0509  0.6969 -0.4703
 4915SOL     OW26377   3.934   3.135   2.599  0.2390  0.2763 -0.2707
 4915SOL    HW126378   3.932   3.073   2.526 -0.7067  1.3023 -1.1029
 4915SOL    HW226379   4.028   3.148   2.609  0.3779 -0.6966 -0.2523
 4916SOL     OW26380   3.731   0.498  12.124 -0.6577  0.7093 -0.0456
 4916SOL    HW126381   3.690   0.412  12.132 -0.2176  0.5450  0.4532
 4916SOL    HW226382   3.771   0.497  12.037  0.9012  2.3602  0.6575
 4917SOL     OW26383   0.374   0.234   9.322 -0.3748 -0.3613  0.5068
 4917SOL    HW126384   0.284   0.216   9.347 -1.1073  2.3286 -0.2452
 4917SOL    HW226385   0.429   0.214   9.398  1.6888 -1.2226 -1.2028
 4918SOL     OW26386   0.847   2.499   4.201  0.3803 -0.0777  0.0106
 4918SOL    HW126387   0.801   2.499   4.117 -1.6605 -0.5109  1.1380
 4918SOL    HW226388   0.885   2.586   4.211  2.1013 -0.6127 -1.7554
 4919SOL     OW26389   3.736   2.514  11.103  0.4550  0.0870  0.3031
 4919SOL    HW126390   3.766   2.564  11.179 -1.9157  0.2774  1.1351
 4919SOL    HW226391   3.681   2.448  11.145  0.8981  0.9638  2.2627
 4920SOL     OW26392   3.409   3.708   7.976  0.6207  0.1782  0.1021
 4920SOL    HW126393   3.459   3.631   8.003  0.1144 -0.0393  0.4237
 4920SOL    HW226394   3.335   3.655   7.945  1.3811 -1.0054  0.3214
 4921SOL     OW26395   0.257   4.092   0.227  0.3832  0.6169 -0.3104
 4921SOL    HW126396   0.342   4.077   0.268 -0.7595 -0.3502  1.7453
 4921SOL    HW226397   0.192   4.061   0.290  0.7935 -2.3465 -1.3695
 4922SOL     OW26398   2.546   3.942   8.835 -0.2244  0.1536 -0.2843
 4922SOL    HW126399   2.575   3.907   8.751 -2.1367 -1.5053 -0.2543
 4922SOL    HW226400   2.544   4.037   8.822 -0.9824 -0.4048 -4.4394
 4923SOL     OW26401   0.214   2.596   3.931 -0.1890  0.3772  0.1453
 4923SOL    HW126402   0.209   2.672   3.874  0.6223  0.5308  0.2732
 4923SOL    HW226403   0.146   2.536   3.899 -0.0154  1.2876 -1.8884
 4924SOL     OW26404   1.543   3.458   4.769  0.1475 -0.9194  0.2728
 4924SOL    HW126405   1.525   3.391   4.703  2.1765 -1.9358  0.7366
 4924SOL    HW226406   1.608   3.514   4.728  1.8351 -2.2224  1.1814
 4925SOL     OW26407   0.836   3.011   2.723  0.4164  0.2426 -0.1178
 4925SOL    HW126408   0.793   2.950   2.663  2.1685  0.5498 -1.6841
 4925SOL    HW226409   0.772   2.991   2.792  1.3770 -3.0989 -0.1722
 4926SOL     OW26410   1.749   2.975  10.695  0.1525  0.3522  0.1118
 4926SOL    HW126411   1.763   2.981  10.601  1.0485  2.4156  0.3574
 4926SOL    HW226412   1.785   2.888  10.711 -1.8098 -0.5047 -0.1485
 4927SOL     OW26413   0.520   4.696   1.709  0.2596 -0.2060 -0.4433
 4927SOL    HW126414   0.443   4.661   1.665  0.1634 -0.5658  0.0093
 4927SOL    HW226415   0.473   4.704   1.792  0.7618  2.8834 -0.4457
 4928SOL     OW26416   0.655   2.233   4.188 -0.2322 -0.1137 -0.4017
 4928SOL    HW126417   0.586   2.172   4.216  0.5887 -0.2543  1.3624
 4928SOL    HW226418   0.659   2.299   4.257  2.5364  1.0630 -1.6898
 4929SOL     OW26419   0.043   4.459   4.506  0.7667  0.5331 -0.2430
 4929SOL    HW126420   0.041   4.539   4.453 -1.3346 -0.6891 -1.9757
 4929SOL    HW226421   0.077   4.493   4.590  0.2884  2.7571 -0.9431
 4930SOL     OW26422   4.686   1.656   7.134 -0.1306 -0.0913 -0.0711
 4930SOL    HW126423   0.018   1.700   7.181 -0.6742 -0.4960  1.1193
 4930SOL    HW226424   4.657   1.593   7.200  0.2626 -1.7537 -1.4874
 4931SOL     OW26425   3.336   1.219   3.504 -0.0985  0.7879 -0.1000
 4931SOL    HW126426   3.355   1.308   3.473 -0.2544  0.9156  0.1596
 4931SOL    HW226427   3.315   1.237   3.596  0.0538 -1.4006  0.3652
 4932SOL     OW26428   2.488   3.451   5.731  0.5214  0.4523 -0.0077
 4932SOL    HW126429   2.502   3.413   5.644  0.8246 -0.2205  0.3324
 4932SOL    HW226430   2.439   3.527   5.701  1.7582  1.7371  1.2437
 4933SOL     OW26431   0.549   2.537   0.166  0.5847  0.8471 -0.1585
 4933SOL    HW126432   0.606   2.603   0.205  0.4007  0.6354  0.4555
 4933SOL    HW226433   0.567   2.469   0.231 -0.0381  0.2080 -0.6528
 4934SOL     OW26434   1.685   0.686   1.186 -0.3125  0.8232 -0.2537
 4934SOL    HW126435   1.597   0.653   1.170 -0.1841  0.2315  0.2739
 4934SOL    HW226436   1.677   0.721   1.275 -1.5867  0.0757 -0.0749
 4935SOL     OW26437   1.936   2.342   9.312 -0.1494  0.0188  0.4456
 4935SOL    HW126438   2.004   2.302   9.367  1.1342 -2.3309 -2.8629
 4935SOL    HW226439   1.861   2.336   9.372 -0.6547 -0.5497 -0.2500
 4936SOL     OW26440   2.459   2.744  11.930 -0.5782 -0.4325  0.0686
 4936SOL    HW126441   2.395   2.741  11.859  2.9479  1.6617 -3.1788
 4936SOL    HW226442   2.535   2.727  11.874 -0.5450  0.5572 -0.1930
 4937SOL     OW26443   1.747   0.584   5.377  0.6578 -0.3581  0.3656
 4937SOL    HW126444   1.704   0.669   5.384 -0.4011 -0.8743  0.1441
 4937SOL    HW226445   1.682   0.532   5.424 -0.9772  1.5272  0.1829
 4938SOL     OW26446   0.352   0.887   9.205  0.0786 -0.1374  0.4741
 4938SOL    HW126447   0.327   0.972   9.169  1.2467 -0.1492 -0.3674
 4938SOL    HW226448   0.262   0.855   9.208 -0.1827  0.6491  1.0828
 4939SOL     OW26449   1.952   4.061  16.148 -0.6838  0.0750  0.6844
 4939SOL    HW126450   1.932   4.118  16.074 -1.1701 -3.0652 -1.6368
 4939SOL    HW226451   2.019   4.104  16.202 -0.9773  0.1474  0.9892
 4940SOL     OW26452   0.391   1.180   7.897  0.1952 -0.4252 -0.3586
 4940SOL    HW126453   0.437   1.135   7.968 -1.0549 -0.0744  0.6837
 4940SOL    HW226454   0.303   1.144   7.915  0.6177 -1.3793 -0.1772
 4941SOL     OW26455   2.287   3.160   6.180 -0.0352  0.5689 -0.1552
 4941SOL    HW126456   2.299   3.243   6.134  0.0438 -0.3660 -1.8185
 4941SOL    HW226457   2.202   3.145   6.140 -0.8700  0.3566  1.6699
 4942SOL     OW26458   3.823   4.364   1.847 -0.3642  0.5680  0.0141
 4942SOL    HW126459   3.757   4.385   1.781 -1.6573 -0.4356  1.0242
 4942SOL    HW226460   3.777   4.290   1.886 -0.7541  1.2763  0.8724
 4943SOL     OW26461   1.791   2.822   6.073 -0.5952 -0.4238 -0.1157
 4943SOL    HW126462   1.701   2.818   6.107 -0.5670  1.0620  0.1432
 4943SOL    HW226463   1.811   2.893   6.134 -0.0245 -1.1491  0.5417
 4944SOL     OW26464   2.437   4.637   5.228  0.0509  0.4143  0.0132
 4944SOL    HW126465   2.475   4.580   5.161  0.7463 -2.1610  2.6458
 4944SOL    HW226466   2.425   4.577   5.301 -0.6850 -1.3781 -1.5761
 4945SOL     OW26467   3.376   3.790   2.407 -0.4687  0.2873  0.7826
 4945SOL    HW126468   3.471   3.790   2.421 -0.0518 -1.1396 -2.2681
 4945SOL    HW226469   3.345   3.764   2.494 -0.4239  0.1722  0.7643
 4946SOL     OW26470   1.166   2.669   3.422 -0.4877 -0.9471 -0.2137
 4946SOL    HW126471   1.115   2.728   3.476 -1.5253  0.5629 -2.8636
 4946SOL    HW226472   1.192   2.598   3.481  2.2037 -0.3130 -0.6493
 4947SOL     OW26473   0.458   1.781   6.260 -0.1849 -0.4451 -0.4640
 4947SOL    HW126474   0.388   1.764   6.197 -0.5729  1.8084 -0.6283
 4947SOL    HW226475   0.488   1.690   6.256 -0.2855 -0.3902 -2.8541
 4948SOL     OW26476   3.362   2.323   8.613  0.1173 -0.2475 -0.2757
 4948SOL    HW126477   3.302   2.339   8.685 -0.4249 -2.0849 -0.3271
 4948SOL    HW226478   3.393   2.414   8.607  1.8455 -0.8033  0.0908
 4949SOL     OW26479   1.247   2.669   1.536  0.3484 -0.3694  0.0677
 4949SOL    HW126480   1.298   2.621   1.471 -0.1637 -0.3392 -0.3598
 4949SOL    HW226481   1.189   2.603   1.575 -0.1136 -0.9877 -1.6527
 4950SOL     OW26482   3.361   0.058   2.978  0.2670  0.2028  0.0259
 4950SOL    HW126483   3.298   0.003   2.930  2.1949 -0.6382 -1.5437
 4950SOL    HW226484   3.334   0.140   2.936 -2.0302  0.5062  2.0763
 4951SOL     OW26485   0.718   3.080  16.836 -0.3579  0.1763 -0.3733
 4951SOL    HW126486   0.764   3.094  16.753  2.6815 -1.5262  1.0356
 4951SOL    HW226487   0.710   3.173  16.860 -1.5107  0.3595 -1.4923
 4952SOL     OW26488   3.901   1.097   7.555 -0.3540  0.0132 -0.2420
 4952SOL    HW126489   3.882   1.015   7.600  0.1861  1.3912  2.5058
 4952SOL    HW226490   3.862   1.079   7.469 -0.9404  0.3145 -0.0379
 4953SOL     OW26491   1.304   2.214   9.094  0.5582 -0.0150  0.8666
 4953SOL    HW126492   1.378   2.262   9.058 -0.8785  1.1291 -0.5370
 4953SOL    HW226493   1.322   2.199   9.187  4.3664 -1.5463 -0.1022
 4954SOL     OW26494   1.163   0.596   9.454  0.3124 -0.1956 -0.5014
 4954SOL    HW126495   1.195   0.509   9.475  1.5077  0.3715  0.0193
 4954SOL    HW226496   1.087   0.595   9.511  0.5752 -0.7085 -0.1685
 4955SOL     OW26497   1.711   1.086   8.267  0.0933  0.4902  0.2973
 4955SOL    HW126498   1.683   1.120   8.182 -0.4456 -1.0932 -0.1424
 4955SOL    HW226499   1.804   1.075   8.249 -0.0436 -1.3195  0.7529
 4956SOL     OW26500   3.418   2.246  12.599 -0.0239  0.2436  0.1767
 4956SOL    HW126501   3.328   2.257  12.570 -0.0755  1.3764  0.7660
 4956SOL    HW226502   3.406   2.237  12.694  1.8752 -1.1314  0.3102
 4957SOL     OW26503   3.183   3.867   7.659 -0.2997 -0.0852  0.1627
 4957SOL    HW126504   3.113   3.806   7.682 -0.9714 -0.3235 -2.5747
 4957SOL    HW226505   3.241   3.799   7.626 -1.4932 -0.9152 -0.2237
 4958SOL     OW26506   3.870   4.050   4.670 -0.3822 -0.3852  1.2699
 4958SOL    HW126507   3.926   4.119   4.633 -1.0707  0.5459  1.9682
 4958SOL    HW226508   3.797   4.107   4.692 -0.5666 -0.5456  1.0723
 4959SOL     OW26509   1.073   1.589   6.877  0.9348  0.2582  0.0917
 4959SOL    HW126510   1.088   1.500   6.845  0.5099  0.5051 -0.8051
 4959SOL    HW226511   1.153   1.634   6.849  2.0486 -1.0568  1.1643
 4960SOL     OW26512   1.555   4.071  12.869 -0.7451  0.0592  0.0437
 4960SOL    HW126513   1.625   4.119  12.915 -0.9860 -0.6508  1.1361
 4960SOL    HW226514   1.496   4.061  12.944 -0.9756 -0.1702 -0.1698
 4961SOL     OW26515   3.795   2.445   2.849  0.1847 -0.1748  0.4304
 4961SOL    HW126516   3.791   2.434   2.944 -0.1299 -2.6282  0.1347
 4961SOL    HW226517   3.755   2.363   2.820  1.7482 -0.4706 -0.9167
 4962SOL     OW26518   1.429   2.859   4.849 -0.2627  0.0127 -0.2779
 4962SOL    HW126519   1.390   2.832   4.765  0.5284  0.0573 -0.6609
 4962SOL    HW226520   1.490   2.791   4.876 -0.6299 -1.3050 -2.7270
 4963SOL     OW26521   0.095   3.729   3.140 -0.4888 -0.1534 -0.0381
 4963SOL    HW126522   0.114   3.637   3.156 -0.1537  0.0079  0.4720
 4963SOL    HW226523   0.125   3.767   3.222  2.6949 -1.1149 -0.7527
 4964SOL     OW26524   0.612   1.775   9.310 -0.1657 -0.2905 -0.2381
 4964SOL    HW126525   0.558   1.832   9.256 -0.8220  1.3557  2.1577
 4964SOL    HW226526   0.635   1.709   9.245  1.0781 -1.5330  1.4496
 4965SOL     OW26527   3.409   4.146  12.480 -0.0600  0.1050  0.2992
 4965SOL    HW126528   3.399   4.078  12.547  1.4136  0.4363  0.8616
 4965SOL    HW226529   3.444   4.099  12.405 -0.9811 -0.8843  0.4769
 4966SOL     OW26530   4.711   4.734   2.749 -0.0019  0.1857  0.4351
 4966SOL    HW126531   4.691   4.705   2.660 -0.9297  1.0412  0.3664
 4966SOL    HW226532   0.064   0.013   2.730 -0.1178 -0.1000 -0.3969
 4967SOL     OW26533   1.230   3.196  10.656  0.1608  0.1487  0.3716
 4967SOL    HW126534   1.301   3.261  10.648  0.1343 -0.0942 -1.7884
 4967SOL    HW226535   1.268   3.122  10.703 -0.8111  0.1430  1.1378
 4968SOL     OW26536   2.966   1.710  13.317 -0.0721 -0.0560 -0.6815
 4968SOL    HW126537   2.907   1.773  13.275  2.3903  3.4446  1.1231
 4968SOL    HW226538   3.005   1.666  13.241 -0.7738 -0.2321 -0.9329
 4969SOL     OW26539   0.086   0.057  15.716 -0.2577  0.3151 -0.1731
 4969SOL    HW126540   0.116   0.116  15.784  0.1294 -2.1072  1.7555
 4969SOL    HW226541   4.738   0.089  15.691 -0.4285 -0.0708 -0.0858
 4970SOL     OW26542   2.869   0.663   2.554 -0.5837  0.1195 -0.2068
 4970SOL    HW126543   2.856   0.666   2.649  0.2053  2.2128 -0.1649
 4970SOL    HW226544   2.924   0.739   2.537 -1.6820  1.4458  2.2522
 4971SOL     OW26545   3.736   0.314   5.432 -0.0894  0.3846  0.0683
 4971SOL    HW126546   3.700   0.241   5.382  1.2131 -1.2094  1.4563
 4971SOL    HW226547   3.704   0.297   5.521 -1.2239  0.4726 -0.3129
 4972SOL     OW26548   4.228   2.724   9.322 -0.8333 -0.4297 -0.2652
 4972SOL    HW126549   4.314   2.765   9.307 -0.5746 -0.7162  0.4585
 4972SOL    HW226550   4.206   2.784   9.393  2.3334 -0.1337  0.4999
 4973SOL     OW26551   3.217   3.856   6.678 -0.0704 -0.1156  0.1260
 4973SOL    HW126552   3.249   3.886   6.592  1.4887 -2.6582 -0.1976
 4973SOL    HW226553   3.192   3.937   6.723 -0.6715 -0.7114  0.8566
 4974SOL     OW26554   1.613   1.369   2.574  0.2140 -0.2168  0.3982
 4974SOL    HW126555   1.678   1.357   2.505 -0.4692  0.3428 -0.3406
 4974SOL    HW226556   1.668   1.331   2.642  0.5321 -2.2084 -0.9665
 4975SOL     OW26557   1.145   3.068   0.476  0.2687 -0.8637 -0.4082
 4975SOL    HW126558   1.146   3.108   0.389 -1.7352 -1.6051 -0.7878
 4975SOL    HW226559   1.215   3.004   0.465  3.0068  2.0466  0.0687
 4976SOL     OW26560   2.966   1.160   6.537 -0.1592 -0.3878 -0.1298
 4976SOL    HW126561   2.894   1.113   6.579 -1.8950  1.0827 -1.4512
 4976SOL    HW226562   2.935   1.232   6.482 -1.5364  0.3053  1.5934
 4977SOL     OW26563   1.418   4.278   8.303  0.5127  0.1748  0.5653
 4977SOL    HW126564   1.494   4.334   8.292 -1.0314  1.5982 -2.9439
 4977SOL    HW226565   1.416   4.261   8.397 -0.5156  0.6797  0.6259
 4978SOL     OW26566   4.174   1.242   5.868 -0.3081  0.2606  0.1477
 4978SOL    HW126567   4.090   1.249   5.823  0.1278  0.8980 -0.5673
 4978SOL    HW226568   4.215   1.178   5.809 -2.3833 -3.1338  2.3937
 4979SOL     OW26569   3.574   0.702   1.694 -0.6923  0.1469 -0.1278
 4979SOL    HW126570   3.514   0.645   1.646 -0.4323 -0.2269 -0.0093
 4979SOL    HW226571   3.566   0.787   1.652  0.3144 -0.2361 -1.1116
 4980SOL     OW26572   3.245   4.542   8.915 -0.2949  0.8772 -0.0066
 4980SOL    HW126573   3.200   4.623   8.893  1.1429  1.4981 -0.6816
 4980SOL    HW226574   3.215   4.532   9.005  1.2096 -2.8957  0.0659
 4981SOL     OW26575   0.344   1.851  10.486  0.1680  0.3825 -0.3543
 4981SOL    HW126576   0.259   1.857  10.443  0.9442 -1.4940 -2.1432
 4981SOL    HW226577   0.366   1.944  10.494  0.0421  0.4149 -0.3778
 4982SOL     OW26578   3.797   4.728   4.547 -0.2037  0.2050  0.1570
 4982SOL    HW126579   3.862   0.052   4.514  0.0235  1.8454  3.7285
 4982SOL    HW226580   3.767   4.695   4.463  0.1471  3.1905 -1.1582
 4983SOL     OW26581   3.825   2.727   3.943 -0.4655 -0.9797  0.5219
 4983SOL    HW126582   3.871   2.751   4.024 -1.0070 -1.5365  0.9997
 4983SOL    HW226583   3.737   2.760   3.959  0.0226 -0.8977  3.1710
 4984SOL     OW26584   2.742   0.782  13.212 -0.1500 -0.2539 -0.5162
 4984SOL    HW126585   2.667   0.795  13.153  0.3613  0.9251 -0.8964
 4984SOL    HW226586   2.781   0.868  13.200  2.8558 -1.7852 -1.6284
 4985SOL     OW26587   3.619   1.017   6.473  0.1397  0.3912  0.2184
 4985SOL    HW126588   3.633   0.929   6.507 -1.7249  0.4373  1.0651
 4985SOL    HW226589   3.541   0.999   6.421 -0.7645  0.3995  1.6020
 4986SOL     OW26590   2.907   3.320   1.779 -0.6558 -0.4940 -0.4338
 4986SOL    HW126591   2.906   3.385   1.710 -0.0521  0.9130  0.8877
 4986SOL    HW226592   2.846   3.250   1.753 -0.6676 -0.2905 -0.9434
 4987SOL     OW26593   3.462   1.892  13.133 -0.5364 -0.8908  0.3419
 4987SOL    HW126594   3.505   1.871  13.216  1.0906  0.5951 -0.1232
 4987SOL    HW226595   3.424   1.979  13.140 -0.0312 -0.6908  0.5857
 4988SOL     OW26596   1.545   1.767   8.345 -0.1886 -0.1768 -0.1137
 4988SOL    HW126597   1.573   1.856   8.319 -0.4155  0.2829  1.2387
 4988SOL    HW226598   1.505   1.781   8.430 -0.6853  2.0323 -0.7072
 4989SOL     OW26599   1.852   1.940   2.568 -0.1334  0.5434  0.5579
 4989SOL    HW126600   1.858   1.933   2.664 -0.2126 -0.6040  0.4832
 4989SOL    HW226601   1.760   1.943   2.540 -0.2008  3.6851  1.0742
 4990SOL     OW26602   2.533   1.511  12.192  0.0346  0.9342  0.2393
 4990SOL    HW126603   2.564   1.570  12.260  2.7627  0.5532 -0.6971
 4990SOL    HW226604   2.443   1.495  12.222  0.4890 -0.8915  0.6448
 4991SOL     OW26605   2.876   2.794   1.992 -0.7512 -0.1105  0.5624
 4991SOL    HW126606   2.797   2.828   2.034 -0.8890 -0.0718  0.2770
 4991SOL    HW226607   2.854   2.701   1.988  2.4774 -0.7432 -1.9998
 4992SOL     OW26608   0.411   3.592  14.012  0.1056 -0.0931  0.3658
 4992SOL    HW126609   0.413   3.672  14.064 -2.9294  1.6814 -2.2991
 4992SOL    HW226610   0.387   3.621  13.924  0.0814 -0.2730  0.3141
 4993SOL     OW26611   1.326   0.343   0.427  0.7464 -0.7996 -0.2058
 4993SOL    HW126612   1.332   0.434   0.397  2.9067 -0.3068  1.7143
 4993SOL    HW226613   1.413   0.327   0.464  0.2070 -0.3009  1.2588
 4994SOL     OW26614   3.730   4.735   5.680  0.5711 -0.1914  0.0579
 4994SOL    HW126615   3.709   0.087   5.659  1.6220  0.2653  0.9887
 4994SOL    HW226616   3.644   4.693   5.681  0.5269 -0.0518  1.7854
 4995SOL     OW26617   2.659   0.533   2.067 -0.3830  0.1009 -0.0310
 4995SOL    HW126618   2.568   0.516   2.043 -0.1860  0.3425 -0.9287
 4995SOL    HW226619   2.683   0.585   1.991 -0.6816 -0.4157 -0.4748
 4996SOL     OW26620   2.844   3.949   4.999 -0.1148  0.6125  0.6411
 4996SOL    HW126621   2.784   3.875   5.017  1.4247 -0.6174  0.6948
 4996SOL    HW226622   2.826   3.999   5.078  2.4749  0.8516  1.0672
 4997SOL     OW26623   0.149   0.935   5.939 -0.2468  0.2763  0.3432
 4997SOL    HW126624   0.079   0.871   5.927 -1.5593  1.7610 -0.0067
 4997SOL    HW226625   0.118   0.968   6.023  1.6259  0.5960  0.8956
 4998SOL     OW26626   0.140   0.684   8.818 -1.3719  0.0440  0.2662
 4998SOL    HW126627   0.210   0.748   8.798  0.0316 -0.7254  2.6771
 4998SOL    HW226628   0.075   0.748   8.848 -1.0025  0.7425 -0.4101
 4999SOL     OW26629   4.737   3.592   1.764 -0.5056  0.3658 -0.2603
 4999SOL    HW126630   0.069   3.610   1.702  2.1873 -2.8220  1.8933
 4999SOL    HW226631   0.060   3.572   1.834 -1.0462 -1.9078 -0.4043
 5000SOL     OW26632   3.094   3.899   1.850 -0.2757 -1.0182  0.3962
 5000SOL    HW126633   3.161   3.907   1.919 -0.8767 -0.4511  0.9193
 5000SOL    HW226634   3.132   3.952   1.780 -1.6780  1.3512  1.4439
 5001SOL     OW26635   2.969   0.437   9.001  0.2190  0.1672 -0.1140
 5001SOL    HW126636   3.041   0.404   8.948  1.1020 -0.8747  1.7190
 5001SOL    HW226637   2.904   0.370   8.982 -0.7865  1.7142 -2.0854
 5002SOL     OW26638   3.753   1.629   8.884  0.4113  0.8275 -0.1814
 5002SOL    HW126639   3.812   1.704   8.882 -0.1847  1.2425 -2.4755
 5002SOL    HW226640   3.675   1.676   8.854 -0.6117 -0.0098  1.1701
 5003SOL     OW26641   2.301   1.689   1.836 -0.3733  0.2181  0.3971
 5003SOL    HW126642   2.226   1.652   1.789  1.7766 -0.7343 -2.3098
 5003SOL    HW226643   2.357   1.611   1.844  2.2691  1.7996 -2.4598
 5004SOL     OW26644   0.163   1.406   6.265 -0.2786 -0.1304 -0.5489
 5004SOL    HW126645   0.179   1.407   6.171 -0.2927 -0.0453 -0.5502
 5004SOL    HW226646   0.114   1.326   6.285 -1.3123  1.1960  2.2471
 5005SOL     OW26647   3.704   3.092   9.506  0.7227  0.0405 -0.1417
 5005SOL    HW126648   3.691   3.113   9.598 -0.5789  0.4732 -0.4162
 5005SOL    HW226649   3.687   3.181   9.472  2.2474 -0.2306 -1.5811
 5006SOL     OW26650   3.898   4.508   7.978 -0.4301 -0.2672  0.7416
 5006SOL    HW126651   3.810   4.474   7.994  0.0597 -1.3788  1.1013
 5006SOL    HW226652   3.933   4.421   7.959  0.0889  0.6990 -2.5927
 5007SOL     OW26653   4.295   3.382   3.861  0.0937 -0.3648  0.3760
 5007SOL    HW126654   4.273   3.451   3.799  0.3155  0.1083  0.8248
 5007SOL    HW226655   4.220   3.380   3.920 -0.8835 -0.8840 -0.8830
 5008SOL     OW26656   3.524   4.457   7.244 -0.1525 -0.3539  0.1026
 5008SOL    HW126657   3.442   4.427   7.283  1.1348  0.4648  3.4048
 5008SOL    HW226658   3.505   4.547   7.215  1.8894  0.3010  0.7673
 5009SOL     OW26659   2.047   3.477   3.803  0.5032 -0.0305 -0.3385
 5009SOL    HW126660   2.086   3.392   3.824  1.2564  0.4594  0.2512
 5009SOL    HW226661   2.089   3.537   3.865  0.1761 -2.9178  2.7279
 5010SOL     OW26662   3.854   4.713   7.301  0.3939 -0.7382  0.3367
 5010SOL    HW126663   3.852   4.619   7.320 -0.3240 -0.8990 -0.4970
 5010SOL    HW226664   3.926   4.735   7.359 -0.7793  0.9705  1.1462
 5011SOL     OW26665   0.726   3.423  16.379  0.0577  0.0556  0.5329
 5011SOL    HW126666   0.680   3.342  16.405  0.6020 -0.8643 -1.3758
 5011SOL    HW226667   0.790   3.395  16.314 -0.8299  0.1708 -0.3796
 5012SOL     OW26668   1.637   4.065   2.599 -0.2720  0.1131  0.0271
 5012SOL    HW126669   1.638   3.973   2.572 -0.1816 -1.1109  4.2474
 5012SOL    HW226670   1.665   4.055   2.690 -3.5591  1.4406  1.1742
 5013SOL     OW26671   3.024   2.890   7.445 -0.2812  0.1598  0.0727
 5013SOL    HW126672   3.046   2.966   7.392  0.0735 -0.3452 -0.5029
 5013SOL    HW226673   3.022   2.820   7.380 -1.3430 -0.0708  0.3563
 5014SOL     OW26674   3.399   0.586   6.079  0.1090  0.2162  0.0586
 5014SOL    HW126675   3.390   0.619   6.169 -4.3251  2.0432 -1.0585
 5014SOL    HW226676   3.412   0.668   6.032  0.2317 -0.1172 -0.4820
 5015SOL     OW26677   1.711   4.575   2.005 -0.5796  0.1539 -0.2737
 5015SOL    HW126678   1.673   4.621   1.930  0.5310 -0.2389 -1.0744
 5015SOL    HW226679   1.651   4.502   2.014 -0.6190  0.0589 -1.2540
 5016SOL     OW26680   1.343   0.008   5.982  0.4597  0.2268  0.1791
 5016SOL    HW126681   1.280   4.685   5.945  0.5146  0.3676 -0.1537
 5016SOL    HW226682   1.333   0.078   5.917  1.3867  1.9856  1.9435
 5017SOL     OW26683   4.462   2.968   1.314 -0.0415 -0.0707 -0.4610
 5017SOL    HW126684   4.517   2.994   1.388 -2.4777 -0.6185  1.5491
 5017SOL    HW226685   4.512   3.000   1.239 -0.6970 -1.6968 -1.6173
 5018SOL     OW26686   3.654   4.708   3.006 -0.6188 -0.4217  0.0525
 5018SOL    HW126687   3.586   0.016   3.055 -0.2841  1.0347 -0.8797
 5018SOL    HW226688   3.624   4.712   2.915 -1.2308  4.5394  0.4943
 5019SOL     OW26689   0.596   2.879   2.234  0.5245 -0.0034  0.0954
 5019SOL    HW126690   0.504   2.898   2.214  1.2574  1.0849 -2.2151
 5019SOL    HW226691   0.637   2.961   2.261  0.1143 -0.3807  1.9175
 5020SOL     OW26692   1.897   2.138   6.747 -0.4261  0.1307  0.1623
 5020SOL    HW126693   1.944   2.186   6.679  1.2906 -2.1546 -0.2758
 5020SOL    HW226694   1.869   2.212   6.800 -1.4314  0.1347 -0.3710
 5021SOL     OW26695   0.080   1.973   1.540 -0.4216  0.4626  0.3708
 5021SOL    HW126696   0.010   1.923   1.498 -0.6853 -0.5945  2.0779
 5021SOL    HW226697   0.071   1.931   1.625 -2.2302 -1.4423 -0.7517
 5022SOL     OW26698   0.931   2.932   5.705  0.1475 -0.0787  0.5209
 5022SOL    HW126699   0.854   2.902   5.754  0.3075 -1.1771  0.0944
 5022SOL    HW226700   1.002   2.889   5.751  0.2850 -0.7089 -0.2780
 5023SOL     OW26701   3.667   3.803   7.102  0.2750  0.0380  0.2435
 5023SOL    HW126702   3.609   3.728   7.098  0.3726 -0.0363  0.2262
 5023SOL    HW226703   3.612   3.864   7.151 -0.5225 -1.2988  1.0139
 5024SOL     OW26704   1.397   3.036  10.825 -0.3470 -0.4044 -0.1538
 5024SOL    HW126705   1.344   3.030  10.905  1.3449  2.2491  1.1882
 5024SOL    HW226706   1.362   2.960  10.779  0.4901 -0.9017  0.0173
 5025SOL     OW26707   4.111   3.769   4.354  0.1153 -0.4694  0.4865
 5025SOL    HW126708   4.124   3.864   4.355  1.4822 -0.6377 -1.9802
 5025SOL    HW226709   4.038   3.770   4.416  1.0567  1.2037  1.5837
 5026SOL     OW26710   1.098   0.608   3.673 -0.1048  0.0059 -0.0020
 5026SOL    HW126711   1.161   0.666   3.631  0.2827  0.4877  1.2605
 5026SOL    HW226712   1.017   0.644   3.638 -0.0864  0.1949  0.1528
 5027SOL     OW26713   1.186   0.612   0.852  0.0735  0.2182  0.6131
 5027SOL    HW126714   1.177   0.544   0.919  1.1253 -0.4597  0.0744
 5027SOL    HW226715   1.281   0.615   0.836 -0.4375 -0.3695 -2.5204
 5028SOL     OW26716   1.838   2.989  10.429 -0.8024  0.1818  0.0798
 5028SOL    HW126717   1.874   3.032  10.351 -0.5045 -2.4311 -1.2257
 5028SOL    HW226718   1.908   2.925  10.446 -2.2599 -1.1321  1.0809
 5029SOL     OW26719   0.574   2.040   7.305  0.4098 -0.0461 -0.6973
 5029SOL    HW126720   0.654   1.998   7.274  0.5424 -1.3316  1.3750
 5029SOL    HW226721   0.603   2.123   7.342 -1.2895  0.2072  0.0666
 5030SOL     OW26722   3.063   0.806   2.879  0.2759  0.5515 -0.1537
 5030SOL    HW126723   3.142   0.780   2.832  0.0525  1.3702 -0.9719
 5030SOL    HW226724   3.074   0.899   2.862  0.8574  0.2105 -1.6033
 5031SOL     OW26725   1.116   0.163  10.212 -0.1113  0.2816 -0.6871
 5031SOL    HW126726   1.201   0.176  10.254  0.0815 -1.1266 -0.6367
 5031SOL    HW226727   1.093   0.255  10.202  2.1826  1.1432  1.9476
 5032SOL     OW26728   1.319   4.318   5.301  0.2265  0.2081  0.1385
 5032SOL    HW126729   1.334   4.276   5.385 -0.1422  1.2623  0.7395
 5032SOL    HW226730   1.361   4.404   5.307 -0.4091  0.5825 -0.6593
 5033SOL     OW26731   4.545   1.823   8.714 -0.5523 -0.8752 -0.3247
 5033SOL    HW126732   4.593   1.854   8.637  0.7765  2.3192  1.7725
 5033SOL    HW226733   4.495   1.756   8.667  0.5348 -2.2021  0.4003
 5034SOL     OW26734   0.147   2.167   4.274 -0.1629  0.2690 -0.1231
 5034SOL    HW126735   0.196   2.098   4.318  0.0315  0.9864  0.8005
 5034SOL    HW226736   0.080   2.119   4.225  1.8935 -2.7925  0.0580
 5035SOL     OW26737   1.594   1.506  15.763 -0.6347  0.1300 -0.3190
 5035SOL    HW126738   1.507   1.469  15.779 -0.4081 -0.8113 -1.1936
 5035SOL    HW226739   1.598   1.572  15.832 -0.6334 -1.0950  0.8547
 5036SOL     OW26740   0.721   0.548   8.996 -0.3120 -0.0444  0.2715
 5036SOL    HW126741   0.686   0.604   9.066  1.1583 -0.5588  1.4142
 5036SOL    HW226742   0.808   0.534   9.033 -0.9120  0.9603  2.0589
 5037SOL     OW26743   0.218   3.115   7.176 -0.5862 -0.0524  0.0221
 5037SOL    HW126744   0.259   3.178   7.235  2.8718 -3.4765  1.3045
 5037SOL    HW226745   0.224   3.161   7.092  0.2617  0.5360  0.3999
 5038SOL     OW26746   2.571   0.358   8.426 -0.0064 -0.0324 -0.8601
 5038SOL    HW126747   2.478   0.362   8.445  0.3925  0.8173  0.9435
 5038SOL    HW226748   2.579   0.402   8.342  0.7436  1.1200 -0.1889
 5039SOL     OW26749   0.898   0.566   3.245  0.2586 -0.5148 -0.6136
 5039SOL    HW126750   0.838   0.546   3.174 -0.9754  1.0406 -0.0161
 5039SOL    HW226751   0.977   0.565   3.191  1.3771  0.1333  0.9782
 5040SOL     OW26752   0.236   1.373   8.261 -0.0992 -0.1885  0.2164
 5040SOL    HW126753   0.197   1.433   8.324 -1.6069 -0.1126 -0.7835
 5040SOL    HW226754   0.296   1.428   8.211  1.2593 -0.6600  1.3151
 5041SOL     OW26755   2.369   3.475  16.831  0.1172  0.4678  0.2386
 5041SOL    HW126756   2.340   3.385  16.818 -1.5971  1.0396  0.1502
 5041SOL    HW226757   2.459   3.451  16.856 -0.9524 -3.8231 -0.1519
 5042SOL     OW26758   3.640   0.644   2.549 -0.0322  0.0396 -0.4931
 5042SOL    HW126759   3.675   0.594   2.623 -1.2772  0.0257  0.0820
 5042SOL    HW226760   3.717   0.627   2.494  0.1989 -2.4640  0.6364
 5043SOL     OW26761   3.119   0.418  13.406 -0.6322 -0.3510 -0.3264
 5043SOL    HW126762   3.139   0.336  13.450 -1.2428  0.4941  1.5584
 5043SOL    HW226763   3.027   0.409  13.432 -0.6219 -0.3663 -0.2957
 5044SOL     OW26764   3.181   2.967   5.764 -0.2951  0.2550 -0.5314
 5044SOL    HW126765   3.141   2.962   5.851 -0.2262 -0.6077 -0.5481
 5044SOL    HW226766   3.274   2.951   5.778 -0.2949  0.5307 -0.2094
 5045SOL     OW26767   1.580   3.044   7.849 -0.7673 -0.1131  0.0827
 5045SOL    HW126768   1.636   3.081   7.917 -1.8917 -1.2190  1.6196
 5045SOL    HW226769   1.503   3.088   7.884 -0.6470 -0.1436  0.3822
 5046SOL     OW26770   2.272   1.835   1.004 -0.0491 -0.5516 -0.5164
 5046SOL    HW126771   2.352   1.871   1.042 -1.3285  0.3010  1.3441
 5046SOL    HW226772   2.292   1.837   0.910  0.8003 -2.0946 -0.3698
 5047SOL     OW26773   1.408   0.438   9.261 -0.4403 -0.1721 -0.4061
 5047SOL    HW126774   1.367   0.402   9.340  1.5247  3.0204  2.0669
 5047SOL    HW226775   1.497   0.442   9.295 -0.3090 -1.6415 -0.6035
 5048SOL     OW26776   0.681   1.955   4.038  0.3258  0.1335 -0.5092
 5048SOL    HW126777   0.667   1.884   3.975  1.0361  2.0715 -2.8930
 5048SOL    HW226778   0.658   2.033   3.987  0.6225  0.9740  0.6491
 5049SOL     OW26779   4.390   3.256  11.925 -0.3890  0.1400 -0.2406
 5049SOL    HW126780   4.402   3.187  11.990 -1.8976 -0.3703 -0.4985
 5049SOL    HW226781   4.319   3.308  11.963  0.7068 -0.0426  2.0884
 5050SOL     OW26782   1.588   0.965   6.034 -0.4624  0.1456 -0.0827
 5050SOL    HW126783   1.554   0.984   5.946  0.3509  0.4765 -0.3236
 5050SOL    HW226784   1.574   0.872   6.052  0.9242  0.5639  3.1540
 5051SOL     OW26785   1.566   2.822   3.170 -0.1759 -0.0249  0.4400
 5051SOL    HW126786   1.536   2.861   3.252  1.9201 -0.3651  1.3521
 5051SOL    HW226787   1.622   2.890   3.132 -2.3692  1.8009  0.4706
 5052SOL     OW26788   4.094   1.164   2.948  0.4222  0.0893  0.5362
 5052SOL    HW126789   4.089   1.082   2.897  2.0523  1.2194 -1.4408
 5052SOL    HW226790   4.185   1.187   2.930  0.3911 -0.7657 -0.7338
 5053SOL     OW26791   2.573   1.585   1.582  0.2602  0.0566  0.2315
 5053SOL    HW126792   2.524   1.543   1.653 -2.0410  1.0334 -0.7698
 5053SOL    HW226793   2.661   1.550   1.599  1.1218  0.2764 -3.6155
 5054SOL     OW26794   1.555   0.007   7.114 -0.3931  0.2051 -0.2069
 5054SOL    HW126795   1.618   0.077   7.130 -0.4309  0.2269 -0.1565
 5054SOL    HW226796   1.548   4.714   7.204  0.0078 -2.7088 -1.2020
 5055SOL     OW26797   3.488   1.086  17.205  0.0299 -0.0950 -0.0305
 5055SOL    HW126798   3.472   1.007  17.255  2.0832  0.7543  1.9658
 5055SOL    HW226799   3.532   1.056  17.125 -0.7012 -1.1368 -0.0434
 5056SOL     OW26800   2.992   0.504   4.750 -0.5346 -0.3552  0.5346
 5056SOL    HW126801   3.049   0.569   4.709 -1.5860  0.1798 -0.0788
 5056SOL    HW226802   2.956   0.564   4.815 -1.2502  0.2498 -0.4238
 5057SOL     OW26803   1.225   4.588   9.384  0.2589  0.1908 -0.5401
 5057SOL    HW126804   1.165   4.604   9.311  0.5492  1.6173 -0.4821
 5057SOL    HW226805   1.198   4.503   9.417  1.4466  0.5621  1.3992
 5058SOL     OW26806   1.367   1.393   9.068  0.0164 -0.2908 -0.2889
 5058SOL    HW126807   1.337   1.312   9.025 -0.1476 -1.4292  2.0053
 5058SOL    HW226808   1.293   1.400   9.129  2.6812  0.6836  2.7857
 5059SOL     OW26809   4.281   2.026   4.972  0.3500 -0.2187  0.2308
 5059SOL    HW126810   4.286   2.110   5.018  2.8304 -0.9403  1.2828
 5059SOL    HW226811   4.283   2.065   4.884 -0.4827  0.2515  0.4271
 5060SOL     OW26812   0.642   4.161   9.476 -0.3120 -0.2739  0.3547
 5060SOL    HW126813   0.653   4.127   9.387 -0.5083 -0.6742  0.4818
 5060SOL    HW226814   0.704   4.118   9.536  0.7846 -1.4245 -1.5751
 5061SOL     OW26815   1.940   2.509   7.064  0.5726 -0.2359  0.0325
 5061SOL    HW126816   2.035   2.517   7.050  0.2248  1.8573 -0.9868
 5061SOL    HW226817   1.930   2.593   7.108  0.6773 -0.6230  0.7998
 5062SOL     OW26818   1.637   4.431   8.278  0.1756 -0.6995  0.4902
 5062SOL    HW126819   1.675   4.426   8.190 -0.7212 -1.1996  0.1327
 5062SOL    HW226820   1.620   4.525   8.282  2.2527 -0.3209  0.2532
 5063SOL     OW26821   3.761   1.423  13.103  0.0927  0.0389  0.4213
 5063SOL    HW126822   3.761   1.328  13.098  0.1937  0.3071 -4.4572
 5063SOL    HW226823   3.788   1.445  13.192  0.9203 -0.4117  0.2743
 5064SOL     OW26824   4.564   0.894  11.297  0.0334  0.7047  0.2238
 5064SOL    HW126825   4.580   0.916  11.205  4.1638 -1.1021  0.5156
 5064SOL    HW226826   4.487   0.945  11.324 -0.1726  2.1515 -3.0852
 5065SOL     OW26827   1.226   0.562   2.170  0.1212  0.3536 -0.1788
 5065SOL    HW126828   1.206   0.499   2.100  1.4952 -1.2292  0.8332
 5065SOL    HW226829   1.214   0.510   2.249 -1.4915  0.7894 -0.1346
 5066SOL     OW26830   2.244   3.407  17.699 -0.5909 -0.0737 -0.5957
 5066SOL    HW126831   2.251   3.500  17.720 -1.5259 -0.2198  0.4042
 5066SOL    HW226832   2.327   3.400  17.652  0.1021 -3.8145  1.1898
 5067SOL     OW26833   0.996   1.131   1.885  0.1928 -0.1116 -0.3120
 5067SOL    HW126834   0.965   1.112   1.796  1.2262 -0.7016 -0.5616
 5067SOL    HW226835   0.972   1.218   1.916 -0.7140  0.0130 -1.3622
 5068SOL     OW26836   4.522   3.941   6.192 -0.6091 -0.6840 -0.2546
 5068SOL    HW126837   4.473   3.943   6.274 -2.4823 -1.0081 -1.3752
 5068SOL    HW226838   4.601   3.893   6.219  0.6642  1.2037 -0.6913
 5069SOL     OW26839   2.236   2.329  15.269  0.0147  0.3613  0.2786
 5069SOL    HW126840   2.186   2.382  15.207 -0.7211 -0.2978  0.3090
 5069SOL    HW226841   2.251   2.255  15.209  0.8652  0.2198  0.6618
 5070SOL     OW26842   1.716   0.939  16.439 -0.4564 -0.0037 -0.4028
 5070SOL    HW126843   1.726   0.892  16.521 -1.3144 -0.8347 -0.7782
 5070SOL    HW226844   1.752   1.026  16.455  0.3396  0.1669 -3.0816
 5071SOL     OW26845   2.625   3.639   4.337 -0.0112  0.3132 -0.1850
 5071SOL    HW126846   2.613   3.706   4.403 -0.9063 -1.6490  1.6557
 5071SOL    HW226847   2.641   3.701   4.266  0.6797  0.9743  0.5492
 5072SOL     OW26848   3.670   2.512   9.378  0.3115  0.0016  0.2605
 5072SOL    HW126849   3.746   2.465   9.343 -0.3931  0.4963 -1.9159
 5072SOL    HW226850   3.716   2.582   9.423 -0.3907  1.2888 -1.0199
 5073SOL     OW26851   1.488   4.367  12.364  0.5323  0.1410  0.0446
 5073SOL    HW126852   1.508   4.450  12.407 -1.5202  0.4996  0.2760
 5073SOL    HW226853   1.530   4.318  12.435  1.1156  0.1281 -0.3009
 5074SOL     OW26854   1.292   3.029   0.109 -0.2441  0.3844 -0.4152
 5074SOL    HW126855   1.335   3.063   0.188 -1.4656 -0.5057  0.6431
 5074SOL    HW226856   1.202   3.022   0.140  0.1672  0.2856  0.7867
 5075SOL     OW26857   0.460   0.683   1.463 -0.2449  0.5627 -0.1763
 5075SOL    HW126858   0.480   0.766   1.506 -0.3440  0.9212 -0.8148
 5075SOL    HW226859   0.502   0.625   1.527 -1.1374  0.1921  0.0679
 5076SOL     OW26860   1.692   1.800   2.110  0.0968  0.2812 -0.1285
 5076SOL    HW126861   1.666   1.892   2.113 -2.5607 -0.4893  1.2752
 5076SOL    HW226862   1.787   1.802   2.121  0.1415 -0.7135 -0.3111
 5077SOL     OW26863   1.709   2.037   9.092 -0.0896  0.9119 -0.1575
 5077SOL    HW126864   1.735   2.057   9.002 -0.9577 -1.9624 -1.0289
 5077SOL    HW226865   1.629   2.088   9.105 -1.0262 -0.3453 -0.9470
 5078SOL     OW26866   2.669   3.857   9.640  0.0131  0.4565  0.3244
 5078SOL    HW126867   2.632   3.942   9.615  1.5544  0.4470 -2.0334
 5078SOL    HW226868   2.596   3.805   9.671  1.4931 -0.3412  2.4400
 5079SOL     OW26869   4.190   4.543   2.925  0.3692  0.0851  0.7763
 5079SOL    HW126870   4.179   4.633   2.894 -1.3288 -0.5793 -0.5555
 5079SOL    HW226871   4.152   4.508   2.844 -0.4230  0.5111  0.9597
 5080SOL     OW26872   1.600   2.442   6.035 -0.0058  0.0669 -0.1997
 5080SOL    HW126873   1.610   2.465   6.128  2.1606  0.2277 -0.4743
 5080SOL    HW226874   1.675   2.492   6.003 -0.3529 -0.1822 -1.3710
 5081SOL     OW26875   3.738   4.219   4.873 -0.5006  0.5617 -0.7295
 5081SOL    HW126876   3.644   4.205   4.884  0.0535 -2.7725 -0.3259
 5081SOL    HW226877   3.737   4.282   4.800 -1.8962  0.6922 -0.5900
 5082SOL     OW26878   4.071   2.855   5.857 -0.1341 -0.4048 -0.7703
 5082SOL    HW126879   4.022   2.798   5.798 -1.0891  0.5094 -0.8617
 5082SOL    HW226880   4.159   2.821   5.841  0.5243  1.3466 -0.8091
 5083SOL     OW26881   3.975   3.362   4.684 -0.0444 -0.1571  0.3084
 5083SOL    HW126882   4.065   3.377   4.656 -0.3308  2.9380  1.0454
 5083SOL    HW226883   3.918   3.405   4.620  0.1963 -0.4974 -0.1344
 5084SOL     OW26884   1.489   3.393  10.984  0.3459 -0.4173 -0.4902
 5084SOL    HW126885   1.568   3.442  11.007  0.6362 -0.4576 -1.4317
 5084SOL    HW226886   1.520   3.336  10.914  0.3961 -0.0723 -0.7471
 5085SOL     OW26887   4.596   4.372   6.537  0.3889  0.2571 -0.5799
 5085SOL    HW126888   4.669   4.407   6.487  0.2726  1.7565  0.2824
 5085SOL    HW226889   4.538   4.448   6.545  2.2498  1.3738  2.0843
 5086SOL     OW26890   1.391   2.115   7.911  0.1277 -0.6901  0.5029
 5086SOL    HW126891   1.435   2.105   7.827  0.7947  2.1660  0.5281
 5086SOL    HW226892   1.454   2.132   7.981  0.5999  1.2267 -0.3926
 5087SOL     OW26893   2.626   1.826   7.720 -0.1389 -0.1776  0.1196
 5087SOL    HW126894   2.614   1.918   7.744 -0.6188 -0.0581 -0.5804
 5087SOL    HW226895   2.703   1.830   7.663 -0.2949  1.8059  0.0630
 5088SOL     OW26896   1.961   2.585   7.706  0.2678 -0.2176  0.2390
 5088SOL    HW126897   1.913   2.545   7.778 -0.6088 -2.1435 -1.4086
 5088SOL    HW226898   1.899   2.584   7.633 -1.4463 -0.8212  1.7244
 5089SOL     OW26899   3.861   4.259  11.167 -0.1907  0.0216  0.3080
 5089SOL    HW126900   3.912   4.206  11.105  0.4405  0.1399  0.7300
 5089SOL    HW226901   3.803   4.188  11.195 -1.0630  2.1305  3.7525
 5090SOL     OW26902   0.526   4.528   8.716  0.1932 -0.1875  0.1718
 5090SOL    HW126903   0.461   4.542   8.647  1.1527 -1.6211 -1.0311
 5090SOL    HW226904   0.547   4.435   8.706 -0.6934 -0.2614 -1.0157
 5091SOL     OW26905   1.173   1.030   6.767  0.1438 -0.1955 -0.2453
 5091SOL    HW126906   1.147   1.122   6.762 -0.8619 -0.4615  0.1718
 5091SOL    HW226907   1.220   1.031   6.851 -0.4969 -0.2480  0.1120
 5092SOL     OW26908   4.729   3.598   7.497  0.4077  0.3506  0.2000
 5092SOL    HW126909   4.704   3.596   7.590  0.4319 -0.4776  0.1830
 5092SOL    HW226910   4.701   3.513   7.465  0.2979  0.4350  0.0705
 5093SOL     OW26911   4.448   1.964  13.402 -0.1422  0.0048 -0.0839
 5093SOL    HW126912   4.415   1.981  13.490 -0.4379  3.2795 -0.8222
 5093SOL    HW226913   4.401   2.031  13.353 -0.3217 -2.3404 -3.1096
 5094SOL     OW26914   4.311   2.543   4.092 -0.0621  0.1169  0.0150
 5094SOL    HW126915   4.221   2.574   4.098  0.1566  0.9001 -0.7508
 5094SOL    HW226916   4.324   2.503   4.178  0.9578  1.0327  0.2833
 5095SOL     OW26917   3.694   2.503   4.098  0.5339 -0.0483  0.2424
 5095SOL    HW126918   3.717   2.422   4.054  0.3690  0.5306 -0.9170
 5095SOL    HW226919   3.678   2.550   4.017  1.3617 -1.8251 -0.9429
 5096SOL     OW26920   2.911   4.658   8.214 -0.2198 -0.2494 -0.2143
 5096SOL    HW126921   2.957   4.650   8.130 -0.2564  0.1790 -0.2749
 5096SOL    HW226922   2.986   4.664   8.272 -0.2905  2.0993 -0.3473
 5097SOL     OW26923   2.751   0.262   8.976  0.6228 -0.1662  0.0206
 5097SOL    HW126924   2.722   0.171   8.968 -1.0735  0.4816 -1.3846
 5097SOL    HW226925   2.676   0.307   8.937  2.3115  0.8467 -2.0485
 5098SOL     OW26926   3.039   2.572  14.612  0.3643 -0.2252  0.3685
 5098SOL    HW126927   2.989   2.603  14.536  2.6996  0.7279 -0.7793
 5098SOL    HW226928   3.126   2.605  14.590  1.0543 -2.3688 -0.1403
 5099SOL     OW26929   2.451   2.182   0.153  0.9386 -0.2446  0.1236
 5099SOL    HW126930   2.368   2.136   0.145 -0.0134  1.6043 -0.5249
 5099SOL    HW226931   2.435   2.258   0.208  0.0471 -0.7965  0.6256
 5100SOL     OW26932   3.590   4.724   7.486 -0.0684 -0.2947  0.7376
 5100SOL    HW126933   3.561   4.701   7.398 -2.0607  0.0297  1.3123
 5100SOL    HW226934   3.675   0.028   7.474 -1.9952  2.9900 -1.1038
 5101SOL     OW26935   1.939   2.694   6.294 -0.4996  0.2865 -0.0433
 5101SOL    HW126936   1.853   2.656   6.276 -1.3856  1.6610  1.2490
 5101SOL    HW226937   1.918   2.782   6.323  0.2774  0.3126  0.4686
 5102SOL     OW26938   1.451   1.817   4.687 -0.1690  0.4082 -0.2306
 5102SOL    HW126939   1.419   1.744   4.740 -1.8197  0.7971 -0.6770
 5102SOL    HW226940   1.402   1.889   4.727 -0.6572  0.5660 -1.0897
 5103SOL     OW26941   1.881   0.889  12.775 -0.2719  0.2102  0.4099
 5103SOL    HW126942   1.869   0.976  12.812  1.3218  0.4399  0.3753
 5103SOL    HW226943   1.883   0.851  12.863  0.8029  0.7748  0.6352
 5104SOL     OW26944   3.457   3.828  11.024 -0.0523  0.7067 -0.1538
 5104SOL    HW126945   3.398   3.767  10.981  1.1434 -0.3398 -0.3077
 5104SOL    HW226946   3.473   3.788  11.109 -2.2812 -1.6907 -0.8929
 5105SOL     OW26947   4.420   0.941   6.301  0.0155  0.3770  0.5082
 5105SOL    HW126948   4.455   0.996   6.231 -0.1175 -0.7891 -0.4892
 5105SOL    HW226949   4.378   1.003   6.359 -0.7959  1.1774 -0.9419
 5106SOL     OW26950   3.099   0.743  10.947  0.4380 -0.3228 -0.1946
 5106SOL    HW126951   3.178   0.688  10.952  1.0701  0.7040  1.3215
 5106SOL    HW226952   3.029   0.683  10.921  0.0625 -0.4096  1.0196
 5107SOL     OW26953   0.062   3.008   8.361 -0.4257 -0.8257  0.0531
 5107SOL    HW126954   0.128   3.071   8.330 -0.6397 -1.4540 -1.6559
 5107SOL    HW226955   0.076   2.940   8.296  0.5137 -2.1642  1.6352
 5108SOL     OW26956   3.371   3.578   4.301  0.3965  0.4476 -0.2497
 5108SOL    HW126957   3.290   3.535   4.274  0.6201 -0.7257  0.9812
 5108SOL    HW226958   3.346   3.670   4.286 -0.3407  0.3420  0.3675
 5109SOL     OW26959   2.054   4.542  12.122  0.0912  0.1713  0.5100
 5109SOL    HW126960   2.089   4.550  12.210 -1.3717  1.2080  0.9961
 5109SOL    HW226961   2.134   4.536  12.070 -1.0605  0.0786 -1.2697
 5110SOL     OW26962   4.124   4.475   3.202 -0.7578  0.1633  0.0739
 5110SOL    HW126963   4.039   4.511   3.176  0.1605  0.6876 -2.2578
 5110SOL    HW226964   4.169   4.503   3.122 -0.8150 -0.9495 -0.3454
 5111SOL     OW26965   0.817   1.620  12.242 -0.7108  0.5016  0.2915
 5111SOL    HW126966   0.759   1.672  12.186  0.1716  0.4822 -0.6439
 5111SOL    HW226967   0.755   1.574  12.299 -0.5546 -1.1304 -0.8502
 5112SOL     OW26968   2.432   2.826   1.360 -0.7378  0.1473 -0.1055
 5112SOL    HW126969   2.455   2.741   1.399 -0.5427  1.2976  2.2475
 5112SOL    HW226970   2.345   2.841   1.397  0.0655 -0.4964  2.0957
 5113SOL     OW26971   3.060   3.724   9.771 -0.1895 -0.2125 -0.0689
 5113SOL    HW126972   3.128   3.782   9.802 -1.0598  1.5197 -1.4072
 5113SOL    HW226973   2.991   3.788   9.787  1.9224  1.7486  1.1440
 5114SOL     OW26974   0.047   1.170   8.927  0.0777 -0.3123 -0.6239
 5114SOL    HW126975   4.724   1.212   8.867 -0.8819  0.6322  1.0156
 5114SOL    HW226976   0.089   1.109   8.866  1.5192 -0.6939  0.7516
 5115SOL     OW26977   1.305   1.452   4.149 -0.0367 -0.8034 -0.0226
 5115SOL    HW126978   1.303   1.486   4.239  2.7588 -1.0874  0.1530
 5115SOL    HW226979   1.389   1.407   4.153 -0.2275 -1.2063 -0.5827
 5116SOL     OW26980   2.572   1.449   7.790  0.4568  0.0382 -0.0766
 5116SOL    HW126981   2.521   1.527   7.809  2.5145  1.8328 -1.9406
 5116SOL    HW226982   2.509   1.387   7.753  0.3420  0.1391 -0.0478
 5117SOL     OW26983   2.682   3.496  12.329  0.1676  0.1148 -0.0146
 5117SOL    HW126984   2.630   3.563  12.373  0.7212 -1.4584  3.0041
 5117SOL    HW226985   2.761   3.550  12.328 -1.5626  2.5911 -0.8868
 5118SOL     OW26986   0.797   1.858   1.419  0.0302  0.1111  0.7114
 5118SOL    HW126987   0.748   1.824   1.494  2.8187 -1.6225  1.7857
 5118SOL    HW226988   0.722   1.865   1.360  0.9983 -0.6821 -0.6144
 5119SOL     OW26989   2.385   0.505   2.508  0.3250 -0.0488 -0.4310
 5119SOL    HW126990   2.386   0.586   2.559  2.7210 -0.1259 -0.3445
 5119SOL    HW226991   2.435   0.444   2.562  1.1158  0.6181 -0.4001
 5120SOL     OW26992   1.370   3.376  11.454 -0.0461  0.1445 -0.3404
 5120SOL    HW126993   1.332   3.350  11.370 -0.4374 -2.7223  0.7071
 5120SOL    HW226994   1.383   3.291  11.497 -1.0001  0.2046  0.0611
 5121SOL     OW26995   3.847   2.415   7.054  0.1109  0.9324  0.1494
 5121SOL    HW126996   3.754   2.436   7.061 -0.0283  0.2596  0.3386
 5121SOL    HW226997   3.855   2.369   7.139 -1.1025  1.2470  0.4338
 5122SOL     OW26998   4.718   3.266   2.502  0.2265 -0.0283  0.7583
 5122SOL    HW126999   0.031   3.320   2.561  0.6507 -0.4386  0.7614
 5122SOL    HW227000   0.018   3.179   2.514 -1.0327 -0.6875  0.0070
 5123SOL     OW27001   2.692   1.417   4.212  0.3457 -0.0060  0.0558
 5123SOL    HW127002   2.707   1.389   4.121 -0.2323 -1.6220  0.4506
 5123SOL    HW227003   2.703   1.511   4.202  1.4594 -0.3125 -1.6429
 5124SOL     OW27004   4.001   4.705   9.912 -0.1050 -0.4367 -0.1428
 5124SOL    HW127005   3.992   0.060   9.925  1.2785 -0.3256  0.0014
 5124SOL    HW227006   4.086   4.692   9.868  0.4402 -1.2840  1.1509
 5125SOL     OW27007   2.527   2.028   5.632  0.5780  0.5787 -0.2523
 5125SOL    HW127008   2.584   2.076   5.693 -1.3776 -0.7978  2.6426
 5125SOL    HW227009   2.570   2.058   5.553  0.4041  1.3071 -0.0715
 5126SOL     OW27010   0.678   2.391   5.198 -1.2185 -0.0905 -0.1648
 5126SOL    HW127011   0.590   2.416   5.225 -2.8764 -3.0507 -2.8146
 5126SOL    HW227012   0.723   2.474   5.182 -0.6493 -0.3321  0.1951
 5127SOL     OW27013   1.176   1.285   3.494 -0.3440  0.3545 -0.5871
 5127SOL    HW127014   1.180   1.297   3.399 -2.2515 -1.8993 -0.9571
 5127SOL    HW227015   1.265   1.265   3.526  0.4481  3.2295 -0.9572
 5128SOL     OW27016   0.175   1.019   5.684  0.0436 -0.2602 -0.6660
 5128SOL    HW127017   0.166   0.997   5.777 -2.0988 -0.1725 -0.8575
 5128SOL    HW227018   0.248   1.080   5.687 -2.0540  2.2073  0.3461
 5129SOL     OW27019   0.486   3.407   4.899  0.7199 -0.0284 -0.3139
 5129SOL    HW127020   0.568   3.392   4.945  0.6662 -0.2210 -0.2800
 5129SOL    HW227021   0.512   3.418   4.807 -4.0754  0.9126 -1.5696
 5130SOL     OW27022   0.918   1.461   2.293 -0.0075  0.3124  0.0186
 5130SOL    HW127023   1.004   1.490   2.261  0.4084  1.6604  2.3520
 5130SOL    HW227024   0.932   1.426   2.381  0.9677 -1.6339 -0.9139
 5131SOL     OW27025   0.966   0.827   7.706 -0.0297 -0.2360  0.1434
 5131SOL    HW127026   0.907   0.766   7.752 -0.5142  1.1746  1.4094
 5131SOL    HW227027   0.987   0.886   7.779 -1.6503  2.6168 -1.7050
 5132SOL     OW27028   2.758   3.657  15.870 -0.7116  0.1994 -0.0795
 5132SOL    HW127029   2.748   3.594  15.799 -0.2483  0.8437 -0.7158
 5132SOL    HW227030   2.744   3.738  15.820 -1.4311 -0.4787 -0.9666
 5133SOL     OW27031   1.093   0.340  16.226 -0.1641  0.6153 -0.0430
 5133SOL    HW127032   1.061   0.382  16.306  0.4891 -2.9741  2.0769
 5133SOL    HW227033   1.081   0.402  16.155 -1.4084  0.5622  0.1222
 5134SOL     OW27034   1.190   0.277   5.564  0.0984  0.5594 -0.4449
 5134SOL    HW127035   1.130   0.330   5.512 -1.5692  0.6797  1.6045
 5134SOL    HW227036   1.212   0.214   5.496 -0.7271 -0.1949 -0.0107
 5135SOL     OW27037   0.669   4.401   5.283  0.0590 -0.3287  0.0751
 5135SOL    HW127038   0.643   4.452   5.359  0.3216 -1.6871  1.0824
 5135SOL    HW227039   0.586   4.384   5.237  1.4473 -1.3935 -2.0155
 5136SOL     OW27040   1.487   0.643   4.408 -0.3855 -0.5182  0.1886
 5136SOL    HW127041   1.411   0.586   4.400 -1.6533  0.9576  1.4698
 5136SOL    HW227042   1.522   0.622   4.495 -0.8950 -1.7523  0.0834
 5137SOL     OW27043   3.641   0.203   3.390  0.6458 -0.2395 -0.0763
 5137SOL    HW127044   3.558   0.192   3.343  0.3146  1.2051  0.1852
 5137SOL    HW227045   3.608   0.241   3.471  2.0287  0.7112  0.0315
 5138SOL     OW27046   0.244   1.441   4.695 -0.2348 -0.2486  0.2397
 5138SOL    HW127047   0.297   1.485   4.628 -2.2341 -0.9774 -1.8161
 5138SOL    HW227048   0.204   1.517   4.738  0.5689 -0.0665  0.6735
 5139SOL     OW27049   0.040   3.879   1.965  0.7276  0.6547 -0.4212
 5139SOL    HW127050   4.716   3.837   2.023  0.7024  0.0680 -0.8726
 5139SOL    HW227051   0.121   3.835   1.991 -0.7022 -1.0753  1.0317
 5140SOL     OW27052   2.211   0.441   6.755 -0.1728 -0.2828 -0.8496
 5140SOL    HW127053   2.173   0.355   6.734 -0.2026 -0.2949 -0.7437
 5140SOL    HW227054   2.267   0.419   6.829 -1.0523  1.4209  0.3171
 5141SOL     OW27055   3.358   1.541   1.598 -0.5608 -0.1088 -1.3002
 5141SOL    HW127056   3.447   1.506   1.592  0.7751  2.6359  2.3246
 5141SOL    HW227057   3.323   1.454   1.615  1.1542 -0.0720  2.4280
 5142SOL     OW27058   4.654   2.470   9.318 -0.5128 -0.4197 -0.0951
 5142SOL    HW127059   4.705   2.391   9.298 -0.6713 -0.1676 -1.4906
 5142SOL    HW227060   4.701   2.507   9.392  0.9420 -3.2891  0.4341
 5143SOL     OW27061   1.577   3.159  11.300  0.8695  0.6391 -0.5300
 5143SOL    HW127062   1.643   3.188  11.237 -0.2348  3.0105 -0.5643
 5143SOL    HW227063   1.595   3.224  11.368 -0.9183  0.8966 -0.3043
 5144SOL     OW27064   2.642   0.928   7.553  0.5536  0.1626  0.3047
 5144SOL    HW127065   2.574   0.954   7.492  2.9546  2.3407 -1.4013
 5144SOL    HW227066   2.659   1.012   7.595  0.8903  1.5856 -2.6735
 5145SOL     OW27067   0.227   2.629  14.897  0.5412  0.5988  0.5446
 5145SOL    HW127068   0.177   2.590  14.969 -0.2150  2.9571  1.2999
 5145SOL    HW227069   0.312   2.588  14.911  0.5410  1.4119  2.9313
 5146SOL     OW27070   3.151   0.247   9.480 -0.4713 -0.7671 -0.0249
 5146SOL    HW127071   3.197   0.328   9.501 -0.2514 -0.4480 -1.7270
 5146SOL    HW227072   3.190   0.228   9.394  0.5827 -2.3399  0.8067
 5147SOL     OW27073   1.673   0.570   0.061 -0.4528  0.0951  0.4388
 5147SOL    HW127074   1.691   0.477   0.069 -2.1576 -0.1961  0.9790
 5147SOL    HW227075   1.732   0.607   0.127  0.0560 -1.3911  0.8104
 5148SOL     OW27076   3.530   4.202   2.872 -0.5818  0.3220 -0.5994
 5148SOL    HW127077   3.576   4.285   2.877 -0.8834  0.3832  0.8789
 5148SOL    HW227078   3.535   4.195   2.776  1.8121  5.3119 -0.8208
 5149SOL     OW27079   2.940   0.624   5.396  0.3182  0.1146 -0.2547
 5149SOL    HW127080   2.887   0.558   5.441 -1.6183  0.8417 -1.4378
 5149SOL    HW227081   2.885   0.658   5.325 -0.3686 -2.4692 -0.9902
 5150SOL     OW27082   4.136   1.793  10.959  0.6714  0.5708 -0.0707
 5150SOL    HW127083   4.194   1.719  10.941 -2.1305 -1.6273  0.0304
 5150SOL    HW227084   4.170   1.816  11.045 -4.9893  2.7394  1.5802
 5151SOL     OW27085   1.733   4.402   7.989 -0.4166 -0.0953  0.0396
 5151SOL    HW127086   1.798   4.456   7.942 -0.3980 -1.4410 -1.4876
 5151SOL    HW227087   1.652   4.450   7.973 -0.2708 -0.1110 -0.7512
 5152SOL     OW27088   1.896   0.391   8.171 -0.2668  0.0270 -0.4318
 5152SOL    HW127089   1.875   0.412   8.080 -1.1311 -1.4436 -0.5637
 5152SOL    HW227090   1.915   0.480   8.203  0.9461  0.1519 -1.4753
 5153SOL     OW27091   0.617   4.577   4.706  0.2848 -0.1721 -0.0320
 5153SOL    HW127092   0.631   4.487   4.733 -0.5046  0.0309  1.0844
 5153SOL    HW227093   0.687   4.620   4.755 -0.0261 -0.9349  1.0898
 5154SOL     OW27094   1.581   3.541  16.700 -0.1326  0.3601  0.3354
 5154SOL    HW127095   1.533   3.612  16.658 -0.9078 -1.3738 -1.6859
 5154SOL    HW227096   1.611   3.501  16.619 -1.2479 -0.5805  0.3924
 5155SOL     OW27097   0.258   1.103   5.262  0.4209  0.0157  0.3780
 5155SOL    HW127098   0.342   1.148   5.272  0.3816  0.2235 -0.2095
 5155SOL    HW227099   0.287   1.017   5.235 -1.0416 -0.2190 -0.4562
 5156SOL     OW27100   0.610   2.612   7.391  0.0660  0.4729  0.5737
 5156SOL    HW127101   0.581   2.699   7.366 -0.6670 -0.4521 -1.8604
 5156SOL    HW227102   0.526   2.578   7.423 -0.3738 -0.7822 -1.9146
 5157SOL     OW27103   3.039   1.780   1.723  0.5393 -0.1142  0.1103
 5157SOL    HW127104   3.014   1.782   1.630  1.2016  0.7616 -0.0511
 5157SOL    HW227105   2.949   1.764   1.749  0.9884  0.0675  1.7895
 5158SOL     OW27106   2.190   0.903   8.080  0.2698 -0.1615  0.2218
 5158SOL    HW127107   2.246   0.854   8.021  0.0219 -2.3559  1.8133
 5158SOL    HW227108   2.150   0.827   8.123 -1.6553  1.5349  1.4724
 5159SOL     OW27109   0.171   2.128   6.455  0.3582  0.1958  0.2066
 5159SOL    HW127110   0.131   2.041   6.449 -0.2536  0.6132 -2.1171
 5159SOL    HW227111   0.100   2.191   6.468  0.9358  0.3723  2.4827
 5160SOL     OW27112   2.307   1.800   8.541 -0.0955 -0.4659  0.3582
 5160SOL    HW127113   2.296   1.708   8.516 -0.3781 -0.7889  1.7110
 5160SOL    HW227114   2.222   1.842   8.542  0.3594  0.5275 -1.7313
 5161SOL     OW27115   2.897   4.144   6.475 -0.6113 -0.3221 -0.2612
 5161SOL    HW127116   2.870   4.174   6.562 -0.4423  0.1419 -0.3679
 5161SOL    HW227117   2.986   4.179   6.472 -1.7333  2.4910 -1.3055
 5162SOL     OW27118   2.290   3.688  17.710  0.6326  0.3049 -0.0674
 5162SOL    HW127119   2.218   3.732   0.002 -1.2779 -1.5257 -1.3072
 5162SOL    HW227120   2.299   3.732  17.625 -0.2064 -0.5886 -0.6133
 5163SOL     OW27121   3.499   3.568   8.559  0.1054 -0.5152 -0.1223
 5163SOL    HW127122   3.593   3.552   8.562 -0.3299 -3.1543 -0.1938
 5163SOL    HW227123   3.490   3.631   8.488 -1.2650 -1.5752 -0.8799
 5164SOL     OW27124   4.287   3.731  14.210 -0.0848  0.2891  0.5364
 5164SOL    HW127125   4.286   3.641  14.179  0.2099 -0.6621  3.2849
 5164SOL    HW227126   4.382   3.747  14.204 -0.1129  0.8815  1.7240
 5165SOL     OW27127   3.133   0.349  17.184  0.2296  0.0281 -0.2846
 5165SOL    HW127128   3.050   0.388  17.156 -0.1399  0.2888  1.1488
 5165SOL    HW227129   3.123   0.255  17.176  1.7366 -0.0542 -0.9905
 5166SOL     OW27130   3.113   0.920   6.474  0.2018  0.2223 -0.0696
 5166SOL    HW127131   3.071   0.985   6.530 -0.0594  2.0949 -2.4312
 5166SOL    HW227132   3.068   0.924   6.390 -1.2334  1.4193  0.7706
 5167SOL     OW27133   0.217   3.713   0.986  0.1086 -0.2602  0.5543
 5167SOL    HW127134   0.259   3.639   0.943 -0.0384 -0.3709  0.6018
 5167SOL    HW227135   0.288   3.777   0.986 -1.8613  1.9438  1.2216
 5168SOL     OW27136   4.494   0.285   8.504 -0.0675 -0.1651  0.2311
 5168SOL    HW127137   4.405   0.310   8.483 -1.0515 -3.4596  0.3747
 5168SOL    HW227138   4.494   0.189   8.503  0.2261 -0.1574 -0.6540
 5169SOL     OW27139   0.552   2.914  11.166 -0.3649  0.3621 -0.4980
 5169SOL    HW127140   0.518   2.967  11.094 -1.0279 -0.5757 -0.8758
 5169SOL    HW227141   0.472   2.883  11.208  0.2390 -2.0629 -1.1267
 5170SOL     OW27142   2.878   4.163  14.866  0.2084  0.3704  0.1926
 5170SOL    HW127143   2.874   4.107  14.943 -0.5887  1.0747  0.6679
 5170SOL    HW227144   2.881   4.101  14.794 -0.4618 -0.5506  0.9569
 5171SOL     OW27145   3.701   1.378   1.957  0.0100  0.3584  0.2026
 5171SOL    HW127146   3.720   1.469   1.932 -0.0728 -0.4362 -2.8272
 5171SOL    HW227147   3.622   1.389   2.010  0.3799  0.1845  0.7822
 5172SOL     OW27148   1.759   0.759  10.755 -0.0488  0.3907 -0.6253
 5172SOL    HW127149   1.852   0.749  10.775 -0.2878  2.3331  1.5231
 5172SOL    HW227150   1.713   0.726  10.832 -0.3757  0.1477 -0.9275
 5173SOL     OW27151   3.413   1.741   5.611  0.0552 -0.6935 -0.3734
 5173SOL    HW127152   3.335   1.765   5.560  0.8594 -1.1886 -1.8204
 5173SOL    HW227153   3.409   1.809   5.678 -0.0392  0.5802 -1.6692
 5174SOL     OW27154   4.465   3.851   7.917  0.3249 -0.2900  0.1263
 5174SOL    HW127155   4.468   3.788   7.989  0.2975 -2.4058 -1.7325
 5174SOL    HW227156   4.559   3.873   7.914  0.0701  0.6919 -0.6097
 5175SOL     OW27157   4.122   2.960  16.661  0.0975  0.0727 -0.1544
 5175SOL    HW127158   4.081   2.901  16.598  2.5441 -0.6457 -1.0702
 5175SOL    HW227159   4.167   3.020  16.601 -1.0079  0.8303 -0.2274
 5176SOL     OW27160   1.362   2.448   1.281  0.0382  0.3618  0.2968
 5176SOL    HW127161   1.426   2.392   1.325 -0.3462 -0.6270 -0.4013
 5176SOL    HW227162   1.289   2.390   1.261  0.2614 -0.1810  1.0749
 5177SOL     OW27163   4.496   3.086   4.428  0.7930  0.2192  0.3359
 5177SOL    HW127164   4.471   3.015   4.369  3.0971  0.9739 -1.5702
 5177SOL    HW227165   4.428   3.094   4.494  0.0038  0.7741 -0.5355
 5178SOL     OW27166   0.335   1.115   8.331 -0.1357 -0.1574 -0.2660
 5178SOL    HW127167   0.322   1.209   8.321  2.8702  0.3261  0.3754
 5178SOL    HW227168   0.411   1.106   8.389  0.6036  1.4267 -0.9911
 5179SOL     OW27169   0.255   3.147   2.094 -0.0229 -0.2968 -0.0893
 5179SOL    HW127170   0.259   3.235   2.057 -1.7953  1.0363  2.8958
 5179SOL    HW227171   0.249   3.165   2.188  1.5576 -3.8839  0.7017
 5180SOL     OW27172   1.068   0.044   4.603  0.0876 -0.6231  0.1202
 5180SOL    HW127173   1.156   0.024   4.635  0.4068 -1.4170 -1.2720
 5180SOL    HW227174   1.038   4.695   4.581  0.8915 -0.2581 -2.4421
 5181SOL     OW27175   2.990   2.285   5.690 -0.1730  0.4147 -0.2862
 5181SOL    HW127176   2.898   2.261   5.679  0.0208 -0.8000  0.8177
 5181SOL    HW227177   3.015   2.302   5.599 -1.0255  0.4559 -0.5104
 5182SOL     OW27178   2.407   3.398   7.325 -0.1214 -0.5808  0.2251
 5182SOL    HW127179   2.375   3.489   7.326 -1.5810 -1.1408  3.2116
 5182SOL    HW227180   2.324   3.362   7.295  1.1309 -1.6925 -1.9104
 5183SOL     OW27181   0.029   1.942   9.307  0.1965  0.4599  0.4695
 5183SOL    HW127182   4.722   1.951   9.391 -1.0539 -0.5891 -0.1034
 5183SOL    HW227183   0.033   1.847   9.295 -1.1195  0.1447  2.5152
 5184SOL     OW27184   3.057   2.605   2.913  0.1580 -0.3686  0.3946
 5184SOL    HW127185   3.139   2.560   2.931  1.0645  0.3506 -2.0107
 5184SOL    HW227186   3.012   2.538   2.863 -1.7521  2.0295 -1.1278
 5185SOL     OW27187   0.065   1.821   1.776  0.1327 -0.0270  0.0170
 5185SOL    HW127188   0.026   1.733   1.771 -0.6762  0.2487  1.3462
 5185SOL    HW227189   0.129   1.811   1.847  1.3762 -1.0331 -1.2429
 5186SOL     OW27190   4.104   4.354   7.635 -0.2329 -0.2257 -0.2423
 5186SOL    HW127191   4.178   4.308   7.674  0.0153 -0.1976 -0.6845
 5186SOL    HW227192   4.049   4.278   7.656  1.7278 -1.4463  0.4112
 5187SOL     OW27193   0.507   1.311   3.602 -0.7863 -0.1431 -0.0527
 5187SOL    HW127194   0.575   1.330   3.537 -0.6308 -0.4290  0.0268
 5187SOL    HW227195   0.481   1.226   3.568 -0.2656 -0.8834  1.4075
 5188SOL     OW27196   3.015   0.271  11.030  0.7187  0.5854  0.0120
 5188SOL    HW127197   3.017   0.216  10.951 -0.7256  1.1631 -0.4283
 5188SOL    HW227198   2.982   0.358  11.006  0.2016  1.0149  2.3079
 5189SOL     OW27199   0.231   3.908   0.724  0.4568  0.3443 -0.0736
 5189SOL    HW127200   0.264   3.939   0.640 -0.1853  0.5430 -0.2509
 5189SOL    HW227201   0.231   3.992   0.771  0.8046  1.0295 -1.3129
 5190SOL     OW27202   2.630   4.407   2.829 -0.4920  0.1075 -0.0670
 5190SOL    HW127203   2.567   4.335   2.821 -1.4741  1.0859 -1.1790
 5190SOL    HW227204   2.630   4.455   2.746 -1.2969 -0.8326 -0.5987
 5191SOL     OW27205   2.013   2.874  13.920  0.3185  0.1507  0.5277
 5191SOL    HW127206   2.041   2.924  13.997 -0.8439  0.2933  0.8605
 5191SOL    HW227207   1.980   2.951  13.874  1.2859  0.4065  0.2555
 5192SOL     OW27208   1.938   4.691   8.373 -0.0505  0.4497 -0.4180
 5192SOL    HW127209   1.872   4.649   8.428  1.7997 -1.8155  0.0561
 5192SOL    HW227210   2.005   4.699   8.441  0.5453 -1.6992 -0.7304
 5193SOL     OW27211   4.440   4.455  15.557 -0.0466 -0.0790 -0.4336
 5193SOL    HW127212   4.386   4.508  15.498 -0.8610 -1.6990 -1.1347
 5193SOL    HW227213   4.528   4.494  15.555 -0.5650  1.1474  0.8844
 5194SOL     OW27214   1.012   1.988   5.544 -0.6758 -1.0327  0.2858
 5194SOL    HW127215   0.963   1.913   5.511  0.0509 -0.0514 -3.0612
 5194SOL    HW227216   1.000   2.055   5.477 -3.0760 -1.4716  0.2964
 5195SOL     OW27217   1.354   2.004  17.481 -0.1956  0.3964  0.5220
 5195SOL    HW127218   1.422   2.037  17.422  0.7428 -0.0853  1.3291
 5195SOL    HW227219   1.291   2.075  17.474  0.9128  1.1100 -2.5290
 5196SOL     OW27220   1.652   1.494   9.137 -0.7985 -0.0762  0.4039
 5196SOL    HW127221   1.674   1.476   9.046  0.5870  1.5722  0.4113
 5196SOL    HW227222   1.586   1.427   9.154 -1.7878  0.7923  0.0396
 5197SOL     OW27223   0.126   0.943   4.103  0.0431  0.6698  0.4575
 5197SOL    HW127224   0.109   0.849   4.097 -1.6067  0.8224  2.5980
 5197SOL    HW227225   0.199   0.943   4.164  1.3890  0.3364 -1.1649
 5198SOL     OW27226   3.917   0.231   9.640 -0.3261  0.1225  0.4089
 5198SOL    HW127227   3.887   0.157   9.693  1.0115 -2.1478 -1.9894
 5198SOL    HW227228   3.984   0.267   9.698 -0.3650  1.5469 -0.4113
 5199SOL     OW27229   0.841   4.003  12.104 -0.3780 -0.0177 -0.3794
 5199SOL    HW127230   0.775   3.949  12.061 -0.4547 -1.4369  1.5048
 5199SOL    HW227231   0.781   4.071  12.135  0.7771  0.1499  1.5052
 5200SOL     OW27232   2.423   0.043   1.774  0.4422  0.1360  0.4942
 5200SOL    HW127233   2.464   0.067   1.858  0.8344 -1.7967  0.8412
 5200SOL    HW227234   2.471   4.706   1.742  0.6829 -0.2406  1.7551
 5201SOL     OW27235   4.216   0.739  13.877 -0.2175 -0.1585 -0.4164
 5201SOL    HW127236   4.141   0.718  13.933 -0.8476  2.0606 -0.3991
 5201SOL    HW227237   4.170   0.785  13.807 -1.4140  1.4406  1.4069
 5202SOL     OW27238   2.676   3.929  15.818 -0.2217 -0.0904 -0.0751
 5202SOL    HW127239   2.715   3.930  15.731  1.2852 -3.3946  0.5571
 5202SOL    HW227240   2.632   4.014  15.822 -1.7430 -0.9442  1.7233
 5203SOL     OW27241   1.576   2.747   0.337  0.3763  0.1555 -0.3029
 5203SOL    HW127242   1.613   2.834   0.321  1.2575  0.0465  1.1574
 5203SOL    HW227243   1.644   2.698   0.383 -1.0813 -1.1168  0.4981
 5204SOL     OW27244   3.002   4.673   8.692  0.3773  0.3831 -0.4651
 5204SOL    HW127245   2.971   0.021   8.717  0.9796  0.0338  1.4393
 5204SOL    HW227246   3.064   4.701   8.624  1.1221 -3.3480 -1.3293
 5205SOL     OW27247   4.602   2.901  15.355  0.1697  0.4697 -0.3593
 5205SOL    HW127248   4.512   2.927  15.336  0.5712  1.2477 -1.2044
 5205SOL    HW227249   4.640   2.927  15.271  0.8747  0.1597 -0.1380
 5206SOL     OW27250   3.535   0.300   2.745 -0.1383 -0.6500  0.1659
 5206SOL    HW127251   3.474   0.257   2.804 -2.7562  1.5471 -0.9154
 5206SOL    HW227252   3.623   0.278   2.776  0.6771 -1.4053 -2.6829
 5207SOL     OW27253   3.280   1.456  13.314  0.4959 -1.0067 -0.4739
 5207SOL    HW127254   3.339   1.410  13.374  1.6637  1.3446  0.2295
 5207SOL    HW227255   3.273   1.393  13.243 -1.5304 -2.2587  0.8494
 5208SOL     OW27256   3.504   3.529   5.577 -0.7122  0.0695  0.0526
 5208SOL    HW127257   3.414   3.549   5.604 -1.3749 -1.9595 -0.7160
 5208SOL    HW227258   3.507   3.434   5.576  3.0358  0.2216 -3.2161
 5209SOL     OW27259   1.102   3.278   7.859 -0.3005 -0.1553 -0.1226
 5209SOL    HW127260   1.100   3.331   7.779  0.6174  0.4713  0.2639
 5209SOL    HW227261   1.036   3.214   7.832  0.3753 -1.1896  0.6653
 5210SOL     OW27262   2.112   3.350  13.753 -0.5677 -0.5938  0.1940
 5210SOL    HW127263   2.079   3.438  13.771 -1.5039 -0.8333 -0.3985
 5210SOL    HW227264   2.101   3.297  13.832  0.7484 -1.5871 -0.2879
 5211SOL     OW27265   0.585   0.362  17.044  0.0867  0.2741  0.0386
 5211SOL    HW127266   0.632   0.342  16.963  0.3263  1.1200 -0.0333
 5211SOL    HW227267   0.497   0.382  17.012  0.8689 -1.3456 -3.0579
 5212SOL     OW27268   2.146   4.398   5.286  0.5109  0.1871 -0.2367
 5212SOL    HW127269   2.066   4.428   5.244 -0.1405  0.7034  1.3778
 5212SOL    HW227270   2.198   4.345   5.226  0.2977 -2.7531  2.1932
 5213SOL     OW27271   4.082   3.317  17.639 -0.5822 -0.2347 -0.5082
 5213SOL    HW127272   4.064   3.334  17.546  0.3254  1.7920 -0.3240
 5213SOL    HW227273   4.003   3.352  17.679 -0.6138  0.8235 -1.4797
 5214SOL     OW27274   4.019   2.486   7.266  0.5957  0.5382  0.2764
 5214SOL    HW127275   3.966   2.563   7.289 -0.3641  0.5046 -1.8159
 5214SOL    HW227276   4.025   2.500   7.171  0.3508  0.0695  0.1917
 5215SOL     OW27277   0.256   3.740   7.928  0.6969  0.3783 -0.2732
 5215SOL    HW127278   0.178   3.685   7.935  2.5254 -1.9407  1.4776
 5215SOL    HW227279   0.281   3.725   7.837 -0.9308  2.4953 -1.0815
 5216SOL     OW27280   4.501   1.852   1.922  0.0384  0.2085  0.3822
 5216SOL    HW127281   4.568   1.916   1.901 -1.0470  0.6030 -1.8913
 5216SOL    HW227282   4.426   1.883   1.871  0.4088  0.7045  0.1375
 5217SOL     OW27283   2.882   2.017   5.425  0.1592  0.2530  0.5299
 5217SOL    HW127284   2.884   2.024   5.520 -0.3954  0.0668  0.5549
 5217SOL    HW227285   2.798   2.054   5.397 -0.4864 -2.0132 -0.5074
 5218SOL     OW27286   1.253   2.970   8.786 -0.3524  0.1348  0.2329
 5218SOL    HW127287   1.256   2.966   8.691  2.6946 -0.6286  0.3749
 5218SOL    HW227288   1.189   2.905   8.814  0.3823 -0.9881 -0.7196
 5219SOL     OW27289   4.461   4.573   3.747  0.0019  0.1721  0.4343
 5219SOL    HW127290   4.391   4.636   3.733 -0.9744 -0.2983  3.2333
 5219SOL    HW227291   4.449   4.523   3.667  1.6765 -0.4571  0.5718
 5220SOL     OW27292   2.902   4.195  17.373 -0.1992 -0.3729 -0.8530
 5220SOL    HW127293   2.913   4.279  17.328  0.4535  0.4062  0.7713
 5220SOL    HW227294   2.842   4.222  17.443  3.4707  0.7258  1.8161
 5221SOL     OW27295   3.848   0.262   4.006  0.0450 -0.5705 -0.1022
 5221SOL    HW127296   3.940   0.278   4.026 -0.3653  0.3097  1.1099
 5221SOL    HW227297   3.820   0.253   4.097  0.8764 -2.7686 -0.0676
 5222SOL     OW27298   1.794   3.383   4.637  0.6670  0.5178 -0.3734
 5222SOL    HW127299   1.784   3.380   4.732  3.7311 -1.0481 -0.1016
 5222SOL    HW227300   1.714   3.338   4.610  0.8873  0.6756 -1.3064
 5223SOL     OW27301   1.287   2.487   5.377  0.0588 -0.3839 -0.4831
 5223SOL    HW127302   1.206   2.474   5.427  0.7905 -1.4374  0.4305
 5223SOL    HW227303   1.259   2.550   5.311  2.0475 -0.2698 -1.2186
 5224SOL     OW27304   0.702   1.025   7.639 -0.7135  0.1418 -0.0388
 5224SOL    HW127305   0.710   1.036   7.544 -0.6816  1.8212  0.1549
 5224SOL    HW227306   0.773   0.962   7.655 -0.7400  0.3592  0.9104
 5225SOL     OW27307   2.415   3.735   6.434 -0.2851  0.1790 -0.6202
 5225SOL    HW127308   2.473   3.762   6.364  2.0829  1.1700  1.7312
 5225SOL    HW227309   2.453   3.654   6.467  0.3695  1.4869  1.8612
 5226SOL     OW27310   1.975   0.919   1.750  0.7648  0.7938 -0.1699
 5226SOL    HW127311   1.983   0.972   1.829  1.6959  1.7347 -0.8908
 5226SOL    HW227312   1.962   0.839   1.801 -1.0689  1.5960  0.6191
 5227SOL     OW27313   4.702   0.537   7.271 -0.5061  0.7904  0.2464
 5227SOL    HW127314   4.665   0.454   7.303  2.1831 -0.7103 -0.5587
 5227SOL    HW227315   0.020   0.558   7.345  0.4000 -2.4049  0.4529
 5228SOL     OW27316   3.179   4.596   9.644  0.0337  0.8768  0.3244
 5228SOL    HW127317   3.208   4.624   9.557 -1.6980  0.0738 -0.5231
 5228SOL    HW227318   3.112   4.528   9.633  1.2834 -0.2606 -0.2893
 5229SOL     OW27319   0.820   2.867   4.276  0.3536 -0.2177  0.2224
 5229SOL    HW127320   0.734   2.833   4.300  0.7776 -2.9375 -2.1487
 5229SOL    HW227321   0.801   2.940   4.218 -1.2762 -1.5865 -0.9358
 5230SOL     OW27322   0.185   0.672   3.503  0.2879 -0.2352  0.2258
 5230SOL    HW127323   0.221   0.757   3.527  0.9822  0.3553 -2.8755
 5230SOL    HW227324   0.194   0.621   3.583 -0.6453  0.5484  0.8321
 5231SOL     OW27325   3.062   2.785  11.588 -0.0700  0.7242 -0.7571
 5231SOL    HW127326   3.124   2.712  11.578 -3.0497 -2.1245  1.5631
 5231SOL    HW227327   3.115   2.853  11.548  1.2549  0.6761  0.9132
 5232SOL     OW27328   1.329   2.357  16.593  0.7379 -0.0236  0.5143
 5232SOL    HW127329   1.294   2.302  16.664 -3.2251  1.1755 -0.4851
 5232SOL    HW227330   1.282   2.337  16.512 -1.6732  2.8421  1.2255
 5233SOL     OW27331   1.534   3.680   3.160 -0.4210  0.0411 -0.7721
 5233SOL    HW127332   1.533   3.584   3.156 -1.1171  0.0367 -0.6088
 5233SOL    HW227333   1.551   3.703   3.251  0.1384  0.0620 -0.8846
 5234SOL     OW27334   2.864   1.208   0.868 -0.4476  0.1620  0.2399
 5234SOL    HW127335   2.810   1.156   0.809  0.3021 -0.8590  0.4589
 5234SOL    HW227336   2.897   1.267   0.801 -1.1595 -1.0350 -1.1683
 5235SOL     OW27337   0.011   1.550   5.857 -0.5481  0.6153  0.5898
 5235SOL    HW127338   4.706   1.592   5.784 -1.3116 -1.1586  0.0163
 5235SOL    HW227339   0.096   1.593   5.853  0.4501 -1.3393  0.8437
 5236SOL     OW27340   0.139   4.622   9.485  0.4348  0.5727 -0.2503
 5236SOL    HW127341   0.160   4.710   9.454  0.3109  1.1214  1.2289
 5236SOL    HW227342   0.214   4.572   9.453 -0.3787 -0.8487  0.0911
 5237SOL     OW27343   4.025   1.352   8.710  0.4808  0.4980 -0.1904
 5237SOL    HW127344   3.976   1.358   8.792 -1.4561 -1.4233 -1.2021
 5237SOL    HW227345   3.980   1.415   8.653 -0.7793 -0.9370 -0.7649
 5238SOL     OW27346   2.519   4.250   7.325  0.0538 -0.1622 -0.5554
 5238SOL    HW127347   2.562   4.244   7.239 -0.1199 -1.0513 -0.5779
 5238SOL    HW227348   2.430   4.241   7.292  0.6008 -1.5077 -1.6797
 5239SOL     OW27349   1.730   3.353   8.651 -0.1051 -0.0503  0.0167
 5239SOL    HW127350   1.691   3.265   8.648 -0.9932  0.4181 -1.9083
 5239SOL    HW227351   1.649   3.401   8.670  1.0648  1.8370  0.1877
 5240SOL     OW27352   2.270   4.410   1.982 -0.3160  0.7620  0.5170
 5240SOL    HW127353   2.349   4.358   1.965 -1.1001  0.0078 -0.8148
 5240SOL    HW227354   2.252   4.427   1.890  2.1533  0.5083 -0.0132
 5241SOL     OW27355   4.032   3.443   8.197 -0.5238  0.3570 -0.1993
 5241SOL    HW127356   3.996   3.416   8.113  2.3828  0.2408 -1.4141
 5241SOL    HW227357   4.042   3.361   8.246  0.5248 -0.3141 -1.5304
 5242SOL     OW27358   4.645   2.933   7.009 -0.4514  0.5797 -0.1732
 5242SOL    HW127359   4.577   2.981   6.961 -1.5762 -0.5411  0.2888
 5242SOL    HW227360   4.667   2.997   7.076  0.8198 -1.0638  0.9710
 5243SOL     OW27361   2.709   2.780   4.113 -0.0307 -0.7415  0.2323
 5243SOL    HW127362   2.786   2.814   4.160 -0.3108  2.8143 -1.9001
 5243SOL    HW227363   2.658   2.731   4.177 -1.2519 -0.6225 -0.6643
 5244SOL     OW27364   0.028   0.131   8.090  0.2181  0.2415  0.3524
 5244SOL    HW127365   4.735   0.188   8.161  0.1195  1.8059 -0.9317
 5244SOL    HW227366   0.055   0.048   8.129 -1.0099 -0.3829 -0.1244
 5245SOL     OW27367   3.077   3.672   6.184  0.2326 -0.1527 -0.5489
 5245SOL    HW127368   3.131   3.727   6.240  0.8935  0.3035 -1.6492
 5245SOL    HW227369   3.095   3.718   6.102  1.3662  0.6351  0.1555
 5246SOL     OW27370   1.239   3.659  11.065 -0.4569  0.3732 -0.1141
 5246SOL    HW127371   1.293   3.737  11.051  1.4002 -1.0840 -1.1537
 5246SOL    HW227372   1.248   3.644  11.159  1.8933  1.7999 -0.1029
 5247SOL     OW27373   2.437   3.824   1.005  0.0385  0.4192  0.4865
 5247SOL    HW127374   2.484   3.773   1.071  1.5903 -0.6097 -1.3994
 5247SOL    HW227375   2.498   3.808   0.933 -0.8044  1.9066 -0.5455
 5248SOL     OW27376   0.530   0.906   7.882 -0.3095 -0.0346 -0.7060
 5248SOL    HW127377   0.556   0.925   7.972  2.2740  1.2943 -1.7337
 5248SOL    HW227378   0.611   0.861   7.857 -0.6741 -0.7913 -0.5457
 5249SOL     OW27379   0.268   2.850   8.614  0.4648  0.3431  0.0947
 5249SOL    HW127380   0.319   2.840   8.694 -1.2928 -1.1669  1.0051
 5249SOL    HW227381   0.233   2.939   8.624 -0.0707  0.2688 -1.0287
 5250SOL     OW27382   0.563   1.370   8.955  0.3851 -0.7412  0.0782
 5250SOL    HW127383   0.523   1.365   8.868  1.4829 -1.2068 -0.4032
 5250SOL    HW227384   0.652   1.337   8.944  0.8752 -0.0083  1.9482
 5251SOL     OW27385   1.804   1.242   3.666  0.1145 -0.6253 -0.3749
 5251SOL    HW127386   1.783   1.155   3.702  1.1620 -0.0210  1.6309
 5251SOL    HW227387   1.820   1.217   3.575 -1.6821  1.3516 -1.2270
 5252SOL     OW27388   1.660   0.401  10.280  0.2227  0.0420 -0.4801
 5252SOL    HW127389   1.656   0.308  10.258  4.3279 -0.3278  0.4337
 5252SOL    HW227390   1.614   0.444  10.208  0.9189 -2.6597 -2.5739
 5253SOL     OW27391   2.885   0.152   0.992  0.0408 -0.0265  0.4247
 5253SOL    HW127392   2.847   0.064   0.992 -0.8946  0.3846 -0.4000
 5253SOL    HW227393   2.971   0.122   1.021  0.5608  0.3261 -0.7848
 5254SOL     OW27394   1.050   4.379   9.951  0.3533 -0.5119 -0.1111
 5254SOL    HW127395   1.030   4.354  10.041 -2.2854 -2.1740 -1.1378
 5254SOL    HW227396   0.965   4.358   9.911 -0.2940 -1.0304  1.5302
 5255SOL     OW27397   4.159   3.829  15.198  0.3483  0.1830  0.0771
 5255SOL    HW127398   4.213   3.800  15.271  2.5171  2.7879 -0.4871
 5255SOL    HW227399   4.187   3.921  15.199 -1.9013  0.9050 -1.7149
 5256SOL     OW27400   1.992   0.483   4.915  0.6286 -0.2610  0.2084
 5256SOL    HW127401   2.064   0.540   4.887  0.2327  0.0757 -0.1205
 5256SOL    HW227402   1.930   0.543   4.955  0.2106  0.8727 -2.1516
 5257SOL     OW27403   0.060   0.976  14.798 -0.1679 -0.5367 -0.0816
 5257SOL    HW127404   4.709   0.944  14.807  0.0538 -0.7851  1.2296
 5257SOL    HW227405   0.039   1.049  14.739  1.1092 -0.7904 -0.8606
 5258SOL     OW27406   1.312   0.121   1.559 -0.1812 -0.0133  0.0190
 5258SOL    HW127407   1.231   0.084   1.594 -1.1484  1.8672 -0.2005
 5258SOL    HW227408   1.294   0.214   1.541  1.2667  0.5589  1.5894
 5259SOL     OW27409   0.853   3.957   1.411 -0.3302  0.0114 -0.0655
 5259SOL    HW127410   0.766   3.920   1.428  0.0516  0.5464  3.0005
 5259SOL    HW227411   0.902   3.876   1.394 -0.5299 -0.5914  2.2101
 5260SOL     OW27412   4.594   1.552   3.878 -0.2632  0.2089  0.8096
 5260SOL    HW127413   4.509   1.509   3.882  0.0952 -0.4746  0.9593
 5260SOL    HW227414   4.638   1.507   3.806 -1.9887 -0.4068  0.1441
 5261SOL     OW27415   2.305   3.526   1.784  0.8113  0.4172 -0.9902
 5261SOL    HW127416   2.318   3.606   1.835  0.6932 -0.1435 -0.0775
 5261SOL    HW227417   2.395   3.493   1.782  0.6899  0.0586 -0.4742
 5262SOL     OW27418   3.316   2.808  16.469 -0.2179 -0.2280 -0.3653
 5262SOL    HW127419   3.332   2.718  16.497 -3.6198 -0.0211  2.1975
 5262SOL    HW227420   3.337   2.789  16.377  0.0746 -1.4111 -0.0568
 5263SOL     OW27421   1.321   1.767  16.414  0.9484 -0.3371  0.0790
 5263SOL    HW127422   1.244   1.762  16.470  2.1051  0.3428  1.7264
 5263SOL    HW227423   1.340   1.860  16.404 -3.9147  0.6193 -0.3074
 5264SOL     OW27424   0.767   0.133   7.237  0.5772  0.1765  0.6866
 5264SOL    HW127425   0.778   0.098   7.149 -1.2059  1.6820 -0.1233
 5264SOL    HW227426   0.704   0.205   7.227  1.1679  0.5061 -0.6460
 5265SOL     OW27427   3.525   0.006  17.688 -0.4005 -0.0164  0.0927
 5265SOL    HW127428   3.462   0.075  17.671  0.6329  0.4322 -1.8084
 5265SOL    HW227429   3.597   0.048  17.642 -0.1909  0.4671  0.8648
 5266SOL     OW27430   0.225   0.996  15.389 -0.3942 -0.5575  0.1010
 5266SOL    HW127431   0.305   0.974  15.341  0.2727 -1.5204  1.6727
 5266SOL    HW227432   0.209   1.086  15.360  0.6044 -1.0908 -2.1041
 5267SOL     OW27433   0.734   4.731   8.574 -0.0605  0.2152  0.0511
 5267SOL    HW127434   0.719   4.638   8.586  1.8696  0.3341  3.4600
 5267SOL    HW227435   0.662   0.039   8.617 -0.0503 -2.6939  3.2368
 5268SOL     OW27436   3.181   0.952   5.495 -0.5568 -0.1421  0.3959
 5268SOL    HW127437   3.197   0.889   5.424  1.1202 -1.9701  2.3810
 5268SOL    HW227438   3.225   0.911   5.569  0.9970 -0.6933 -0.8261
 5269SOL     OW27439   0.562   2.284   7.452 -0.2870  0.1006  0.7669
 5269SOL    HW127440   0.622   2.340   7.403  0.1898 -1.0086  0.0865
 5269SOL    HW227441   0.493   2.347   7.471 -0.9796 -0.2290 -0.6881
 5270SOL     OW27442   1.393   0.713  16.090  0.4452  0.0677 -0.3306
 5270SOL    HW127443   1.362   0.670  16.170  0.7656  0.5033  0.0261
 5270SOL    HW227444   1.416   0.804  16.107  3.0088 -0.9446  1.5801
 5271SOL     OW27445   4.194   4.718   6.537 -0.0696  0.1732  0.1386
 5271SOL    HW127446   4.201   0.074   6.533  0.7383  0.0656 -1.2824
 5271SOL    HW227447   4.108   4.695   6.573 -0.6710  2.0865 -0.0751
 5272SOL     OW27448   2.042   3.727   1.592 -0.4161 -0.1336  0.8982
 5272SOL    HW127449   1.987   3.754   1.519 -0.6782  1.0517  1.5315
 5272SOL    HW227450   1.983   3.679   1.649 -1.2941  0.3663  0.4198
 5273SOL     OW27451   3.028   1.370   6.331 -0.0485  0.0644  0.1997
 5273SOL    HW127452   3.118   1.336   6.332 -0.3034 -0.5623  1.7574
 5273SOL    HW227453   3.026   1.437   6.262 -1.1816  0.4961  0.6611
 5274SOL     OW27454   3.403   2.808   7.991 -0.6414  0.1609  0.0445
 5274SOL    HW127455   3.431   2.731   8.041 -0.4522 -0.3638 -0.8745
 5274SOL    HW227456   3.356   2.778   7.913 -0.2543 -1.5117  0.4467
 5275SOL     OW27457   2.269   4.656  10.043  0.4320 -0.0674  0.0478
 5275SOL    HW127458   2.313   4.581  10.082  0.4329  0.8216  1.7673
 5275SOL    HW227459   2.328   4.664   9.968  0.5761  0.2373  0.1901
 5276SOL     OW27460   1.448   2.641  10.783  0.1706  0.0318  0.4525
 5276SOL    HW127461   1.431   2.727  10.742 -0.2760 -0.0196  0.5251
 5276SOL    HW227462   1.522   2.600  10.738 -0.7803 -2.3069  1.0456
 5277SOL     OW27463   1.423   3.244   3.338 -0.4857 -0.3829  0.2041
 5277SOL    HW127464   1.461   3.164   3.375  0.3611  1.4007  3.1266
 5277SOL    HW227465   1.411   3.297   3.417  0.0811  0.6968 -0.4324
 5278SOL     OW27466   2.240   3.872   2.244 -0.1086  0.0396 -0.9361
 5278SOL    HW127467   2.165   3.913   2.288 -2.0538 -3.2692 -1.1830
 5278SOL    HW227468   2.293   3.945   2.210 -0.1096  0.1939 -0.6123
 5279SOL     OW27469   3.731   0.982   6.147 -0.3753  0.5387 -0.0648
 5279SOL    HW127470   3.717   0.896   6.186 -2.1455  0.0311 -1.8071
 5279SOL    HW227471   3.784   1.013   6.221  1.1915 -0.4673 -0.7578
 5280SOL     OW27472   4.089   2.343   6.113 -0.2076 -0.4218 -0.7174
 5280SOL    HW127473   4.085   2.262   6.164 -0.0580 -0.7252 -1.1817
 5280SOL    HW227474   4.127   2.308   6.032 -0.6559  1.9913 -1.9744
 5281SOL     OW27475   0.015   0.463   1.635 -0.0981  0.5278  0.0080
 5281SOL    HW127476   4.699   0.523   1.686 -1.9501 -0.8623 -0.3049
 5281SOL    HW227477   4.698   0.452   1.558  0.2093 -1.7363  0.1029
 5282SOL     OW27478   1.636   4.145   7.498 -0.0746  0.2428  0.1928
 5282SOL    HW127479   1.588   4.223   7.525 -0.6901 -0.2552  0.5417
 5282SOL    HW227480   1.609   4.126   7.408  1.1869 -0.8444  0.0415
 5283SOL     OW27481   3.069   1.669   9.879 -0.9593  0.0617 -0.6937
 5283SOL    HW127482   3.072   1.595   9.941  0.2991  0.3692 -0.3841
 5283SOL    HW227483   3.159   1.661   9.847 -0.8831  2.9875 -1.1692
 5284SOL     OW27484   2.487   1.807   5.263 -0.8317  0.2630  0.2497
 5284SOL    HW127485   2.404   1.847   5.287 -1.4999 -1.0722  0.1083
 5284SOL    HW227486   2.480   1.718   5.297 -1.6358  0.9820  1.9439
 5285SOL     OW27487   0.684   0.205   4.667 -0.0756  0.0008 -0.7331
 5285SOL    HW127488   0.664   0.129   4.720  2.7401  0.2046  0.6271
 5285SOL    HW227489   0.640   0.267   4.725  1.3273  1.5263 -1.2785
 5286SOL     OW27490   1.135   4.719   7.533 -0.6212 -0.0282 -0.1907
 5286SOL    HW127491   1.065   4.674   7.486 -0.1642  0.0118 -0.9008
 5286SOL    HW227492   1.109   0.072   7.522 -2.0751 -0.6189 -1.6099
 5287SOL     OW27493   2.138   0.632   6.544 -0.3660 -0.2042 -0.8533
 5287SOL    HW127494   2.206   0.641   6.477  0.4404 -1.0752 -0.1646
 5287SOL    HW227495   2.189   0.597   6.618 -0.2073 -0.9917 -1.3341
 5288SOL     OW27496   4.021   2.549   6.309  0.1166  0.6449 -0.1956
 5288SOL    HW127497   4.087   2.618   6.312 -0.7856  1.5663 -1.7649
 5288SOL    HW227498   4.055   2.501   6.233  0.0146  0.6185 -0.2252
 5289SOL     OW27499   2.467   0.494   6.608 -0.0596  0.0675  0.0050
 5289SOL    HW127500   2.418   0.417   6.635 -0.8396  1.0087  1.2752
 5289SOL    HW227501   2.488   0.473   6.517 -0.7893 -0.4971 -0.0347
 5290SOL     OW27502   2.413   4.631   8.532  0.5020 -0.3557  0.4845
 5290SOL    HW127503   2.476   4.699   8.559 -0.1658  0.8871 -1.0229
 5290SOL    HW227504   2.366   4.615   8.613  1.1796  0.3628  1.0340
 5291SOL     OW27505   0.091   0.245   0.066 -0.3735 -0.6427 -0.6245
 5291SOL    HW127506   0.029   0.260  17.748 -1.3799 -2.6389 -0.1698
 5291SOL    HW227507   0.171   0.216   0.020 -0.4591 -3.4453  1.0112
 5292SOL     OW27508   2.852   1.950   3.154 -0.5014  0.2307 -0.3898
 5292SOL    HW127509   2.773   1.901   3.133 -0.6200 -0.0292  0.6386
 5292SOL    HW227510   2.816   2.038   3.157  1.8522  1.3233 -4.4123
 5293SOL     OW27511   1.166   4.295   3.480  0.1199 -0.5880  0.1133
 5293SOL    HW127512   1.102   4.363   3.459 -0.4097 -0.7051  1.3421
 5293SOL    HW227513   1.249   4.341   3.465 -0.7354  0.7548 -0.4998
 5294SOL     OW27514   1.441   1.526  11.464  0.8748 -0.2301  0.0889
 5294SOL    HW127515   1.391   1.553  11.541 -0.6435 -1.2312 -0.5508
 5294SOL    HW227516   1.394   1.446  11.438  0.4174 -0.5876  1.9802
 5295SOL     OW27517   1.958   0.315   1.225  0.2393 -0.3591 -0.2692
 5295SOL    HW127518   1.889   0.307   1.291  1.0083  0.5394  0.6408
 5295SOL    HW227519   1.930   0.397   1.185 -0.7115 -1.1114 -1.1665
 5296SOL     OW27520   4.401   1.557   9.477  0.5259  0.0538  0.1777
 5296SOL    HW127521   4.366   1.469   9.461 -1.3991  0.8618 -0.0183
 5296SOL    HW227522   4.328   1.603   9.518  0.7971 -0.9092  1.7155
 5297SOL     OW27523   3.096   2.179   1.412 -0.9546  0.4301  0.9138
 5297SOL    HW127524   3.094   2.222   1.327  2.7979 -0.0088  0.5671
 5297SOL    HW227525   3.136   2.094   1.392  0.3798  1.0662  0.8917
 5298SOL     OW27526   2.203   2.823   9.204 -0.0930 -0.3688 -1.0369
 5298SOL    HW127527   2.121   2.784   9.236  0.0597 -0.3750 -0.6551
 5298SOL    HW227528   2.269   2.755   9.215  0.6334  0.3421 -1.0082
 5299SOL     OW27529   2.364   3.057   7.028 -0.3348  0.1072  0.3292
 5299SOL    HW127530   2.352   2.985   6.967  2.8304  0.4146 -0.6675
 5299SOL    HW227531   2.399   3.003   7.099  2.4413  0.9956 -0.3600
 5300SOL     OW27532   2.724   1.846  17.556 -0.1147 -0.0655  0.8220
 5300SOL    HW127533   2.783   1.835  17.630  1.7155  1.6964 -0.3744
 5300SOL    HW227534   2.758   1.916  17.501 -0.0914  0.6198  1.7056
 5301SOL     OW27535   3.255   1.328   1.900 -0.6805  0.4031  0.3653
 5301SOL    HW127536   3.272   1.323   1.806  0.7983 -1.6794  0.7306
 5301SOL    HW227537   3.198   1.405   1.902  1.2352  1.8005  1.4015
 5302SOL     OW27538   0.681   4.020  15.855  0.2380  0.3100  0.3180
 5302SOL    HW127539   0.640   4.101  15.886  1.4115  0.6064  1.0924
 5302SOL    HW227540   0.683   3.968  15.935 -0.5906  0.6861  0.5869
 5303SOL     OW27541   1.664   0.623   4.143 -0.5285  0.1178 -0.2756
 5303SOL    HW127542   1.714   0.700   4.170 -0.9074  0.0583  0.5883
 5303SOL    HW227543   1.610   0.619   4.221 -0.7449 -1.5939 -0.5085
 5304SOL     OW27544   1.184   2.797   2.877  0.5220 -0.3064  0.3916
 5304SOL    HW127545   1.241   2.871   2.857  0.9805 -0.4178  1.2828
 5304SOL    HW227546   1.180   2.805   2.972  2.8171 -1.7871  0.6231
 5305SOL     OW27547   2.211   1.825   5.898 -0.2806  0.2245 -0.3107
 5305SOL    HW127548   2.205   1.840   5.804 -1.3540 -0.4161 -0.3360
 5305SOL    HW227549   2.173   1.738   5.906  0.1103  0.2015  1.2376
 5306SOL     OW27550   2.775   2.495   3.584  0.2005 -0.1048 -0.4345
 5306SOL    HW127551   2.775   2.493   3.488 -1.2060 -1.4594 -0.4147
 5306SOL    HW227552   2.842   2.560   3.605 -0.1161 -0.0422  0.3797
 5307SOL     OW27553   2.498   2.734   5.722 -0.5547 -0.3299  0.1662
 5307SOL    HW127554   2.494   2.722   5.627  0.7201  0.8660 -0.0437
 5307SOL    HW227555   2.425   2.678   5.748 -0.4930 -0.9125 -0.9167
 5308SOL     OW27556   0.027   4.347   0.478 -0.2269  0.8099 -0.6998
 5308SOL    HW127557   0.107   4.395   0.496  1.4395 -1.9533 -0.6787
 5308SOL    HW227558   4.710   4.414   0.438 -1.0987  0.3491 -0.2587
 5309SOL     OW27559   4.418   4.056   3.591  0.2962 -0.6165  0.2992
 5309SOL    HW127560   4.411   4.095   3.504 -0.9090  0.5793  0.9419
 5309SOL    HW227561   4.511   4.038   3.580  0.3587 -0.9743  1.3980
 5310SOL     OW27562   0.874   1.639   9.128 -0.4382 -0.1904 -0.2628
 5310SOL    HW127563   0.888   1.608   9.217  0.9813  0.5407 -0.2354
 5310SOL    HW227564   0.782   1.623   9.104 -0.4207  0.1089 -0.5184
 5311SOL     OW27565   2.760   1.969  11.763  0.0022  0.7381 -0.0152
 5311SOL    HW127566   2.692   2.027  11.798 -0.8605 -0.4898  0.3086
 5311SOL    HW227567   2.802   1.945  11.846  0.5944  1.0189 -0.2264
 5312SOL     OW27568   3.037   2.420   3.902 -0.1583 -0.0614 -0.3025
 5312SOL    HW127569   2.945   2.406   3.880  0.3903 -2.1427 -1.2685
 5312SOL    HW227570   3.024   2.509   3.934  2.0634  1.6992 -4.2552
 5313SOL     OW27571   0.731   3.577   6.024 -0.1518  0.1222 -0.8224
 5313SOL    HW127572   0.791   3.577   6.098  2.4503  3.0150 -2.9460
 5313SOL    HW227573   0.784   3.534   5.956 -1.7124 -0.8643 -1.4278
 5314SOL     OW27574   3.867   1.520   7.026  0.7500  0.0134  0.2626
 5314SOL    HW127575   3.772   1.531   7.026  0.8902  1.2467  0.9486
 5314SOL    HW227576   3.865   1.484   6.937 -0.8803  1.5302 -0.3080
 5315SOL     OW27577   1.151   4.697   8.501 -0.2523  0.3734  0.2760
 5315SOL    HW127578   1.164   4.608   8.467  1.3910  0.7766 -0.1562
 5315SOL    HW227579   1.182   0.002   8.421  3.0296 -0.7198  0.9629
 5316SOL     OW27580   4.595   4.212  17.679  0.0945  0.4298 -0.4338
 5316SOL    HW127581   4.606   4.144  17.613  0.4492 -0.3304  0.4111
 5316SOL    HW227582   4.686   4.219  17.707 -0.4103  0.8808  1.1230
 5317SOL     OW27583   0.951   1.996   5.795 -0.3974 -0.0516  0.0333
 5317SOL    HW127584   0.981   1.991   5.704 -2.2071 -1.7194 -0.4684
 5317SOL    HW227585   0.926   1.904   5.806 -0.0630 -0.6176 -3.8041
 5318SOL     OW27586   3.856   2.531   7.762  0.5449  0.5058 -0.4139
 5318SOL    HW127587   3.812   2.458   7.804  1.4494  0.2269  0.0586
 5318SOL    HW227588   3.923   2.554   7.827 -0.3382  0.9470  0.3522
 5319SOL     OW27589   3.685   3.142   7.266  0.1635 -0.2406  0.9115
 5319SOL    HW127590   3.695   3.226   7.310  2.5137 -1.5501  2.9239
 5319SOL    HW227591   3.702   3.165   7.175 -2.9856 -3.1727 -0.4279
 5320SOL     OW27592   2.029   1.380   3.658 -0.0473  0.1327  0.1206
 5320SOL    HW127593   1.955   1.320   3.664 -0.6441  0.9072  0.5583
 5320SOL    HW227594   2.102   1.319   3.646  0.4560  0.2958  2.4659
 5321SOL     OW27595   4.543   1.821   2.221 -0.3228  0.1070 -0.4082
 5321SOL    HW127596   4.510   1.825   2.131  0.2022  0.4176 -0.5921
 5321SOL    HW227597   4.614   1.760   2.203  0.2373 -0.1527  2.8158
 5322SOL     OW27598   2.360   3.496   2.548  0.0803 -0.2668 -0.0065
 5322SOL    HW127599   2.440   3.508   2.598  0.4570 -0.8880 -0.4614
 5322SOL    HW227600   2.327   3.580   2.515 -2.4604 -2.4290 -3.0282
 5323SOL     OW27601   2.597   3.622  11.089  0.7310  0.0714  0.1987
 5323SOL    HW127602   2.538   3.649  11.019 -0.9520 -0.4307  1.4196
 5323SOL    HW227603   2.683   3.614  11.047 -0.2863  0.7868 -1.9815
 5324SOL     OW27604   3.107   0.367   7.732  0.2737 -0.2224  0.6682
 5324SOL    HW127605   3.139   0.396   7.818 -0.3476  2.7226 -0.0857
 5324SOL    HW227606   3.122   0.444   7.677 -2.4224  1.1201  1.7547
 5325SOL     OW27607   4.664   2.418   4.275  0.7332  0.2919  0.1787
 5325SOL    HW127608   4.614   2.358   4.220  1.4705 -1.0489  0.9811
 5325SOL    HW227609   0.011   2.421   4.233 -2.0921  1.2669 -5.5126
 5326SOL     OW27610   1.359   1.809  10.383  0.1866  0.2360  0.5256
 5326SOL    HW127611   1.290   1.874  10.395  0.4885  0.7026 -0.2854
 5326SOL    HW227612   1.326   1.760  10.309  1.1275 -0.8679  0.8312
 5327SOL     OW27613   2.096   2.041  10.483  0.5071  0.1296 -0.1692
 5327SOL    HW127614   2.040   1.964  10.498 -1.3433  1.4574 -0.3283
 5327SOL    HW227615   2.179   2.032  10.530  1.0615  0.6063 -1.0481
 5328SOL     OW27616   0.399   4.409   0.661 -0.0387  0.1463  0.1032
 5328SOL    HW127617   0.385   4.424   0.568  2.4181  3.5967  0.2860
 5328SOL    HW227618   0.431   4.318   0.663 -1.4201 -0.3467 -0.0413
 5329SOL     OW27619   2.400   4.010  10.296  0.0839 -0.4284 -0.7054
 5329SOL    HW127620   2.425   3.928  10.339  0.2200 -0.0105  0.0039
 5329SOL    HW227621   2.305   3.997  10.293 -0.1725  1.1186  1.4148
 5330SOL     OW27622   1.854   0.875   5.900  0.4837  0.0813  0.1742
 5330SOL    HW127623   1.785   0.916   5.849 -0.5346 -2.3456 -0.3689
 5330SOL    HW227624   1.842   0.781   5.887  0.1633 -0.0040  1.0765
 5331SOL     OW27625   1.793   4.380   6.355  0.0839  0.7861  0.2059
 5331SOL    HW127626   1.765   4.333   6.434  1.1495 -0.6386 -0.2711
 5331SOL    HW227627   1.872   4.427   6.383 -0.1170  0.3319  1.5627
 5332SOL     OW27628   0.149   2.856   3.527  0.1770 -0.0457 -0.2588
 5332SOL    HW127629   0.124   2.765   3.542  0.4115 -0.2141 -0.9073
 5332SOL    HW227630   0.126   2.870   3.435  1.1981 -0.8228 -0.6344
 5333SOL     OW27631   2.841   4.407   2.338  0.2849  0.1805 -0.2408
 5333SOL    HW127632   2.796   4.453   2.267 -0.2090  0.2221  0.0957
 5333SOL    HW227633   2.793   4.442   2.413 -0.3282 -0.7773 -0.1905
 5334SOL     OW27634   1.869   0.892   1.186 -0.1458  0.4020  0.1572
 5334SOL    HW127635   1.793   0.940   1.220 -0.6376 -0.1900 -0.1190
 5334SOL    HW227636   1.835   0.803   1.182 -1.5272  0.8632  1.7838
 5335SOL     OW27637   4.509   1.800   9.574  0.3582  0.0058  0.1025
 5335SOL    HW127638   4.497   1.743   9.498 -0.5600 -0.7642  0.8252
 5335SOL    HW227639   4.461   1.756   9.644 -0.6491  0.9627  0.0128
 5336SOL     OW27640   2.787   1.005   6.692 -0.4649  0.2082 -0.4850
 5336SOL    HW127641   2.812   0.938   6.755  0.2783  1.0309  0.0966
 5336SOL    HW227642   2.751   1.076   6.745 -0.0734  0.6894 -0.8531
 5337SOL     OW27643   1.377   1.522  10.453 -0.6902  0.1276 -0.3891
 5337SOL    HW127644   1.405   1.447  10.505 -2.2674 -1.3054 -1.6293
 5337SOL    HW227645   1.319   1.574  10.510 -2.8607 -3.5359  0.7797
 5338SOL     OW27646   3.476   0.423   6.561 -0.3282  0.6379  0.0552
 5338SOL    HW127647   3.476   0.328   6.565  1.9219  0.5712 -1.7392
 5338SOL    HW227648   3.548   0.447   6.620 -0.4987  0.9623  0.1324
 5339SOL     OW27649   3.920   3.320  11.778  0.2021 -0.2138  0.1166
 5339SOL    HW127650   3.887   3.388  11.720 -0.7549 -0.7153  0.0769
 5339SOL    HW227651   3.842   3.268  11.760 -1.1107  1.7855  0.0208
 5340SOL     OW27652   3.807   2.031   4.451  0.0974  0.4480 -0.0918
 5340SOL    HW127653   3.821   2.058   4.360  0.1203  0.9470  0.0589
 5340SOL    HW227654   3.713   2.012   4.452  0.6446 -2.0944  1.1534
 5341SOL     OW27655   0.786   1.189   3.833  0.5528 -0.8867  0.9083
 5341SOL    HW127656   0.848   1.173   3.904  0.5236 -0.2218  1.0782
 5341SOL    HW227657   0.834   1.184   3.751  1.1254  0.5693  1.1609
 5342SOL     OW27658   0.670   1.759  12.075  0.0733  0.6492  0.0908
 5342SOL    HW127659   0.592   1.795  12.117 -0.1716 -0.2476  0.3852
 5342SOL    HW227660   0.702   1.839  12.032 -2.8974  2.5866  1.4713
 5343SOL     OW27661   0.076   4.403  17.475  0.0456  0.1287 -0.6707
 5343SOL    HW127662   0.042   4.314  17.478 -1.0142  0.6485  2.8208
 5343SOL    HW227663   0.130   4.399  17.396 -0.1791  1.6902 -0.8912
 5344SOL     OW27664   4.066   3.731   7.653 -0.2330  0.0385 -0.1466
 5344SOL    HW127665   3.986   3.752   7.701  1.3141  2.1263  1.5452
 5344SOL    HW227666   4.094   3.644   7.681  0.5094 -0.3610 -2.1754
 5345SOL     OW27667   1.741   1.857   7.969  0.0822 -0.1353 -0.1502
 5345SOL    HW127668   1.769   1.770   7.997  0.8241 -0.1811 -1.0562
 5345SOL    HW227669   1.775   1.914   8.039 -2.5847  0.3653  0.7184
 5346SOL     OW27670   1.155   2.665  16.161 -0.1051 -0.2313 -0.2729
 5346SOL    HW127671   1.246   2.671  16.188 -0.2946 -0.5395  0.4255
 5346SOL    HW227672   1.149   2.576  16.126  0.8428 -0.1087 -0.7562
 5347SOL     OW27673   1.758   2.120  10.654 -0.0183 -0.3186  0.8754
 5347SOL    HW127674   1.671   2.086  10.633  0.1465  1.6055 -2.9540
 5347SOL    HW227675   1.819   2.063  10.608  0.1879 -0.6189  1.5203
 5348SOL     OW27676   4.430   2.724  16.209 -0.0766 -0.1869  0.1005
 5348SOL    HW127677   4.376   2.770  16.145 -0.0398  1.7884  1.4488
 5348SOL    HW227678   4.398   2.634  16.212  0.0227 -0.2039  0.7734
 5349SOL     OW27679   3.394   3.031   4.006  0.2050 -0.3006 -0.0278
 5349SOL    HW127680   3.378   3.125   3.997  1.7989 -0.1367 -1.1411
 5349SOL    HW227681   3.325   2.992   3.953 -0.1957 -3.4886  2.7873
 5350SOL     OW27682   0.148   4.440   3.608 -0.4048  0.1845  0.4115
 5350SOL    HW127683   0.087   4.507   3.639  0.6078  0.7553  1.1758
 5350SOL    HW227684   0.097   4.360   3.620  3.2919 -2.1017  0.9088
 5351SOL     OW27685   1.296   2.513   0.908  0.2384  0.2765 -0.2038
 5351SOL    HW127686   1.218   2.458   0.901 -0.2757  0.7463  1.9923
 5351SOL    HW227687   1.265   2.583   0.964  0.6804 -0.9894  1.6202
 5352SOL     OW27688   3.699   3.726   6.845  0.0880 -0.2493 -0.1469
 5352SOL    HW127689   3.610   3.748   6.815 -0.0483  1.4464  1.4895
 5352SOL    HW227690   3.712   3.777   6.925 -0.5269 -1.8561  0.9718
 5353SOL     OW27691   0.843   3.561  11.386 -0.2927 -0.0672 -0.1742
 5353SOL    HW127692   0.917   3.508  11.356  1.3014  1.5227  0.9569
 5353SOL    HW227693   0.893   3.640  11.409  0.8236 -0.7901 -0.1180
 5354SOL     OW27694   2.625   3.233   3.538  0.5940  0.2360  0.3300
 5354SOL    HW127695   2.604   3.323   3.565  1.8987  0.5303  0.3684
 5354SOL    HW227696   2.622   3.195   3.626  0.6110  0.9351  0.6313
 5355SOL     OW27697   2.691   2.496   3.329  0.7102 -0.0328  0.5959
 5355SOL    HW127698   2.673   2.449   3.247  0.5744  2.3165 -0.7332
 5355SOL    HW227699   2.622   2.562   3.338  1.8031  1.1424  0.4079
 5356SOL     OW27700   1.524   2.396   5.512  0.9737  0.5007  0.1491
 5356SOL    HW127701   1.480   2.388   5.597 -1.6423 -2.4760 -1.4891
 5356SOL    HW227702   1.454   2.444   5.468  0.8441 -1.4980 -1.8004
 5357SOL     OW27703   3.221   1.196   7.516 -0.3163  0.4470  0.0990
 5357SOL    HW127704   3.253   1.285   7.530  3.5244 -0.8698  0.0096
 5357SOL    HW227705   3.236   1.150   7.599 -0.8545  0.5581  0.2518
 5358SOL     OW27706   0.278   4.182   1.936  0.4657  0.2634 -0.0763
 5358SOL    HW127707   0.186   4.182   1.911  0.2833  0.8568  0.5837
 5358SOL    HW227708   0.275   4.196   2.031 -0.1348  2.5564 -0.4338
 5359SOL     OW27709   0.549   0.158   2.090  0.2130  0.0501 -0.0037
 5359SOL    HW127710   0.565   0.252   2.092 -1.1429  0.2759  0.0764
 5359SOL    HW227711   0.638   0.124   2.097  1.1099  1.9565 -2.1397
 5360SOL     OW27712   1.837   3.167  17.373 -0.7982 -0.4925  0.1566
 5360SOL    HW127713   1.898   3.227  17.417 -1.9318 -0.1982  1.3305
 5360SOL    HW227714   1.884   3.086  17.387  0.3862  0.1306 -0.2093
 5361SOL     OW27715   4.038   3.163   6.650 -0.0581  0.1248  0.0790
 5361SOL    HW127716   4.119   3.213   6.660 -0.4572  0.8466 -0.2346
 5361SOL    HW227717   4.061   3.095   6.586  1.1159  1.6071 -1.0777
 5362SOL     OW27718   1.499   0.542   5.045  0.6468 -0.0243  0.1886
 5362SOL    HW127719   1.539   0.475   5.100 -3.4918 -0.0989  3.0747
 5362SOL    HW227720   1.468   0.490   4.971 -1.1712  0.6220  0.4975
 5363SOL     OW27721   0.058   3.004   6.629 -0.1007 -0.2615  0.0470
 5363SOL    HW127722   0.118   2.929   6.627 -0.8480 -0.7878 -2.3203
 5363SOL    HW227723   4.735   2.961   6.569 -1.0061  0.5711  0.3964
 5364SOL     OW27724   2.013   0.798  15.040  0.5828 -0.2323 -0.5166
 5364SOL    HW127725   2.105   0.822  15.028  0.6444 -0.7213 -0.9927
 5364SOL    HW227726   2.016   0.726  15.103 -0.6285 -1.2341 -1.6124
 5365SOL     OW27727   3.785   3.254   5.118  0.3716  0.2328 -0.0009
 5365SOL    HW127728   3.779   3.161   5.096  1.9422 -0.4411  2.4613
 5365SOL    HW227729   3.804   3.293   5.033 -1.2814  3.3264  1.0618
 5366SOL     OW27730   0.932   1.551   1.525  0.3636  0.0248  0.5310
 5366SOL    HW127731   0.977   1.569   1.442  0.8320 -1.0387  0.5537
 5366SOL    HW227732   0.856   1.503   1.491 -0.1233 -0.7942  2.7900
 5367SOL     OW27733   0.958   3.939   5.666 -0.2210  0.3142  0.1691
 5367SOL    HW127734   0.863   3.952   5.668 -0.3709 -1.1707  3.2483
 5367SOL    HW227735   0.987   3.993   5.740  1.3030 -0.2771  0.0123
 5368SOL     OW27736   3.158   2.894   4.125  0.1083 -0.1515  0.0454
 5368SOL    HW127737   3.079   2.879   4.177 -0.8783  2.7346 -0.6434
 5368SOL    HW227738   3.217   2.900   4.201  1.3354  0.7695 -0.9750
 5369SOL     OW27739   2.851   1.782   4.194 -0.0594 -0.3038  0.0168
 5369SOL    HW127740   2.883   1.863   4.234  0.0150 -0.1489 -0.3640
 5369SOL    HW227741   2.920   1.716   4.195 -0.3733 -0.6344 -0.2767
 5370SOL     OW27742   3.933   3.873   5.264 -0.2707 -0.7505  0.8064
 5370SOL    HW127743   3.917   3.948   5.206 -0.8558 -0.9071  0.7601
 5370SOL    HW227744   3.846   3.835   5.248 -0.2050 -0.8116  0.5989
 5371SOL     OW27745   0.561   4.357   8.300  0.2224 -0.6351 -0.1957
 5371SOL    HW127746   0.639   4.381   8.251  1.7191 -0.5341  2.2600
 5371SOL    HW227747   0.511   4.436   8.322  0.4511 -0.3940 -0.5496
 5372SOL     OW27748   0.900   1.769   7.783  0.4818  0.4449  0.1376
 5372SOL    HW127749   0.902   1.851   7.733 -1.3293 -0.5745 -1.6040
 5372SOL    HW227750   0.809   1.739   7.776  0.3211  1.1412 -0.8128
 5373SOL     OW27751   3.337   0.577   4.865  0.3632  0.0846  0.2468
 5373SOL    HW127752   3.263   0.629   4.833 -0.8122 -0.1537  2.5498
 5373SOL    HW227753   3.356   0.603   4.955  0.0865  1.5922 -0.1321
 5374SOL     OW27754   2.389   3.824   7.651 -0.2244 -0.5883  0.1073
 5374SOL    HW127755   2.417   3.907   7.611 -2.2575 -0.3398 -0.8004
 5374SOL    HW227756   2.304   3.838   7.693  0.3046  0.9238  0.6643
 5375SOL     OW27757   2.725   4.720   1.396  0.4067  0.3968  0.0264
 5375SOL    HW127758   2.726   0.062   1.345 -0.0275  0.9222  0.8527
 5375SOL    HW227759   2.632   4.725   1.419  0.6727  3.9646  0.2424
 5376SOL     OW27760   3.331   2.918   2.495  0.5302  0.1222 -0.6153
 5376SOL    HW127761   3.262   2.941   2.556  0.2701  0.3283 -0.9823
 5376SOL    HW227762   3.301   2.924   2.404 -2.0182  3.4943  0.4530
 5377SOL     OW27763   2.363   1.623   8.146  0.0485  0.3405 -0.3942
 5377SOL    HW127764   2.419   1.644   8.071  1.1489 -2.8405 -0.4351
 5377SOL    HW227765   2.277   1.656   8.120 -1.0077 -0.0924  2.5306
 5378SOL     OW27766   3.887   2.193  17.279  0.1001 -0.2722 -0.7797
 5378SOL    HW127767   3.875   2.253  17.206  3.6347  0.6447 -0.5897
 5378SOL    HW227768   3.977   2.217  17.301 -0.5252  0.3512  1.1444
 5379SOL     OW27769   2.906   4.116  10.190  0.5827 -0.1763  0.7087
 5379SOL    HW127770   2.816   4.134  10.216  0.3625 -1.3610  0.7581
 5379SOL    HW227771   2.893   4.109  10.096 -0.2230  2.3340  0.6471
 5380SOL     OW27772   2.241   3.092   1.756  0.6409  0.3364 -0.0163
 5380SOL    HW127773   2.208   3.180   1.773  2.0228  0.7817  0.3631
 5380SOL    HW227774   2.177   3.047   1.812  0.5560  0.0857 -0.3164
 5381SOL     OW27775   3.345   2.938  10.570 -0.1537 -0.2039 -0.3969
 5381SOL    HW127776   3.378   2.857  10.609  1.4637  0.0383 -1.2373
 5381SOL    HW227777   3.290   2.969  10.641  0.4247  1.4347 -0.6789
 5382SOL     OW27778   4.070   4.626  14.068  0.0818  0.4000  0.6229
 5382SOL    HW127779   4.138   4.687  14.096  0.6526  0.7229 -1.4199
 5382SOL    HW227780   4.044   4.669  13.986 -1.2143  0.5927  1.1292
 5383SOL     OW27781   2.233   4.539  16.280 -0.0745 -0.1236 -0.5409
 5383SOL    HW127782   2.326   4.515  16.272  0.4990  2.0676 -0.4950
 5383SOL    HW227783   2.209   4.558  16.190  2.3697 -0.6203 -1.3042
 5384SOL     OW27784   0.838   2.548   1.828 -0.3040 -0.2651 -1.0541
 5384SOL    HW127785   0.762   2.566   1.774 -0.0872  2.2448 -0.5080
 5384SOL    HW227786   0.905   2.529   1.762  0.4192  0.4452 -0.5224
 5385SOL     OW27787   0.797   2.787   4.924 -0.0950  0.3563  0.3029
 5385SOL    HW127788   0.802   2.810   5.017  0.2102 -0.7974  0.5733
 5385SOL    HW227789   0.722   2.840   4.899 -0.0518  1.5356  2.6446
 5386SOL     OW27790   3.788   2.397   6.064 -0.3725 -0.6120 -0.5367
 5386SOL    HW127791   3.761   2.435   6.147 -0.5608 -2.3312  0.2060
 5386SOL    HW227792   3.883   2.406   6.069 -0.6065  1.0535  1.0225
 5387SOL     OW27793   4.580   3.986  11.641 -1.0289  0.2934 -0.6156
 5387SOL    HW127794   4.636   4.011  11.714 -0.3240  1.6661 -1.6310
 5387SOL    HW227795   4.635   3.915  11.607  0.2778  0.7330  0.5613
 5388SOL     OW27796   1.709   0.331  13.891  0.3311  0.2041 -0.3698
 5388SOL    HW127797   1.627   0.349  13.844 -0.6079 -0.2097  1.1371
 5388SOL    HW227798   1.717   0.241  13.858  0.9471  0.3638 -0.6620
 5389SOL     OW27799   1.525   3.904   2.283 -0.2401  0.2348  0.2415
 5389SOL    HW127800   1.507   3.997   2.265  3.1583  0.6340 -1.0785
 5389SOL    HW227801   1.615   3.899   2.252  0.5544  0.4007  2.4680
 5390SOL     OW27802   3.794   0.610   3.885 -0.1740 -0.6010 -0.1246
 5390SOL    HW127803   3.769   0.652   3.802  0.6128  1.1492  0.5349
 5390SOL    HW227804   3.713   0.595   3.934 -0.5918 -2.8586 -1.4803
 5391SOL     OW27805   1.459   1.741   2.680  0.6513  0.0766 -0.1280
 5391SOL    HW127806   1.371   1.772   2.662  1.2284  3.3519  2.7706
 5391SOL    HW227807   1.445   1.699   2.765  2.8379 -1.6093 -0.5840
 5392SOL     OW27808   0.477   2.649   3.511 -0.9594  0.0329 -0.7868
 5392SOL    HW127809   0.409   2.593   3.550 -1.9906  0.2308 -2.2750
 5392SOL    HW227810   0.487   2.604   3.427  0.6368  0.1798 -0.6744
 5393SOL     OW27811   2.017   3.336   2.986 -0.0379 -0.2038  0.5444
 5393SOL    HW127812   2.112   3.334   2.997  0.4127  0.6098 -3.0772
 5393SOL    HW227813   2.004   3.413   3.043  0.2443  0.8544 -0.8206
 5394SOL     OW27814   1.761   4.609  16.135 -0.0515 -0.4298  0.7798
 5394SOL    HW127815   1.679   4.658  16.136 -0.1175 -0.5337  0.5160
 5394SOL    HW227816   1.722   4.522  16.123  0.8344 -0.4879 -1.7510
 5395SOL     OW27817   0.072   1.070  12.834 -0.4113 -0.1073 -0.2131
 5395SOL    HW127818   0.144   1.077  12.772 -1.4519  0.0164 -1.3906
 5395SOL    HW227819   0.110   1.122  12.906  0.7605  0.0866 -0.9605
 5396SOL     OW27820   2.014   0.330   8.453 -0.5659  0.1747 -0.2452
 5396SOL    HW127821   2.069   0.406   8.435  1.6291 -1.9927 -2.7606
 5396SOL    HW227822   1.938   0.332   8.395 -0.3116  0.0954 -0.5822
 5397SOL     OW27823   0.059   1.087   5.458  0.9913  0.3670 -0.2580
 5397SOL    HW127824   0.121   1.108   5.389 -0.2401  2.2320 -0.7748
 5397SOL    HW227825   0.114   1.048   5.526 -0.2017 -2.1575 -0.7408
 5398SOL     OW27826   1.107   3.446   7.341  0.0556 -0.5857  0.7052
 5398SOL    HW127827   1.032   3.499   7.314 -0.5646 -2.4637 -1.2757
 5398SOL    HW227828   1.159   3.522   7.367  1.6621 -1.2344 -0.6173
 5399SOL     OW27829   0.630   0.812   3.290  0.3185 -0.2105  0.2671
 5399SOL    HW127830   0.577   0.835   3.214  0.7986 -0.3269 -0.1072
 5399SOL    HW227831   0.614   0.892   3.340  0.9099  1.6842 -2.5226
 5400SOL     OW27832   3.388   4.491   9.272 -0.2114  0.4571  0.6672
 5400SOL    HW127833   3.334   4.433   9.325  0.4052  1.2292  2.1166
 5400SOL    HW227834   3.380   4.563   9.334 -0.4325  1.4971 -0.5649
 5401SOL     OW27835   3.019   2.486   7.441  0.1090 -0.1906 -0.0809
 5401SOL    HW127836   2.991   2.413   7.386 -1.5081 -0.1777  0.7054
 5401SOL    HW227837   3.114   2.493   7.436  0.2378 -3.8628 -2.3925
 5402SOL     OW27838   3.680   1.142  11.601  0.5001  0.4739  0.1456
 5402SOL    HW127839   3.698   1.091  11.680 -0.3311 -0.2176 -0.1030
 5402SOL    HW227840   3.584   1.143  11.602  0.4761 -1.1554  0.7354
 5403SOL     OW27841   0.762   4.426  16.201 -0.2025 -0.0634  0.3636
 5403SOL    HW127842   0.684   4.409  16.254 -1.2224 -0.1813 -1.1771
 5403SOL    HW227843   0.802   4.339  16.206 -0.6068 -0.2588  0.1363
 5404SOL     OW27844   1.194   1.363  11.620  0.1279  0.3956 -0.9469
 5404SOL    HW127845   1.255   1.303  11.577 -0.5486  1.2414 -3.0789
 5404SOL    HW227846   1.148   1.299  11.673 -0.0156 -0.2962 -1.9029
 5405SOL     OW27847   2.590   4.367   7.665  0.1721 -0.1054 -0.1920
 5405SOL    HW127848   2.570   4.460   7.654  1.6591 -0.1050 -2.7067
 5405SOL    HW227849   2.507   4.328   7.635  0.2644 -0.0598 -0.5037
 5406SOL     OW27850   0.679   0.738   8.117  0.7196 -0.4000  0.5903
 5406SOL    HW127851   0.744   0.684   8.162  2.0550  0.3809 -0.4087
 5406SOL    HW227852   0.639   0.787   8.189 -1.9101  0.6775 -1.6228
 5407SOL     OW27853   4.104   2.268   2.271  0.1610 -0.0724  0.4483
 5407SOL    HW127854   4.108   2.233   2.182  1.9622  0.8263  0.1846
 5407SOL    HW227855   4.152   2.192   2.302  0.6923 -0.0610 -0.3528
 5408SOL     OW27856   1.840   2.089   8.574  0.2782  0.1316 -0.5221
 5408SOL    HW127857   1.772   2.157   8.566 -2.5123 -2.4435  1.2100
 5408SOL    HW227858   1.885   2.110   8.493 -0.2974  2.7339 -0.1941
 5409SOL     OW27859   2.442   4.217   2.871 -0.2658 -0.5716  0.1099
 5409SOL    HW127860   2.500   4.141   2.879  0.9018  0.2434 -0.6738
 5409SOL    HW227861   2.363   4.170   2.843 -0.7755 -0.4160  1.2636
 5410SOL     OW27862   2.175   3.409   1.096 -0.3123  0.0024  0.2101
 5410SOL    HW127863   2.188   3.320   1.131  1.1184 -0.1641 -0.7146
 5410SOL    HW227864   2.165   3.468   1.170 -2.7153 -0.1864  0.0364
 5411SOL     OW27865   0.689   4.074   8.532 -0.3720  0.4236  0.1301
 5411SOL    HW127866   0.599   4.047   8.552 -1.1667  4.6246  2.2278
 5411SOL    HW227867   0.700   4.063   8.438 -0.5827 -1.0794  0.2737
 5412SOL     OW27868   1.744   4.003   5.274  0.1363 -0.2341 -0.3967
 5412SOL    HW127869   1.730   4.097   5.266 -1.7187 -0.5720 -1.0587
 5412SOL    HW227870   1.663   3.976   5.231  0.5528 -2.1217  0.0110
 5413SOL     OW27871   4.481   2.426   4.806 -0.0491 -0.5542  0.8133
 5413SOL    HW127872   4.411   2.462   4.752  1.5151  2.0032  0.5071
 5413SOL    HW227873   4.442   2.422   4.893  0.2734  1.0508  1.0324
 5414SOL     OW27874   0.258   4.602   1.867 -0.3932  0.6336  0.1754
 5414SOL    HW127875   0.249   4.632   1.777 -2.5947  0.0025  0.1811
 5414SOL    HW227876   0.172   4.561   1.877 -0.2505  0.4941  0.8779
 5415SOL     OW27877   4.308   2.839  11.461 -0.4244 -0.0597 -0.8527
 5415SOL    HW127878   4.242   2.778  11.429 -2.5795  1.9030 -0.1565
 5415SOL    HW227879   4.320   2.787  11.541  2.0498  3.3596  0.9863
 5416SOL     OW27880   3.291   3.998  15.412 -0.0916  0.7857 -0.3562
 5416SOL    HW127881   3.318   3.970  15.325  1.7024  2.6970 -0.4164
 5416SOL    HW227882   3.353   3.938  15.453  1.6817  2.5400 -0.4584
 5417SOL     OW27883   2.358   3.215  12.458 -0.1041 -0.5393  0.0246
 5417SOL    HW127884   2.304   3.256  12.525 -0.0275  0.4475 -0.5250
 5417SOL    HW227885   2.399   3.142  12.506 -0.5274 -1.3469 -0.8411
 5418SOL     OW27886   3.972   4.025   5.494 -0.0616 -0.1280 -0.0678
 5418SOL    HW127887   3.968   3.965   5.420 -0.5141  0.5130 -0.5650
 5418SOL    HW227888   3.909   4.094   5.473  0.2853  0.5586  1.1497
 5419SOL     OW27889   3.395   1.419   8.570  0.3112  0.4000 -0.5972
 5419SOL    HW127890   3.488   1.423   8.592  0.6534 -0.4526 -1.8929
 5419SOL    HW227891   3.388   1.505   8.528  0.1188  0.9818  0.6487
 5420SOL     OW27892   2.877   3.946   3.477  0.0244 -0.7141 -0.3970
 5420SOL    HW127893   2.823   3.867   3.486 -1.1009  0.1279  0.1749
 5420SOL    HW227894   2.828   4.010   3.528  1.2343 -0.8443  0.9364
 5421SOL     OW27895   2.328   0.310   3.260 -0.1709 -0.0586  0.5515
 5421SOL    HW127896   2.382   0.280   3.187 -0.2922  1.1769 -0.0427
 5421SOL    HW227897   2.279   0.380   3.219  0.0334  0.6125  1.4513
 5422SOL     OW27898   2.907   1.973  11.536 -0.2861  0.3662 -0.6482
 5422SOL    HW127899   2.844   1.947  11.603  0.3865  0.4351  0.0146
 5422SOL    HW227900   2.975   2.007  11.594 -1.0293  0.1665  0.3295
 5423SOL     OW27901   3.588   4.645   8.227 -0.2798  0.3256 -0.5809
 5423SOL    HW127902   3.665   4.625   8.279  0.2925  0.8668 -1.2082
 5423SOL    HW227903   3.620   4.601   8.148 -2.9423 -2.0248 -0.3340
 5424SOL     OW27904   2.766   0.231   1.254  0.4600  0.4718  0.1250
 5424SOL    HW127905   2.719   0.300   1.207  0.1511 -0.6259 -1.1977
 5424SOL    HW227906   2.779   0.175   1.177 -0.4439 -0.5934  0.7673
 5425SOL     OW27907   3.269   4.212   2.090  0.0051  0.3197  0.3809
 5425SOL    HW127908   3.259   4.136   2.146  0.4744  0.3334  0.4798
 5425SOL    HW227909   3.200   4.266   2.128 -1.2742  0.0957 -1.6196
 5426SOL     OW27910   0.509   4.585   4.453 -0.3600  0.6666 -0.1675
 5426SOL    HW127911   0.568   4.575   4.379 -1.3376 -1.6451 -0.6130
 5426SOL    HW227912   0.568   4.560   4.524 -0.7004 -1.9686 -0.8297
 5427SOL     OW27913   1.837   1.495   3.321  0.9558  0.1294  1.3136
 5427SOL    HW127914   1.744   1.504   3.341  0.2793 -0.4748 -1.4764
 5427SOL    HW227915   1.876   1.563   3.375  0.7892  2.0166 -0.9172
 5428SOL     OW27916   3.000   3.833   6.965 -0.3201  0.3212 -0.3542
 5428SOL    HW127917   2.905   3.822   6.957 -0.4027  0.8704 -0.1289
 5428SOL    HW227918   3.030   3.775   6.895  1.6840  0.9988 -0.0495
 5429SOL     OW27919   1.771   4.518   3.735 -0.3287 -0.4664 -0.3770
 5429SOL    HW127920   1.848   4.563   3.769 -1.1786  1.5760 -1.1091
 5429SOL    HW227921   1.748   4.575   3.661  0.6848  0.1336 -0.2240
 5430SOL     OW27922   3.883   0.959   4.783  0.1066  0.2293  0.1867
 5430SOL    HW127923   3.956   1.016   4.760  0.9468 -0.5442  0.9360
 5430SOL    HW227924   3.930   0.878   4.762 -1.9218 -1.0496  0.4984
 5431SOL     OW27925   3.310   3.129   2.264 -0.7240 -0.1054 -0.4982
 5431SOL    HW127926   3.352   3.062   2.211  1.5686 -0.2924  1.5320
 5431SOL    HW227927   3.332   3.211   2.220  0.4471 -1.0805 -1.7266
 5432SOL     OW27928   1.778   2.957   2.165 -0.6984  0.4621 -0.0035
 5432SOL    HW127929   1.711   3.000   2.111  0.1280  0.4017 -1.0876
 5432SOL    HW227930   1.807   2.903   2.092 -1.1481 -1.1660  1.0425
 5433SOL     OW27931   1.738   3.643   7.341 -0.1305 -0.4931  0.3695
 5433SOL    HW127932   1.749   3.556   7.379 -0.3518 -0.7013 -0.0471
 5433SOL    HW227933   1.709   3.695   7.416 -1.9341  1.5364 -1.7415
 5434SOL     OW27934   0.973   0.931   5.148  0.0014 -0.0770  0.3114
 5434SOL    HW127935   1.022   0.869   5.095 -1.5672  0.3800 -1.6744
 5434SOL    HW227936   0.931   0.874   5.211 -0.6044  0.8835  0.7783
 5435SOL     OW27937   3.362   1.296   5.648 -0.6550 -0.0340 -0.1823
 5435SOL    HW127938   3.289   1.292   5.586 -3.1326  0.0177  2.7552
 5435SOL    HW227939   3.319   1.260   5.725 -0.3096  0.5304  0.2732
 5436SOL     OW27940   4.097   1.177   1.726  0.5113  0.1712  0.8901
 5436SOL    HW127941   4.122   1.187   1.817  0.2925  1.7614  0.7690
 5436SOL    HW227942   4.050   1.256   1.698  2.5131  0.7520 -0.8437
 5437SOL     OW27943   3.590   4.548   7.957 -0.3375 -0.0657  0.1388
 5437SOL    HW127944   3.587   4.516   7.867 -2.4490 -0.2810  0.3051
 5437SOL    HW227945   3.612   4.463   7.996  1.9586 -1.0173 -3.2715
 5438SOL     OW27946   1.367   3.351  12.152 -0.2490  0.5203 -0.4338
 5438SOL    HW127947   1.322   3.434  12.169  1.1341  1.6620 -2.3754
 5438SOL    HW227948   1.422   3.374  12.077 -1.0342  1.1314 -0.8318
 5439SOL     OW27949   3.522   2.569   7.676  0.3707 -0.1489 -0.0698
 5439SOL    HW127950   3.576   2.504   7.632 -0.0312 -0.2653 -0.4001
 5439SOL    HW227951   3.587   2.638   7.688  2.4377 -2.1257  0.0772
 5440SOL     OW27952   3.863   1.048   5.814 -0.0324 -0.4284 -0.2241
 5440SOL    HW127953   3.874   1.129   5.864  0.4912  0.1193 -1.2131
 5440SOL    HW227954   3.908   0.981   5.865 -1.7604  1.1188  3.3719
 5441SOL     OW27955   0.138   4.004  11.443 -0.6082  0.6836 -0.2370
 5441SOL    HW127956   0.101   3.931  11.493 -0.0618  0.1950 -0.5439
 5441SOL    HW227957   0.086   3.986  11.364 -1.1447  1.8169 -0.1403
 5442SOL     OW27958   4.409   1.070   2.279 -0.6821 -0.5366 -0.7462
 5442SOL    HW127959   4.450   1.150   2.247  0.3239 -0.3834  0.9544
 5442SOL    HW227960   4.320   1.103   2.296  0.1946  1.0787  0.6744
 5443SOL     OW27961   1.628   2.120   4.711  0.3606 -0.7083  0.5416
 5443SOL    HW127962   1.656   2.201   4.753 -2.7289  1.4140 -1.4690
 5443SOL    HW227963   1.634   2.059   4.784  2.6000 -0.5409  0.4865
 5444SOL     OW27964   2.830   4.467   6.717 -0.2216  0.1615 -0.1849
 5444SOL    HW127965   2.916   4.467   6.674 -1.3114  0.3212 -2.3169
 5444SOL    HW227966   2.846   4.442   6.808 -1.8213  0.7162  0.2505
 5445SOL     OW27967   1.872   3.603   7.967  0.4737  0.0078  0.0447
 5445SOL    HW127968   1.789   3.635   7.933 -0.2252 -1.1210  0.7019
 5445SOL    HW227969   1.919   3.585   7.886 -0.6443  1.5528 -0.9237
 5446SOL     OW27970   2.414   2.316   8.336  0.3426  0.0718 -0.4677
 5446SOL    HW127971   2.431   2.247   8.272  2.1635  1.2960 -1.3297
 5446SOL    HW227972   2.409   2.266   8.417  1.3375 -0.4204 -0.7162
 5447SOL     OW27973   1.064   0.945   1.195  0.8409 -0.1542 -0.6329
 5447SOL    HW127974   1.158   0.939   1.178  1.3354  1.3709  1.6481
 5447SOL    HW227975   1.042   1.033   1.165  2.9893  0.3712 -0.6547
 5448SOL     OW27976   3.802   2.718   9.484 -0.2280  0.0134 -0.2373
 5448SOL    HW127977   3.894   2.712   9.510  0.6236  2.6476 -2.6208
 5448SOL    HW227978   3.773   2.709   9.575  1.6663 -0.1057  0.3548
 5449SOL     OW27979   0.681   3.891  11.062 -0.5123  0.6829 -0.3482
 5449SOL    HW127980   0.691   3.919  11.153 -0.3009  1.6088 -0.6562
 5449SOL    HW227981   0.763   3.846  11.043 -2.5799 -2.9730 -0.6077
 5450SOL     OW27982   4.150   3.065   2.878  0.1737  0.6961  0.4044
 5450SOL    HW127983   4.059   3.038   2.887  0.6991 -1.3015 -0.3265
 5450SOL    HW227984   4.154   3.100   2.788  1.7488 -3.4931 -1.1564
 5451SOL     OW27985   1.676   3.854   7.151 -0.3510 -0.4456  0.2144
 5451SOL    HW127986   1.706   3.805   7.227 -0.9519 -0.7299  0.2666
 5451SOL    HW227987   1.752   3.909   7.133 -0.7800  0.1437  0.2017
 5452SOL     OW27988   3.440   2.448   3.317 -0.6690 -0.1218 -0.5045
 5452SOL    HW127989   3.495   2.497   3.378  1.0564 -3.6458  0.7235
 5452SOL    HW227990   3.428   2.508   3.243  1.6175  0.4942 -0.3789
 5453SOL     OW27991   2.415   0.899   2.939 -0.0669  1.1202  0.4287
 5453SOL    HW127992   2.402   0.991   2.962  0.4824  0.9766  1.3019
 5453SOL    HW227993   2.336   0.863   2.980 -1.9256  2.3102 -2.0498
 5454SOL     OW27994   2.189   3.220  11.146 -0.3422  0.7961  0.6026
 5454SOL    HW127995   2.240   3.266  11.080 -1.0497  0.9229  0.1457
 5454SOL    HW227996   2.259   3.197  11.208  0.5705  0.5005 -0.5469
 5455SOL     OW27997   0.276   2.552   6.855  0.4779  0.2311 -0.0836
 5455SOL    HW127998   0.327   2.522   6.930  0.6357 -1.2706 -0.7881
 5455SOL    HW227999   0.224   2.622   6.895 -0.2969 -0.4781  0.1784
 5456SOL     OW28000   0.009   3.599   7.979  0.4540 -0.5203 -0.4936
 5456SOL    HW128001   4.697   3.576   7.901  1.7339 -1.5996 -1.0215
 5456SOL    HW228002   4.686   3.639   8.040  0.6357  0.4938 -0.9778
 5457SOL     OW28003   3.985   0.712  11.228 -0.0474  0.2512  0.1925
 5457SOL    HW128004   3.949   0.685  11.144 -2.6681  0.0528  1.3782
 5457SOL    HW228005   3.981   0.629  11.276  0.2000  0.0181 -0.1871
 5458SOL     OW28006   1.255   0.320   0.725 -0.1524  0.0657 -0.1923
 5458SOL    HW128007   1.269   0.346   0.816 -0.1911  0.8884 -0.4177
 5458SOL    HW228008   1.337   0.276   0.706 -1.7901 -2.0000 -2.4336
 5459SOL     OW28009   2.695   4.519   4.239  0.2914 -0.3110 -0.2718
 5459SOL    HW128010   2.628   4.562   4.292  1.7032  1.7175 -0.1105
 5459SOL    HW228011   2.751   4.495   4.313  1.5342 -1.2442 -1.5111
 5460SOL     OW28012   0.376   4.073  10.466  0.4817  0.0633  0.2323
 5460SOL    HW128013   0.450   4.122  10.504 -0.0205  2.4047 -1.7975
 5460SOL    HW228014   0.352   4.022  10.544  0.8317 -0.4492  0.0035
 5461SOL     OW28015   2.395   0.910  14.689  0.4600  0.1120  0.7232
 5461SOL    HW128016   2.385   0.816  14.700  0.3005 -0.1035 -1.2785
 5461SOL    HW228017   2.343   0.920  14.610 -0.8343  1.2402  1.7243
 5462SOL     OW28018   3.350   1.555   5.075 -0.1155  0.1489  0.0195
 5462SOL    HW128019   3.352   1.494   5.149  0.0407  0.4412  0.2556
 5462SOL    HW228020   3.317   1.495   5.008  2.0105  0.0903 -0.9879
 5463SOL     OW28021   0.780   0.003   4.912  0.2601  0.7040  0.0099
 5463SOL    HW128022   0.808   4.651   4.924 -0.2885  0.4721 -0.4674
 5463SOL    HW228023   0.745   0.032   4.996  0.6668  1.5456 -0.1046
 5464SOL     OW28024   1.746   1.050   6.547 -0.5461 -0.1941  0.2167
 5464SOL    HW128025   1.772   1.096   6.626  1.4233  0.1905 -0.6474
 5464SOL    HW228026   1.799   0.970   6.557 -0.0034  0.0608 -0.5865
 5465SOL     OW28027   0.585   1.116   2.972 -0.2743 -0.3752  0.7350
 5465SOL    HW128028   0.643   1.050   2.932 -0.9206  0.6053 -1.7785
 5465SOL    HW228029   0.611   1.200   2.935 -0.9279  0.0349  1.2028
 5466SOL     OW28030   4.050   2.263   4.235  0.3598  0.3982 -0.4273
 5466SOL    HW128031   4.000   2.196   4.190  1.6389 -2.3323  2.2140
 5466SOL    HW228032   4.095   2.209   4.299  3.1203 -1.1570 -3.7273
 5467SOL     OW28033   2.146   4.513  16.020 -0.3047 -0.9384 -0.6028
 5467SOL    HW128034   2.228   4.518  15.970  0.2478  1.7360  0.5541
 5467SOL    HW228035   2.105   4.432  15.990 -3.5949  0.3798  0.3500
 5468SOL     OW28036   2.383   3.072   4.529  0.1009 -0.8699  0.1094
 5468SOL    HW128037   2.374   3.156   4.484  1.6452  0.6809  2.6705
 5468SOL    HW228038   2.386   3.096   4.622  1.0815  0.9954 -0.4053
 5469SOL     OW28039   0.735   4.238   9.839  0.5448 -0.0480 -0.5260
 5469SOL    HW128040   0.749   4.322   9.796 -2.0994 -0.1327 -1.5784
 5469SOL    HW228041   0.812   4.193   9.805  0.8563 -0.4851  0.7620
 5470SOL     OW28042   2.781   2.972   5.773  0.2550 -0.4242  0.0899
 5470SOL    HW128043   2.786   3.028   5.696 -1.4127 -1.0519 -0.4679
 5470SOL    HW228044   2.858   2.915   5.768  1.0277  0.6661 -0.3264
 5471SOL     OW28045   2.813   0.940  12.891 -0.3889 -0.1117  0.2812
 5471SOL    HW128046   2.722   0.914  12.905 -0.9925  1.0233 -1.4563
 5471SOL    HW228047   2.854   0.937  12.977 -0.7350  1.3938  0.4940
 5472SOL     OW28048   4.299   0.547   8.692  0.3124  0.5937  0.0033
 5472SOL    HW128049   4.235   0.529   8.623 -0.3088 -0.8573  0.9696
 5472SOL    HW228050   4.373   0.551   8.631  1.8462 -2.1661  1.7090
 5473SOL     OW28051   1.272   4.655  12.314 -0.0022  0.3327  0.2792
 5473SOL    HW128052   1.340   4.587  12.313 -2.7548 -2.4293 -0.8858
 5473SOL    HW228053   1.320   4.735  12.335 -0.2999  0.3761  0.7910
 5474SOL     OW28054   4.217   4.385   3.436 -0.4035 -0.3706 -0.1336
 5474SOL    HW128055   4.203   4.439   3.358 -0.5283  0.8367  0.7371
 5474SOL    HW228056   4.134   4.336   3.435 -0.7244  0.1822 -0.9156
 5475SOL     OW28057   0.557   0.070   4.042  0.2354 -0.2055 -0.4129
 5475SOL    HW128058   0.629   0.030   4.091  0.0143  1.5672  1.3924
 5475SOL    HW228059   0.482   0.035   4.089  0.0982 -1.8889 -1.9126
 5476SOL     OW28060   3.342   1.608  13.705  0.3442 -0.0455 -0.4817
 5476SOL    HW128061   3.278   1.631  13.638 -0.5800  0.8164  0.6848
 5476SOL    HW228062   3.423   1.625  13.658 -0.2919 -1.7718 -2.1870
 5477SOL     OW28063   3.910   3.155   7.728 -0.0928  0.4742 -0.5974
 5477SOL    HW128064   3.912   3.149   7.633  0.2148 -0.4014 -0.5323
 5477SOL    HW228065   3.816   3.155   7.745  0.0498  2.1296  0.2075
 5478SOL     OW28066   1.552   2.969   3.427  0.2441 -0.0521 -0.3152
 5478SOL    HW128067   1.629   2.913   3.428  0.0388 -0.3294  0.2293
 5478SOL    HW228068   1.589   3.039   3.480  1.4753 -0.4717 -0.6256
 5479SOL     OW28069   0.076   0.985   4.766  0.1550 -0.5376  0.1837
 5479SOL    HW128070   0.020   1.002   4.690 -1.5040 -0.4299  1.4623
 5479SOL    HW228071   0.090   1.064   4.818 -0.3486  0.0295 -0.5471
 5480SOL     OW28072   2.129   2.443   3.034  0.2142 -0.2804  0.2048
 5480SOL    HW128073   2.125   2.356   2.995 -0.6020 -0.4451  0.6436
 5480SOL    HW228074   2.194   2.485   2.978  1.3002  1.8105  3.0549
 5481SOL     OW28075   3.125   1.433   1.146  0.4654 -0.3589  0.2848
 5481SOL    HW128076   3.128   1.344   1.182  1.6884  0.0757  1.2524
 5481SOL    HW228077   3.035   1.427   1.114  0.3733  0.1552  0.4548
 5482SOL     OW28078   4.004   2.969   3.375  0.1316 -0.2322  0.1772
 5482SOL    HW128079   3.941   3.014   3.431  1.7467  1.8281  0.3360
 5482SOL    HW228080   3.940   2.913   3.331 -0.8782  1.2437 -0.2501
 5483SOL     OW28081   0.471   3.747   0.569 -0.3863  0.2362  0.0773
 5483SOL    HW128082   0.396   3.705   0.526 -0.8580 -0.6507  1.7355
 5483SOL    HW228083   0.419   3.783   0.641  1.4870  0.0890  1.5008
 5484SOL     OW28084   1.544   4.539   6.398  0.2561 -0.0378 -0.0444
 5484SOL    HW128085   1.470   4.567   6.345  1.8820  1.4556 -1.5173
 5484SOL    HW228086   1.616   4.565   6.340  0.4756  1.4869  0.8752
 5485SOL     OW28087   0.492   1.480   8.501  0.2411 -0.4419  0.5969
 5485SOL    HW128088   0.526   1.568   8.487  1.1388 -0.7449  0.9352
 5485SOL    HW228089   0.544   1.440   8.431  1.3210  2.4453 -0.2452
 5486SOL     OW28090   4.584   0.301   9.046 -0.2360  0.4369  0.2363
 5486SOL    HW128091   4.499   0.257   9.055  0.6390 -1.3690 -0.4361
 5486SOL    HW228092   4.595   0.297   8.951 -0.0971 -1.8530  0.3487
 5487SOL     OW28093   2.463   3.326  11.891 -0.2761  0.0733  0.3482
 5487SOL    HW128094   2.469   3.417  11.859 -1.1862 -0.5029 -1.4984
 5487SOL    HW228095   2.521   3.333  11.967  0.3685 -1.3563 -0.0220
 5488SOL     OW28096   4.276   1.958   1.795 -0.5402  0.2874  0.0701
 5488SOL    HW128097   4.186   1.934   1.775 -0.6006  1.8508 -1.5780
 5488SOL    HW228098   4.276   2.053   1.807  0.9680  0.3464 -0.3478
 5489SOL     OW28099   3.862   1.389   6.794  0.1129 -0.1189  0.2386
 5489SOL    HW128100   3.936   1.330   6.806 -0.2965 -0.6341  0.2471
 5489SOL    HW228101   3.800   1.324   6.759  1.8524 -0.4776 -2.2170
 5490SOL     OW28102   1.722   1.703   4.659  0.5412 -0.0324 -0.1040
 5490SOL    HW128103   1.705   1.656   4.577 -0.5741  0.2890 -0.0588
 5490SOL    HW228104   1.642   1.756   4.660 -0.7465 -1.9289 -1.9204
 5491SOL     OW28105   1.827   0.766   8.156  0.3112  0.1723  0.5182
 5491SOL    HW128106   1.807   0.816   8.235  0.8739  0.0508  0.7352
 5491SOL    HW228107   1.805   0.820   8.080  1.1765 -0.9774 -0.5449
 5492SOL     OW28108   2.612   2.433   0.966  0.2268  0.2910  0.5182
 5492SOL    HW128109   2.634   2.380   0.889  2.1980  2.8825 -0.6900
 5492SOL    HW228110   2.673   2.504   0.944  1.7769 -1.4748 -0.9190
 5493SOL     OW28111   2.597   2.121  15.130  0.0563 -0.2629  0.4854
 5493SOL    HW128112   2.689   2.126  15.157  0.4964 -0.3613 -0.9935
 5493SOL    HW228113   2.606   2.179  15.054 -1.1297 -2.8084 -1.5814
 5494SOL     OW28114   3.611   3.913  16.621  0.0878 -0.4068  0.1666
 5494SOL    HW128115   3.643   4.001  16.600 -0.5016 -0.0992  0.5792
 5494SOL    HW228116   3.520   3.943  16.616 -0.4830 -2.4744 -1.5026
 5495SOL     OW28117   0.683   2.330   3.086 -0.2705 -0.4255 -0.1379
 5495SOL    HW128118   0.631   2.409   3.073 -0.6906 -0.6091  0.4601
 5495SOL    HW228119   0.682   2.279   3.005 -0.5842 -0.3274 -0.1950
 5496SOL     OW28120   3.354   0.193  17.637 -0.2938  0.1481 -0.1241
 5496SOL    HW128121   3.344   0.217  17.544  2.5639 -0.1468 -0.4940
 5496SOL    HW228122   3.272   0.220  17.679  0.7293  0.0746  1.8673
 5497SOL     OW28123   3.725   2.612   6.618 -0.1157 -0.0697  0.2095
 5497SOL    HW128124   3.775   2.546   6.571 -0.4543 -0.6438  0.6518
 5497SOL    HW228125   3.654   2.555   6.649  0.7251  1.1350  4.4127
 5498SOL     OW28126   0.461   3.585  17.648  0.2337  0.4797 -0.0521
 5498SOL    HW128127   0.496   3.639  17.720 -2.7031  1.9999  0.2093
 5498SOL    HW228128   0.463   3.501  17.694 -0.6415  2.0385  2.8352
 5499SOL     OW28129   0.538   1.352   5.177  0.9111 -0.8944  0.1607
 5499SOL    HW128130   0.549   1.288   5.247 -2.3200  0.2150  1.6594
 5499SOL    HW228131   0.534   1.296   5.099 -0.5545 -0.7710  0.1398
 5500SOL     OW28132   0.821   1.390   4.514  0.4289  0.6463  0.1479
 5500SOL    HW128133   0.730   1.380   4.542  1.2259 -0.3935  2.3675
 5500SOL    HW228134   0.815   1.446   4.436 -0.7356  1.4301  0.7948
 5501SOL     OW28135   3.359   2.268   7.241 -0.2253 -0.2217 -0.0715
 5501SOL    HW128136   3.319   2.263   7.328  1.4839 -1.5507  0.6232
 5501SOL    HW228137   3.418   2.193   7.232  1.3391  1.0782 -0.6625
 5502SOL     OW28138   3.235   3.788   1.477  0.4133  0.1622  0.4508
 5502SOL    HW128139   3.209   3.696   1.471 -1.1692  0.6682 -0.6801
 5502SOL    HW228140   3.300   3.797   1.546  1.5656 -1.5266 -0.4196
 5503SOL     OW28141   2.541   3.969  13.907 -0.2483  0.0771 -0.0979
 5503SOL    HW128142   2.587   3.897  13.952 -1.2364  0.7225  1.9443
 5503SOL    HW228143   2.597   4.039  13.940 -0.8878 -0.0394  1.2556
 5504SOL     OW28144   3.932   1.424   3.035  0.1676  0.9404  0.6238
 5504SOL    HW128145   3.981   1.481   2.976  0.1197 -0.0204 -0.3305
 5504SOL    HW228146   3.969   1.337   3.026 -0.2025  0.6348  1.9980
 5505SOL     OW28147   3.796   1.944   5.892  0.1567  0.2885  0.2304
 5505SOL    HW128148   3.780   1.976   5.980 -0.0651 -4.0200  1.7197
 5505SOL    HW228149   3.891   1.951   5.882 -0.0419  0.6176 -1.5574
 5506SOL     OW28150   1.997   3.838   4.608 -0.7050  0.4085 -0.4028
 5506SOL    HW128151   1.958   3.756   4.576 -0.5774  0.6188 -1.0899
 5506SOL    HW228152   1.933   3.855   4.677 -1.6916  2.9883 -1.9455
 5507SOL     OW28153   3.161   2.809   6.003 -0.3595  0.3999  0.2350
 5507SOL    HW128154   3.206   2.738   6.049  1.9176  0.8557 -1.2477
 5507SOL    HW228155   3.082   2.830   6.052 -0.9703 -1.1410 -0.1068
 5508SOL     OW28156   3.878   3.386   0.525 -0.3624  0.2984 -0.4310
 5508SOL    HW128157   3.889   3.414   0.616  1.4175  0.0505 -0.5819
 5508SOL    HW228158   3.955   3.330   0.514 -0.7102 -0.4302  0.8365
 5509SOL     OW28159   0.347   2.356   5.836  0.3335  0.0943  0.3459
 5509SOL    HW128160   0.265   2.403   5.850  0.3498  0.9551 -2.4352
 5509SOL    HW228161   0.382   2.363   5.924  0.2005 -0.2172  0.4230
 5510SOL     OW28162   3.483   3.769  15.497 -0.3632 -0.2528  0.2050
 5510SOL    HW128163   3.513   3.702  15.559  2.5263  1.9157  1.1201
 5510SOL    HW228164   3.496   3.722  15.415  0.9896  0.5025 -0.0060
 5511SOL     OW28165   1.238   1.301   7.155  0.2087 -0.4754 -0.0961
 5511SOL    HW128166   1.290   1.374   7.188  1.6802 -0.6442 -2.0153
 5511SOL    HW228167   1.158   1.353   7.147  0.8138  0.7630  1.9587
 5512SOL     OW28168   0.400   3.380   9.340 -0.6016 -0.2092 -0.1226
 5512SOL    HW128169   0.350   3.386   9.421 -0.0653  0.1699  0.1789
 5512SOL    HW228170   0.380   3.471   9.315 -0.0058  0.3736  1.5133
 5513SOL     OW28171   2.743   3.769   4.725 -0.1149 -0.2694  0.1035
 5513SOL    HW128172   2.813   3.711   4.756 -0.2889 -0.1378  0.7572
 5513SOL    HW228173   2.666   3.748   4.779  0.3774 -0.4067  0.7561
 5514SOL     OW28174   1.683   2.025   4.973 -0.3907  0.0855 -0.4423
 5514SOL    HW128175   1.632   2.104   4.992  2.2342  1.9663 -1.2866
 5514SOL    HW228176   1.635   1.957   5.019  0.5047  0.2597  0.7256
 5515SOL     OW28177   2.377   2.896   4.222 -0.5196  0.4703  0.4751
 5515SOL    HW128178   2.376   2.840   4.144 -1.3952  1.1150  0.0256
 5515SOL    HW228179   2.283   2.908   4.239 -0.7389 -2.5076  1.4878
 5516SOL     OW28180   2.191   2.585   2.503  0.2417 -0.4878 -0.2396
 5516SOL    HW128181   2.246   2.589   2.425  0.2945  1.0747 -0.1204
 5516SOL    HW228182   2.115   2.544   2.463  0.1053 -1.3721  0.9314
 5517SOL     OW28183   4.659   3.779   2.954  0.0977  0.2324  0.0999
 5517SOL    HW128184   0.003   3.779   3.003 -1.2498 -0.8623  2.3747
 5517SOL    HW228185   4.612   3.841   3.010  0.5879 -1.7603  2.7282
 5518SOL     OW28186   0.466   1.403   3.849 -0.1142 -0.2807 -0.4454
 5518SOL    HW128187   0.478   1.373   3.759 -0.6428  1.9769 -1.2635
 5518SOL    HW228188   0.394   1.350   3.885  1.1409 -1.6470  0.0794
 5519SOL     OW28189   1.130   2.251   4.377  0.1583 -0.4174 -0.2350
 5519SOL    HW128190   1.054   2.222   4.326 -0.6821 -1.0163  1.3845
 5519SOL    HW228191   1.133   2.187   4.448  1.4854  0.0280  0.1117
 5520SOL     OW28192   1.173   0.310   2.071 -0.4554 -0.1737 -0.6177
 5520SOL    HW128193   1.158   0.297   1.977 -3.0932 -1.3694 -0.0290
 5520SOL    HW228194   1.089   0.280   2.104  0.3907 -1.3514  0.4302
 5521SOL     OW28195   0.627   2.713   9.499  0.3800 -0.1652  0.5567
 5521SOL    HW128196   0.535   2.724   9.474 -0.4491  0.0805  3.7670
 5521SOL    HW228197   0.629   2.636   9.555 -0.4122 -0.5306  0.0801
 5522SOL     OW28198   1.674   2.371   4.170  0.2671  0.7502  0.2217
 5522SOL    HW128199   1.608   2.303   4.159  1.5007 -0.2793 -0.7521
 5522SOL    HW228200   1.665   2.402   4.260 -1.9669  1.2320 -0.1809
 5523SOL     OW28201   0.469   2.086   7.628  0.0054  0.1186  0.1160
 5523SOL    HW128202   0.501   2.162   7.579 -0.5909 -1.3554 -2.5767
 5523SOL    HW228203   0.399   2.127   7.679  1.3997  1.8773  0.6469
 5524SOL     OW28204   4.416   3.100  13.831  0.5520  0.4505 -0.7732
 5524SOL    HW128205   4.439   3.012  13.802 -2.8440 -0.6943  0.0103
 5524SOL    HW228206   4.486   3.155  13.797 -0.7848  0.6585 -3.1491
 5525SOL     OW28207   3.225   2.793   8.943 -0.1838 -0.4740  0.0991
 5525SOL    HW128208   3.191   2.746   9.019 -2.0976  3.4552  1.6514
 5525SOL    HW228209   3.285   2.840   9.001 -0.6485  0.9772 -0.6017
 5526SOL     OW28210   1.170   2.859  14.639  0.4813  0.1850  0.3878
 5526SOL    HW128211   1.241   2.895  14.692 -0.5313  1.1966  1.0680
 5526SOL    HW228212   1.102   2.915  14.677 -1.1566 -1.2647 -0.4147
 5527SOL     OW28213   0.950   0.003   3.597  0.2072 -0.1074 -0.1072
 5527SOL    HW128214   0.901   0.057   3.659  0.5645  1.1622 -0.9445
 5527SOL    HW228215   1.031   0.002   3.650  0.8735 -1.3327 -1.1371
 5528SOL     OW28216   1.516   1.597  11.202  0.4501 -0.0887  0.0515
 5528SOL    HW128217   1.586   1.659  11.221 -2.1680  2.5379  1.1383
 5528SOL    HW228218   1.486   1.575  11.290  0.2918 -1.7859 -0.4278
 5529SOL     OW28219   2.608   3.473  15.029  0.2341 -0.3943  0.1436
 5529SOL    HW128220   2.536   3.509  14.977 -0.3039 -0.5883  0.7589
 5529SOL    HW228221   2.591   3.379  15.034  0.8686 -0.4685  1.0412
 5530SOL     OW28222   2.040   2.276   6.323 -0.1564  0.4366  0.1266
 5530SOL    HW128223   1.990   2.218   6.266  0.1562  1.3196 -1.0493
 5530SOL    HW228224   1.984   2.354   6.324 -2.1955 -1.0256 -0.2847
 5531SOL     OW28225   4.008   0.267  15.948  0.0247  0.4561  0.0269
 5531SOL    HW128226   3.981   0.255  16.039 -0.1534 -1.4595 -0.2801
 5531SOL    HW228227   4.028   0.177  15.920 -2.3312  0.6699 -2.3072
 5532SOL     OW28228   3.117   3.809   5.646 -0.3593 -0.0835 -0.8544
 5532SOL    HW128229   3.059   3.828   5.572  0.0625 -0.7055 -1.3489
 5532SOL    HW228230   3.197   3.854   5.617  0.3127  0.0088  1.1795
 5533SOL     OW28231   0.849   1.474  14.010 -0.1476  0.5985 -0.1142
 5533SOL    HW128232   0.942   1.484  13.990 -0.0712  1.0737  0.4449
 5533SOL    HW228233   0.836   1.380  14.008  0.6775  0.4990 -0.5940
 5534SOL     OW28234   4.220   1.863  11.207 -0.3211  0.0769 -0.1485
 5534SOL    HW128235   4.259   1.806  11.274 -1.8400 -2.0157 -1.0553
 5534SOL    HW228236   4.222   1.948  11.250  1.0084 -0.0821  0.1132
 5535SOL     OW28237   0.172   0.661   5.390  0.0244 -0.4391  0.2110
 5535SOL    HW128238   0.236   0.606   5.435 -0.7335  0.2923  2.1689
 5535SOL    HW228239   0.230   0.701   5.325 -3.0082  2.8970 -0.4263
 5536SOL     OW28240   3.864   0.542   3.528  0.1728 -0.5499 -0.3495
 5536SOL    HW128241   3.855   0.607   3.598  1.4188  0.0783 -0.7776
 5536SOL    HW228242   3.797   0.577   3.470  0.3980  0.6572  0.1063
 5537SOL     OW28243   1.439   2.723   4.341 -0.4253 -0.5357 -0.1576
 5537SOL    HW128244   1.516   2.779   4.345 -1.6113  0.9811  1.5231
 5537SOL    HW228245   1.460   2.666   4.416  0.9097  1.1658  0.7445
 5538SOL     OW28246   2.877   0.613  13.722  0.0659  0.0255  0.2941
 5538SOL    HW128247   2.860   0.706  13.705 -2.7328 -0.1215  2.1606
 5538SOL    HW228248   2.842   0.565  13.647 -0.0880 -2.0157  1.6622
 5539SOL     OW28249   4.595   0.647   3.168 -0.2522  0.0538  0.1549
 5539SOL    HW128250   4.658   0.575   3.180  0.0655  0.3367  0.1960
 5539SOL    HW228251   4.560   0.653   3.257 -2.1201  1.0728 -0.6661
 5540SOL     OW28252   3.678   1.815   7.029 -0.0011  0.0282 -0.8063
 5540SOL    HW128253   3.763   1.821   6.987  0.8012 -0.8765  0.6910
 5540SOL    HW228254   3.646   1.734   6.989 -1.6065  1.0778 -1.6517
 5541SOL     OW28255   4.265   3.704  14.686 -0.3189 -0.0962 -0.2522
 5541SOL    HW128256   4.261   3.687  14.780 -2.3155  0.5772 -0.1969
 5541SOL    HW228257   4.350   3.670  14.658 -1.0297 -1.5742 -0.6368
 5542SOL     OW28258   2.851   1.324   1.118  0.1189 -0.0382  0.4771
 5542SOL    HW128259   2.864   1.325   1.023  1.4544 -2.0135  0.6447
 5542SOL    HW228260   2.778   1.385   1.128 -1.0636 -1.3586  0.0381
 5543SOL     OW28261   2.851   2.067   1.646 -0.3863 -0.2689  0.3684
 5543SOL    HW128262   2.854   2.162   1.649 -0.3449 -0.2011 -1.8540
 5543SOL    HW228263   2.809   2.052   1.562  1.0423 -0.6660 -0.2793
 5544SOL     OW28264   3.954   4.494   2.079 -0.2445 -0.5581 -0.1895
 5544SOL    HW128265   3.955   4.575   2.027  0.4221  0.0267  0.7219
 5544SOL    HW228266   3.928   4.427   2.016 -0.2702 -0.9305  0.2172
 5545SOL     OW28267   2.255   3.549  17.359  0.3431  0.6580 -0.4563
 5545SOL    HW128268   2.267   3.561  17.265  2.4647 -0.1331 -0.2831
 5545SOL    HW228269   2.260   3.635  17.399  1.7069 -0.1066  1.0086
 5546SOL     OW28270   0.066   0.166   4.740  0.6539 -0.3009 -0.0425
 5546SOL    HW128271   0.026   0.107   4.675 -0.4243 -0.3369  0.6471
 5546SOL    HW228272   0.079   0.114   4.819 -0.5656  0.2727  0.5432
 5547SOL     OW28273   4.738   1.536   0.638  0.2700  0.3831  0.2958
 5547SOL    HW128274   4.699   1.499   0.717 -1.4592 -1.9371 -1.6112
 5547SOL    HW228275   0.046   1.607   0.679  0.3098  0.1804  0.5972
 5548SOL     OW28276   1.740   2.040   8.203  0.5548 -0.1708 -0.5470
 5548SOL    HW128277   1.807   1.982   8.237 -1.4116 -3.0239 -1.5674
 5548SOL    HW228278   1.742   2.125   8.248  0.0800 -1.0635  1.1790
 5549SOL     OW28279   3.957   1.407   2.352 -0.0121 -0.1860 -0.1676
 5549SOL    HW128280   3.923   1.356   2.278  0.7506 -0.3837 -0.3752
 5549SOL    HW228281   3.952   1.493   2.311 -1.9880 -0.6301 -0.8711
 5550SOL     OW28282   0.416   1.514   7.467  0.2701 -0.7555 -0.6058
 5550SOL    HW128283   0.480   1.585   7.475 -0.7462 -0.0028  0.9111
 5550SOL    HW228284   0.450   1.471   7.389  1.7793 -1.5961  0.5169
 5551SOL     OW28285   1.304   1.356   9.701 -0.0348 -0.1818  0.0363
 5551SOL    HW128286   1.398   1.344   9.692  0.3280  3.1290 -0.6582
 5551SOL    HW228287   1.276   1.377   9.612 -1.2134 -1.4001  0.1119
 5552SOL     OW28288   4.225   2.635   0.792  0.0135  0.0118 -0.0185
 5552SOL    HW128289   4.315   2.605   0.780 -0.5175 -2.1270  1.3166
 5552SOL    HW228290   4.236   2.695   0.866  0.2796 -0.7566  0.5634
 5553SOL     OW28291   4.129   0.511   4.868 -0.2024 -0.1154 -0.3338
 5553SOL    HW128292   4.105   0.510   4.960  0.0609  2.2608 -0.2436
 5553SOL    HW228293   4.118   0.418   4.850 -0.3630 -0.2926  0.7022
 5554SOL     OW28294   2.996   0.117  16.883 -0.6517  0.1419 -0.0713
 5554SOL    HW128295   2.955   0.101  16.798 -0.1517 -1.3591 -0.0217
 5554SOL    HW228296   3.087   0.137  16.863 -0.7431  1.2508  0.6213
 5555SOL     OW28297   3.833   2.773   7.115  0.6212 -0.6360  0.5609
 5555SOL    HW128298   3.807   2.721   7.039  1.1771  1.5233 -1.1241
 5555SOL    HW228299   3.892   2.840   7.080 -0.6468  0.5444  0.6806
 5556SOL     OW28300   3.562   1.267   7.627  0.3546  0.0612 -0.1683
 5556SOL    HW128301   3.470   1.253   7.649  0.4030 -0.4886 -0.3341
 5556SOL    HW228302   3.547   1.268   7.533 -0.3494  0.8579 -0.0511
 5557SOL     OW28303   0.949   2.202   4.116  0.6882 -0.0477 -0.2469
 5557SOL    HW128304   0.915   2.282   4.156  0.5971  0.6186 -1.6225
 5557SOL    HW228305   0.898   2.135   4.160 -1.9213  1.4144 -1.0169
 5558SOL     OW28306   1.310   0.871   2.778  0.2609 -0.4192  0.4081
 5558SOL    HW128307   1.268   0.794   2.739  0.2269  0.2285 -0.8499
 5558SOL    HW228308   1.318   0.921   2.696 -0.6630 -0.5901  0.2092
 5559SOL     OW28309   1.562   0.548  11.218  0.2301 -0.3631  0.0172
 5559SOL    HW128310   1.604   0.479  11.168  1.0542  0.8114 -0.9202
 5559SOL    HW228311   1.641   0.600  11.234  0.1712  0.3786 -2.0508
 5560SOL     OW28312   3.680   2.757   8.244 -0.2965 -0.2191 -0.0315
 5560SOL    HW128313   3.624   2.714   8.180  0.3436 -0.7482 -0.2313
 5560SOL    HW228314   3.743   2.796   8.183 -0.1548  1.8336  1.4238
 5561SOL     OW28315   3.627   2.477   0.175  0.0161  0.4853  0.1388
 5561SOL    HW128316   3.656   2.443   0.259  1.2464  0.6087 -0.2314
 5561SOL    HW228317   3.539   2.440   0.165  0.1590  0.4577 -1.0725
 5562SOL     OW28318   4.499   2.643   8.076  0.8063 -0.0987 -0.1097
 5562SOL    HW128319   4.505   2.727   8.122  2.2518 -0.9529  1.2528
 5562SOL    HW228320   4.409   2.612   8.090  0.6605  0.2873 -0.1812
 5563SOL     OW28321   1.482   2.500   5.173  0.1534 -0.7910  0.2352
 5563SOL    HW128322   1.485   2.571   5.237  0.8957 -0.9347  0.3556
 5563SOL    HW228323   1.432   2.443   5.231 -0.0099  0.7677  1.6444
 5564SOL     OW28324   2.266   4.108   5.831 -0.3659 -0.5175 -0.3344
 5564SOL    HW128325   2.318   4.082   5.907  1.5864  0.8925 -1.1786
 5564SOL    HW228326   2.288   4.042   5.765  1.2866  0.1416 -0.4429
 5565SOL     OW28327   2.062   3.413   2.542 -0.1788  0.0264 -0.1682
 5565SOL    HW128328   2.089   3.440   2.454 -0.7334  0.4057 -0.2254
 5565SOL    HW228329   2.150   3.385   2.567 -0.2842  1.3116  1.6182
 5566SOL     OW28330   0.320   3.488   0.851  0.1443 -0.4069  0.6493
 5566SOL    HW128331   0.255   3.419   0.840 -1.6066  1.7468 -2.4173
 5566SOL    HW228332   0.364   3.482   0.766  0.1264 -1.9500  0.7452
 5567SOL     OW28333   1.795   1.913   2.867  0.6015 -0.2748 -0.3945
 5567SOL    HW128334   1.732   1.982   2.888  2.6042  1.1158  1.0348
 5567SOL    HW228335   1.847   1.905   2.947  0.8402  2.2607 -0.2897
 5568SOL     OW28336   4.396   0.544  12.128  0.1499 -0.1970 -0.2043
 5568SOL    HW128337   4.360   0.619  12.176  0.0920  0.4029 -1.1932
 5568SOL    HW228338   4.325   0.517  12.071  0.9245 -2.2532 -0.1831
 5569SOL     OW28339   0.617   0.916   7.368 -0.8555  0.4837 -0.1198
 5569SOL    HW128340   0.626   0.834   7.320 -0.7902  1.4255 -1.7319
 5569SOL    HW228341   0.521   0.923   7.369 -0.7812  1.3111  1.7545
 5570SOL     OW28342   0.306   4.445   6.116 -0.2055  0.3765 -0.8798
 5570SOL    HW128343   0.309   4.536   6.148  2.6186 -0.7098  1.9952
 5570SOL    HW228344   0.355   4.457   6.035 -3.2959  3.7537 -2.2736
 5571SOL     OW28345   2.331   3.795  12.476 -0.2319 -1.1998  0.4059
 5571SOL    HW128346   2.339   3.836  12.562 -0.9465  2.1280 -1.1053
 5571SOL    HW228347   2.384   3.717  12.490 -1.4853 -2.5173 -2.2936
 5572SOL     OW28348   2.100   2.926   4.267  0.4691  0.0439  0.1050
 5572SOL    HW128349   2.043   2.954   4.196 -0.3180 -0.0877  0.6898
 5572SOL    HW228350   2.085   2.831   4.271  0.4304  0.1016  1.3755
 5573SOL     OW28351   1.173   2.807   3.155  1.0303  0.3471 -0.0587
 5573SOL    HW128352   1.147   2.775   3.242  1.6013 -1.1097 -0.4208
 5573SOL    HW228353   1.230   2.880   3.180  1.7192 -0.8649  1.9636
 5574SOL     OW28354   2.111   4.152   0.069  0.3322 -0.0648 -0.2563
 5574SOL    HW128355   2.193   4.201   0.066 -0.1010  0.6356 -0.5853
 5574SOL    HW228356   2.044   4.216   0.091 -0.1421 -0.9951  0.9949
 5575SOL     OW28357   3.314   3.580   2.229 -0.3466 -0.1954  0.5908
 5575SOL    HW128358   3.343   3.639   2.299 -3.5456 -0.6574  2.3169
 5575SOL    HW228359   3.386   3.520   2.215 -0.4908 -0.2389  0.0069
 5576SOL     OW28360   1.491   1.009   6.882 -0.1131 -0.1325 -0.1150
 5576SOL    HW128361   1.509   1.036   6.972 -1.7365  1.1302 -0.1674
 5576SOL    HW228362   1.474   1.094   6.842  4.2526  1.0894  0.6537
 5577SOL     OW28363   1.043   4.024   1.667  0.0218 -0.5659 -0.5435
 5577SOL    HW128364   0.963   4.052   1.623 -0.5495 -1.5728 -0.1359
 5577SOL    HW228365   1.035   4.082   1.742  0.4650 -0.2486 -0.7353
 5578SOL     OW28366   1.608   0.462   1.669  0.2902  0.4518  0.8828
 5578SOL    HW128367   1.544   0.484   1.737  0.3277  1.5046  0.5817
 5578SOL    HW228368   1.636   0.382   1.713 -1.7580  0.1297  1.5984
 5579SOL     OW28369   1.157   4.069   6.377 -0.2695 -0.2933  0.8646
 5579SOL    HW128370   1.093   4.139   6.388 -0.3671 -0.7692  3.2072
 5579SOL    HW228371   1.115   4.002   6.431  0.7278  0.5667  2.7215
 5580SOL     OW28372   1.423   3.857   2.780 -0.0626  0.2657  0.7615
 5580SOL    HW128373   1.367   3.781   2.796 -1.4664  1.4759  1.5229
 5580SOL    HW228374   1.405   3.901   2.863 -1.4125  1.2851 -0.0830
 5581SOL     OW28375   2.826   1.717   2.000  0.4313  0.2283 -0.0894
 5581SOL    HW128376   2.818   1.769   1.920  0.8822  1.3383  0.5852
 5581SOL    HW228377   2.767   1.779   2.043 -0.5455 -0.7569 -0.0377
 5582SOL     OW28378   1.636   1.509   6.542 -0.0653 -0.0129 -0.1169
 5582SOL    HW128379   1.730   1.503   6.560 -0.4094 -0.5357  1.4872
 5582SOL    HW228380   1.633   1.480   6.451 -0.2399 -0.2452 -0.0351
 5583SOL     OW28381   2.780   1.226   8.628  0.3216  0.0727 -0.0273
 5583SOL    HW128382   2.825   1.237   8.544 -2.6102 -0.3291 -1.6292
 5583SOL    HW228383   2.837   1.282   8.680 -0.1083 -0.7207  1.3024
 5584SOL     OW28384   1.733   1.669   2.718  0.6097 -0.6418 -0.3340
 5584SOL    HW128385   1.732   1.742   2.779 -1.0857 -1.5512  0.7393
 5584SOL    HW228386   1.642   1.665   2.687  0.2905 -2.0921  0.7821
 5585SOL     OW28387   1.249   2.705   9.633  0.5842  0.3999 -0.6679
 5585SOL    HW128388   1.237   2.800   9.628  0.2644  0.5188  1.9451
 5585SOL    HW228389   1.169   2.679   9.680  0.8265  1.4520  0.3124
 5586SOL     OW28390   3.255   4.327   9.909  0.3778  0.1775 -0.1495
 5586SOL    HW128391   3.179   4.274   9.882 -0.1858  1.6032 -1.3390
 5586SOL    HW228392   3.230   4.355   9.997  1.5429 -0.4894  0.3932
 5587SOL     OW28393   3.862   1.898  10.862 -0.0027 -0.0998 -0.0579
 5587SOL    HW128394   3.795   1.945  10.912  1.4373 -2.2574  3.8421
 5587SOL    HW228395   3.917   1.848  10.922  0.2261 -0.0111 -0.1901
 5588SOL     OW28396   0.698   1.968   0.700 -0.4082  0.0258 -0.5420
 5588SOL    HW128397   0.657   1.968   0.786  1.0881  1.8598  0.1646
 5588SOL    HW228398   0.790   1.989   0.711 -0.3686 -1.5888  2.1396
 5589SOL     OW28399   1.978   2.668   1.658 -0.4765 -1.2533 -0.5813
 5589SOL    HW128400   1.920   2.606   1.615 -2.2235  2.2695 -3.3553
 5589SOL    HW228401   1.926   2.747   1.640  2.8010  1.0155  0.0130
 5590SOL     OW28402   3.516   3.999  12.286 -0.3506  0.9071  0.7758
 5590SOL    HW128403   3.535   3.908  12.311  0.1057  0.8243  0.1132
 5590SOL    HW228404   3.603   4.038  12.291  0.1967 -0.2156 -0.0011
 5591SOL     OW28405   2.821   1.361   4.845  0.1306 -0.2393 -0.8829
 5591SOL    HW128406   2.846   1.434   4.787  0.0623  0.1164 -0.4629
 5591SOL    HW228407   2.725   1.361   4.837 -0.0483  0.8864  1.2550
 5592SOL     OW28408   2.375   2.583   0.957 -0.8629 -0.7498 -0.3623
 5592SOL    HW128409   2.430   2.509   0.982  1.4131  1.7298  1.9175
 5592SOL    HW228410   2.289   2.544   0.940 -0.8838 -0.7806 -0.1803
 5593SOL     OW28411   3.951   2.311   7.470  0.2367 -0.0731 -0.4391
 5593SOL    HW128412   3.911   2.280   7.389 -1.0057 -1.0493  0.5388
 5593SOL    HW228413   3.995   2.384   7.428 -1.8310  1.1725 -0.4146
 5594SOL     OW28414   3.678   4.167  15.405 -0.4260 -0.1563 -0.2890
 5594SOL    HW128415   3.638   4.251  15.428  1.2198  0.1383  1.4785
 5594SOL    HW228416   3.641   4.101  15.464  0.8106  0.1032  0.7771
 5595SOL     OW28417   3.411   1.408   5.307  0.1792  0.2156  0.6666
 5595SOL    HW128418   3.463   1.441   5.380 -0.4156 -0.5976  1.4720
 5595SOL    HW228419   3.364   1.338   5.353 -0.2890 -0.4204 -0.7826
 5596SOL     OW28420   2.850   2.227  17.550  0.0870 -0.2190 -0.6248
 5596SOL    HW128421   2.908   2.178  17.608  1.5775  1.7005 -0.5097
 5596SOL    HW228422   2.766   2.216  17.596  1.3224 -2.4815  1.0938
 5597SOL     OW28423   3.186   0.887   9.502 -0.0021 -0.2616 -0.6806
 5597SOL    HW128424   3.210   0.832   9.576  2.6699  0.9351 -0.6747
 5597SOL    HW228425   3.110   0.935   9.535  1.0272  0.0526  1.2433
 5598SOL     OW28426   1.885   3.865   3.133  0.0311 -0.6952 -0.1082
 5598SOL    HW128427   1.895   3.948   3.180  1.0810 -1.7596  1.5637
 5598SOL    HW228428   1.838   3.809   3.195  0.1629  0.4302  1.0073
 5599SOL     OW28429   2.612   3.931   3.779 -0.1658  0.2366  0.3938
 5599SOL    HW128430   2.590   3.876   3.704  0.9809 -1.2795  1.1649
 5599SOL    HW228431   2.526   3.959   3.811 -0.4251  2.3384 -2.2448
 5600SOL     OW28432   1.881   2.057   7.563  0.1559  0.2392  0.2119
 5600SOL    HW128433   1.974   2.053   7.585  0.0779 -1.1282  0.3114
 5600SOL    HW228434   1.848   2.105   7.639  1.8414 -0.6418  1.5171
 5601SOL     OW28435   4.099   3.324   4.045 -0.0850 -0.3087  0.1373
 5601SOL    HW128436   4.096   3.259   4.115  0.6677 -1.5631 -0.9926
 5601SOL    HW228437   4.121   3.395   4.105  0.9114 -0.1089 -0.4609
 5602SOL     OW28438   1.448   0.963  13.001  0.3398 -0.2270 -0.2759
 5602SOL    HW128439   1.411   0.930  12.920 -2.3110 -1.9494  1.6288
 5602SOL    HW228440   1.390   0.924  13.066  1.5556  0.3998  1.2012
 5603SOL     OW28441   3.923   1.450   7.646 -0.5191  0.3069 -0.6953
 5603SOL    HW128442   3.903   1.540   7.621  0.2413  0.5436 -0.4629
 5603SOL    HW228443   3.866   1.422   7.718 -0.7901 -0.9288 -1.3849
 5604SOL     OW28444   2.845   2.610   3.958  0.3994 -0.4100  0.2393
 5604SOL    HW128445   2.785   2.669   4.004 -2.1024 -2.2953 -0.5481
 5604SOL    HW228446   2.803   2.528   3.986 -0.3108 -1.0265 -2.5954
 5605SOL     OW28447   0.206   3.448   9.560 -0.6745  0.3103 -0.2395
 5605SOL    HW128448   0.170   3.404   9.637 -2.3297  0.1512 -1.1057
 5605SOL    HW228449   0.252   3.517   9.608  0.7819 -0.0787 -1.0644
 5606SOL     OW28450   1.472   3.536   6.212 -0.8111 -0.1795  0.3050
 5606SOL    HW128451   1.546   3.569   6.263 -0.9594 -0.7631  0.9028
 5606SOL    HW228452   1.522   3.461   6.179 -1.1885  0.3954 -1.5980
 5607SOL     OW28453   3.730   4.688   6.446  0.4351  0.2800  0.6452
 5607SOL    HW128454   3.647   4.701   6.401 -0.9376 -2.0193  2.5410
 5607SOL    HW228455   3.772   4.625   6.388 -1.0570 -0.6184  0.5515
 5608SOL     OW28456   3.282   1.600   2.219 -0.1217 -0.6826 -0.7942
 5608SOL    HW128457   3.269   1.650   2.299 -1.5846  0.5563 -1.7954
 5608SOL    HW228458   3.196   1.619   2.182 -0.4291 -2.0592 -0.7881
 5609SOL     OW28459   4.229   1.257   6.132  0.2947  0.1159 -0.4939
 5609SOL    HW128460   4.182   1.334   6.164 -1.1367 -0.6876 -0.6695
 5609SOL    HW228461   4.182   1.233   6.052 -2.2105  1.1112  0.6710
 5610SOL     OW28462   0.220   1.557   0.062 -0.0957  0.1292  0.4469
 5610SOL    HW128463   0.182   1.599   0.139  0.5198  0.0009  0.8240
 5610SOL    HW228464   0.312   1.584   0.065  0.9140 -3.1963 -0.7308
 5611SOL     OW28465   0.942   4.454   5.727  0.2508 -0.4620  0.6114
 5611SOL    HW128466   0.876   4.385   5.719  2.5334 -2.5939  0.3208
 5611SOL    HW228467   1.008   4.424   5.664  0.4420  0.3616  0.4239
 5612SOL     OW28468   3.282   0.728   7.946 -0.2647 -0.5517  0.3380
 5612SOL    HW128469   3.363   0.758   7.987 -1.6269 -0.6554  3.1303
 5612SOL    HW228470   3.218   0.793   7.974  0.3447 -0.0422  0.5286
 5613SOL     OW28471   0.061   1.894   2.685  0.0719 -0.4645 -0.3626
 5613SOL    HW128472   0.028   1.853   2.765  0.1281 -1.2021 -0.7169
 5613SOL    HW228473   0.000   1.851   2.625 -0.4368  0.7834 -0.7314
 5614SOL     OW28474   1.959   4.112   6.590 -0.2956  0.3235 -0.1574
 5614SOL    HW128475   2.038   4.153   6.552  1.3276 -0.6891  2.1731
 5614SOL    HW228476   1.921   4.193   6.625 -0.8158  0.0639 -0.1316
 5615SOL     OW28477   4.330   1.256   9.581 -0.0450 -0.1841 -0.0812
 5615SOL    HW128478   4.344   1.245   9.488 -0.9715 -0.7918 -0.1472
 5615SOL    HW228479   4.329   1.168   9.618 -1.9428 -0.0443  0.2137
 5616SOL     OW28480   0.316   2.875   7.063  0.1454 -0.0893 -0.1872
 5616SOL    HW128481   0.252   2.818   7.021 -0.5680  0.3256  0.3464
 5616SOL    HW228482   0.261   2.952   7.074 -1.0750 -0.9478 -0.2150
 5617SOL     OW28483   4.680   4.497   7.588 -0.0046  0.1169  0.0252
 5617SOL    HW128484   4.713   4.564   7.527  2.3942 -0.6865  0.4397
 5617SOL    HW228485   4.601   4.531   7.631 -1.6105 -0.1881 -2.6541
 5618SOL     OW28486   0.398   3.298  17.603 -0.3409  0.4167 -0.1320
 5618SOL    HW128487   0.493   3.292  17.606 -0.4072 -1.7829 -2.8820
 5618SOL    HW228488   0.360   3.231  17.658  0.7112 -0.3223 -0.3119
 5619SOL     OW28489   0.375   0.901   9.595 -0.1203  0.5121 -0.4711
 5619SOL    HW128490   0.281   0.912   9.580 -0.2714  0.0552  0.1949
 5619SOL    HW228491   0.388   0.927   9.686 -0.8381 -0.8840  0.0175
 5620SOL     OW28492   2.653   1.781   9.139  0.5526 -0.5378 -0.3269
 5620SOL    HW128493   2.587   1.839   9.102 -1.3599 -2.2633  0.3428
 5620SOL    HW228494   2.688   1.812   9.223 -0.6429  0.4750 -0.2057
 5621SOL     OW28495   3.928   0.014   6.643  0.4590 -0.2273 -0.2966
 5621SOL    HW128496   3.854   0.024   6.583  0.4772 -0.7839 -0.4137
 5621SOL    HW228497   3.901   4.681   6.701 -1.4203 -1.0380 -2.2037
 5622SOL     OW28498   1.184   1.180   3.227 -0.7455 -0.3770  0.1346
 5622SOL    HW128499   1.193   1.086   3.239  1.2307 -0.7551 -4.3245
 5622SOL    HW228500   1.124   1.184   3.152  0.3488 -0.6768 -0.7638
 5623SOL     OW28501   4.114   1.881  10.688 -0.3206 -0.4927 -0.3210
 5623SOL    HW128502   4.095   1.972  10.711  1.0989 -0.4826  0.7760
 5623SOL    HW228503   4.129   1.843  10.774 -1.7166 -0.4111 -0.0409
 5624SOL     OW28504   1.261   4.211  12.302  0.8360  0.5959  0.1555
 5624SOL    HW128505   1.343   4.240  12.341 -0.4232  1.7769  1.8894
 5624SOL    HW228506   1.288   4.250  12.219 -0.6338  1.4011  0.0547
 5625SOL     OW28507   3.682   1.347  11.375 -0.1275 -0.0798  0.6237
 5625SOL    HW128508   3.671   1.291  11.452  1.2921 -3.0925 -1.3522
 5625SOL    HW228509   3.629   1.304  11.307  0.6182 -0.5507  0.3440
 5626SOL     OW28510   3.213   4.009   2.288  0.1190 -0.4781 -0.3745
 5626SOL    HW128511   3.190   4.066   2.362 -0.5804 -0.8187 -0.3312
 5626SOL    HW228512   3.233   3.927   2.332 -1.2336 -1.5652 -1.7835
 5627SOL     OW28513   1.787   1.745  17.528 -0.3045 -0.3569  0.1676
 5627SOL    HW128514   1.808   1.656  17.499  0.1481  0.5327 -2.2486
 5627SOL    HW228515   1.870   1.769  17.569  0.8372 -0.9230 -1.8122
 5628SOL     OW28516   2.712   2.062   8.547 -0.1703  0.2335 -0.1577
 5628SOL    HW128517   2.628   2.071   8.592 -1.0352 -3.0156 -1.1170
 5628SOL    HW228518   2.736   1.972   8.570  1.4999  0.8907  0.6880
 5629SOL     OW28519   2.814   0.104   1.608 -0.4077 -0.6788  0.1956
 5629SOL    HW128520   2.774   0.044   1.545 -0.9263  1.1161 -1.1799
 5629SOL    HW228521   2.784   0.191   1.579 -0.2065 -0.3628  0.9427
 5630SOL     OW28522   3.071   0.470  15.627  0.1327 -0.3495 -0.8899
 5630SOL    HW128523   3.127   0.446  15.701 -3.1305  2.7479  2.5894
 5630SOL    HW228524   2.987   0.464  15.673  0.5477 -3.6117 -0.5221
 5631SOL     OW28525   0.161   3.900   5.372 -0.6369 -0.2832 -0.1728
 5631SOL    HW128526   0.227   3.914   5.440 -2.1495 -1.0383  1.4741
 5631SOL    HW228527   0.155   3.804   5.373 -1.2226 -0.2374  1.1964
 5632SOL     OW28528   0.290   3.073   3.493  0.2097 -0.0791 -0.2281
 5632SOL    HW128529   0.274   2.984   3.525 -1.1391  0.5661  0.8961
 5632SOL    HW228530   0.198   3.098   3.501  1.3689  2.9082  3.9454
 5633SOL     OW28531   1.647   0.417   7.624  0.6861  0.4225 -0.4740
 5633SOL    HW128532   1.691   0.337   7.593  4.0134  0.9327  2.9329
 5633SOL    HW228533   1.662   0.460   7.539  3.9021  3.5793  1.6983
 5634SOL     OW28534   0.192   1.706   3.027  0.1922 -0.0829 -0.0070
 5634SOL    HW128535   0.223   1.791   2.995 -1.2089 -0.4569 -2.3270
 5634SOL    HW228536   0.278   1.666   3.013  0.9152  0.5581  2.6361
 5635SOL     OW28537   0.208   4.630  14.353  0.2975  0.4076  0.1356
 5635SOL    HW128538   0.249   4.673  14.277 -0.0490  0.3785 -0.0689
 5635SOL    HW228539   0.271   4.562  14.377  2.0983  1.8806 -0.4178
 5636SOL     OW28540   3.443   3.058   4.295  0.1882  0.1974  0.6483
 5636SOL    HW128541   3.423   3.055   4.202  1.5622  0.2422  0.3607
 5636SOL    HW228542   3.464   2.965   4.305  1.1593  0.2498 -0.9457
 5637SOL     OW28543   2.879   1.051  10.866 -1.0520  0.2033 -0.2143
 5637SOL    HW128544   2.850   1.114  10.933 -1.2225 -0.6894  0.5498
 5637SOL    HW228545   2.970   1.039  10.892 -0.9726 -0.3926 -0.7858
 5638SOL     OW28546   1.034   0.856   9.337 -0.2552  0.0724  0.3651
 5638SOL    HW128547   0.992   0.774   9.363 -2.8796  1.3490  0.1969
 5638SOL    HW228548   1.022   0.902   9.421  0.2395  0.6654  0.1056
 5639SOL     OW28549   0.966   1.187   4.042  0.3230 -0.1676 -0.0474
 5639SOL    HW128550   0.997   1.276   4.058  2.5722 -0.5578 -2.3341
 5639SOL    HW228551   1.052   1.149   4.027  0.7749  1.0426 -0.5282
 5640SOL     OW28552   2.587   0.896   8.323  0.3136 -0.3203  0.0069
 5640SOL    HW128553   2.533   0.961   8.277 -2.2605 -1.4861  1.3782
 5640SOL    HW228554   2.628   0.854   8.247 -0.7198 -1.0426 -0.1593
 5641SOL     OW28555   3.434   4.232   3.221 -0.0106  0.0029 -0.3087
 5641SOL    HW128556   3.403   4.153   3.267  0.3690  1.6323  2.7557
 5641SOL    HW228557   3.517   4.201   3.184 -0.0538  0.8338 -1.0768
 5642SOL     OW28558   2.662   3.386   7.400  0.5911 -0.0272 -0.2208
 5642SOL    HW128559   2.709   3.417   7.323 -2.3013  0.0700 -1.9735
 5642SOL    HW228560   2.571   3.400   7.372  0.2515  0.7834  1.2520
 5643SOL     OW28561   3.852   2.958   8.847 -0.1832 -0.1579 -0.2906
 5643SOL    HW128562   3.904   2.884   8.878 -0.5396 -0.0540  0.5471
 5643SOL    HW228563   3.784   2.907   8.803 -1.8560  2.1104 -0.3292
 5644SOL     OW28564   0.931   1.681  13.190 -0.0716 -0.1900  0.0319
 5644SOL    HW128565   0.938   1.714  13.101 -5.5423  1.0166  0.0415
 5644SOL    HW228566   0.899   1.594  13.168  0.9414 -0.7084  0.6196
 5645SOL     OW28567   2.178   1.239  12.184 -0.1556  0.4114 -0.0234
 5645SOL    HW128568   2.269   1.221  12.164 -0.6258 -1.9412 -0.0170
 5645SOL    HW228569   2.123   1.190  12.123 -1.6206  2.0343 -0.0144
 5646SOL     OW28570   3.773   3.960  11.250  0.3697  0.3686 -0.1519
 5646SOL    HW128571   3.692   3.911  11.236  0.3925  0.5390 -0.8802
 5646SOL    HW228572   3.838   3.906  11.205  0.9631 -1.0327  2.3794
 5647SOL     OW28573   3.904   0.493  15.038  0.2477  0.0933 -0.6042
 5647SOL    HW128574   3.941   0.508  15.125 -2.4810 -0.4491  0.6226
 5647SOL    HW228575   3.853   0.414  15.056  1.4726 -0.6940 -0.5524
 5648SOL     OW28576   0.031   2.758   4.133  0.1937 -1.0480  0.5168
 5648SOL    HW128577   0.069   2.715   4.056 -2.7907  1.2390 -2.2839
 5648SOL    HW228578   4.721   2.826   4.086  2.6367 -0.9765 -1.9644
 5649SOL     OW28579   4.268   4.477   9.082 -0.0874  0.2091  0.2550
 5649SOL    HW128580   4.312   4.542   9.028 -0.6966 -0.4562 -1.0536
 5649SOL    HW228581   4.335   4.416   9.113 -0.0925 -1.0474 -2.2135
 5650SOL     OW28582   2.946   0.075   3.747  0.0697  0.1777  0.4249
 5650SOL    HW128583   3.035   0.075   3.712 -0.9876  1.3032 -2.3125
 5650SOL    HW228584   2.971   0.058   3.838 -0.0120  0.5569  0.5202
 5651SOL     OW28585   1.443   1.858   3.162 -0.3343  0.2145 -0.5053
 5651SOL    HW128586   1.398   1.823   3.085 -2.3984  1.1373  0.2852
 5651SOL    HW228587   1.524   1.808   3.149  0.0903  1.1421 -1.4434
 5652SOL     OW28588   0.964   3.703  16.954  1.2535 -0.3038 -0.5472
 5652SOL    HW128589   0.975   3.617  16.914 -0.0308 -0.9161  0.4107
 5652SOL    HW228590   0.868   3.709  16.951  1.4367  0.3188 -4.2749
 5653SOL     OW28591   1.875   0.453   6.658 -0.2789 -0.4730  0.4610
 5653SOL    HW128592   1.944   0.486   6.600 -1.6367 -2.3976 -2.2708
 5653SOL    HW228593   1.889   0.509   6.734 -1.2903  1.4582 -0.7915
 5654SOL     OW28594   4.421   2.635   7.806  0.2528 -0.2706 -0.4363
 5654SOL    HW128595   4.499   2.661   7.757  0.1410 -0.1721 -0.5611
 5654SOL    HW228596   4.429   2.677   7.892  0.7696  1.1162 -1.1651
 5655SOL     OW28597   3.919   2.871  15.113 -0.1738 -0.3711 -0.0179
 5655SOL    HW128598   3.824   2.860  15.119  0.1129 -2.0062  1.4904
 5655SOL    HW228599   3.915   2.967  15.114  1.2827 -0.2981 -1.2804
 5656SOL     OW28600   0.916   2.186   2.005  0.6259  0.6533  0.2081
 5656SOL    HW128601   0.952   2.099   2.022  3.2554  1.5343 -0.8261
 5656SOL    HW228602   0.925   2.201   1.910  5.6466 -3.3028  0.0668
 5657SOL     OW28603   3.254   1.243  16.517  0.1603 -0.2452 -0.5825
 5657SOL    HW128604   3.201   1.305  16.568  0.1917  0.0532 -0.9148
 5657SOL    HW228605   3.189   1.212  16.454  0.0596 -0.5223 -0.3399
 5658SOL     OW28606   2.584   2.435   4.749 -0.4960 -0.3469 -0.6227
 5658SOL    HW128607   2.575   2.525   4.781 -0.2525  0.2319 -2.1776
 5658SOL    HW228608   2.662   2.406   4.797 -0.5671  0.2884 -0.1145
 5659SOL     OW28609   4.241   4.290  15.768  0.3597 -0.2135 -0.2387
 5659SOL    HW128610   4.171   4.225  15.761 -0.0939  0.2031  0.4354
 5659SOL    HW228611   4.289   4.251  15.842  1.1891  0.7574 -0.2565
 5660SOL     OW28612   2.308   3.145   4.815 -0.2443 -0.7923 -0.1291
 5660SOL    HW128613   2.245   3.210   4.846 -1.0103 -1.1509 -0.9507
 5660SOL    HW228614   2.279   3.073   4.871  2.1876 -1.9388 -0.3561
 5661SOL     OW28615   3.255   0.602  16.033  0.7615  0.2867 -0.1773
 5661SOL    HW128616   3.175   0.551  16.043  1.4966 -0.7681  0.2931
 5661SOL    HW228617   3.276   0.602  16.127 -1.6225 -0.4782  0.3668
 5662SOL     OW28618   3.992   1.882   3.109  0.3822  0.0446  0.1416
 5662SOL    HW128619   4.037   1.882   3.024  1.4946  0.2444  0.7275
 5662SOL    HW228620   4.045   1.818   3.158  0.5931 -0.8429 -1.2372
 5663SOL     OW28621   3.459   2.269   8.182  0.0064 -0.0156  0.4980
 5663SOL    HW128622   3.462   2.199   8.247  1.5395  0.0764  0.5235
 5663SOL    HW228623   3.432   2.336   8.245  0.1451 -0.8555  1.4521
 5664SOL     OW28624   3.048   0.797   8.450 -0.2102  0.2351 -0.7593
 5664SOL    HW128625   2.994   0.869   8.483 -0.8612 -0.8475  0.5403
 5664SOL    HW228626   3.128   0.828   8.491 -1.3587  0.6630  1.1686
 5665SOL     OW28627   2.988   0.237   2.465 -0.3496 -0.4734 -0.3737
 5665SOL    HW128628   3.032   0.182   2.400 -0.6578 -0.0851 -0.9090
 5665SOL    HW228629   3.066   0.287   2.490 -2.2274  1.8408  0.9930
 5666SOL     OW28630   4.174   4.386   5.952  0.3303 -0.4489  0.1383
 5666SOL    HW128631   4.208   4.472   5.929  0.8186 -0.8670 -0.6897
 5666SOL    HW228632   4.164   4.347   5.865 -1.5429  1.6004 -0.5577
 5667SOL     OW28633   1.050   4.519  11.757 -0.4435  0.2357 -0.0967
 5667SOL    HW128634   1.070   4.567  11.837  0.1768  0.7173 -0.5422
 5667SOL    HW228635   1.019   4.587  11.697 -0.1754  1.3342  1.0267
 5668SOL     OW28636   1.083   3.746   9.921  0.1762  0.2574  0.1368
 5668SOL    HW128637   1.027   3.731   9.844 -0.6072 -0.2365  0.8060
 5668SOL    HW228638   1.156   3.684   9.926  0.0053  0.1611  1.3046
 5669SOL     OW28639   1.885   2.918   3.653 -0.0541  0.2310 -0.1996
 5669SOL    HW128640   1.873   2.857   3.580 -0.7193 -2.0323  1.8043
 5669SOL    HW228641   1.896   2.997   3.600 -0.4262  0.2324 -0.2704
 5670SOL     OW28642   3.690   4.636  15.048  0.6106 -0.2854 -0.1046
 5670SOL    HW128643   3.755   4.588  14.998  1.9404  0.7425  0.6372
 5670SOL    HW228644   3.606   4.599  15.023  0.3694 -1.6632  2.8083
 5671SOL     OW28645   1.586   3.893  13.498 -0.4046 -0.6076 -0.2726
 5671SOL    HW128646   1.624   3.905  13.585 -0.3882  0.4337 -0.4201
 5671SOL    HW228647   1.640   3.948  13.442  1.0449 -1.6999  0.0523
 5672SOL     OW28648   1.554   2.197   2.708 -0.4327  0.1275 -0.3163
 5672SOL    HW128649   1.546   2.130   2.776 -0.0253 -0.7884 -1.1706
 5672SOL    HW228650   1.473   2.246   2.717  0.9757  2.2518  0.8772
 5673SOL     OW28651   2.671   0.261   0.795  0.0338  0.8745 -0.6344
 5673SOL    HW128652   2.608   0.190   0.781  1.9964 -0.3566 -3.3592
 5673SOL    HW228653   2.751   0.224   0.833 -0.2402  0.9572  0.0184
 5674SOL     OW28654   3.961   0.046   1.583 -0.2960 -0.0429  0.3113
 5674SOL    HW128655   3.994   0.011   1.666  3.5625  0.8901 -0.8820
 5674SOL    HW228656   3.964   0.137   1.612 -0.7039 -0.0005  0.2336
 5675SOL     OW28657   1.213   0.931   1.452  1.0052 -0.3174 -0.2638
 5675SOL    HW128658   1.196   0.899   1.541  3.7689 -0.9446  0.0366
 5675SOL    HW228659   1.147   0.883   1.403  0.8732 -1.2638  0.8439
 5676SOL     OW28660   4.436   3.364   6.103 -0.1343 -0.0226  0.1864
 5676SOL    HW128661   4.428   3.355   6.198 -2.4090 -0.3625 -0.0404
 5676SOL    HW228662   4.446   3.459   6.094  1.5418 -0.1366  0.7336
 5677SOL     OW28663   0.160   2.311  15.975 -0.1359  0.2742  0.5090
 5677SOL    HW128664   0.222   2.252  15.932 -1.6117 -0.9682  0.1069
 5677SOL    HW228665   0.103   2.245  16.015 -1.4200  0.6554 -0.6988
 5678SOL     OW28666   3.212   1.667   7.913  0.7844  0.1142 -0.7318
 5678SOL    HW128667   3.266   1.654   7.835 -0.0238  0.6328 -1.3742
 5678SOL    HW228668   3.267   1.731   7.957  0.8170  1.3148 -2.5415
 5679SOL     OW28669   2.585   1.459  14.849 -0.0341  0.1754  0.1145
 5679SOL    HW128670   2.611   1.435  14.760 -0.0812 -1.3577  0.5212
 5679SOL    HW228671   2.620   1.548  14.846 -2.5233  1.2040  1.8374
 5680SOL     OW28672   0.895   2.688   7.047 -0.3061  0.4917 -0.0293
 5680SOL    HW128673   0.828   2.712   6.983 -0.8284 -2.2812 -0.5039
 5680SOL    HW228674   0.963   2.748   7.015 -0.9382  0.2046 -1.9090
 5681SOL     OW28675   4.490   1.577   4.544  0.3625 -0.2574  0.0405
 5681SOL    HW128676   4.406   1.607   4.511  1.1007  1.0140 -0.6826
 5681SOL    HW228677   4.468   1.486   4.565 -0.8347  0.2223  0.8860
 5682SOL     OW28678   4.634   2.305   8.248 -0.3192  0.3747 -0.2695
 5682SOL    HW128679   4.663   2.369   8.183  1.8513  2.2529  2.5651
 5682SOL    HW228680   4.707   2.310   8.309  0.8979 -0.9519 -1.5955
 5683SOL     OW28681   2.651   0.667   1.243  0.5340  0.2850 -0.2224
 5683SOL    HW128682   2.600   0.668   1.162  0.5766 -0.5401 -0.2561
 5683SOL    HW228683   2.741   0.644   1.219  0.7459  1.5223 -0.5715
 5684SOL     OW28684   3.090   4.375   1.373  0.4861  0.1356 -0.6672
 5684SOL    HW128685   3.145   4.297   1.385 -0.2773 -0.1738  0.8350
 5684SOL    HW228686   3.098   4.387   1.279 -2.8712  1.1465 -0.8014
 5685SOL     OW28687   1.513   4.490  10.642 -0.2768 -0.3300 -0.0488
 5685SOL    HW128688   1.445   4.482  10.709 -0.7817  1.5710 -0.3510
 5685SOL    HW228689   1.477   4.569  10.603 -1.4305  0.3998  2.4709
 5686SOL     OW28690   4.400   3.972   7.674 -0.2861  0.7561  0.2445
 5686SOL    HW128691   4.438   3.956   7.761 -0.3642 -1.0458 -0.0645
 5686SOL    HW228692   4.468   4.000   7.613 -2.3404  0.7597 -1.9933
 5687SOL     OW28693   3.663   2.241   6.845 -0.0313  0.2369  0.0540
 5687SOL    HW128694   3.664   2.285   6.930 -1.0282  0.1195  0.1264
 5687SOL    HW228695   3.751   2.216   6.815 -1.0618  0.3978 -3.0684
 5688SOL     OW28696   4.659   0.018   5.993 -0.8243  0.4861  0.0549
 5688SOL    HW128697   0.004   4.721   6.024 -0.5005  0.9441 -0.3003
 5688SOL    HW228698   4.675   0.049   5.904 -0.3214  0.9644  0.3120
 5689SOL     OW28699   4.127   1.387  10.226 -0.7176 -0.4187  0.2367
 5689SOL    HW128700   4.094   1.298  10.239  1.8702 -1.5102 -0.5987
 5689SOL    HW228701   4.154   1.378  10.134  0.6152 -0.2912  0.6198
 5690SOL     OW28702   2.978   1.928   8.755  0.4738  0.6960 -0.1903
 5690SOL    HW128703   2.987   1.963   8.666  0.1753 -0.9757 -0.8642
 5690SOL    HW228704   2.900   1.874   8.743  1.2129 -0.9756  2.6874
 5691SOL     OW28705   2.346   0.847  10.209  0.2076 -0.6527 -0.1015
 5691SOL    HW128706   2.375   0.923  10.259  1.6378 -0.8848 -0.5726
 5691SOL    HW228707   2.430   0.814  10.177  1.2030  0.9391  0.8608
 5692SOL     OW28708   0.493   1.565  13.395  0.3689  0.1463 -0.1787
 5692SOL    HW128709   0.426   1.589  13.331 -0.4675  1.4168  1.1850
 5692SOL    HW228710   0.478   1.471  13.410 -0.7582  0.3836  0.1787
 5693SOL     OW28711   0.181   0.214   2.373  0.2745  0.0210 -0.9125
 5693SOL    HW128712   0.199   0.304   2.344 -0.9025  0.6258  0.2070
 5693SOL    HW228713   0.270   0.179   2.379 -0.8594 -2.4959  0.9404
 5694SOL     OW28714   2.614   1.656   4.165 -0.2126 -0.4635  0.3060
 5694SOL    HW128715   2.573   1.696   4.242 -0.6945 -0.2426 -0.0716
 5694SOL    HW228716   2.693   1.709   4.159 -0.5773  0.2892  2.0663
 5695SOL     OW28717   4.263   1.126   5.636  0.2547  0.4108 -0.2076
 5695SOL    HW128718   4.347   1.154   5.599  0.1863 -0.7855 -1.2898
 5695SOL    HW228719   4.199   1.157   5.572 -0.7054 -1.7211 -0.2887
 5696SOL     OW28720   2.366   4.181   4.865  0.1424  0.7039 -0.3706
 5696SOL    HW128721   2.460   4.168   4.867  0.2147  1.3580  0.8887
 5696SOL    HW228722   2.343   4.152   4.954  0.4612  2.2149  0.1994
 5697SOL     OW28723   4.377   1.111  14.773  0.1987  0.2366 -0.2533
 5697SOL    HW128724   4.323   1.182  14.808 -1.8435 -1.8498  0.8190
 5697SOL    HW228725   4.369   1.045  14.842  2.1266  0.4250  0.1330
 5698SOL     OW28726   1.900   2.726   9.004 -0.4791  0.4900 -0.2617
 5698SOL    HW128727   1.876   2.741   8.912 -0.0131 -3.1415 -0.9733
 5698SOL    HW228728   1.947   2.807   9.026 -0.7497  0.0437  1.9271
 5699SOL     OW28729   1.154   2.354   8.142 -0.1388  0.6109 -0.2170
 5699SOL    HW128730   1.211   2.374   8.216  0.5109  1.3386 -0.9255
 5699SOL    HW228731   1.110   2.271   8.163 -1.1957  1.3092  0.2984
 5700SOL     OW28732   3.404   1.060   4.750  0.2468 -0.3824  0.2193
 5700SOL    HW128733   3.316   1.081   4.781 -0.2406 -0.4444 -1.1247
 5700SOL    HW228734   3.439   1.005   4.820  2.0446 -0.5657 -0.8271
 5701SOL     OW28735   0.079   2.312   3.540 -0.0599  0.0035 -0.0677
 5701SOL    HW128736   4.733   2.312   3.585  0.5213  0.3638  1.0335
 5701SOL    HW228737   0.078   2.223   3.505 -1.9535  0.6094 -1.5314
 5702SOL     OW28738   2.727   3.769   3.194  0.1801 -0.2298 -0.0336
 5702SOL    HW128739   2.656   3.753   3.256 -1.0449 -0.9307 -1.6211
 5702SOL    HW228740   2.772   3.685   3.192 -0.8374 -0.7507 -0.7103
 5703SOL     OW28741   2.215   3.704   4.717  0.6327 -0.1050 -0.0824
 5703SOL    HW128742   2.145   3.741   4.663  1.6508 -0.9093 -1.9676
 5703SOL    HW228743   2.285   3.700   4.652  0.8984  1.3906  0.1058
 5704SOL     OW28744   2.245   1.418   3.036  1.1499 -0.3523  0.0526
 5704SOL    HW128745   2.337   1.441   3.022 -0.1499  3.3699 -2.2961
 5704SOL    HW228746   2.196   1.443   2.957  2.5489 -4.2106 -2.0602
 5705SOL     OW28747   3.268   1.336   9.298  0.5686  0.1670  0.0408
 5705SOL    HW128748   3.252   1.378   9.382 -1.9395 -1.1226  0.2106
 5705SOL    HW228749   3.298   1.412   9.248 -2.4236  1.0584 -0.3868
 5706SOL     OW28750   3.007   1.075   7.392 -0.8357  0.1147 -0.0928
 5706SOL    HW128751   3.101   1.086   7.407 -0.4321 -1.7230 -1.1166
 5706SOL    HW228752   2.983   1.151   7.444  2.0223  0.6289  0.4515
 5707SOL     OW28753   1.438   2.046   8.932 -0.3353 -0.3404  0.2888
 5707SOL    HW128754   1.362   2.083   8.977 -0.0602 -1.0192  1.3083
 5707SOL    HW228755   1.472   1.964   8.967  0.4642 -0.3118 -0.4068
 5708SOL     OW28756   0.544   2.475   1.959 -0.1717  0.4392  0.9287
 5708SOL    HW128757   0.547   2.384   1.929 -1.0414  0.3005  1.2426
 5708SOL    HW228758   0.627   2.494   2.002  1.8127  0.6670 -2.9707
 5709SOL     OW28759   3.749   1.128   8.804  0.0621  0.3114  0.0791
 5709SOL    HW128760   3.718   1.192   8.868  1.5077  2.6996 -1.5946
 5709SOL    HW228761   3.691   1.052   8.808 -1.6316  1.5733 -0.3106
 5710SOL     OW28762   1.562   2.629   4.940  0.3739  0.4316 -0.0121
 5710SOL    HW128763   1.527   2.580   5.014 -0.0836 -0.6642 -0.9439
 5710SOL    HW228764   1.512   2.575   4.878  1.0249  0.4148 -0.5384
 5711SOL     OW28765   3.054   3.796   2.526  0.0513  0.5856 -0.0545
 5711SOL    HW128766   3.130   3.764   2.573 -1.0657  0.2105  1.4789
 5711SOL    HW228767   3.063   3.725   2.462 -0.6640 -0.3899  0.9420
 5712SOL     OW28768   4.714   1.233  10.822 -0.7881 -0.1890 -0.4097
 5712SOL    HW128769   0.009   1.274  10.901  3.3168  1.8353 -3.2381
 5712SOL    HW228770   0.036   1.163  10.797 -3.3033 -1.5777 -2.7195
 5713SOL     OW28771   3.239   0.717   1.164 -0.0400  0.0080 -0.6039
 5713SOL    HW128772   3.178   0.782   1.199 -0.4892 -0.0846 -1.2073
 5713SOL    HW228773   3.177   0.666   1.112 -0.9367  1.2035 -0.6967
 5714SOL     OW28774   1.399   0.149  12.309  0.0341 -0.2019 -0.1504
 5714SOL    HW128775   1.440   0.193  12.235 -0.6377  0.4194 -0.1566
 5714SOL    HW228776   1.411   0.217  12.375 -3.1869 -1.5488  1.8635
 5715SOL     OW28777   3.903   4.363   8.869  0.1195 -0.4718 -0.4864
 5715SOL    HW128778   3.911   4.343   8.962 -0.5121 -1.4340 -0.6301
 5715SOL    HW228779   3.955   4.296   8.824 -1.1397  0.4011 -3.2793
 5716SOL     OW28780   1.512   2.516   7.851 -0.5153  0.1094  0.7256
 5716SOL    HW128781   1.417   2.524   7.848 -0.3650  1.3413 -0.9590
 5716SOL    HW228782   1.542   2.607   7.855  1.4839 -0.4273 -1.7419
 5717SOL     OW28783   0.905   2.414   7.485  0.1199  0.0812  0.2051
 5717SOL    HW128784   0.968   2.467   7.437  1.9368 -1.4928  0.8591
 5717SOL    HW228785   0.880   2.482   7.548  0.4548  1.2570 -0.9466
 5718SOL     OW28786   3.253   0.376   6.279 -0.0300 -0.0286  0.0653
 5718SOL    HW128787   3.203   0.419   6.348  0.6739 -0.6069  0.9443
 5718SOL    HW228788   3.299   0.307   6.328  1.7574  0.8535 -0.3646
 5719SOL     OW28789   4.548   1.076   9.073 -0.3185 -0.5893 -0.0074
 5719SOL    HW128790   4.493   1.154   9.063  0.5332  0.0526  0.2985
 5719SOL    HW228791   4.628   1.127   9.059 -0.5180 -0.0543  0.8177
 5720SOL     OW28792   4.115   3.401  15.942 -0.3452  0.0336 -0.4563
 5720SOL    HW128793   4.179   3.389  15.872 -0.0002 -1.2967  0.0906
 5720SOL    HW228794   4.118   3.497  15.947  1.4664 -0.0836  0.4785
 5721SOL     OW28795   2.555   1.801   8.369 -0.0630 -0.0907  0.1237
 5721SOL    HW128796   2.468   1.798   8.409 -0.1827 -1.2908 -0.2305
 5721SOL    HW228797   2.590   1.712   8.374 -3.6598 -1.5724 -1.0092
 5722SOL     OW28798   3.647   2.471   3.747 -0.1511 -0.8941 -0.0473
 5722SOL    HW128799   3.598   2.390   3.758  0.6161 -0.9056  3.1872
 5722SOL    HW228800   3.577   2.536   3.748  1.2602  0.6257 -0.0654
 5723SOL     OW28801   3.025   0.953   3.311 -0.1671 -0.1395  0.3126
 5723SOL    HW128802   2.991   1.018   3.372 -0.7683 -1.4366  1.3653
 5723SOL    HW228803   3.006   0.993   3.226 -1.3727 -1.6369 -0.1363
 5724SOL     OW28804   3.434   2.879  15.327  0.2180 -0.4075  0.1449
 5724SOL    HW128805   3.351   2.844  15.294  0.0240  0.2972 -0.1270
 5724SOL    HW228806   3.400   2.908  15.411 -1.6411 -0.6787 -0.5074
 5725SOL     OW28807   2.411   0.868   7.716  0.4718  0.0315 -0.1738
 5725SOL    HW128808   2.502   0.889   7.697  0.1106  0.9812 -0.8447
 5725SOL    HW228809   2.364   0.930   7.660  0.5663  1.2036  1.0463
 5726SOL     OW28810   0.923   2.923  17.254  0.2732 -0.2217 -0.1247
 5726SOL    HW128811   0.879   3.007  17.268  0.0751 -0.1995 -0.8538
 5726SOL    HW228812   0.984   2.944  17.183  0.0155 -2.0664 -0.9157
 5727SOL     OW28813   0.085   1.970  10.322  0.5932  0.5861 -0.2837
 5727SOL    HW128814   0.026   2.006  10.256  0.7913 -4.3099 -3.1186
 5727SOL    HW228815   0.172   1.972  10.283  0.3652 -0.8790 -0.8590
 5728SOL     OW28816   4.586   3.489   2.389  0.7082 -0.2780  0.4518
 5728SOL    HW128817   4.632   3.421   2.438  1.0054  0.0955  0.6869
 5728SOL    HW228818   4.663   3.505   2.335 -0.8281 -1.7906 -2.2126
 5729SOL     OW28819   0.008   0.341   8.415  0.4811  0.2097 -0.8034
 5729SOL    HW128820   0.033   0.409   8.478  0.0182 -0.7715  0.4396
 5729SOL    HW228821   4.656   0.330   8.443  1.1039  2.4814  2.0487
 5730SOL     OW28822   2.549   3.029   6.208  0.4801 -0.0349  0.5165
 5730SOL    HW128823   2.559   3.027   6.112  1.4878  0.5747  0.6089
 5730SOL    HW228824   2.471   3.085   6.215  0.8039  0.1604  2.4001
 5731SOL     OW28825   4.412   0.943  12.389 -0.0466  0.3877  0.2128
 5731SOL    HW128826   4.365   1.024  12.410  1.1892  1.0458  0.4494
 5731SOL    HW228827   4.460   0.978  12.313 -1.2177  0.2796 -0.5762
 5732SOL     OW28828   1.355   3.739   9.560  0.5159 -0.6296  0.4518
 5732SOL    HW128829   1.346   3.667   9.498 -0.1842 -0.5699  0.4944
 5732SOL    HW228830   1.450   3.733   9.575  0.7591 -0.2806 -0.9726
 5733SOL     OW28831   1.918   2.816   8.727 -0.0699 -0.3906 -0.5610
 5733SOL    HW128832   1.958   2.833   8.641  1.5052  1.1348  0.4964
 5733SOL    HW228833   1.996   2.808   8.782  0.3352  1.8823 -0.8259
 5734SOL     OW28834   0.552   3.285  15.580  0.4296  0.2659  0.4140
 5734SOL    HW128835   0.497   3.231  15.636 -0.8290  1.3549  0.2366
 5734SOL    HW228836   0.485   3.351  15.560  0.9383  0.8358  0.6035
 5735SOL     OW28837   1.398   3.952   3.686  0.4395 -0.6116 -0.4430
 5735SOL    HW128838   1.309   3.918   3.675 -1.5165  4.0400  0.7148
 5735SOL    HW228839   1.393   4.036   3.641  0.7403  0.4242  1.4198
 5736SOL     OW28840   2.712   3.745   3.548  0.0629  0.1082 -0.0844
 5736SOL    HW128841   2.747   3.656   3.542  2.0297  0.9725 -1.5454
 5736SOL    HW228842   2.643   3.742   3.482 -0.2274 -0.5674  0.2373
 5737SOL     OW28843   2.299   4.583  16.533  0.2531 -0.3755  0.4282
 5737SOL    HW128844   2.382   4.536  16.528  0.9569  0.9026  0.3950
 5737SOL    HW228845   2.266   4.570  16.444 -1.6896 -3.9756  1.6561
 5738SOL     OW28846   1.041   2.180   9.005 -0.5529 -0.6039 -0.2679
 5738SOL    HW128847   1.004   2.098   9.039 -0.7502 -1.4129 -2.4131
 5738SOL    HW228848   1.133   2.165   9.027 -0.9122 -0.1664  1.5664
 5739SOL     OW28849   2.634   3.355  15.730  0.4941  0.4348 -0.0420
 5739SOL    HW128850   2.544   3.341  15.761 -0.2154 -0.8798 -2.6983
 5739SOL    HW228851   2.620   3.401  15.647  1.6586 -1.7922 -1.4769
 5740SOL     OW28852   1.987   3.673   7.104 -0.0276 -0.1418  0.4454
 5740SOL    HW128853   2.029   3.671   7.018  0.0442 -1.7199  0.5079
 5740SOL    HW228854   1.925   3.601   7.097 -1.6873  1.5596 -2.4567
 5741SOL     OW28855   3.680   1.285   5.531  0.1655  0.2850  0.1999
 5741SOL    HW128856   3.636   1.342   5.594 -1.9895  0.7516 -1.7535
 5741SOL    HW228857   3.716   1.346   5.467  1.0906  0.0781  0.5232
 5742SOL     OW28858   0.753   4.339   5.942 -0.6498  0.3136  0.0081
 5742SOL    HW128859   0.716   4.276   6.004 -0.6561  0.2066 -0.1036
 5742SOL    HW228860   0.688   4.335   5.871  1.6655  1.6936 -2.1986
 5743SOL     OW28861   0.165   2.613   5.843 -0.8304  0.3132 -0.2131
 5743SOL    HW128862   0.123   2.589   5.925 -0.2066  2.7197  0.8214
 5743SOL    HW228863   0.205   2.695   5.873 -1.7966  0.8944 -0.5021
 5744SOL     OW28864   0.894   4.507   6.291  0.3186  0.3597  0.3677
 5744SOL    HW128865   0.903   4.602   6.296  2.3693  0.3090 -2.2885
 5744SOL    HW228866   0.978   4.477   6.324 -0.2527 -0.3777  1.1482
 5745SOL     OW28867   2.841   0.162   6.763  0.5275 -0.4623  0.3348
 5745SOL    HW128868   2.768   0.102   6.779  1.1161 -1.0302  0.9167
 5745SOL    HW228869   2.834   0.152   6.669  0.2989 -1.9608  0.5177
 5746SOL     OW28870   1.106   2.573  12.341 -0.1896  0.8009  0.4171
 5746SOL    HW128871   1.067   2.604  12.260  0.6314 -2.2023 -1.1089
 5746SOL    HW228872   1.085   2.640  12.407 -0.7510 -1.0581  2.1080
 5747SOL     OW28873   2.420   1.497  13.320  0.3503 -0.4233 -0.2115
 5747SOL    HW128874   2.474   1.575  13.306  2.1463 -1.5103  0.8314
 5747SOL    HW228875   2.353   1.538  13.375  0.9068 -0.3499  0.4012
 5748SOL     OW28876   4.275   0.135   8.922  0.0819 -0.0677 -0.2724
 5748SOL    HW128877   4.180   0.124   8.923  0.2244 -1.2424  0.0744
 5748SOL    HW228878   4.274   0.230   8.911 -3.7539 -0.3364 -2.3604
 5749SOL     OW28879   0.834   2.877   9.418 -0.6462 -0.2868 -0.1169
 5749SOL    HW128880   0.780   2.800   9.436  0.0533 -0.9574 -0.8779
 5749SOL    HW228881   0.908   2.840   9.369  1.6442  1.8695  1.7121
 5750SOL     OW28882   3.322   0.466   9.533  0.7663  0.2949  0.9993
 5750SOL    HW128883   3.327   0.400   9.602  0.7685 -0.7125  0.0398
 5750SOL    HW228884   3.411   0.503   9.535  1.0718 -0.3194 -1.0824
 5751SOL     OW28885   2.134   2.127  10.190 -0.3170 -0.1035  0.0602
 5751SOL    HW128886   2.062   2.106  10.130  0.2330 -1.0691 -0.2561
 5751SOL    HW228887   2.083   2.106  10.268 -2.0961  1.9396 -0.5489
 5752SOL     OW28888   2.109   1.954   8.607  0.0871 -0.1845 -0.3970
 5752SOL    HW128889   2.016   1.975   8.611 -0.0966 -1.0685  0.1755
 5752SOL    HW228890   2.136   1.935   8.697 -2.5740  2.2520  0.8991
 5753SOL     OW28891   4.551   3.593   3.567  0.1551  0.9631  0.7359
 5753SOL    HW128892   4.479   3.623   3.623 -0.5265  1.1994 -0.2546
 5753SOL    HW228893   4.540   3.636   3.482 -1.8689 -0.7083  0.1412
 5754SOL     OW28894   3.841   0.398   1.573  0.0324 -0.4585  0.3165
 5754SOL    HW128895   3.929   0.366   1.594  1.8134  3.5214 -1.0821
 5754SOL    HW228896   3.804   0.397   1.661 -2.1698 -1.7002 -0.6310
 5755SOL     OW28897   2.530   4.299  10.481 -0.4112 -0.4588  0.1068
 5755SOL    HW128898   2.496   4.261  10.563  0.9004  0.2182  0.9623
 5755SOL    HW228899   2.624   4.293  10.499  0.0324  2.3129 -1.4388
 5756SOL     OW28900   2.100   2.312  14.387 -0.4070  0.3970  0.4916
 5756SOL    HW128901   2.035   2.243  14.381  0.7423 -0.6296 -0.0284
 5756SOL    HW228902   2.075   2.354  14.469  0.6978 -1.4451  1.7454
 5757SOL     OW28903   1.494   3.932   1.199  0.1356  0.5471 -0.3994
 5757SOL    HW128904   1.459   3.984   1.127 -0.4225  0.3002 -0.3073
 5757SOL    HW228905   1.568   3.889   1.157 -1.5367 -1.4880 -1.3003
 5758SOL     OW28906   1.190   0.686   8.402  0.1129 -0.2407  0.0383
 5758SOL    HW128907   1.192   0.728   8.488 -0.7894  0.9764 -0.5428
 5758SOL    HW228908   1.118   0.735   8.364  1.1279 -1.2515 -3.1784
 5759SOL     OW28909   2.505   2.338   5.918  0.1608  0.4665  0.1189
 5759SOL    HW128910   2.456   2.339   6.000 -0.9428  2.0422 -0.5545
 5759SOL    HW228911   2.568   2.411   5.914  1.3678 -0.6190 -0.8175
 5760SOL     OW28912   3.042   1.405  15.188  0.3716  0.1578 -0.5540
 5760SOL    HW128913   3.124   1.358  15.178  0.9400  1.3609 -1.4876
 5760SOL    HW228914   3.005   1.381  15.103 -2.9196 -2.0612  1.4899
 5761SOL     OW28915   2.461   1.685   3.932 -0.3348 -0.5956  0.1673
 5761SOL    HW128916   2.473   1.624   4.006  1.8767 -1.8129 -1.2002
 5761SOL    HW228917   2.502   1.635   3.861 -0.6526 -0.5455 -0.0458
 5762SOL     OW28918   3.767   2.121   4.151 -0.7895 -0.3069  0.1059
 5762SOL    HW128919   3.689   2.085   4.109 -0.5157 -0.5373 -0.2071
 5762SOL    HW228920   3.813   2.163   4.078 -3.0330 -1.4061 -1.9458
 5763SOL     OW28921   2.774   3.595   1.346 -0.2076  0.0647  0.0369
 5763SOL    HW128922   2.838   3.530   1.374 -0.6879 -0.1174  0.7302
 5763SOL    HW228923   2.807   3.673   1.390 -0.5057  0.2711 -0.0997
 5764SOL     OW28924   1.098   3.469   0.416 -0.0421  0.0948  0.2571
 5764SOL    HW128925   1.177   3.460   0.469 -0.7106 -0.6839  1.1347
 5764SOL    HW228926   1.134   3.455   0.329 -0.2784 -1.3667  0.4053
 5765SOL     OW28927   0.691   2.874   6.070 -0.2614 -0.1510  0.0115
 5765SOL    HW128928   0.680   2.807   6.138  1.0346 -1.0307 -0.6377
 5765SOL    HW228929   0.784   2.895   6.073 -0.5078  0.8247  0.6621
 5766SOL     OW28930   2.335   2.974   3.343 -0.1442 -0.1440 -0.0847
 5766SOL    HW128931   2.272   2.923   3.292 -0.3754 -0.6010  0.6558
 5766SOL    HW228932   2.317   2.956   3.435 -3.7105 -0.5429 -0.8701
 5767SOL     OW28933   1.048   1.575   7.441 -0.0192  0.2409  0.3310
 5767SOL    HW128934   1.023   1.664   7.414  0.3256  0.0104 -0.7551
 5767SOL    HW228935   1.085   1.555   7.355 -3.7730 -1.0918 -0.9503
 5768SOL     OW28936   3.289   0.899   7.659  0.4774 -0.4025 -0.0812
 5768SOL    HW128937   3.284   0.977   7.715  0.1896 -0.0960 -0.5324
 5768SOL    HW228938   3.319   0.830   7.718  0.4305 -1.5194 -1.3652
 5769SOL     OW28939   2.907   2.473   7.974 -0.1429 -1.0482  0.2267
 5769SOL    HW128940   2.853   2.534   8.025 -1.0794 -1.9091  0.2637
 5769SOL    HW228941   2.970   2.449   8.041 -1.0311  2.2731  2.2462
 5770SOL     OW28942   4.365   2.970   4.870 -0.2455 -0.1702 -0.2249
 5770SOL    HW128943   4.404   3.050   4.905 -0.6942  0.0190 -0.1456
 5770SOL    HW228944   4.335   3.006   4.787  1.0489 -0.9443 -1.0267
 5771SOL     OW28945   3.458   3.205   6.609 -0.5498  0.8667  0.1473
 5771SOL    HW128946   3.533   3.246   6.565 -0.9528  0.2633 -1.1042
 5771SOL    HW228947   3.410   3.288   6.616 -0.6038  0.6693  1.9055
 5772SOL     OW28948   4.133   0.530   7.526  0.4857 -0.3306 -0.0389
 5772SOL    HW128949   4.065   0.562   7.585  0.9068 -1.4648  1.0484
 5772SOL    HW228950   4.164   0.454   7.575  1.8830  1.6412  2.0857
 5773SOL     OW28951   2.334   2.023   0.703  0.3945 -0.1632  0.0422
 5773SOL    HW128952   2.264   2.022   0.639  1.2212 -0.2920 -0.8499
 5773SOL    HW228953   2.369   1.934   0.694  1.2082  0.0261  1.2547
 5774SOL     OW28954   0.403   4.025   6.288 -0.2273 -0.1865 -0.1482
 5774SOL    HW128955   0.326   4.082   6.282  0.2731  0.4007 -1.0240
 5774SOL    HW228956   0.419   4.045   6.381  1.7037 -1.1133 -0.2897
 5775SOL     OW28957   0.082   1.924   1.227 -0.0080 -0.1640 -0.2552
 5775SOL    HW128958   0.065   1.878   1.309  1.5654  0.6238  0.5058
 5775SOL    HW228959   0.045   2.010   1.247 -1.1637 -0.0816 -2.7167
 5776SOL     OW28960   0.688   0.583   9.805 -0.4648 -0.2683  0.1381
 5776SOL    HW128961   0.642   0.501   9.822 -1.8093  0.2121 -1.1116
 5776SOL    HW228962   0.701   0.579   9.711 -2.2176 -3.0565  0.0066
 5777SOL     OW28963   4.198   1.984   0.818 -0.3050  0.1001  0.5241
 5777SOL    HW128964   4.221   1.898   0.784  0.5844  0.6184 -0.2137
 5777SOL    HW228965   4.251   2.007   0.894 -1.8852  1.3439  1.2320
 5778SOL     OW28966   3.063   0.889   0.283 -0.1933  0.6975 -0.1793
 5778SOL    HW128967   3.057   0.869   0.189  0.9090  1.4764 -0.4172
 5778SOL    HW228968   3.124   0.963   0.284 -0.3165  0.8346 -1.8633
 5779SOL     OW28969   3.697   4.513   5.344  0.5721  0.2421  0.4520
 5779SOL    HW128970   3.752   4.515   5.423  0.8235 -0.8430  0.2968
 5779SOL    HW228971   3.725   4.430   5.308  0.7979  0.5286 -0.0210
 5780SOL     OW28972   2.553   0.235   5.891 -0.3066 -0.1116  0.4392
 5780SOL    HW128973   2.595   0.154   5.862 -0.2964  0.8669 -2.3280
 5780SOL    HW228974   2.550   0.229   5.986  2.0479 -2.4360  0.3675
 5781SOL     OW28975   3.767   3.694  15.739  0.0812 -0.0365  0.4475
 5781SOL    HW128976   3.688   3.640  15.739 -0.6398  0.9989 -1.6549
 5781SOL    HW228977   3.792   3.687  15.647  1.1969  0.9314  0.6732
 5782SOL     OW28978   3.263   2.591   6.140 -0.1992  0.3361  0.1116
 5782SOL    HW128979   3.215   2.527   6.191 -1.6819  1.6087  0.3052
 5782SOL    HW228980   3.344   2.540   6.128 -0.3755  0.6543 -2.5454
 5783SOL     OW28981   2.613   3.977   3.028  1.2613  0.5634 -0.5425
 5783SOL    HW128982   2.673   3.942   3.094 -2.2241  0.2404  2.4370
 5783SOL    HW228983   2.677   3.990   2.959 -0.0262 -0.0164 -1.8278
 5784SOL     OW28984   2.298   0.773  14.285  0.0913  0.6435 -0.0192
 5784SOL    HW128985   2.324   0.728  14.365 -1.9562 -2.3475 -1.0381
 5784SOL    HW228986   2.241   0.840  14.323 -0.4013  0.0234  0.3201
 5785SOL     OW28987   3.171   2.135  14.610  0.4970 -0.4372 -0.2540
 5785SOL    HW128988   3.090   2.179  14.636  1.7442  1.6839  0.1294
 5785SOL    HW228989   3.244   2.196  14.623  0.9696 -0.5526 -2.3288
 5786SOL     OW28990   1.049   2.921   2.177 -0.2169 -0.2099 -0.1059
 5786SOL    HW128991   1.069   2.828   2.186 -2.3346 -0.3066  3.7146
 5786SOL    HW228992   1.088   2.943   2.092 -1.2002 -0.3092 -0.5763
 5787SOL     OW28993   2.433   3.188   5.140  0.4339  0.7875  0.2687
 5787SOL    HW128994   2.487   3.260   5.171  0.4115  1.6438 -1.6960
 5787SOL    HW228995   2.505   3.130   5.116 -3.0738 -2.5223 -2.3281
 5788SOL     OW28996   0.370   1.857  16.693 -0.2227  0.2813 -0.3487
 5788SOL    HW128997   0.420   1.776  16.688 -0.2042  0.3398 -1.2656
 5788SOL    HW228998   0.358   1.882  16.601 -1.1062  1.2783  0.0413
 5789SOL     OW28999   3.480   2.721   6.769 -0.3853 -0.1803 -0.2018
 5789SOL    HW129000   3.491   2.796   6.828 -0.0295  0.4385 -1.0539
 5789SOL    HW229001   3.549   2.748   6.709  0.2419 -1.8163 -0.2126
 5790SOL     OW29002   3.042   0.539   3.906  0.5622 -0.3327 -0.0128
 5790SOL    HW129003   2.961   0.489   3.913  0.7723 -0.8407 -1.2759
 5790SOL    HW229004   3.015   0.591   3.831 -4.0486  0.4822  2.2212
 5791SOL     OW29005   2.595   0.823   8.002 -0.2638 -0.1767 -0.0508
 5791SOL    HW129006   2.539   0.773   7.942 -0.6993  0.0204  0.1885
 5791SOL    HW229007   2.677   0.786   7.970  1.0015  3.1850 -0.6813
 5792SOL     OW29008   0.716   0.443   5.397 -0.0315 -0.1932 -0.0235
 5792SOL    HW129009   0.660   0.365   5.398 -0.0903 -0.1513  0.2581
 5792SOL    HW229010   0.662   0.518   5.424  0.3748  0.2393 -0.4244
 5793SOL     OW29011   1.250   3.425   8.459 -0.6585  0.1038  0.1343
 5793SOL    HW129012   1.183   3.492   8.476 -1.0442 -0.8832  2.5729
 5793SOL    HW229013   1.259   3.425   8.364  1.5937 -1.3723  0.3560
 5794SOL     OW29014   1.674   0.373   8.606 -0.2668  0.2284 -0.4554
 5794SOL    HW129015   1.583   0.347   8.591 -0.3665  0.4053 -0.1598
 5794SOL    HW229016   1.667   0.458   8.562 -1.4861  1.9718  3.0590
 5795SOL     OW29017   3.913   4.099   3.060 -0.5193  0.1452 -0.4466
 5795SOL    HW129018   4.001   4.095   3.099  0.0985  0.9511 -1.7733
 5795SOL    HW229019   3.933   4.169   2.998 -0.6355 -0.3813 -1.0821
 5796SOL     OW29020   4.386   1.495   4.888 -0.2348 -0.2117  0.0245
 5796SOL    HW129021   4.459   1.448   4.847  1.2985  0.7704  1.6349
 5796SOL    HW229022   4.411   1.499   4.980 -0.0644  0.1444 -0.0390
 5797SOL     OW29023   0.852   1.721   3.729  0.5966 -0.3817 -0.3935
 5797SOL    HW129024   0.813   1.710   3.816 -1.1057  0.9059 -1.0082
 5797SOL    HW229025   0.781   1.715   3.665 -0.3219 -1.0349  0.6676
 5798SOL     OW29026   3.969   4.157   0.487  0.6844 -0.3284 -0.6923
 5798SOL    HW129027   4.048   4.208   0.499 -0.9704  1.5002  2.2838
 5798SOL    HW229028   3.905   4.210   0.535 -0.3387 -1.6028 -0.6323
 5799SOL     OW29029   0.100   0.073   4.990 -0.6837 -0.5298  0.4181
 5799SOL    HW129030   0.152   0.124   5.052 -3.1102  1.4949  0.7960
 5799SOL    HW229031   0.069   0.006   5.051  0.2949 -1.2913  0.0710
 5800SOL     OW29032   2.258   3.665   7.241  0.5740  0.5699  0.8984
 5800SOL    HW129033   2.307   3.653   7.160 -2.0374 -0.5157 -0.5283
 5800SOL    HW229034   2.181   3.611   7.226  0.2692  1.3779 -0.3875
 5801SOL     OW29035   0.610   1.368   7.710  0.5061  0.3084  0.1528
 5801SOL    HW129036   0.625   1.318   7.791 -0.2429 -0.0858  0.0447
 5801SOL    HW229037   0.563   1.300   7.662  1.0962  0.6087 -0.8450
 5802SOL     OW29038   4.106   0.584   3.264  0.0896 -0.5444 -0.2698
 5802SOL    HW129039   4.114   0.671   3.303 -0.4050 -0.1615 -1.0211
 5802SOL    HW229040   4.026   0.546   3.302  0.2136  1.8910  2.4217
 5803SOL     OW29041   3.207   3.076   6.119 -0.4147  0.3512  0.5596
 5803SOL    HW129042   3.151   3.055   6.193 -1.1888 -0.4634 -0.2581
 5803SOL    HW229043   3.241   2.991   6.092  0.6093 -0.1766  3.5048
 5804SOL     OW29044   0.513   2.721   5.390 -0.7020  0.6565 -0.2528
 5804SOL    HW129045   0.482   2.805   5.355  0.3646  1.3460  0.4715
 5804SOL    HW229046   0.444   2.659   5.367 -0.7923  0.5064  0.4115
 5805SOL     OW29047   3.585   2.871  13.324 -0.7202  0.3108 -0.3500
 5805SOL    HW129048   3.600   2.864  13.418  0.7682 -2.2613 -0.7835
 5805SOL    HW229049   3.560   2.963  13.324 -0.6997  0.3144 -1.0741
 5806SOL     OW29050   2.208   0.096   1.627 -0.1858  1.0520 -0.6237
 5806SOL    HW129051   2.273   0.071   1.692 -0.4908 -0.7692 -1.0179
 5806SOL    HW229052   2.140   0.106   1.694 -0.0345  3.1045 -0.7640
 5807SOL     OW29053   0.226   0.431   1.241  0.2331 -0.0164  0.2236
 5807SOL    HW129054   0.176   0.494   1.293  2.3183  1.8912 -0.0992
 5807SOL    HW229055   0.243   0.488   1.166  2.5264 -0.2407  0.5540
 5808SOL     OW29056   0.809   1.253   7.011 -0.0325 -0.2252  0.0483
 5808SOL    HW129057   0.772   1.208   7.087 -4.1472  2.0079 -0.5856
 5808SOL    HW229058   0.796   1.338   7.054  2.7988 -0.4465  1.3324
 5809SOL     OW29059   1.293   4.329   1.591 -0.4304 -0.0695 -0.7954
 5809SOL    HW129060   1.250   4.327   1.677 -0.4589 -1.6287 -0.8349
 5809SOL    HW229061   1.343   4.248   1.601  0.6272  0.7741  0.7816
 5810SOL     OW29062   4.721   2.350   3.068 -0.1541  1.0522 -0.2054
 5810SOL    HW129063   0.051   2.399   3.022  2.4059 -2.6837 -0.3546
 5810SOL    HW229064   4.638   2.369   3.023 -0.6398 -0.3444  0.1241
 5811SOL     OW29065   0.367   3.782  10.087  0.4738  0.0770 -0.0731
 5811SOL    HW129066   0.397   3.744  10.169  0.4102  0.0015 -0.0854
 5811SOL    HW229067   0.419   3.738  10.021  0.4296  0.2433 -0.2196
 5812SOL     OW29068   4.498   0.007   1.523  0.4207 -0.3051 -0.3725
 5812SOL    HW129069   4.446   0.075   1.479 -0.5532 -1.2224 -0.6432
 5812SOL    HW229070   4.525   0.056   1.600 -3.1062  2.4279 -0.8868
 5813SOL     OW29071   1.430   2.440   1.872  0.3147  0.0161 -0.0479
 5813SOL    HW129072   1.462   2.462   1.960  1.3684 -2.2122  0.1089
 5813SOL    HW229073   1.381   2.519   1.847 -1.1984 -1.3588 -1.3898
 5814SOL     OW29074   0.959   3.606  15.458  0.0466  0.0309 -0.4905
 5814SOL    HW129075   0.892   3.670  15.482  2.0227  0.7338  3.1406
 5814SOL    HW229076   0.948   3.591  15.364 -0.7765  1.5547 -0.6304
 5815SOL     OW29077   2.786   2.943   3.898  0.3607  0.5070 -0.2706
 5815SOL    HW129078   2.762   2.889   3.974 -0.0635  2.3516  0.9260
 5815SOL    HW229079   2.795   2.886   3.822 -1.6292 -2.3582  1.5983
 5816SOL     OW29080   1.871   4.052   4.209 -0.4098 -0.0862  0.2667
 5816SOL    HW129081   1.818   4.061   4.287  1.2714 -0.6343  1.4785
 5816SOL    HW229082   1.807   4.030   4.141  0.2473 -0.2687 -0.2957
 5817SOL     OW29083   2.036   1.934  16.826 -0.0642  0.3921 -0.0278
 5817SOL    HW129084   1.987   2.012  16.799  0.2975  0.0949 -1.5328
 5817SOL    HW229085   2.046   1.952  16.920  1.0850 -1.0730  0.1278
 5818SOL     OW29086   0.129   3.081   5.650  0.9216 -0.3388  0.6849
 5818SOL    HW129087   0.080   3.008   5.687 -0.5419  0.4157  0.2406
 5818SOL    HW229088   0.100   3.146   5.714 -0.3135  1.2268 -1.4512
 5819SOL     OW29089   0.566   2.897   8.430  0.7669  0.4784 -0.5161
 5819SOL    HW129090   0.657   2.925   8.437  0.1344  2.3554 -0.0029
 5819SOL    HW229091   0.531   2.920   8.516 -0.3559 -0.3188 -0.7518
 5820SOL     OW29092   3.393   2.044  10.652 -0.7131  0.5829  0.2249
 5820SOL    HW129093   3.321   2.034  10.714 -1.7325 -0.4807 -1.1573
 5820SOL    HW229094   3.352   2.043  10.566  1.8837  2.2518 -1.0629
 5821SOL     OW29095   0.045   3.495   5.186 -0.4495 -0.2001  0.1635
 5821SOL    HW129096   4.725   3.570   5.180 -0.4792 -0.2834 -0.4947
 5821SOL    HW229097   0.091   3.499   5.102  2.9002 -0.5652  1.9662
 5822SOL     OW29098   3.904   1.929   1.936 -0.1642 -0.1883  0.5083
 5822SOL    HW129099   3.901   1.929   1.840  1.9526  1.7535  0.4541
 5822SOL    HW229100   3.828   1.986   1.946  0.5195  1.4609 -3.9233
 5823SOL     OW29101   4.640   4.574   2.485 -0.2468  0.5388  0.2426
 5823SOL    HW129102   4.734   4.588   2.489 -0.1262 -0.2544  0.0802
 5823SOL    HW229103   4.635   4.492   2.534  1.6707  0.7757  0.8347
 5824SOL     OW29104   1.336   4.161   2.871  0.2931 -0.5823  0.0820
 5824SOL    HW129105   1.328   4.251   2.840  2.3437 -0.5085 -0.2118
 5824SOL    HW229106   1.406   4.122   2.818  0.8440  1.9548 -1.0459
 5825SOL     OW29107   2.227   1.165   1.047 -0.1690 -0.3600  0.5264
 5825SOL    HW129108   2.232   1.084   0.997  0.2730 -0.2825  0.4444
 5825SOL    HW229109   2.258   1.141   1.135  1.5827 -4.4636 -1.2636
 5826SOL     OW29110   2.115   1.572   5.354 -0.0836 -0.6051 -0.5406
 5826SOL    HW129111   2.160   1.580   5.269  1.1760  1.8519  0.3438
 5826SOL    HW229112   2.025   1.597   5.330 -0.2203 -1.4674 -0.9355
 5827SOL     OW29113   3.532   2.925   2.156  0.5720  0.3599 -0.5657
 5827SOL    HW129114   3.441   2.898   2.141 -0.4069  1.8493  2.5500
 5827SOL    HW229115   3.545   2.898   2.247  0.3469  1.8412 -0.0866
 5828SOL     OW29116   1.537   2.043   8.655 -0.1092 -0.0660 -0.8836
 5828SOL    HW129117   1.567   2.034   8.745  1.4172  2.0164 -1.2003
 5828SOL    HW229118   1.486   1.962   8.649 -0.8695  0.4125 -0.9608
 5829SOL     OW29119   1.686   0.785   9.260  0.1963  0.5080 -0.2086
 5829SOL    HW129120   1.730   0.805   9.178  0.7734 -0.7090 -0.1994
 5829SOL    HW229121   1.666   0.692   9.245  0.0785 -0.0033  3.0782
 5830SOL     OW29122   4.487   0.571  10.007  0.1834  0.4396 -0.7206
 5830SOL    HW129123   4.561   0.628  10.027  0.3049  0.1689 -0.4046
 5830SOL    HW229124   4.426   0.605  10.073 -0.7650 -0.7204 -0.9912
 5831SOL     OW29125   0.715   2.375   1.547 -0.2714  1.0078 -0.3501
 5831SOL    HW129126   0.686   2.388   1.456 -0.6027  0.2873 -0.3490
 5831SOL    HW229127   0.681   2.449   1.596  1.4797  0.5240  1.5669
 5832SOL     OW29128   1.237   4.652   4.052 -0.0019  0.2167  0.0197
 5832SOL    HW129129   1.310   4.595   4.076 -1.9728 -2.4670 -0.4038
 5832SOL    HW229130   1.162   4.594   4.052  0.2797 -0.1504  0.3849
 5833SOL     OW29131   1.851   2.335   2.805  0.1935  0.0954  0.3521
 5833SOL    HW129132   1.871   2.428   2.816  0.5166 -0.0696  1.1494
 5833SOL    HW229133   1.818   2.308   2.891 -0.3617 -1.6520 -0.4101
 5834SOL     OW29134   2.939   4.631   6.434  0.1397 -0.0930 -0.6300
 5834SOL    HW129135   2.967   4.562   6.495  1.9003  0.3986 -0.8804
 5834SOL    HW229136   2.936   4.591   6.348  3.5943 -1.6348 -0.0406
 5835SOL     OW29137   1.134   1.314   9.188  0.1573 -0.4664  0.2196
 5835SOL    HW129138   1.174   1.228   9.200 -1.7467 -1.4887 -0.8319
 5835SOL    HW229139   1.059   1.292   9.133 -0.1450 -2.1457  1.3115
 5836SOL     OW29140   3.530   0.028   6.243  0.1984 -0.5007 -0.0221
 5836SOL    HW129141   3.448   0.064   6.276 -0.2276 -0.1898 -1.4336
 5836SOL    HW229142   3.496   4.682   6.214 -1.6354 -0.9689  3.4988
 5837SOL     OW29143   2.617   0.320   8.005  0.3410  0.4352  0.0619
 5837SOL    HW129144   2.700   0.354   8.040  0.8780 -1.4000  0.5653
 5837SOL    HW229145   2.616   0.228   8.032 -1.6761 -0.1374 -1.9763
 5838SOL     OW29146   4.262   3.334   4.895  0.2840 -0.2177  0.2343
 5838SOL    HW129147   4.221   3.296   4.818  0.5971  0.3701 -0.2231
 5838SOL    HW229148   4.330   3.382   4.846  1.3972 -0.7055  1.2965
 5839SOL     OW29149   2.348   4.636  11.136 -0.3989 -0.0437  0.5555
 5839SOL    HW129150   2.258   4.637  11.168 -0.8973  2.1329 -0.8979
 5839SOL    HW229151   2.402   4.597  11.205 -0.1471  0.1436  0.4633
 5840SOL     OW29152   2.246   4.387   2.617  0.1568 -0.0590  0.1689
 5840SOL    HW129153   2.239   4.293   2.633 -0.5019 -0.2147 -0.9729
 5840SOL    HW229154   2.152   4.403   2.624  0.2323  0.3142  0.3154
 5841SOL     OW29155   2.200   0.711   3.880 -0.2915  0.2446 -0.3566
 5841SOL    HW129156   2.292   0.725   3.860 -0.0281 -0.7416  0.1684
 5841SOL    HW229157   2.198   0.732   3.974  0.0369 -1.7355  0.0845
 5842SOL     OW29158   2.281   2.650  17.500  0.8252 -0.4609  0.7065
 5842SOL    HW129159   2.354   2.711  17.491  0.3201 -0.2225 -1.8090
 5842SOL    HW229160   2.212   2.692  17.447  2.6634  1.9356  0.2277
 5843SOL     OW29161   3.200   1.727   1.102  0.0912 -0.3455  0.0877
 5843SOL    HW129162   3.255   1.805   1.101  0.6624 -0.7717 -1.9314
 5843SOL    HW229163   3.165   1.732   1.191 -2.1440  2.8867 -0.9601
 5844SOL     OW29164   0.000   3.513   0.635  0.1165  0.3256  0.2267
 5844SOL    HW129165   4.733   3.572   0.711 -0.0896  0.3852  0.1653
 5844SOL    HW229166   4.713   3.581   0.572 -0.0036  0.7474  0.7287
 5845SOL     OW29167   1.836   2.146   6.174 -0.2452 -0.3518  0.2059
 5845SOL    HW129168   1.783   2.142   6.254 -1.7699  1.5392 -0.7219
 5845SOL    HW229169   1.770   2.161   6.106 -1.5047  0.5190  1.6058
 5846SOL     OW29170   3.548   4.713  11.089  0.4683  0.3882 -0.0807
 5846SOL    HW129171   3.459   4.723  11.124  0.9865 -0.9983  1.6543
 5846SOL    HW229172   3.582   0.061  11.111  1.2543  0.3322 -1.0870
 5847SOL     OW29173   1.923   2.919   5.884 -0.3097 -0.1509 -0.1506
 5847SOL    HW129174   1.883   2.869   5.954 -4.0478 -1.0143 -2.9391
 5847SOL    HW229175   1.850   2.975   5.858  0.0845 -0.5535 -2.0917
 5848SOL     OW29176   0.047   2.990   1.905 -0.5398  0.2940  0.1531
 5848SOL    HW129177   0.090   2.995   1.990  0.6758 -2.0407 -0.3207
 5848SOL    HW229178   4.702   2.950   1.929 -0.7549  1.3892  1.2266
 5849SOL     OW29179   3.385   0.414  15.407  1.0070  0.2476  0.4548
 5849SOL    HW129180   3.444   0.443  15.477  1.0661 -0.4833  0.7091
 5849SOL    HW229181   3.396   0.319  15.406  0.8139  0.2093  1.3399
 5850SOL     OW29182   4.604   2.148   7.652 -0.2361  0.6175  0.1434
 5850SOL    HW129183   4.559   2.076   7.607 -2.2174  2.4825 -0.8244
 5850SOL    HW229184   4.687   2.102   7.669 -0.2601  1.1568  1.7641
 5851SOL     OW29185   2.223   0.089  13.143  0.2777  0.1105  0.4982
 5851SOL    HW129186   2.301   0.062  13.095 -0.0279  1.4879 -0.7666
 5851SOL    HW229187   2.263   0.121  13.224  1.7584 -0.9268  0.1830
 5852SOL     OW29188   4.397   1.192   2.994 -0.0787  0.9546  0.2753
 5852SOL    HW129189   4.434   1.156   3.074 -1.3934  0.9337  0.8674
 5852SOL    HW229190   4.452   1.146   2.930 -0.6253 -2.0093  1.9356
 5853SOL     OW29191   3.709   0.606  14.847  0.8525 -0.7317 -0.3387
 5853SOL    HW129192   3.777   0.563  14.900  0.8772 -0.3029 -0.0217
 5853SOL    HW229193   3.772   0.651  14.791  0.9710 -1.5789 -0.8749
 5854SOL     OW29194   0.882   0.351   2.437 -0.0947 -0.2822  0.2894
 5854SOL    HW129195   0.835   0.306   2.507  0.3670 -2.8113 -1.0456
 5854SOL    HW229196   0.907   0.431   2.484 -0.7408 -1.6636  2.9874
 5855SOL     OW29197   1.527   1.911   1.572 -0.1703 -0.0946  0.2006
 5855SOL    HW129198   1.487   1.933   1.488 -0.3543 -1.6694 -0.1259
 5855SOL    HW229199   1.488   1.825   1.587  0.6873 -0.1427  2.1656
 5856SOL     OW29200   0.599   3.774   9.326 -0.0497  0.4320  0.4447
 5856SOL    HW129201   0.656   3.714   9.276 -0.5430  1.7145 -1.6189
 5856SOL    HW229202   0.510   3.741   9.315 -0.0906  0.4525  0.7162
 5857SOL     OW29203   3.058   1.422   2.994  0.1967 -0.0521  0.8836
 5857SOL    HW129204   2.990   1.360   3.020 -1.6270  1.5878  0.0811
 5857SOL    HW229205   3.133   1.392   3.045  0.8255 -1.1113 -0.6395
 5858SOL     OW29206   0.929   3.180   5.072  0.0746 -0.3890 -0.3103
 5858SOL    HW129207   0.966   3.096   5.042  1.2595  1.0135 -2.7967
 5858SOL    HW229208   0.873   3.163   5.147 -1.0549  1.4450 -0.7487
 5859SOL     OW29209   2.343   0.480   1.157 -0.4132  0.5404  0.2204
 5859SOL    HW129210   2.345   0.465   1.063  2.6381 -0.1897  0.4167
 5859SOL    HW229211   2.400   0.408   1.185  1.3913  1.0944 -2.0344
 5860SOL     OW29212   0.551   0.831   8.350 -0.1336  0.2533 -0.1944
 5860SOL    HW129213   0.615   0.853   8.418  0.4097 -2.2361  0.0847
 5860SOL    HW229214   0.465   0.836   8.391 -0.2223 -0.5958 -0.2756
 5861SOL     OW29215   4.681   1.521   9.058  0.2609 -0.1772  0.1544
 5861SOL    HW129216   4.639   1.479   9.133 -1.3888 -0.2751 -0.8201
 5861SOL    HW229217   4.664   1.613   9.079 -1.7094 -0.7541  1.0951
 5862SOL     OW29218   0.984   2.536   9.591 -0.0493 -0.1525  0.5538
 5862SOL    HW129219   0.986   2.624   9.629 -0.2899  1.3830 -2.9759
 5862SOL    HW229220   1.003   2.548   9.498 -0.1388  1.3956  0.7360
 5863SOL     OW29221   1.026   0.633   7.462 -0.1614 -0.1024  0.4756
 5863SOL    HW129222   1.067   0.651   7.377 -2.8496  0.3418 -0.7311
 5863SOL    HW229223   0.985   0.718   7.477 -0.1978 -0.1489  0.6461
 5864SOL     OW29224   2.678   3.753  11.311 -0.3960  0.5460  0.7003
 5864SOL    HW129225   2.681   3.847  11.290  1.1778  0.6955  1.6854
 5864SOL    HW229226   2.644   3.705  11.235  1.1841  0.8378 -0.1783
 5865SOL     OW29227   0.261   3.430   7.107  0.4814  0.3347 -0.2826
 5865SOL    HW129228   0.269   3.524   7.122  2.0958 -0.3993  3.3029
 5865SOL    HW229229   0.316   3.393   7.176  1.2321 -1.5539 -1.8944
 5866SOL     OW29230   3.484   2.061   4.969 -0.0551 -0.0126  0.3265
 5866SOL    HW129231   3.451   2.137   5.015  0.3467 -0.1838  0.9027
 5866SOL    HW229232   3.440   1.991   5.017 -1.1758  0.3937 -0.1072
 5867SOL     OW29233   1.196   3.711   3.998  0.0168 -0.3380  0.2008
 5867SOL    HW129234   1.289   3.725   3.978 -0.2546 -3.3294 -3.1092
 5867SOL    HW229235   1.179   3.625   3.961 -1.0204 -0.4717  0.9787
 5868SOL     OW29236   4.136   2.588   2.592  0.1364  0.5222 -0.2308
 5868SOL    HW129237   4.090   2.600   2.509 -1.2048  2.5789  0.7989
 5868SOL    HW229238   4.201   2.527   2.557  1.2872  2.1709 -0.9610
 5869SOL     OW29239   4.179   1.758   7.286  0.2430  0.0728 -0.1963
 5869SOL    HW129240   4.223   1.787   7.205 -0.0795  3.0966  0.6931
 5869SOL    HW229241   4.137   1.841   7.308 -1.3171 -0.3844 -1.4731
 5870SOL     OW29242   1.774   2.279   5.455 -0.1227  0.2915  0.5915
 5870SOL    HW129243   1.727   2.358   5.481  1.1998  1.1626  0.3412
 5870SOL    HW229244   1.768   2.221   5.531  2.0295  0.8726  1.2283
 5871SOL     OW29245   1.219   3.127   8.248  0.2413  0.1850 -0.4484
 5871SOL    HW129246   1.182   3.156   8.331  2.5687 -1.0504  1.0230
 5871SOL    HW229247   1.314   3.141   8.256 -0.0078  1.8740 -0.4798
 5872SOL     OW29248   0.532   1.963   3.395 -0.3244  0.3454  0.1508
 5872SOL    HW129249   0.457   2.009   3.358  0.2863  1.3678  0.1787
 5872SOL    HW229250   0.602   2.023   3.369  0.6410 -0.6966  0.3521
 5873SOL     OW29251   2.801   0.151  11.569  0.5228 -0.4926 -0.0943
 5873SOL    HW129252   2.775   0.235  11.605 -0.6452 -0.1005 -1.8653
 5873SOL    HW229253   2.832   0.177  11.483 -2.7966  0.1880 -1.0789
 5874SOL     OW29254   2.265   1.076  14.921 -0.0618  0.2183  0.0560
 5874SOL    HW129255   2.292   1.024  14.846 -0.7961  0.5578 -0.4455
 5874SOL    HW229256   2.291   1.011  14.985 -3.0455 -1.8012 -0.7826
 5875SOL     OW29257   2.366   2.527   6.087  0.0172  0.0872  0.2832
 5875SOL    HW129258   2.356   2.620   6.106  0.3823  0.1411  0.2225
 5875SOL    HW229259   2.387   2.493   6.173  1.9340 -3.1263 -1.4643
 5876SOL     OW29260   0.157   4.258   4.351  0.1344  0.5218 -0.5054
 5876SOL    HW129261   0.112   4.320   4.408  0.6352  2.8955 -2.6652
 5876SOL    HW229262   0.089   4.244   4.285 -1.2071  0.5551  0.8747
 5877SOL     OW29263   0.179   3.081   6.333 -0.0249 -0.5252  0.0571
 5877SOL    HW129264   0.099   3.030   6.323 -1.3407  1.6894 -0.6744
 5877SOL    HW229265   0.210   3.099   6.245 -0.4333 -1.2067 -0.2275
 5878SOL     OW29266   2.523   4.713   2.993  0.0145  0.2814  0.6292
 5878SOL    HW129267   2.505   0.057   3.038  1.5064  1.8013 -1.5462
 5878SOL    HW229268   2.581   4.676   3.059 -1.1623 -1.0655  0.9075
 5879SOL     OW29269   2.428   0.612  12.975  0.0906 -0.4739  0.1631
 5879SOL    HW129270   2.481   0.610  13.054 -0.6670  0.5817  0.6918
 5879SOL    HW229271   2.380   0.529  12.972 -1.1387  0.2645 -0.5445
 5880SOL     OW29272   2.718   1.566   1.193  0.4587 -0.1762  0.8905
 5880SOL    HW129273   2.804   1.567   1.236  0.7444 -0.2013  0.3089
 5880SOL    HW229274   2.708   1.661   1.191  4.1893  0.1983 -0.9406
 5881SOL     OW29275   4.436   0.174   4.147 -0.4930  0.4765  0.5350
 5881SOL    HW129276   4.415   0.157   4.239 -0.6230  1.7311  0.7384
 5881SOL    HW229277   4.398   0.095   4.109  0.3532  0.3056  0.0430
 5882SOL     OW29278   4.483   2.066   2.342 -0.6403  0.1991 -0.0426
 5882SOL    HW129279   4.492   1.979   2.303 -0.4785  0.8239 -1.3971
 5882SOL    HW229280   4.388   2.065   2.353 -0.7051  3.1834 -0.3168
 5883SOL     OW29281   0.300   0.020   4.166  0.2716  0.0953 -0.1501
 5883SOL    HW129282   0.244   0.086   4.126 -0.6556  0.0198  1.0257
 5883SOL    HW229283   0.263   0.001   4.253  0.0582 -0.1726 -0.3010
 5884SOL     OW29284   4.317   0.703   2.409 -0.0566  0.0507 -0.3012
 5884SOL    HW129285   4.376   0.658   2.468 -0.5062 -1.3643 -0.9092
 5884SOL    HW229286   4.387   0.714   2.345 -0.6515 -4.4206 -1.7287
 5885SOL     OW29287   3.043   0.357   3.105  0.2335  0.0344 -0.8107
 5885SOL    HW129288   3.070   0.348   3.014 -0.9801 -0.4309 -1.1386
 5885SOL    HW229289   3.019   0.449   3.117 -0.7104 -0.4560  1.1971
 5886SOL     OW29290   2.361   4.146   7.809 -0.1146 -0.2183 -0.5192
 5886SOL    HW129291   2.385   4.138   7.716 -0.5985  3.0120 -0.9134
 5886SOL    HW229292   2.296   4.215   7.803  0.3124  0.1268 -1.2678
 5887SOL     OW29293   0.915   3.972   4.697 -0.1214 -0.1914  0.2991
 5887SOL    HW129294   0.947   3.887   4.730 -0.5319  0.7972  3.2669
 5887SOL    HW229295   0.968   4.038   4.741  1.0878 -2.1332  1.7903
 5888SOL     OW29296   0.418   0.132   8.520 -0.3037  0.0792 -0.4423
 5888SOL    HW129297   0.468   0.094   8.592  1.7071  0.9633 -1.3828
 5888SOL    HW229298   0.388   0.211   8.565  1.2178  0.1800  0.3885
 5889SOL     OW29299   4.451   0.319  11.656 -0.0177  0.5642  0.2240
 5889SOL    HW129300   4.430   0.407  11.624  0.8309  1.4119  1.9972
 5889SOL    HW229301   4.540   0.335  11.684 -0.3012  0.6790  1.0509
 5890SOL     OW29302   3.890   1.921   4.688  0.6675  0.3280  0.2137
 5890SOL    HW129303   3.865   1.941   4.598 -1.4501  0.2030  0.7569
 5890SOL    HW229304   3.825   1.965   4.744 -1.1557 -2.7275  0.5178
 5891SOL     OW29305   2.107   1.047   6.787  0.1032 -0.1639  0.3627
 5891SOL    HW129306   2.160   1.006   6.855  0.5142  1.0443  0.7731
 5891SOL    HW229307   2.162   1.032   6.711  0.6078 -0.7389  0.8447
 5892SOL     OW29308   3.353   1.530  10.629  0.3498  0.6997 -0.3631
 5892SOL    HW129309   3.312   1.617  10.633 -0.8586  0.0290  1.5296
 5892SOL    HW229310   3.447   1.545  10.641  0.8454 -0.6311 -2.6183
 5893SOL     OW29311   3.192   3.604   3.295  0.4827  0.3006 -0.4388
 5893SOL    HW129312   3.213   3.512   3.310  0.5398  0.9726  3.6512
 5893SOL    HW229313   3.177   3.634   3.385 -0.4496  0.7055 -0.7242
 5894SOL     OW29314   1.643   3.245  12.816 -0.1000  0.2470  0.3850
 5894SOL    HW129315   1.727   3.268  12.854 -0.5234  1.1187  0.7786
 5894SOL    HW229316   1.684   3.206  12.738 -0.2534 -1.5698  1.2069
 5895SOL     OW29317   4.647   3.294   0.925  0.0955  0.4810 -0.5767
 5895SOL    HW129318   0.003   3.290   0.912  0.2626 -1.5756  1.3959
 5895SOL    HW229319   4.632   3.386   0.949 -3.2724 -0.5210  1.1564
 5896SOL     OW29320   4.430   4.586   0.646  0.3687 -0.0962 -0.2458
 5896SOL    HW129321   4.501   4.581   0.710 -0.7110 -0.8619  0.8874
 5896SOL    HW229322   4.474   4.641   0.582  1.9892  0.3801  1.2808
 5897SOL     OW29323   4.025   0.745   4.719 -0.1217  0.3253  0.1272
 5897SOL    HW129324   4.042   0.663   4.765  2.1120 -0.8224 -2.7610
 5897SOL    HW229325   4.109   0.745   4.673  0.3377 -2.6793  0.9496
 5898SOL     OW29326   0.663   2.426   8.378 -0.6484  0.2879 -0.2556
 5898SOL    HW129327   0.706   2.395   8.458  0.3290  0.3491 -0.7505
 5898SOL    HW229328   0.703   2.367   8.313  1.7902 -0.5056  1.9209
 5899SOL     OW29329   3.526   4.415  16.074 -0.2780 -0.0528  0.2710
 5899SOL    HW129330   3.512   4.395  15.981 -0.6446  2.3461 -0.2132
 5899SOL    HW229331   3.441   4.458  16.088  0.8652  2.1748  0.3616
 5900SOL     OW29332   1.551   1.807   5.047 -0.9478 -0.0314  0.6626
 5900SOL    HW129333   1.578   1.724   5.009 -0.4716  0.7767 -0.7858
 5900SOL    HW229334   1.546   1.788   5.140  2.3625  2.2146  1.3127
 5901SOL     OW29335   0.951   3.387   2.465  0.2347  0.5672  0.3820
 5901SOL    HW129336   0.947   3.295   2.437  0.1918  1.3958 -2.2887
 5901SOL    HW229337   0.995   3.362   2.546  0.2287 -0.5143  0.0570
 5902SOL     OW29338   0.271   1.401   1.416  0.0287 -0.3616 -0.4663
 5902SOL    HW129339   0.309   1.449   1.342  1.1332 -0.2664  0.1687
 5902SOL    HW229340   0.253   1.318   1.371 -1.2935 -0.2528 -0.1606
 5903SOL     OW29341   2.162   1.420  17.462  0.1762 -0.0705  0.0484
 5903SOL    HW129342   2.251   1.388  17.477 -0.2859 -1.1366  0.5553
 5903SOL    HW229343   2.115   1.349  17.506  0.9061 -0.8755 -0.4725
 5904SOL     OW29344   1.464   2.642   5.684 -0.2179 -0.4071 -0.4636
 5904SOL    HW129345   1.467   2.686   5.769  1.8201 -0.0098 -0.7458
 5904SOL    HW229346   1.552   2.605   5.686 -0.2039 -0.2142  2.2880
 5905SOL     OW29347   3.167   0.727   7.296 -0.2837 -0.4167  0.4842
 5905SOL    HW129348   3.144   0.804   7.243  1.0562 -0.1143  0.3429
 5905SOL    HW229349   3.133   0.650   7.250 -2.9522  1.5076 -0.7891
 5906SOL     OW29350   1.794   1.061   2.473 -0.0428  0.0814  0.3734
 5906SOL    HW129351   1.798   1.095   2.563 -0.7252  1.0690  0.0298
 5906SOL    HW229352   1.790   1.142   2.421 -2.1801 -1.4608 -1.8095
 5907SOL     OW29353   4.531   0.621   1.770  0.0122 -0.2187  0.6448
 5907SOL    HW129354   4.541   0.620   1.865  2.2262 -1.3104  0.3789
 5907SOL    HW229355   4.436   0.613   1.777 -0.0519  0.9719  1.2741
 5908SOL     OW29356   2.811   0.682   3.213  0.4773  0.0650 -0.3777
 5908SOL    HW129357   2.769   0.764   3.189 -2.0461 -2.1079 -3.2970
 5908SOL    HW229358   2.896   0.696   3.170  1.1324 -1.8612  0.2787
 5909SOL     OW29359   0.119   4.546   4.758 -0.0494 -0.0169  0.4409
 5909SOL    HW129360   0.068   4.524   4.835  1.2354 -0.1973  1.2347
 5909SOL    HW229361   0.202   4.569   4.801  0.1876 -0.3249  0.1499
 5910SOL     OW29362   3.581   2.401   7.084  1.0020  0.1017 -0.0067
 5910SOL    HW129363   3.507   2.347   7.112 -0.5532  1.9042 -0.5557
 5910SOL    HW229364   3.552   2.481   7.129 -2.3776 -0.6148 -0.8768
 5911SOL     OW29365   3.874   1.617   4.434 -0.2216 -0.1495  0.7646
 5911SOL    HW129366   3.899   1.526   4.448  0.6053 -0.1723 -0.7628
 5911SOL    HW229367   3.896   1.649   4.521  0.5210 -1.9900  1.2387
 5912SOL     OW29368   1.264   3.409  10.394 -0.4204  0.4956  0.1436
 5912SOL    HW129369   1.208   3.339  10.361 -0.1027 -0.6048  1.9457
 5912SOL    HW229370   1.341   3.365  10.431  0.1343  0.4712 -1.0231
 5913SOL     OW29371   1.360   4.002   8.225  0.2718 -0.1097  0.4818
 5913SOL    HW129372   1.316   3.972   8.304  0.8203  0.9521  1.1996
 5913SOL    HW229373   1.359   4.098   8.235  0.2055 -0.2262  1.5900
 5914SOL     OW29374   0.809   2.732   8.038 -0.3095 -0.6876 -0.1428
 5914SOL    HW129375   0.757   2.652   8.033  0.3208 -1.0447 -0.9569
 5914SOL    HW229376   0.895   2.699   8.065  0.0464  0.8718  0.6068
 5915SOL     OW29377   3.365   0.427   7.013  0.1038  0.3397 -0.0860
 5915SOL    HW129378   3.429   0.498   7.026  0.3293 -0.0981  1.1334
 5915SOL    HW229379   3.296   0.461   6.956 -0.3726  0.1156  0.3665
 5916SOL     OW29380   3.028   0.890   7.049 -0.3570  0.5548  0.0698
 5916SOL    HW129381   2.946   0.870   7.094  1.5277 -1.3346  2.6418
 5916SOL    HW229382   3.002   0.970   7.002 -0.2560 -0.0140 -0.9461
 5917SOL     OW29383   2.368   0.181  11.052  0.3066  0.0366 -0.2912
 5917SOL    HW129384   2.447   0.188  11.106  0.0172  1.1667  0.0031
 5917SOL    HW229385   2.347   0.089  11.069 -1.5413  0.0096 -2.8250
 5918SOL     OW29386   0.872   2.022  16.872 -0.3628 -0.0819 -0.4686
 5918SOL    HW129387   0.829   2.102  16.841 -1.4846  0.2486  1.9715
 5918SOL    HW229388   0.900   2.038  16.962  1.8339  0.3090 -1.2123
 5919SOL     OW29389   1.144   1.960   9.604  0.4513 -0.2215 -0.1235
 5919SOL    HW129390   1.111   2.029   9.661  1.5681 -2.3550  3.1117
 5919SOL    HW229391   1.236   1.979   9.585 -0.1103  0.4411 -2.1607
 5920SOL     OW29392   3.808   0.439   2.451 -0.3872 -0.3969 -0.5917
 5920SOL    HW129393   3.733   0.414   2.396 -0.5667  0.0468 -0.5504
 5920SOL    HW229394   3.851   0.355   2.467  2.0078  1.3374  1.9574
 5921SOL     OW29395   0.426   1.458   8.049  0.1077 -0.0254  0.3884
 5921SOL    HW129396   0.392   1.394   7.986  1.5714 -0.4628  0.0475
 5921SOL    HW229397   0.364   1.530   8.032 -0.2391 -0.5722 -0.6561
 5922SOL     OW29398   0.358   4.607  12.268 -0.1103 -0.2633  1.0432
 5922SOL    HW129399   0.299   4.639  12.336 -2.5278 -0.3177 -1.0172
 5922SOL    HW229400   0.372   4.515  12.287 -1.3035 -0.6887 -0.1517
 5923SOL     OW29401   1.814   2.569   5.935  0.4588  0.4231  0.7659
 5923SOL    HW129402   1.905   2.558   5.963  0.8144 -0.7495 -0.8672
 5923SOL    HW229403   1.809   2.656   5.976 -0.9274 -0.2866  2.1152
 5924SOL     OW29404   2.291   2.684   6.534  0.1273 -0.2585  0.1945
 5924SOL    HW129405   2.318   2.752   6.595  0.2659 -1.0657  1.0465
 5924SOL    HW229406   2.374   2.658   6.495 -0.8518  0.4218 -2.3129
 5925SOL     OW29407   3.701   0.178   4.777 -0.1515  0.7819 -0.1345
 5925SOL    HW129408   3.683   0.171   4.871  0.0687 -0.9406 -0.2281
 5925SOL    HW229409   3.727   0.091   4.747  0.3953  0.9632 -0.1864
 5926SOL     OW29410   0.383   3.140   5.566 -0.3044  0.3617  0.1481
 5926SOL    HW129411   0.291   3.137   5.592 -0.3679 -0.4873 -0.1969
 5926SOL    HW229412   0.374   3.104   5.478 -0.5203  0.6121  0.0664
 5927SOL     OW29413   2.656   2.822   7.708 -0.2725  0.7178 -0.1792
 5927SOL    HW129414   2.677   2.821   7.802  0.9279  1.0393 -0.4494
 5927SOL    HW229415   2.699   2.741   7.681 -0.5646  0.5400 -0.1130
 5928SOL     OW29416   3.988   0.103   5.079  0.1254 -0.0006 -0.3330
 5928SOL    HW129417   4.016   0.112   5.170  0.5241 -1.6773 -0.2779
 5928SOL    HW229418   3.955   0.013   5.075 -0.4056  0.2461 -1.4769
 5929SOL     OW29419   0.628   1.675   7.385  0.3982 -0.0175 -0.2512
 5929SOL    HW129420   0.613   1.684   7.291  1.3764 -0.4345 -0.4406
 5929SOL    HW229421   0.704   1.733   7.386 -2.2332  3.4551  0.4852
 5930SOL     OW29422   4.250   1.034   5.321  0.0495  0.0332  0.4193
 5930SOL    HW129423   4.317   1.023   5.388  0.1446 -2.2818 -0.0730
 5930SOL    HW229424   4.167   1.016   5.364 -0.1551  0.8457  0.3658
 5931SOL     OW29425   3.700   2.211   2.748  0.4032  0.1523  0.0437
 5931SOL    HW129426   3.617   2.217   2.700  0.9250 -2.7608 -1.2033
 5931SOL    HW229427   3.702   2.117   2.764  0.9688  0.1383 -0.0873
 5932SOL     OW29428   3.845   2.167   3.745  0.4321  0.7281  0.2038
 5932SOL    HW129429   3.912   2.124   3.692 -1.4062 -1.0980 -0.6438
 5932SOL    HW229430   3.763   2.127   3.714  0.2961  1.4436 -0.3549
 5933SOL     OW29431   2.063   4.609   2.844 -0.1683 -0.1891  0.3934
 5933SOL    HW129432   2.004   4.546   2.884 -2.0463  1.2075 -0.1500
 5933SOL    HW229433   2.149   4.576   2.872  0.1255 -0.7667 -1.2232
 5934SOL     OW29434   2.570   2.150   5.101 -0.3029 -0.4927  0.0509
 5934SOL    HW129435   2.521   2.190   5.029 -0.5385 -0.6833  0.1048
 5934SOL    HW229436   2.526   2.189   5.176  0.3047 -1.2795  0.8156
 5935SOL     OW29437   0.793   2.526   2.104 -0.3831 -0.0789  0.2886
 5935SOL    HW129438   0.823   2.552   2.017 -2.1300  0.2506 -0.2274
 5935SOL    HW229439   0.876   2.530   2.151  0.2639  0.3823 -0.9016
 5936SOL     OW29440   3.508   4.335   4.448  0.0727 -0.9903  0.2198
 5936SOL    HW129441   3.524   4.414   4.396 -0.6811 -0.9276  0.0782
 5936SOL    HW229442   3.462   4.370   4.524  0.4825  0.8608 -0.3936
 5937SOL     OW29443   3.502   1.377  13.461 -0.1806 -0.1400  0.5240
 5937SOL    HW129444   3.527   1.381  13.554 -0.6293 -1.6621  0.7118
 5937SOL    HW229445   3.582   1.419  13.432 -0.6415  1.2359  1.2205
 5938SOL     OW29446   0.558   0.800   8.829  0.5971 -0.1965 -0.0021
 5938SOL    HW129447   0.578   0.761   8.914 -2.3058 -0.0676  0.7308
 5938SOL    HW229448   0.616   0.876   8.822  1.0800 -0.5801 -0.1605
 5939SOL     OW29449   3.862   3.835  13.359  0.3274  0.3028 -0.5323
 5939SOL    HW129450   3.891   3.921  13.388 -0.3566  0.6990 -1.0314
 5939SOL    HW229451   3.768   3.845  13.374  0.0717  0.3370 -2.1378
 5940SOL     OW29452   3.398   1.472   4.642  0.1191 -0.4959 -0.6178
 5940SOL    HW129453   3.411   1.489   4.549 -0.5616 -3.4739 -1.2569
 5940SOL    HW229454   3.320   1.523   4.664 -0.2225 -2.0167  1.7021
 5941SOL     OW29455   2.235   3.795   4.261  0.3641 -0.1018 -0.2216
 5941SOL    HW129456   2.286   3.777   4.182 -0.1755 -1.8871 -0.1619
 5941SOL    HW229457   2.200   3.882   4.241  0.2967  0.0475  0.5751
 5942SOL     OW29458   2.186   1.361   5.515 -0.1085  0.3979 -0.1633
 5942SOL    HW129459   2.163   1.433   5.456 -0.4101  1.5570  1.3615
 5942SOL    HW229460   2.217   1.297   5.451  0.2857  1.0529 -0.6246
 5943SOL     OW29461   3.377   2.496   8.314 -0.2320 -0.0497  0.0048
 5943SOL    HW129462   3.292   2.492   8.358 -0.6505  1.8769 -0.6218
 5943SOL    HW229463   3.403   2.584   8.339  0.8034  0.1706 -1.8266
 5944SOL     OW29464   2.108   2.028   0.072  0.2060 -0.2221 -0.4691
 5944SOL    HW129465   2.145   1.988  17.746  0.0517 -0.1120 -0.5980
 5944SOL    HW229466   2.031   2.070   0.035 -1.2432 -1.0625  1.6061
 5945SOL     OW29467   4.247   2.997   3.241 -0.0134  0.3670 -0.2381
 5945SOL    HW129468   4.178   3.007   3.307  1.1360 -0.1306  1.0506
 5945SOL    HW229469   4.213   2.931   3.180  1.4179 -0.8518  0.2679
 5946SOL     OW29470   3.931   2.264  13.996 -0.1594  0.2223  0.1169
 5946SOL    HW129471   3.935   2.337  14.059  1.3218  1.6921 -1.6983
 5946SOL    HW229472   3.914   2.304  13.911  1.4274  0.3915 -0.1265
 5947SOL     OW29473   0.055   0.774   6.948  0.2887  0.0499  0.2479
 5947SOL    HW129474   0.064   0.680   6.962 -1.6621 -0.3627 -1.2528
 5947SOL    HW229475   0.143   0.812   6.953  0.6475 -0.5975 -1.0149
 5948SOL     OW29476   3.924   1.710   5.429 -0.0186 -0.0823 -0.2547
 5948SOL    HW129477   3.849   1.737   5.483  0.2351  1.7152 -0.8070
 5948SOL    HW229478   3.884   1.632   5.390 -0.4640 -0.4171  0.8751
 5949SOL     OW29479   2.857   2.477   7.027  0.2715 -0.4044  0.0114
 5949SOL    HW129480   2.775   2.437   6.997  0.8706  0.1842 -2.3922
 5949SOL    HW229481   2.882   2.404   7.085  1.0338  1.0079  1.4572
 5950SOL     OW29482   4.687   3.944   8.033 -0.0837 -0.3653  0.2256
 5950SOL    HW129483   4.604   3.975   8.070  0.1171  0.1397  0.2530
 5950SOL    HW229484   0.016   3.994   8.079  1.2371 -3.5755  1.7709
 5951SOL     OW29485   4.687   4.014   3.582 -0.3481 -0.3496  0.2177
 5951SOL    HW129486   4.724   3.938   3.627 -2.1403 -1.6403 -0.4850
 5951SOL    HW229487   4.732   3.998   3.499 -1.7699 -0.6398 -0.5039
 5952SOL     OW29488   4.000   0.250   5.907 -0.0371  0.1400  0.5764
 5952SOL    HW129489   3.948   0.170   5.902 -0.2096  0.1839  1.7858
 5952SOL    HW229490   3.928   0.312   5.912 -0.8457 -0.8067  0.7770
 5953SOL     OW29491   2.628   2.924  15.076  0.5675  0.5296 -0.0937
 5953SOL    HW129492   2.708   2.904  15.027 -0.1894  1.5110 -1.7222
 5953SOL    HW229493   2.662   2.964  15.156  0.3023  0.7922 -0.1146
 5954SOL     OW29494   1.084   3.844  11.719 -0.7270  0.2922 -0.0147
 5954SOL    HW129495   1.076   3.751  11.742  0.1294  0.1354 -0.3449
 5954SOL    HW229496   1.177   3.853  11.742 -0.4698 -0.9989 -0.5405
 5955SOL     OW29497   4.292   1.612   2.765  0.0723 -0.7006  0.2257
 5955SOL    HW129498   4.308   1.696   2.723 -1.8249  0.0514  1.0179
 5955SOL    HW229499   4.329   1.559   2.694  0.0333  2.7244 -2.3133
 5956SOL     OW29500   4.569   4.055   0.243  0.4779 -0.7223  0.3124
 5956SOL    HW129501   4.535   4.144   0.251  0.6490 -0.6391  0.1222
 5956SOL    HW229502   4.493   4.015   0.201 -1.4125  2.2702  0.9475
 5957SOL     OW29503   4.302   1.570  10.938  0.2618  0.7994  0.4550
 5957SOL    HW129504   4.365   1.514  10.893  2.6989  3.0664  1.1178
 5957SOL    HW229505   4.323   1.539  11.026  3.1573  0.4176 -0.3856
 5958SOL     OW29506   3.548   3.821   9.840 -0.3439  0.1118  0.3660
 5958SOL    HW129507   3.492   3.833   9.763  0.3376 -0.4147 -0.2197
 5958SOL    HW229508   3.527   3.902   9.885  2.4013 -0.4959  2.7335
 5959SOL     OW29509   3.554   1.802   4.693  0.4014  0.2494  0.2985
 5959SOL    HW129510   3.588   1.888   4.669  0.0605  0.1277 -0.6366
 5959SOL    HW229511   3.504   1.782   4.614  0.7429 -1.2245  0.4565
 5960SOL     OW29512   3.995   0.840   7.426 -0.1714  0.1379 -0.2387
 5960SOL    HW129513   3.973   0.791   7.506 -1.3431  0.6873 -0.2190
 5960SOL    HW229514   3.970   0.785   7.351  1.4425  2.5265 -2.5160
 5961SOL     OW29515   3.629   1.261   4.667 -0.1570 -0.1004  0.0632
 5961SOL    HW129516   3.573   1.207   4.724 -0.1579  1.9230  1.9619
 5961SOL    HW229517   3.702   1.286   4.724 -1.0969  1.9734  0.3555
 5962SOL     OW29518   1.071   0.550   6.981  0.4235 -0.0307 -0.1613
 5962SOL    HW129519   1.147   0.591   7.021  0.4742 -0.2340 -0.0483
 5962SOL    HW229520   1.028   0.629   6.948  0.7424 -0.4722 -1.6321
 5963SOL     OW29521   0.706   0.114   6.951  0.1501  0.7160 -0.5977
 5963SOL    HW129522   0.748   0.189   6.909  1.0879  0.3926 -0.2131
 5963SOL    HW229523   0.772   0.049   6.930  0.6669  1.3902 -1.0933
 5964SOL     OW29524   3.970   0.223   3.047  0.4942 -0.3008 -0.5036
 5964SOL    HW129525   3.997   0.132   3.061  0.1150 -0.1221  1.3077
 5964SOL    HW229526   4.051   0.274   3.045 -0.4708  1.2885  0.5965
 5965SOL     OW29527   3.054   0.340   5.312 -0.5215  0.5816 -0.1894
 5965SOL    HW129528   3.024   0.411   5.256  0.6848  2.1434  1.1607
 5965SOL    HW229529   3.016   0.358   5.398 -1.4853 -0.6226 -0.3545
 5966SOL     OW29530   4.274   2.477   7.394 -0.3138 -0.2844  0.5163
 5966SOL    HW129531   4.239   2.463   7.482 -0.7264 -2.1573  0.0787
 5966SOL    HW229532   4.191   2.496   7.351 -1.5729 -1.0360  2.5809
 5967SOL     OW29533   0.693   4.030   5.003  0.4117 -0.2399  0.0046
 5967SOL    HW129534   0.702   4.049   4.909 -0.3084  0.0042 -0.0097
 5967SOL    HW229535   0.601   4.049   5.017  0.1809 -1.8534  0.6311
 5968SOL     OW29536   2.878   4.649   7.910  0.3761  0.0667  0.0023
 5968SOL    HW129537   2.790   4.681   7.887 -0.1385 -1.8134 -0.6667
 5968SOL    HW229538   2.851   4.562   7.939  1.0113  0.5205  1.9469
 5969SOL     OW29539   1.039   1.796   3.459  0.0342 -0.1864  0.0007
 5969SOL    HW129540   1.115   1.771   3.512  0.5268  1.6714  0.1789
 5969SOL    HW229541   0.982   1.813   3.534  1.6300  0.8690  0.9729
 5970SOL     OW29542   2.261   2.526   2.771  0.5745 -0.1050  0.0205
 5970SOL    HW129543   2.174   2.486   2.772  0.7556 -0.5673 -2.2326
 5970SOL    HW229544   2.268   2.545   2.678  3.1279  0.7494  0.3933
 5971SOL     OW29545   0.967   0.734   6.799  0.4109 -0.0468  0.6560
 5971SOL    HW129546   1.018   0.792   6.741 -0.0660 -2.0210 -1.7145
 5971SOL    HW229547   0.927   0.796   6.860  1.3066  1.7805 -0.5906
 5972SOL     OW29548   0.922   3.826  11.483  0.0615 -0.0369 -0.5612
 5972SOL    HW129549   0.959   3.869  11.406 -0.5011 -1.4069 -1.5921
 5972SOL    HW229550   0.990   3.848  11.547 -2.3382  0.5515  1.8021
 5973SOL     OW29551   0.429   1.844   3.618  0.0045  0.1605  0.1252
 5973SOL    HW129552   0.418   1.873   3.527 -0.8612  0.2965  0.2706
 5973SOL    HW229553   0.433   1.750   3.603 -1.6591  0.0406  0.4405
 5974SOL     OW29554   3.542   2.107  12.296 -0.3492 -0.1552  0.6592
 5974SOL    HW129555   3.614   2.046  12.312  1.1155  1.5025  0.4002
 5974SOL    HW229556   3.509   2.109  12.386  0.1884 -1.2146  0.8747
 5975SOL     OW29557   0.609   0.681   7.171  0.1293 -0.4142  0.4906
 5975SOL    HW129558   0.582   0.711   7.084  0.3707  1.0340  0.9219
 5975SOL    HW229559   0.695   0.644   7.155  0.0014 -0.2221 -0.6785
 5976SOL     OW29560   2.500   1.741   4.902  0.1927  0.1103  0.7474
 5976SOL    HW129561   2.581   1.768   4.858 -0.1818  0.9963  0.5968
 5976SOL    HW229562   2.454   1.724   4.820 -0.6235 -0.0618  1.2497
 5977SOL     OW29563   0.660   0.744  10.221  0.3575 -0.0648 -0.3119
 5977SOL    HW129564   0.665   0.652  10.247 -0.0655  0.1565  0.5520
 5977SOL    HW229565   0.672   0.780  10.309  0.1223 -2.4571  0.7091
 5978SOL     OW29566   1.867   2.338   7.283 -0.0479  0.4941 -0.1574
 5978SOL    HW129567   1.905   2.389   7.212  1.2730  0.0128  0.2003
 5978SOL    HW229568   1.775   2.364   7.275 -0.0578  0.5000 -0.0237
 5979SOL     OW29569   4.394   4.668  14.392  0.2578 -0.1336 -0.1399
 5979SOL    HW129570   4.325   4.603  14.409 -1.2659  1.1939 -1.3166
 5979SOL    HW229571   4.377   4.667  14.298  2.2434  2.0409 -0.5101
 5980SOL     OW29572   1.343   2.685   1.851 -0.8111 -0.3924  0.9267
 5980SOL    HW129573   1.389   2.769   1.851 -0.7749 -0.4140 -0.6629
 5980SOL    HW229574   1.313   2.681   1.760  0.6860  2.1592  0.3234
 5981SOL     OW29575   4.306   3.184  12.901 -0.0112  0.0679  0.4330
 5981SOL    HW129576   4.338   3.095  12.894 -1.1058 -0.1550 -1.8161
 5981SOL    HW229577   4.251   3.191  12.979  0.1808 -0.7548  0.6389
 5982SOL     OW29578   3.573   0.914  16.977  0.3971  0.1767 -0.2722
 5982SOL    HW129579   3.555   0.823  17.001  1.5947  0.1108  0.3639
 5982SOL    HW229580   3.604   0.913  16.886 -1.2508 -0.5355 -0.8260
 5983SOL     OW29581   4.166   2.536   9.121  0.2587 -0.0627  0.3091
 5983SOL    HW129582   4.230   2.581   9.176  0.3688 -0.0809  0.1958
 5983SOL    HW229583   4.089   2.568   9.169  0.2497  0.1810  0.1267
 5984SOL     OW29584   2.528   2.485  16.978 -0.1456  0.1509  0.0067
 5984SOL    HW129585   2.595   2.499  17.044 -1.0683 -0.7307  1.1174
 5984SOL    HW229586   2.517   2.564  16.926  0.6070 -0.6838 -1.4390
 5985SOL     OW29587   4.345   2.248   4.376  0.3864  0.4452  0.1741
 5985SOL    HW129588   4.440   2.251   4.393  0.6740  0.7657 -1.4908
 5985SOL    HW229589   4.322   2.340   4.387  1.2781  0.4484  2.1099
 5986SOL     OW29590   1.053   1.764   4.808 -0.2531 -0.0607 -0.4133
 5986SOL    HW129591   0.997   1.841   4.798  0.1972  0.3101 -0.0978
 5986SOL    HW229592   1.008   1.727   4.884  0.3440 -0.7731 -0.4141
 5987SOL     OW29593   1.449   0.541   3.065 -0.2803 -0.0303 -0.2026
 5987SOL    HW129594   1.508   0.581   3.001 -1.6909  0.2290 -1.3196
 5987SOL    HW229595   1.501   0.463   3.087  1.6048  1.0069 -0.9257
 5988SOL     OW29596   2.038   0.128   3.322  0.0543 -0.3380 -0.3978
 5988SOL    HW129597   2.096   0.205   3.318  1.1431 -1.1594 -0.5114
 5988SOL    HW229598   2.094   0.058   3.289 -1.5222 -1.5804 -0.4196
 5989SOL     OW29599   1.280   1.242   8.702  0.8718  0.2221  0.3156
 5989SOL    HW129600   1.280   1.181   8.629 -4.4596 -1.2751  1.4954
 5989SOL    HW229601   1.301   1.323   8.657 -0.0305  0.9390  1.1814
 5990SOL     OW29602   4.482   4.253   8.350  0.1440  0.0656  0.0641
 5990SOL    HW129603   4.440   4.168   8.343  0.4713  0.0831 -2.3201
 5990SOL    HW229604   4.467   4.282   8.259 -0.2881 -0.2541  0.0369
 5991SOL     OW29605   0.060   4.657   3.978 -0.7712  0.8723 -0.7674
 5991SOL    HW129606   0.036   4.721   4.045  1.2410 -1.9898  2.6609
 5991SOL    HW229607   0.144   4.690   3.945 -0.2328 -0.1013 -0.3560
 5992SOL     OW29608   2.776   1.349  17.569  0.1423 -1.2452  0.2668
 5992SOL    HW129609   2.740   1.417  17.513  1.8347 -0.1041  0.5657
 5992SOL    HW229610   2.709   1.327  17.633  1.2501 -0.9517  1.5238
 5993SOL     OW29611   4.490   1.781   5.070  0.0576 -0.2033  0.5555
 5993SOL    HW129612   4.400   1.764   5.098 -0.4806 -0.8548 -1.5970
 5993SOL    HW229613   4.513   1.695   5.037  0.4300 -0.4308  1.3937
 5994SOL     OW29614   1.470   3.124   6.276 -0.2678  0.3490  0.1716
 5994SOL    HW129615   1.383   3.164   6.284 -0.7854 -1.1329  1.7441
 5994SOL    HW229616   1.511   3.142   6.360  2.6034 -2.2790 -0.6943
 5995SOL     OW29617   1.815   4.534   7.399 -0.1393  0.4942 -0.0925
 5995SOL    HW129618   1.739   4.560   7.347  2.0833  2.2972 -2.4463
 5995SOL    HW229619   1.769   4.516   7.481 -0.5616 -0.3129 -0.5119
 5996SOL     OW29620   1.082   3.198   8.715  0.2837 -0.0558  0.1136
 5996SOL    HW129621   1.091   3.177   8.622 -1.2760  2.9243 -0.6996
 5996SOL    HW229622   1.145   3.133   8.747 -0.3059 -0.0191  1.3467
 5997SOL     OW29623   2.672   3.268  12.488 -0.1323 -0.0908 -0.0580
 5997SOL    HW129624   2.702   3.195  12.434 -0.1355 -0.2035  0.0928
 5997SOL    HW229625   2.669   3.337  12.421  1.6430  0.3236  0.2932
 5998SOL     OW29626   0.085   3.437   6.887 -0.1262  0.4908  0.3242
 5998SOL    HW129627   0.167   3.417   6.933  0.5213 -1.0953 -1.5259
 5998SOL    HW229628   0.100   3.381   6.811  0.3926 -3.3423  3.2427
 5999SOL     OW29629   2.123   2.175   5.546  0.2854 -0.0030  0.5936
 5999SOL    HW129630   2.205   2.223   5.559 -0.5209  1.5886 -0.1932
 5999SOL    HW229631   2.128   2.119   5.623 -2.2261  0.6284  1.2137
 6000SOL     OW29632   4.006   2.085  16.196  0.0517  0.1399 -0.0484
 6000SOL    HW129633   4.011   1.989  16.199  1.5169  0.1869 -0.9229
 6000SOL    HW229634   4.018   2.080  16.102 -2.6817 -1.1450 -0.3216
 6001SOL     OW29635   2.944   1.651   3.221 -0.9163  0.1713  0.2738
 6001SOL    HW129636   2.980   1.712   3.286  0.3856  0.4061 -0.6577
 6001SOL    HW229637   2.942   1.719   3.153 -0.9998 -0.3353 -0.2265
 6002SOL     OW29638   3.329   1.330   4.890 -0.3857  0.1994 -0.1096
 6002SOL    HW129639   3.403   1.287   4.933 -0.6964  0.1363  0.3589
 6002SOL    HW229640   3.368   1.356   4.807  1.5514 -1.7268  0.1944
 6003SOL     OW29641   0.287   1.113   0.919 -0.0925  0.0807 -0.0848
 6003SOL    HW129642   0.305   1.019   0.912 -0.5753 -0.0801  0.8294
 6003SOL    HW229643   0.355   1.148   0.977 -0.2997  0.0564  0.1760
 6004SOL     OW29644   0.602   4.364   7.475 -0.1078  0.1399  0.3117
 6004SOL    HW129645   0.607   4.421   7.399  2.6422 -1.8457 -1.0067
 6004SOL    HW229646   0.686   4.318   7.471 -1.0124 -1.8376  3.6620
 6005SOL     OW29647   3.100   0.182  13.530 -0.1394 -0.1651 -0.1031
 6005SOL    HW129648   3.082   0.096  13.492  1.6687 -0.3804 -0.4383
 6005SOL    HW229649   3.097   0.169  13.625  2.4277  0.4101  0.0460
 6006SOL     OW29650   0.370   2.228   5.592 -0.0244  0.2012  0.0734
 6006SOL    HW129651   0.372   2.263   5.680  0.9022 -3.0962  1.3780
 6006SOL    HW229652   0.425   2.300   5.560  1.8647 -0.9854  0.6623
 6007SOL     OW29653   0.347   3.904  13.952 -0.2200 -0.5783  0.7854
 6007SOL    HW129654   0.255   3.914  13.976 -0.5045 -1.4210  0.0208
 6007SOL    HW229655   0.356   3.967  13.881 -0.5175  0.2787  1.5075
 6008SOL     OW29656   0.796   1.117   0.857  0.0463  1.3384 -0.2749
 6008SOL    HW129657   0.754   1.198   0.885 -3.2731  0.1549 -1.7706
 6008SOL    HW229658   0.887   1.143   0.841  0.7612 -2.0243 -1.6459
 6009SOL     OW29659   2.396   2.021  10.294  0.4090  0.2523 -0.1677
 6009SOL    HW129660   2.381   1.930  10.322 -1.1844  0.8164  0.8046
 6009SOL    HW229661   2.318   2.029  10.240 -0.9393  0.7530  1.8255
 6010SOL     OW29662   3.676   0.257  13.414  0.0491 -0.0106  0.5894
 6010SOL    HW129663   3.590   0.297  13.412 -0.8698 -2.0696 -0.6713
 6010SOL    HW229664   3.659   0.166  13.389  1.3402  0.6407 -2.6964
 6011SOL     OW29665   0.753   3.579   2.392 -0.3004 -0.0529 -0.0519
 6011SOL    HW129666   0.737   3.541   2.306 -1.0940  0.6821 -0.2217
 6011SOL    HW229667   0.839   3.540   2.408 -0.4198  0.2174  1.2891
 6012SOL     OW29668   1.638   2.343   2.456 -0.1190  0.6639 -0.1271
 6012SOL    HW129669   1.642   2.289   2.535  3.5071 -0.0058 -0.7405
 6012SOL    HW229670   1.627   2.273   2.392  0.2352  1.7999 -1.4222
 6013SOL     OW29671   2.414   3.316   6.949  0.1283 -0.2984  0.2509
 6013SOL    HW129672   2.386   3.230   6.981 -0.7378  0.5032  1.6638
 6013SOL    HW229673   2.505   3.304   6.975  0.5088  0.8144 -0.6207
 6014SOL     OW29674   2.836   0.768   7.179 -0.1624 -0.3811  0.4870
 6014SOL    HW129675   2.851   0.784   7.272 -0.4111  0.4747  0.3783
 6014SOL    HW229676   2.899   0.699   7.157  0.3405  1.0100 -2.4204
 6015SOL     OW29677   4.416   2.677   6.392 -0.4724  0.5253  0.1177
 6015SOL    HW129678   4.333   2.716   6.364  0.2313  0.7667 -1.6791
 6015SOL    HW229679   4.392   2.585   6.389  2.6382 -0.3153  1.6810
 6016SOL     OW29680   2.051   2.532   8.927  0.4255  0.2937  0.5646
 6016SOL    HW129681   1.992   2.597   8.964 -2.2267 -1.6186 -0.2626
 6016SOL    HW229682   2.100   2.518   9.008 -0.7474  1.6477  1.4957
 6017SOL     OW29683   3.295   2.405   7.983 -0.1796 -0.8820  0.0802
 6017SOL    HW129684   3.219   2.403   8.041 -1.0871  0.1602 -1.0747
 6017SOL    HW229685   3.371   2.372   8.031 -0.5516  0.5989  1.6807
 6018SOL     OW29686   2.475   2.154   0.901 -0.4295 -0.2632 -0.1014
 6018SOL    HW129687   2.552   2.158   0.845 -0.9677 -0.0551 -0.8352
 6018SOL    HW229688   2.413   2.116   0.838  0.8873 -2.7793  0.1336
 6019SOL     OW29689   3.249   1.258  15.099  0.3361 -0.2410 -0.2374
 6019SOL    HW129690   3.196   1.185  15.068  1.4895 -1.8965  1.7538
 6019SOL    HW229691   3.338   1.227  15.083 -0.6805 -2.7416 -0.9887
 6020SOL     OW29692   4.702   2.741   5.147 -0.9817  0.3066 -0.4795
 6020SOL    HW129693   4.629   2.775   5.096 -0.6835 -0.0717 -1.1659
 6020SOL    HW229694   0.022   2.700   5.083 -1.9714 -0.1894 -1.0631
 6021SOL     OW29695   4.710   1.208   9.385 -0.1825 -0.0801  0.1302
 6021SOL    HW129696   0.023   1.206   9.465 -0.0923 -1.6804  0.0362
 6021SOL    HW229697   4.700   1.113   9.379 -1.4807  0.0217  0.5431
 6022SOL     OW29698   3.458   1.997   1.753 -1.0312 -0.1926 -0.0292
 6022SOL    HW129699   3.422   1.917   1.790 -1.5290 -0.9030 -2.0076
 6022SOL    HW229700   3.380   2.044   1.723 -1.0449 -0.2742 -0.1237
 6023SOL     OW29701   3.447   2.830   0.723 -0.0462  0.0290 -0.5437
 6023SOL    HW129702   3.471   2.741   0.750 -2.7800 -0.0919  1.4786
 6023SOL    HW229703   3.433   2.832   0.629  0.2210  2.4067 -0.5194
 6024SOL     OW29704   0.456   1.150   7.644  0.5113  0.1196  0.2232
 6024SOL    HW129705   0.511   1.072   7.640 -0.0454 -0.3366  1.7827
 6024SOL    HW229706   0.425   1.142   7.734  0.9649 -1.6468  0.2214
 6025SOL     OW29707   2.758   2.169   6.606  0.0732 -0.7460 -0.0175
 6025SOL    HW129708   2.690   2.165   6.539 -0.0227  1.6257 -0.0532
 6025SOL    HW229709   2.729   2.242   6.660  1.0412 -0.4069  0.0380
 6026SOL     OW29710   1.050   1.924   1.870 -0.7279 -0.8185  0.0867
 6026SOL    HW129711   1.097   1.872   1.805  0.6496 -1.4419  1.5684
 6026SOL    HW229712   1.059   1.871   1.949 -1.5571 -2.1686 -0.7222
 6027SOL     OW29713   2.068   1.890   7.835  0.4066 -0.0948 -0.3611
 6027SOL    HW129714   2.023   1.886   7.750 -0.3737  2.4907 -0.0411
 6027SOL    HW229715   2.059   1.981   7.861 -0.4515 -1.1862  3.0445
 6028SOL     OW29716   0.139   1.673   3.579  0.0300 -0.4127  0.3459
 6028SOL    HW129717   0.198   1.671   3.654 -0.0940 -0.4415  0.4409
 6028SOL    HW229718   0.123   1.766   3.564  0.2959 -0.4796 -0.3722
 6029SOL     OW29719   2.261   0.504  15.758  0.9211  0.3816 -0.0791
 6029SOL    HW129720   2.229   0.415  15.744 -0.9834  1.2226 -0.9748
 6029SOL    HW229721   2.330   0.491  15.823  1.1537  1.2142 -0.1517
 6030SOL     OW29722   3.721   1.837  16.234  0.2913 -0.0942  0.7414
 6030SOL    HW129723   3.736   1.770  16.300  1.4009 -0.3666  0.1984
 6030SOL    HW229724   3.700   1.922  16.275 -0.2772 -0.8518  2.0111
 6031SOL     OW29725   1.084   1.945   9.314  0.4440 -0.3724  0.3753
 6031SOL    HW129726   1.090   1.945   9.409 -1.2445 -0.7347  0.4819
 6031SOL    HW229727   1.173   1.949   9.278 -0.5039  0.4252 -1.8702
 6032SOL     OW29728   1.892   4.410   2.961  0.0172  0.3247 -0.2350
 6032SOL    HW129729   1.835   4.336   2.979 -0.6189  1.1785  1.3171
 6032SOL    HW229730   1.957   4.385   3.027 -0.2337 -1.1558 -0.5552
 6033SOL     OW29731   4.244   2.929   1.462  0.0904 -0.2318 -0.1453
 6033SOL    HW129732   4.249   3.021   1.489 -2.3250 -0.1365  0.0254
 6033SOL    HW229733   4.324   2.926   1.410  1.1455 -0.9751  1.5424
 6034SOL     OW29734   4.337   0.861   4.421  0.2948 -0.4672 -0.3177
 6034SOL    HW129735   4.321   0.902   4.506  1.1818 -0.5438 -0.1087
 6034SOL    HW229736   4.256   0.870   4.371 -0.9631  0.6232  1.9094
 6035SOL     OW29737   0.712   1.911   4.324  0.2085 -0.2126  0.1865
 6035SOL    HW129738   0.723   1.962   4.244  1.5517  0.8690  1.0743
 6035SOL    HW229739   0.751   1.830   4.289 -1.4230 -1.2326  0.7372
 6036SOL     OW29740   1.658   2.936   8.482  0.2489 -0.1280  0.0711
 6036SOL    HW129741   1.678   2.971   8.569  1.0166 -1.6568  0.5086
 6036SOL    HW229742   1.658   3.019   8.435  1.7632 -0.6534 -0.8262
 6037SOL     OW29743   4.215   4.232   9.566  0.2809  0.2819 -0.4683
 6037SOL    HW129744   4.176   4.181   9.495 -0.7112  1.6561 -0.9112
 6037SOL    HW229745   4.307   4.206   9.564  1.0401  3.0242 -0.5019
 6038SOL     OW29746   0.201   0.594   0.088 -0.2451  0.2295 -0.0168
 6038SOL    HW129747   0.259   0.664   0.058  1.5361 -0.3056  2.2018
 6038SOL    HW229748   0.127   0.646   0.120 -1.4178 -1.3202 -0.1931
 6039SOL     OW29749   1.425   4.295   6.230 -0.4669 -0.0161 -1.1337
 6039SOL    HW129750   1.494   4.350   6.268 -1.0949 -0.3325  0.4675
 6039SOL    HW229751   1.444   4.203   6.249  0.7663  0.2745 -0.9308
 6040SOL     OW29752   1.510   3.746   3.448 -0.8896  0.5233  0.4811
 6040SOL    HW129753   1.551   3.670   3.490 -1.1997  0.8501  1.3711
 6040SOL    HW229754   1.500   3.818   3.509  1.3885  1.8342 -0.6999
 6041SOL     OW29755   3.489   4.412   3.995  0.2083  0.6248  0.0284
 6041SOL    HW129756   3.576   4.449   3.977  0.8275 -0.6952  0.2748
 6041SOL    HW229757   3.445   4.484   4.040 -0.3832 -0.4260  1.1424
 6042SOL     OW29758   3.422   1.720  10.267  0.6164  0.0128  0.2727
 6042SOL    HW129759   3.380   1.641  10.236  0.9095 -0.0162 -0.0542
 6042SOL    HW229760   3.433   1.696  10.359 -2.5777 -1.9054  0.1486
 6043SOL     OW29761   1.563   0.830   5.350 -0.3821  0.3754 -0.5083
 6043SOL    HW129762   1.613   0.909   5.327  0.0617  0.8991  2.2705
 6043SOL    HW229763   1.473   0.861   5.348 -1.0283 -1.5967 -2.4852
 6044SOL     OW29764   3.300   1.506   6.213 -0.3974  0.1694 -0.3805
 6044SOL    HW129765   3.265   1.588   6.248  0.1433 -0.1024  0.7758
 6044SOL    HW229766   3.393   1.517   6.235 -0.6857  1.2691  0.2976
 6045SOL     OW29767   3.638   2.343   5.831 -0.0192 -0.1558  0.0033
 6045SOL    HW129768   3.699   2.293   5.777 -1.4731 -0.2618 -1.5499
 6045SOL    HW229769   3.700   2.356   5.903 -0.6530 -1.7428  0.8442
 6046SOL     OW29770   0.180   3.061   9.497  0.1521 -0.0987 -0.2379
 6046SOL    HW129771   0.264   3.039   9.536 -0.3353 -2.1558 -0.3327
 6046SOL    HW229772   0.146   2.972   9.488  0.2763  0.0253 -2.1224
 6047SOL     OW29773   3.365   1.675   4.128  0.1280 -0.2263 -0.1104
 6047SOL    HW129774   3.447   1.725   4.132  0.9007 -1.5904  1.1874
 6047SOL    HW229775   3.394   1.588   4.157 -2.1490 -0.0935  2.4531
 6048SOL     OW29776   2.576   2.424   2.181  0.0829 -0.0991  0.1128
 6048SOL    HW129777   2.616   2.505   2.151  1.2072 -0.7996 -0.2795
 6048SOL    HW229778   2.490   2.464   2.197 -0.1801 -0.6607  0.1106
 6049SOL     OW29779   1.314   4.439   2.828  0.0664 -0.1104  0.4227
 6049SOL    HW129780   1.373   4.483   2.890  1.0574 -1.5710  0.5143
 6049SOL    HW229781   1.349   4.467   2.744  2.0039 -2.9255  0.3004
 6050SOL     OW29782   2.435   3.886  14.748 -0.8883  0.0490 -0.4281
 6050SOL    HW129783   2.425   3.957  14.685  0.2506  0.6784  0.0983
 6050SOL    HW229784   2.480   3.921  14.825 -0.5768 -1.6541  0.1822
 6051SOL     OW29785   3.786   3.696   8.918  0.1833  0.4933  0.0361
 6051SOL    HW129786   3.784   3.720   8.825  1.3127  0.3461 -0.0229
 6051SOL    HW229787   3.812   3.604   8.908 -0.0462  0.3615  0.6885
 6052SOL     OW29788   0.539   2.357   3.454 -0.2509 -0.0436 -0.5621
 6052SOL    HW129789   0.463   2.345   3.398 -0.6611 -0.6193  0.1260
 6052SOL    HW229790   0.597   2.287   3.424  0.4485  0.2182  0.1662
 6053SOL     OW29791   3.012   4.449   3.088 -0.3964  0.3621 -0.7416
 6053SOL    HW129792   2.947   4.395   3.044 -0.8395  2.4846 -2.6914
 6053SOL    HW229793   3.090   4.392   3.082  0.9800  2.1550  0.0549
 6054SOL     OW29794   1.846   1.505   5.722  0.2956 -0.0753  0.2962
 6054SOL    HW129795   1.920   1.551   5.684 -0.5630  2.0475  1.1833
 6054SOL    HW229796   1.841   1.438   5.654 -0.8166  0.6432 -0.3324
 6055SOL     OW29797   2.731   1.788   5.137 -0.7776 -0.2498 -0.1931
 6055SOL    HW129798   2.760   1.705   5.175 -0.8176  1.0903  2.7524
 6055SOL    HW229799   2.645   1.791   5.180  0.1910 -1.9377  1.8931
 6056SOL     OW29800   4.551   1.066  12.780 -0.1272 -0.0179  0.1874
 6056SOL    HW129801   4.543   1.140  12.719 -0.0359 -0.6014 -0.5278
 6056SOL    HW229802   4.647   1.066  12.786  0.0222 -0.5623 -2.5357
 6057SOL     OW29803   3.343   2.550   2.007  0.2857 -0.1936 -0.2119
 6057SOL    HW129804   3.269   2.608   2.025  0.0407 -1.0041  1.3313
 6057SOL    HW229805   3.309   2.493   1.938 -0.6371  0.3332 -0.1957
 6058SOL     OW29806   0.597   0.893   4.228  0.0994  0.7291  0.3217
 6058SOL    HW129807   0.508   0.892   4.262  0.4652 -1.4862  1.2284
 6058SOL    HW229808   0.631   0.807   4.252 -0.1856  0.2671 -0.9397
 6059SOL     OW29809   2.697   3.773   1.145 -0.6946 -0.0050  0.4376
 6059SOL    HW129810   2.680   3.713   1.218  0.2371 -1.6995 -0.7109
 6059SOL    HW229811   2.784   3.749   1.113 -0.8974  2.1338 -1.7297
 6060SOL     OW29812   4.291   1.371   8.201 -0.5075 -0.7052  0.7666
 6060SOL    HW129813   4.347   1.298   8.227  0.8882 -0.6690 -2.1030
 6060SOL    HW229814   4.223   1.353   8.266 -0.6766 -1.4710  0.3753
 6061SOL     OW29815   2.065   1.206   5.715  0.0013  0.4241 -0.3102
 6061SOL    HW129816   2.071   1.228   5.622 -2.4290 -0.1315 -0.5998
 6061SOL    HW229817   2.128   1.260   5.763  0.5811 -0.0029 -0.6025
 6062SOL     OW29818   2.615   1.817   7.226 -0.4474  0.1560 -0.1029
 6062SOL    HW129819   2.688   1.855   7.276  1.1364 -1.0562 -1.4872
 6062SOL    HW229820   2.663   1.809   7.144  0.4589  1.2722  0.3233
 6063SOL     OW29821   3.763   3.192  10.420 -0.0481 -0.2169  0.0946
 6063SOL    HW129822   3.687   3.176  10.476  0.8147 -0.9375  1.0749
 6063SOL    HW229823   3.716   3.208  10.338  0.3976  1.0823  0.0981
 6064SOL     OW29824   2.672   2.551   6.031  0.1307  0.0612 -0.3783
 6064SOL    HW129825   2.757   2.574   6.069 -0.1381 -1.7704  1.3544
 6064SOL    HW229826   2.630   2.636   6.022  0.5954  0.5800  2.4605
 6065SOL     OW29827   0.804   4.460   9.734  0.4758 -0.8200  0.0208
 6065SOL    HW129828   0.748   4.531   9.768 -3.2766 -3.3481 -0.8888
 6065SOL    HW229829   0.860   4.507   9.672  1.4604 -0.5256  1.1329
 6066SOL     OW29830   3.877   1.409   8.922  0.0389 -0.3564 -0.2411
 6066SOL    HW129831   3.821   1.487   8.924 -0.1215 -0.4678 -0.3681
 6066SOL    HW229832   3.808   1.346   8.944  1.2343 -1.3003  0.8177
 6067SOL     OW29833   1.310   0.786   1.101 -0.0758 -0.6870 -0.6150
 6067SOL    HW129834   1.355   0.859   1.143  2.8638 -2.6191 -0.4292
 6067SOL    HW229835   1.272   0.729   1.168 -2.3756  0.4898 -0.9144
 6068SOL     OW29836   0.355   2.963   4.141  0.9740 -0.1609  0.1873
 6068SOL    HW129837   0.264   2.991   4.139  0.8182 -0.6876  0.0359
 6068SOL    HW229838   0.363   2.943   4.234  1.9571  0.1034  0.1585
 6069SOL     OW29839   4.042   3.284  16.584  0.4563  0.3171 -0.1167
 6069SOL    HW129840   4.026   3.298  16.490 -0.1798  0.1746 -0.0269
 6069SOL    HW229841   4.081   3.197  16.575  0.5966  0.2840  0.8268
 6070SOL     OW29842   0.469   3.632  10.655 -0.3780  0.2916 -0.1236
 6070SOL    HW129843   0.463   3.537  10.660  0.2852  0.4236  3.0254
 6070SOL    HW229844   0.448   3.651  10.747  1.5591  1.5543  0.0661
 6071SOL     OW29845   1.382   2.005   1.370  0.0890 -0.0728  0.6291
 6071SOL    HW129846   1.423   1.949   1.305 -0.2890 -2.8797  2.8181
 6071SOL    HW229847   1.392   2.092   1.330  1.3624  0.2495  1.6555
 6072SOL     OW29848   3.417   2.336   4.509 -0.3299 -0.3112  0.3793
 6072SOL    HW129849   3.435   2.261   4.453 -2.3436 -0.3997 -0.1262
 6072SOL    HW229850   3.455   2.403   4.453 -1.2794 -0.5518 -0.5370
 6073SOL     OW29851   1.685   0.331   4.566  0.4915 -0.7318  1.0323
 6073SOL    HW129852   1.634   0.412   4.555 -0.5139 -1.4382  0.4678
 6073SOL    HW229853   1.773   0.350   4.534 -0.3333  2.0037  0.3894
 6074SOL     OW29854   0.658   4.418  13.252 -0.0955  0.2462 -0.7290
 6074SOL    HW129855   0.685   4.417  13.344  0.4163  1.6104 -0.8543
 6074SOL    HW229856   0.636   4.510  13.235 -3.5171 -0.3761  0.4522
 6075SOL     OW29857   2.965   0.001   6.061 -0.3278 -0.2878 -0.0607
 6075SOL    HW129858   2.955   0.097   6.060 -1.8372 -0.4318  0.5830
 6075SOL    HW229859   2.995   4.728   5.971 -0.6418  0.9295 -0.3327
 6076SOL     OW29860   3.140   3.788   5.924  0.3526 -0.4649 -0.3456
 6076SOL    HW129861   3.229   3.760   5.946  0.1129  0.6366  2.0384
 6076SOL    HW229862   3.151   3.806   5.830  2.8866 -2.0624 -0.3810
 6077SOL     OW29863   3.492   2.153   7.678 -0.1475 -0.1589  0.3830
 6077SOL    HW129864   3.498   2.146   7.773  2.0099 -0.1644  0.2488
 6077SOL    HW229865   3.582   2.141   7.645  0.4705 -0.1809  2.0873
 6078SOL     OW29866   1.619   1.965   7.749 -0.0902  0.1614  0.0534
 6078SOL    HW129867   1.549   1.899   7.751  1.9029 -1.9312  0.9363
 6078SOL    HW229868   1.682   1.936   7.815  0.1935  1.7807  0.4949
 6079SOL     OW29869   1.195   3.579  16.226  0.2433 -0.0496 -0.1900
 6079SOL    HW129870   1.280   3.536  16.234  1.1100  1.4435 -1.3094
 6079SOL    HW229871   1.165   3.548  16.141  1.5293 -0.9513 -0.3079
 6080SOL     OW29872   2.190   2.477   8.449  0.2792 -0.1166 -1.0242
 6080SOL    HW129873   2.214   2.422   8.523  0.1161 -1.7881 -2.2327
 6080SOL    HW229874   2.220   2.414   8.385  0.2490 -0.5781 -0.5825
 6081SOL     OW29875   1.497   4.611   5.317  0.0128 -0.2846  0.1761
 6081SOL    HW129876   1.585   4.620   5.281 -0.2277  0.9939 -0.1102
 6081SOL    HW229877   1.512   4.569   5.402 -1.0958  0.8790  0.9501
 6082SOL     OW29878   3.210   1.491   9.522  0.0047  0.4513  0.2091
 6082SOL    HW129879   3.235   1.432   9.592  0.0413 -1.5961 -1.5278
 6082SOL    HW229880   3.118   1.466   9.517  0.6742 -1.8911 -0.1124
 6083SOL     OW29881   4.458   3.087  12.159 -0.2044  0.2331 -0.8796
 6083SOL    HW129882   4.543   3.118  12.128 -1.2635  1.2054 -2.8482
 6083SOL    HW229883   4.483   3.062  12.248  0.5034 -0.2186 -1.2066
 6084SOL     OW29884   4.635   2.205   9.152 -0.2328 -0.5751 -0.0226
 6084SOL    HW129885   4.588   2.131   9.113 -0.2205  0.1981 -1.5146
 6084SOL    HW229886   4.684   2.254   9.086 -1.7060 -0.3665 -0.9568
 6085SOL     OW29887   3.290   4.557   7.031  0.1231 -0.1299 -0.1575
 6085SOL    HW129888   3.315   4.465   7.038 -3.0717 -0.8486  1.7493
 6085SOL    HW229889   3.300   4.578   7.124 -1.8848 -0.8876  0.2328
 6086SOL     OW29890   0.857   4.311  14.778 -0.0829 -0.0713 -0.8209
 6086SOL    HW129891   0.774   4.332  14.735 -0.9505  0.8780  1.2699
 6086SOL    HW229892   0.822   4.303  14.867  0.3897 -0.6598 -0.6852
 6087SOL     OW29893   2.607   3.969   8.536  0.6466 -0.8247  0.1613
 6087SOL    HW129894   2.585   3.988   8.445  0.2196 -0.7066  0.2880
 6087SOL    HW229895   2.643   4.055   8.557 -1.8873  0.1261  0.5834
 6088SOL     OW29896   4.403   4.586  15.098  0.4989  0.0665  0.1283
 6088SOL    HW129897   4.495   4.603  15.078  0.9490 -1.6099  0.8009
 6088SOL    HW229898   4.377   4.565  15.008 -0.9083 -0.3201  0.6155
 6089SOL     OW29899   2.524   0.627   5.735 -0.1876  0.1336 -0.3407
 6089SOL    HW129900   2.551   0.670   5.816 -2.1399 -1.2748  1.0637
 6089SOL    HW229901   2.501   0.706   5.686  1.6624 -0.2529 -1.8614
 6090SOL     OW29902   3.712   2.179  12.075  0.1405 -0.4407 -0.1082
 6090SOL    HW129903   3.690   2.139  12.160 -2.7622 -1.3706 -1.3119
 6090SOL    HW229904   3.697   2.272  12.088 -0.6328 -0.6077  0.1870
 6091SOL     OW29905   0.773   4.353  11.407 -0.1951 -0.2313  0.1934
 6091SOL    HW129906   0.865   4.361  11.434 -0.3914  0.0913  0.7721
 6091SOL    HW229907   0.749   4.265  11.435 -1.6578  0.2653  0.4919
 6092SOL     OW29908   2.025   0.439   7.261 -0.1714  0.2472  0.0192
 6092SOL    HW129909   2.033   0.346   7.282  0.9580  0.1247 -0.9344
 6092SOL    HW229910   2.049   0.484   7.342  2.3969 -0.3332 -0.4030
 6093SOL     OW29911   4.627   0.498  13.644  0.1376  0.6399  0.0183
 6093SOL    HW129912   4.534   0.500  13.622 -0.0624  0.6149  0.8560
 6093SOL    HW229913   4.668   0.522  13.561 -1.1710  3.1633  0.1160
 6094SOL     OW29914   3.990   4.105   7.706  0.0033  0.2437  0.1732
 6094SOL    HW129915   4.047   4.044   7.753 -1.0914 -0.6550  0.3500
 6094SOL    HW229916   3.971   4.065   7.621  1.9946 -0.5988  0.1348
 6095SOL     OW29917   2.926   3.309   0.409 -0.1990  0.6390  0.0874
 6095SOL    HW129918   2.900   3.297   0.317  0.0852  0.4252  0.0339
 6095SOL    HW229919   2.848   3.272   0.450 -0.7857  1.2632 -0.4662
 6096SOL     OW29920   2.050   3.322   5.869  0.1524  0.0454 -0.5932
 6096SOL    HW129921   2.075   3.341   5.779  2.7014 -2.5865 -0.4488
 6096SOL    HW229922   1.955   3.321   5.862  0.1000  0.7858  0.0344
 6097SOL     OW29923   1.851   2.744  17.093 -0.4207  0.7800 -0.4473
 6097SOL    HW129924   1.850   2.681  17.021 -0.3640 -1.0240  1.1087
 6097SOL    HW229925   1.915   2.809  17.064 -1.3535  1.5251 -0.8403
 6098SOL     OW29926   2.975   2.323  14.693  0.1696 -0.3153 -0.1178
 6098SOL    HW129927   2.925   2.339  14.773  1.4457 -0.4737  0.7043
 6098SOL    HW229928   3.004   2.409  14.662 -1.7639  0.1880 -0.5412
 6099SOL     OW29929   1.820   3.355  13.807  0.0822  0.0541 -0.2942
 6099SOL    HW129930   1.871   3.362  13.888 -0.1835  0.4501 -0.1639
 6099SOL    HW229931   1.864   3.428  13.763  0.1209  0.1846 -0.0390
 6100SOL     OW29932   2.387   0.773   6.641 -0.3558  0.0249  0.2653
 6100SOL    HW129933   2.457   0.805   6.584 -1.3395  0.6257 -0.5997
 6100SOL    HW229934   2.392   0.678   6.630  1.2999  0.3028 -1.2823
 6101SOL     OW29935   0.346   1.871   4.502 -0.4081  0.2826  0.5874
 6101SOL    HW129936   0.413   1.928   4.542 -0.7602 -0.3115  2.0197
 6101SOL    HW229937   0.272   1.906   4.551 -1.1742 -1.0585  0.3820
 6102SOL     OW29938   1.815   0.263   2.757  0.5786 -0.4558  0.3130
 6102SOL    HW129939   1.763   0.299   2.684 -0.3229  0.3477  1.3461
 6102SOL    HW229940   1.813   0.334   2.821 -0.4656  1.0740 -1.4081
 6103SOL     OW29941   1.152   3.800  16.051 -0.2022  0.5360  0.4222
 6103SOL    HW129942   1.154   3.767  16.141  0.2277 -1.7180 -0.4109
 6103SOL    HW229943   1.242   3.828  16.032  0.6462 -2.0698  0.5611
 6104SOL     OW29944   0.049   2.512   7.812 -0.1737 -0.4201  0.3974
 6104SOL    HW129945   0.029   2.481   7.723 -0.5317  1.1421 -0.0613
 6104SOL    HW229946   0.143   2.530   7.804 -0.1762 -0.0354  1.2923
 6105SOL     OW29947   0.830   3.743   7.488  0.0748  0.1599  0.7545
 6105SOL    HW129948   0.850   3.791   7.568 -4.1592  0.2253  1.7791
 6105SOL    HW229949   0.828   3.650   7.511  1.2434  0.1728  0.9116
 6106SOL     OW29950   3.475   1.956   7.455  0.0178  0.1660 -0.2746
 6106SOL    HW129951   3.384   1.927   7.448  0.5056 -1.4061 -0.1144
 6106SOL    HW229952   3.480   1.996   7.542 -0.0312  2.2567 -1.2399
 6107SOL     OW29953   2.492   0.088  10.280 -0.7128  0.0984  0.5576
 6107SOL    HW129954   2.446   0.146  10.340 -0.8978 -1.1387  1.5937
 6107SOL    HW229955   2.491   0.132  10.195 -0.3893  0.7308  0.8833
 6108SOL     OW29956   4.010   4.263   0.229  0.2322 -0.1914 -0.1454
 6108SOL    HW129957   3.993   4.233   0.318 -3.6553 -1.0316 -1.1788
 6108SOL    HW229958   3.975   4.352   0.231  1.9705  0.4944 -0.3768
 6109SOL     OW29959   1.686   4.438   5.039 -0.2477 -0.6440 -0.3695
 6109SOL    HW129960   1.608   4.387   5.016 -0.7277 -0.3157  0.5343
 6109SOL    HW229961   1.690   4.493   4.960  0.1592 -0.7087 -0.3936
 6110SOL     OW29962   3.603   3.130   8.415  0.3251 -0.5511 -0.1767
 6110SOL    HW129963   3.666   3.082   8.362  2.5946  1.1830  0.9711
 6110SOL    HW229964   3.530   3.143   8.355  0.5790 -2.1115 -0.8289
 6111SOL     OW29965   4.473   2.312   6.886 -0.1999  0.3119  0.4770
 6111SOL    HW129966   4.545   2.370   6.908 -0.2273  0.4055  0.3171
 6111SOL    HW229967   4.425   2.297   6.968 -0.9828  0.3998  0.0323
 6112SOL     OW29968   2.211   2.960  14.424  0.1664  0.2987 -0.4040
 6112SOL    HW129969   2.135   2.959  14.483  0.4308  0.5193 -0.0591
 6112SOL    HW229970   2.244   3.050  14.429  2.0096 -0.2886 -2.0555
 6113SOL     OW29971   2.117   2.572   5.559 -0.3111  0.0980 -0.0860
 6113SOL    HW129972   2.067   2.505   5.607 -0.5278  0.6408  0.4357
 6113SOL    HW229973   2.173   2.603   5.630  1.2441 -4.1555  0.5831
 6114SOL     OW29974   2.486   3.772  16.306  0.0998  0.3322 -0.0679
 6114SOL    HW129975   2.572   3.754  16.345 -0.8247  0.5557  2.0564
 6114SOL    HW229976   2.517   3.785  16.216 -2.3199  0.3369 -0.8903
 6115SOL     OW29977   2.984   3.681   2.868  0.5290 -0.1990  0.2552
 6115SOL    HW129978   2.969   3.622   2.794 -0.1088  1.7062 -1.1352
 6115SOL    HW229979   3.074   3.670   2.896  0.7861  0.1966 -0.4270
 6116SOL     OW29980   2.642   3.319  12.091  0.0692  0.1168 -0.0841
 6116SOL    HW129981   2.658   3.399  12.141 -1.8944  0.5093 -0.0866
 6116SOL    HW229982   2.703   3.258  12.135  0.4319  1.3369  1.1102
 6117SOL     OW29983   2.378   1.243  12.431  0.2905 -0.4371  0.0229
 6117SOL    HW129984   2.356   1.218  12.341 -2.9878  1.2624  0.3227
 6117SOL    HW229985   2.370   1.338  12.431 -0.0697 -0.4664  1.4409
 6118SOL     OW29986   0.150   2.132   4.823 -0.2851 -0.1236  0.0223
 6118SOL    HW129987   0.194   2.071   4.881 -0.8051  1.5080  2.1338
 6118SOL    HW229988   0.112   2.077   4.754  0.2044  0.6367 -0.8458
 6119SOL     OW29989   1.394   0.386   6.963 -0.1093  0.2903 -1.0170
 6119SOL    HW129990   1.487   0.377   6.942  0.1724  0.0204  0.3377
 6119SOL    HW229991   1.399   0.427   7.050  2.6994  4.9128 -3.3662
 6120SOL     OW29992   1.546   1.697   5.300 -0.5523  0.0313  0.5703
 6120SOL    HW129993   1.549   1.646   5.381 -0.5142  0.8873  1.1052
 6120SOL    HW229994   1.556   1.626   5.236 -0.2955 -0.0681  0.7175
 6121SOL     OW29995   4.331   2.279   3.510  0.4106  0.1578 -0.3598
 6121SOL    HW129996   4.268   2.340   3.550 -0.4045  0.4752 -2.1381
 6121SOL    HW229997   4.322   2.306   3.418  0.0886 -0.0070 -0.3762
 6122SOL     OW29998   3.310   3.303   7.191  0.2236 -0.0649 -0.2653
 6122SOL    HW129999   3.329   3.271   7.102 -0.5290 -1.3350  0.0295
 6122SOL    HW230000   3.295   3.216   7.228  0.8435 -0.5897 -1.2255
 6123SOL     OW30001   2.425   2.955   8.292  0.1729 -0.6904  0.1634
 6123SOL    HW130002   2.496   3.017   8.307  0.3190 -0.2116 -2.6740
 6123SOL    HW230003   2.463   2.886   8.238 -1.8090 -1.0752 -0.7365
 6124SOL     OW30004   1.751   4.718   5.309  0.4741  0.3736 -0.1479
 6124SOL    HW130005   1.753   4.731   5.404 -1.7262  0.1493 -0.0858
 6124SOL    HW230006   1.800   0.056   5.279  1.1706 -1.2079 -3.0777
 6125SOL     OW30007   3.288   3.877   8.491  0.1429  0.2836 -0.4317
 6125SOL    HW130008   3.271   3.873   8.397  0.3540 -3.5415 -0.3279
 6125SOL    HW230009   3.258   3.790   8.519  0.7088 -0.0206 -0.7570
 6126SOL     OW30010   3.525   2.729   2.375  0.0375 -0.5127 -0.4661
 6126SOL    HW130011   3.446   2.774   2.345  0.6201  1.2404  0.6403
 6126SOL    HW230012   3.490   2.699   2.459 -2.4494  1.0644 -0.9378
 6127SOL     OW30013   1.593   0.098   8.017  0.1049 -0.1638 -0.0659
 6127SOL    HW130014   1.560   0.137   8.097  0.5536  0.8226 -0.3648
 6127SOL    HW230015   1.536   0.134   7.949  1.2744  0.3958 -0.7714
 6128SOL     OW30016   1.513   4.221  14.874 -0.3354  0.1503 -0.2477
 6128SOL    HW130017   1.439   4.198  14.818 -0.3818 -1.8927  0.6593
 6128SOL    HW230018   1.480   4.300  14.917  2.0019 -0.3623  2.4351
 6129SOL     OW30019   0.398   2.045  15.327  0.1466 -0.2121 -0.4229
 6129SOL    HW130020   0.423   2.053  15.419  0.9851 -2.2316 -0.4829
 6129SOL    HW230021   0.308   2.078  15.328 -0.0609 -0.8094  0.2046
 6130SOL     OW30022   4.553   4.469   0.351 -0.1177 -0.1956  0.1639
 6130SOL    HW130023   4.500   4.415   0.292 -2.3242  1.0189  1.0149
 6130SOL    HW230024   4.615   4.508   0.289  0.0364 -0.0386  0.4176
 6131SOL     OW30025   4.526   0.290  10.203  0.0864  0.0932  0.1739
 6131SOL    HW130026   4.589   0.344  10.249  0.7003 -2.8514  2.7612
 6131SOL    HW230027   4.583   0.245  10.141  1.4984  1.6236  0.3600
 6132SOL     OW30028   1.981   1.991   3.727  0.4208 -0.0066  0.2177
 6132SOL    HW130029   1.964   1.957   3.638  4.5775  1.2906 -1.0745
 6132SOL    HW230030   2.070   2.026   3.727 -0.0262  1.1253 -0.6465
 6133SOL     OW30031   4.707   0.617   9.177 -0.1223 -0.6466  0.2706
 6133SOL    HW130032   0.043   0.560   9.198  1.7111  1.5533 -0.3500
 6133SOL    HW230033   0.005   0.703   9.196 -1.0903  0.3363 -2.3951
 6134SOL     OW30034   1.464   2.952   8.135  0.2412 -0.1770 -0.4712
 6134SOL    HW130035   1.551   2.990   8.141  0.3903 -0.9177  2.1884
 6134SOL    HW230036   1.411   3.025   8.103  1.4090  0.3469 -1.1833
 6135SOL     OW30037   0.359   0.517   4.176  0.3230 -0.5595  0.0940
 6135SOL    HW130038   0.389   0.456   4.108 -2.6792 -0.4915 -1.3345
 6135SOL    HW230039   0.436   0.548   4.222 -0.1467 -1.0946  1.2367
 6136SOL     OW30040   0.027   1.208   3.581  1.0142 -0.2770  0.8893
 6136SOL    HW130041   0.112   1.186   3.621  1.3324 -2.3480 -0.8693
 6136SOL    HW230042   0.011   1.293   3.620  1.2260  0.6904 -1.1487
 6137SOL     OW30043   0.010   1.653   4.487  0.0292  0.2359 -0.3407
 6137SOL    HW130044   4.657   1.625   4.485 -0.1872  0.9269 -0.2319
 6137SOL    HW230045   0.003   1.695   4.574  0.6371 -0.3559 -0.0107
 6138SOL     OW30046   1.342   1.981   9.318 -0.3320 -0.5363  0.2263
 6138SOL    HW130047   1.431   1.946   9.310  0.1309  0.9741 -1.1870
 6138SOL    HW230048   1.359   2.075   9.325 -1.8244 -0.3114  0.6694
 6139SOL     OW30049   3.220   1.204   6.453 -0.2092 -0.1222  0.3753
 6139SOL    HW130050   3.132   1.197   6.489 -1.0190  0.5652 -1.4758
 6139SOL    HW230051   3.230   1.114   6.422  0.1884 -0.5710  1.7598
 6140SOL     OW30052   0.962   1.994   0.717 -0.0440  0.4598  0.6227
 6140SOL    HW130053   0.981   2.072   0.666  1.7977  0.5765  1.4922
 6140SOL    HW230054   1.011   1.931   0.665  0.0542  1.1137 -0.0796
 6141SOL     OW30055   4.109   2.432   5.490  0.2680 -0.0317  0.3586
 6141SOL    HW130056   4.118   2.486   5.411  3.0551  0.4069  1.0043
 6141SOL    HW230057   4.046   2.486   5.537  0.9922  1.2818 -0.1703
 6142SOL     OW30058   1.353   0.031  16.585  0.0393 -0.2430  0.1476
 6142SOL    HW130059   1.366   0.126  16.585 -0.7512 -0.1350  0.7576
 6142SOL    HW230060   1.262   0.036  16.556 -0.2911 -0.5253  1.1325
 6143SOL     OW30061   1.612   3.702   9.623  0.0779  0.2352 -0.4270
 6143SOL    HW130062   1.669   3.654   9.683  1.3948  2.6296  0.2239
 6143SOL    HW230063   1.651   3.789   9.636 -1.0388  0.6567  0.1088
 6144SOL     OW30064   3.609   1.735   7.329 -0.0703 -0.1940  0.1000
 6144SOL    HW130065   3.574   1.803   7.386 -0.0017 -0.0239 -0.0590
 6144SOL    HW230066   3.563   1.770   7.252  2.0076  1.5026 -0.3527
 6145SOL     OW30067   3.296   0.376  17.416 -0.1072 -0.8080 -0.0792
 6145SOL    HW130068   3.226   0.377  17.351 -1.8661  1.9147  1.8620
 6145SOL    HW230069   3.362   0.333  17.362 -0.4413 -2.4927  0.8445
 6146SOL     OW30070   0.496   1.712   3.227 -0.5012  0.7155 -0.2908
 6146SOL    HW130071   0.432   1.674   3.288  1.2006  0.4107  1.2924
 6146SOL    HW230072   0.512   1.797   3.268 -1.2291  0.2178  1.0350
 6147SOL     OW30073   3.413   0.848   4.189  0.1261  0.2651  0.2779
 6147SOL    HW130074   3.414   0.896   4.272  2.7957  0.8369 -0.1041
 6147SOL    HW230075   3.480   0.781   4.201  1.1706  1.1020 -0.8443
 6148SOL     OW30076   0.375   4.737   7.571 -0.2951  0.3975  0.5082
 6148SOL    HW130077   0.468   0.010   7.592  0.1247  0.7525 -1.5280
 6148SOL    HW230078   0.381   4.721   7.477  1.6378 -0.0160  0.6986
 6149SOL     OW30079   1.927   3.196  11.220  0.4996 -0.2608 -0.2024
 6149SOL    HW130080   2.017   3.217  11.196  0.8642  0.9355  2.1888
 6149SOL    HW230081   1.878   3.206  11.137  2.2853 -1.0181 -1.3419
 6150SOL     OW30082   2.957   2.456  13.982  0.3712 -0.2344 -0.3829
 6150SOL    HW130083   2.919   2.531  14.028  0.8354  0.0295 -0.4353
 6150SOL    HW230084   3.047   2.484  13.972  0.4606 -1.3005 -2.6768
 6151SOL     OW30085   0.423   1.210   1.133 -0.1835  0.3234  0.3029
 6151SOL    HW130086   0.479   1.150   1.183  2.1109 -0.0462 -2.7571
 6151SOL    HW230087   0.336   1.180   1.158  0.4976 -1.1224  0.9175
 6152SOL     OW30088   2.104   4.265   3.970 -0.0432 -0.5951 -0.2831
 6152SOL    HW130089   2.165   4.315   4.024  0.1759  0.4749 -1.5249
 6152SOL    HW230090   2.018   4.289   4.004  1.4922  1.0621  2.3872
 6153SOL     OW30091   2.611   3.937  11.855  0.1941  0.2997 -0.3554
 6153SOL    HW130092   2.702   3.918  11.877  0.3226 -0.2688 -1.3895
 6153SOL    HW230093   2.572   3.881  11.923 -1.5318 -0.5245 -2.0139
 6154SOL     OW30094   1.396   0.124   2.817 -0.4693  0.3828  0.5033
 6154SOL    HW130095   1.381   0.096   2.908 -2.2780  1.9470  0.6977
 6154SOL    HW230096   1.489   0.103   2.818 -0.2208  1.4036 -2.0157
 6155SOL     OW30097   4.595   2.023  11.408  0.8019 -0.4695  0.1007
 6155SOL    HW130098   4.651   2.040  11.484  1.7478  0.8900 -0.9016
 6155SOL    HW230099   4.540   2.100  11.401 -0.4757 -1.3135  0.8477
 6156SOL     OW30100   3.177   4.710   6.227  0.2291 -0.0893 -0.5297
 6156SOL    HW130101   3.216   0.058   6.235  2.5569 -1.1392 -0.6003
 6156SOL    HW230102   3.095   4.733   6.184 -0.6013 -0.3321  0.9153
 6157SOL     OW30103   1.667   2.764   3.924  0.5333  0.3931  0.1778
 6157SOL    HW130104   1.739   2.707   3.898  1.7925  2.3993 -0.7135
 6157SOL    HW230105   1.608   2.703   3.969 -0.2750  1.5183  0.6695
 6158SOL     OW30106   0.549   4.515   3.829 -0.8807  0.1732  0.9875
 6158SOL    HW130107   0.479   4.530   3.893 -0.4738 -0.5834  1.6166
 6158SOL    HW230108   0.630   4.502   3.879 -1.1899 -0.3150  1.3552
 6159SOL     OW30109   3.785   1.652   5.799  0.1926 -0.5914  0.4142
 6159SOL    HW130110   3.808   1.731   5.750  2.4192 -1.4326  0.0770
 6159SOL    HW230111   3.723   1.604   5.744 -0.8017  2.8408 -1.4613
 6160SOL     OW30112   3.476   1.061   7.998  0.7381  0.0139 -0.2939
 6160SOL    HW130113   3.527   1.142   7.999 -2.9257  2.3228 -3.0012
 6160SOL    HW230114   3.431   1.076   8.081  1.7214 -2.0600  0.6022
 6161SOL     OW30115   1.526   4.377   1.969 -0.3419  0.1686  0.4164
 6161SOL    HW130116   1.492   4.297   2.007 -2.8875 -0.7270 -3.7022
 6161SOL    HW230117   1.446   4.425   1.947 -2.8771 -2.6904  3.5496
 6162SOL     OW30118   1.316   2.920  15.703  0.3388 -0.2246  0.6831
 6162SOL    HW130119   1.253   2.975  15.748  2.0713  1.8196  0.6329
 6162SOL    HW230120   1.347   2.868  15.778  0.4783  0.2733  0.9731
 6163SOL     OW30121   0.935   2.936   5.406  0.5041  0.0188  0.7586
 6163SOL    HW130122   0.867   2.992   5.368  0.3056 -1.9485 -1.7983
 6163SOL    HW230123   0.910   2.941   5.498 -4.3022  1.8879 -0.6442
 6164SOL     OW30124   0.149   2.990   3.754 -0.4449 -0.6364  0.3633
 6164SOL    HW130125   0.151   2.949   3.668  1.9194 -0.8862  0.5455
 6164SOL    HW230126   0.230   2.961   3.795 -0.8356 -0.5146  1.2165
 6165SOL     OW30127   0.324   1.688   4.857  0.3837  0.0612 -0.2154
 6165SOL    HW130128   0.394   1.739   4.817  0.0390 -1.4196 -2.6890
 6165SOL    HW230129   0.323   1.745   4.934 -0.4260  0.8901 -0.8235
 6166SOL     OW30130   3.739   2.030   9.949 -0.0845  0.2004  0.0193
 6166SOL    HW130131   3.788   2.055   9.871  0.9634  0.7371  0.8459
 6166SOL    HW230132   3.650   2.027   9.913 -0.0022 -0.0597 -0.1621
 6167SOL     OW30133   4.127   0.087   3.826 -0.6048  0.3368 -0.0478
 6167SOL    HW130134   4.112   0.172   3.784 -0.4801  0.1717 -0.4203
 6167SOL    HW230135   4.214   0.112   3.858 -0.3824 -0.7832  0.2139
 6168SOL     OW30136   0.413   1.297   2.716 -0.1140 -0.1361  0.0594
 6168SOL    HW130137   0.477   1.368   2.725  1.4916 -1.7018  1.0200
 6168SOL    HW230138   0.331   1.345   2.705 -1.1304 -1.3133  2.2732
 6169SOL     OW30139   0.771   1.994   1.801 -0.3478  0.2060  0.2356
 6169SOL    HW130140   0.867   1.999   1.803 -0.3446  0.1381  0.2351
 6169SOL    HW230141   0.751   1.932   1.871  1.0204 -0.2253  0.2510
 6170SOL     OW30142   2.277   0.259   4.827  0.7700 -0.4146  0.3163
 6170SOL    HW130143   2.237   0.186   4.780  1.4950  0.4327 -1.5920
 6170SOL    HW230144   2.241   0.238   4.914  0.6117 -0.2974  0.2800
 6171SOL     OW30145   4.594   1.800   3.470 -0.3189 -0.7715 -0.7428
 6171SOL    HW130146   4.653   1.850   3.526 -2.5591  3.0705 -1.8004
 6171SOL    HW230147   4.629   1.822   3.383 -2.6675 -1.8963 -1.9812
 6172SOL     OW30148   1.809   3.352   1.375 -0.1808 -0.5659  0.2193
 6172SOL    HW130149   1.805   3.390   1.288 -0.7001 -0.2032  0.3975
 6172SOL    HW230150   1.735   3.292   1.364 -0.7914 -0.0477  1.4643
 6173SOL     OW30151   3.125   3.247   8.535  0.2612  0.9833 -0.8456
 6173SOL    HW130152   3.165   3.242   8.622 -0.1343 -0.5699 -0.7398
 6173SOL    HW230153   3.076   3.164   8.533  2.6493 -0.4927  1.3225
 6174SOL     OW30154   2.443   3.834   1.759  0.0358  0.6519 -0.0868
 6174SOL    HW130155   2.501   3.773   1.714  0.2791 -0.0943  1.2344
 6174SOL    HW230156   2.370   3.846   1.698  0.2454 -0.5279 -0.5771
 6175SOL     OW30157   4.149   3.271   9.829  0.3253  0.2345  0.0630
 6175SOL    HW130158   4.217   3.298   9.891  0.5279 -1.6068  0.6466
 6175SOL    HW230159   4.187   3.310   9.750 -1.0270  1.1674 -0.1374
 6176SOL     OW30160   2.566   1.709  12.975  0.5418  0.6543 -0.7407
 6176SOL    HW130161   2.512   1.650  12.921  0.9075 -0.5600  0.2328
 6176SOL    HW230162   2.567   1.783  12.914  1.6328  1.7211  0.5754
 6177SOL     OW30163   2.357   1.543   6.987  0.5622  0.1102 -0.4643
 6177SOL    HW130164   2.321   1.513   6.904  2.6233  1.2942 -1.7805
 6177SOL    HW230165   2.320   1.630   6.981 -2.5932 -1.1732  0.3755
 6178SOL     OW30166   0.351   2.396   2.754 -0.0219 -0.4454 -0.2594
 6178SOL    HW130167   0.259   2.401   2.730  0.2811  2.6452 -0.8046
 6178SOL    HW230168   0.395   2.421   2.673  0.3754  2.0954  0.7439
 6179SOL     OW30169   1.872   2.756  17.672  0.2843  0.0509 -0.1934
 6179SOL    HW130170   1.780   2.734  17.659 -0.1185  1.4749  0.1578
 6179SOL    HW230171   1.913   2.672  17.688  0.4343  0.6701  2.6946
 6180SOL     OW30172   1.519   4.177  16.871 -0.0058 -0.2801  0.4912
 6180SOL    HW130173   1.520   4.084  16.845 -1.4623 -0.4890  1.2025
 6180SOL    HW230174   1.608   4.187  16.906  0.2092 -1.8175  0.4042
 6181SOL     OW30175   0.896   1.742   5.929 -0.4897  0.4484  0.1023
 6181SOL    HW130176   0.984   1.743   5.967  1.2413  1.9990 -4.0295
 6181SOL    HW230177   0.852   1.756   6.013  0.5063  1.5392  0.4395
 6182SOL     OW30178   1.804   0.587  11.641  0.4947  0.4604  0.0776
 6182SOL    HW130179   1.808   0.627  11.728  0.5290  1.2921 -0.3054
 6182SOL    HW230180   1.741   0.516  11.653 -2.4617  3.2361  1.0333
 6183SOL     OW30181   0.635   0.721  16.090 -0.4836  0.7753  0.4766
 6183SOL    HW130182   0.568   0.783  16.118  0.1150  0.6428  2.1888
 6183SOL    HW230183   0.604   0.642  16.136  0.2869  0.2985  0.1825
 6184SOL     OW30184   0.487   0.611   0.375 -0.3138 -0.1382 -0.1397
 6184SOL    HW130185   0.546   0.663   0.320 -1.6221  1.4993  0.0059
 6184SOL    HW230186   0.434   0.559   0.315  0.4011 -0.8458 -0.1506
 6185SOL     OW30187   1.197   3.508   7.688 -0.3105  0.2228 -0.4100
 6185SOL    HW130188   1.195   3.567   7.613  0.8906 -0.8844 -1.3238
 6185SOL    HW230189   1.274   3.458   7.660  1.0337  1.3132  1.4287
 6186SOL     OW30190   1.203   0.628   7.675 -0.0972 -0.4928 -0.1067
 6186SOL    HW130191   1.123   0.681   7.671 -0.1612 -0.5422  0.4246
 6186SOL    HW230192   1.172   0.537   7.675 -2.1995  0.2131  1.1476
 6187SOL     OW30193   3.906   0.075   7.052 -0.4985 -0.3444 -0.2959
 6187SOL    HW130194   3.845   0.025   6.998  0.5122 -1.1550 -0.6844
 6187SOL    HW230195   3.884   0.037   7.137 -1.0513  1.0915  0.2091
 6188SOL     OW30196   3.794   4.024  15.200  0.1351 -0.3616  0.1192
 6188SOL    HW130197   3.765   4.075  15.124  0.1335  0.9798  1.0215
 6188SOL    HW230198   3.771   4.085  15.271  2.5554  1.5972 -0.7713
 6189SOL     OW30199   4.389   4.388   2.288 -0.1504 -0.0697 -0.3619
 6189SOL    HW130200   4.417   4.299   2.264 -0.8421 -0.5952  0.7408
 6189SOL    HW230201   4.448   4.409   2.361  0.3059 -0.2890 -0.6663
 6190SOL     OW30202   3.207   2.097   5.460 -0.0802 -0.0960 -0.5797
 6190SOL    HW130203   3.301   2.083   5.458 -0.1347 -0.6037  0.5352
 6190SOL    HW230204   3.204   2.193   5.462 -0.3306 -0.0949 -0.9543
 6191SOL     OW30205   2.417   2.591   2.322  0.1797  0.4450  0.3141
 6191SOL    HW130206   2.399   2.653   2.251  0.3407  1.1471  0.8919
 6191SOL    HW230207   2.492   2.631   2.366  0.8822  0.3580 -0.7757
 6192SOL     OW30208   2.655   4.490   2.153  0.0821 -0.1337  0.0608
 6192SOL    HW130209   2.691   4.511   2.067 -1.2755 -0.3235 -0.5578
 6192SOL    HW230210   2.562   4.477   2.133 -0.6199  0.8689  2.6454
 6193SOL     OW30211   1.595   1.407   9.586 -0.1406  0.1974  0.0151
 6193SOL    HW130212   1.585   1.312   9.593  0.4384  0.1507  0.2149
 6193SOL    HW230213   1.546   1.428   9.507 -0.1464 -0.2372 -0.0944
 6194SOL     OW30214   0.748   3.254   5.767  0.3630 -0.2224 -0.0893
 6194SOL    HW130215   0.780   3.192   5.832  3.6955  0.6572 -0.8697
 6194SOL    HW230216   0.785   3.337   5.799 -0.4208  0.8262 -1.9182
 6195SOL     OW30217   0.350   4.381   9.586 -0.1205  0.3284  0.8273
 6195SOL    HW130218   0.418   4.314   9.577 -0.0607  0.5557 -0.5632
 6195SOL    HW230219   0.347   4.430   9.503  0.2590  0.4530  0.8832
 6196SOL     OW30220   2.119   2.521   0.841  0.2476  0.0618 -0.3071
 6196SOL    HW130221   2.085   2.606   0.817  0.5873 -0.5044 -2.8058
 6196SOL    HW230222   2.040   2.485   0.881  0.2148  0.8312  0.3065
 6197SOL     OW30223   0.330   2.492   2.103  0.1995 -0.4009  0.2579
 6197SOL    HW130224   0.391   2.523   2.170 -0.2412 -1.1702  1.0172
 6197SOL    HW230225   0.398   2.469   2.039 -1.9418 -0.5033 -2.0103
 6198SOL     OW30226   4.173   0.337   4.588 -0.0802 -0.2150  0.0882
 6198SOL    HW130227   4.136   0.292   4.663  1.4163  0.9896  1.5394
 6198SOL    HW230228   4.109   0.305   4.524 -0.1975  0.6200 -0.2128
 6199SOL     OW30229   4.738   0.747  15.312 -0.1285 -0.0651 -0.1161
 6199SOL    HW130230   0.065   0.747  15.382 -0.2937 -1.7850  0.0455
 6199SOL    HW230231   0.057   0.751  15.235 -0.9777  1.7411 -0.6628
 6200SOL     OW30232   0.749   1.613   6.804  0.1872 -0.3803  0.2762
 6200SOL    HW130233   0.840   1.637   6.819  0.0197  0.9458 -0.8458
 6200SOL    HW230234   0.747   1.582   6.714 -1.2880  0.0405  0.1584
 6201SOL     OW30235   3.410   0.778  13.331  0.3684 -0.1447 -0.0105
 6201SOL    HW130236   3.319   0.748  13.327  0.7432 -1.1959 -0.6148
 6201SOL    HW230237   3.395   0.866  13.365 -0.5534 -1.6017  3.3479
 6202SOL     OW30238   3.191   0.389  12.314  0.5750 -0.2527  0.0825
 6202SOL    HW130239   3.276   0.431  12.328  0.3792  0.3417 -0.4634
 6202SOL    HW230240   3.177   0.344  12.397  1.2811  1.2896  1.0340
 6203SOL     OW30241   0.356   3.481  10.169 -0.4880  0.4189 -0.0918
 6203SOL    HW130242   0.433   3.475  10.112 -1.3777 -0.0931 -1.2422
 6203SOL    HW230243   0.403   3.511  10.246  1.1464  0.1792 -1.0044
 6204SOL     OW30244   4.009   4.213   8.679  0.0180  0.3737 -0.2045
 6204SOL    HW130245   3.940   4.245   8.622  0.5789  0.7045 -0.6940
 6204SOL    HW230246   4.083   4.189   8.623 -1.2770  0.3774 -1.8876
 6205SOL     OW30247   2.321   3.038   8.767 -0.1594  0.0107  0.4712
 6205SOL    HW130248   2.405   3.082   8.782 -1.3982  2.2464  0.8563
 6205SOL    HW230249   2.351   2.996   8.687  2.9651 -1.0175  2.1385
 6206SOL     OW30250   1.532   3.309  12.384 -0.0567  0.0813  0.2803
 6206SOL    HW130251   1.535   3.218  12.414  0.2727  0.7589  2.3029
 6206SOL    HW230252   1.504   3.297  12.294 -0.2479 -1.7355  0.5886
 6207SOL     OW30253   3.546   3.560  15.333 -0.2896  0.1288 -0.0415
 6207SOL    HW130254   3.593   3.563  15.250 -1.4080  0.4092 -0.6674
 6207SOL    HW230255   3.582   3.483  15.378  0.9568  0.4716 -0.4880
 6208SOL     OW30256   3.267   3.717   2.656 -0.3110 -0.4442  0.1861
 6208SOL    HW130257   3.292   3.775   2.728 -0.5119  2.4635 -2.0692
 6208SOL    HW230258   3.299   3.634   2.690 -2.4087 -1.4940 -0.3519
 6209SOL     OW30259   2.519   0.215   2.321  0.4722 -0.6894 -0.3754
 6209SOL    HW130260   2.427   0.187   2.325  0.3194 -0.2520 -0.9047
 6209SOL    HW230261   2.546   0.211   2.413 -0.0442  2.5890 -0.0889
 6210SOL     OW30262   1.178   2.304   4.805  0.8152 -0.7452  0.1658
 6210SOL    HW130263   1.143   2.353   4.731  1.6224  0.5488  0.6398
 6210SOL    HW230264   1.223   2.231   4.763  1.9701  1.0443 -1.7285
 6211SOL     OW30265   3.683   4.141   5.626  0.0063 -0.1427 -0.3704
 6211SOL    HW130266   3.606   4.165   5.574 -1.4952 -1.9228  1.0460
 6211SOL    HW230267   3.703   4.067   5.568  1.2270  0.7903 -1.1456
 6212SOL     OW30268   4.731   2.064   6.013  0.0641  0.1716  0.5903
 6212SOL    HW130269   4.682   1.993   6.056  0.0010  0.5716  1.1790
 6212SOL    HW230270   0.075   2.025   5.985  1.3801  4.6971 -1.8171
 6213SOL     OW30271   3.543   2.572  17.000 -0.1360  0.7837 -0.0768
 6213SOL    HW130272   3.611   2.593  16.935  0.8201 -0.0477  0.6458
 6213SOL    HW230273   3.574   2.633  17.066 -1.0069  0.5444  0.5474
 6214SOL     OW30274   1.499   2.120  17.282 -0.1482  0.0958 -0.3119
 6214SOL    HW130275   1.428   2.108  17.218  0.0466 -0.7170 -0.3733
 6214SOL    HW230276   1.496   2.211  17.313  1.5009  0.7866 -2.1588
 6215SOL     OW30277   1.173   1.825   0.919  0.3628  0.0529 -0.0552
 6215SOL    HW130278   1.251   1.841   0.972  1.4190  0.6027 -1.7888
 6215SOL    HW230279   1.207   1.789   0.837 -1.7994 -1.1175 -0.4292
 6216SOL     OW30280   4.490   3.739   2.544  0.3802 -0.1566  0.0716
 6216SOL    HW130281   4.554   3.674   2.516  0.6597  0.3751 -0.5377
 6216SOL    HW230282   4.403   3.698   2.544  0.0973  0.4376  0.7294
 6217SOL     OW30283   4.574   0.928   8.649  0.4212 -0.2504 -0.3387
 6217SOL    HW130284   4.500   0.972   8.691  2.1208  3.4799 -1.3029
 6217SOL    HW230285   4.610   0.887   8.728  1.5876  3.3473  0.9977
 6218SOL     OW30286   4.343   4.071   6.739 -0.2242 -0.5850  0.2556
 6218SOL    HW130287   4.371   3.981   6.758  0.2932 -0.4478  0.1573
 6218SOL    HW230288   4.422   4.103   6.695 -0.5500 -0.3168 -0.1362
 6219SOL     OW30289   1.292   0.928   7.896  0.0347  0.0088  0.3016
 6219SOL    HW130290   1.310   1.017   7.865  0.5287  0.1421  0.9718
 6219SOL    HW230291   1.197   0.934   7.887  0.2145  1.6520 -0.5839
 6220SOL     OW30292   4.569   0.554   6.638 -0.0163 -0.2014  0.0247
 6220SOL    HW130293   4.501   0.551   6.705  0.7668 -1.4896  0.7873
 6220SOL    HW230294   4.570   0.647   6.617 -1.0212  0.1739  1.6292
 6221SOL     OW30295   4.130   2.488   3.618 -0.4249 -0.1736 -0.6304
 6221SOL    HW130296   4.054   2.501   3.676 -0.4104  1.9632 -1.0841
 6221SOL    HW230297   4.195   2.533   3.672  0.1958 -0.4827 -1.1293
 6222SOL     OW30298   4.700   2.729  15.542  0.5549  0.3252  0.2419
 6222SOL    HW130299   4.652   2.751  15.623  0.3181  0.8976 -0.0532
 6222SOL    HW230300   4.658   2.783  15.475 -0.8026 -1.2176 -0.1512
 6223SOL     OW30301   3.728   2.022   9.031 -0.4209 -0.7236 -0.1909
 6223SOL    HW130302   3.732   2.100   8.976  1.9476 -2.2317 -2.1346
 6223SOL    HW230303   3.746   2.057   9.118 -0.3849  1.4745 -1.0837
 6224SOL     OW30304   4.525   3.586   5.687  0.1507 -0.2217  0.1601
 6224SOL    HW130305   4.554   3.626   5.769 -0.6546 -0.6651  0.6658
 6224SOL    HW230306   4.613   3.585   5.651 -0.2344  1.2630 -0.8378
 6225SOL     OW30307   3.035   1.908  10.122  0.2062 -0.4997 -0.3074
 6225SOL    HW130308   3.088   1.831  10.143 -0.1615 -0.8696 -0.7351
 6225SOL    HW230309   2.989   1.936  10.201  1.9459 -0.6412  0.7645
 6226SOL     OW30310   2.576   2.341   6.975  0.3206  0.0279  0.4461
 6226SOL    HW130311   2.610   2.257   7.003  1.9426 -0.0547 -1.7423
 6226SOL    HW230312   2.484   2.332   6.999  1.2540 -2.0418  3.1858
 6227SOL     OW30313   4.735   3.533   2.840 -0.2880 -0.8215  0.5630
 6227SOL    HW130314   0.073   3.568   2.795 -0.0025 -2.3503 -0.1456
 6227SOL    HW230315   4.720   3.598   2.909  1.6792 -1.0891  1.2398
 6228SOL     OW30316   1.033   1.278   7.911 -0.5151 -0.4273 -0.5903
 6228SOL    HW130317   0.993   1.361   7.886 -0.0356  0.2190  0.7909
 6228SOL    HW230318   1.072   1.257   7.826 -0.5630 -0.1396 -0.6821
 6229SOL     OW30319   0.709   2.492  11.828  0.1346 -0.3939  0.1474
 6229SOL    HW130320   0.795   2.526  11.804 -1.0600  0.9895 -2.2255
 6229SOL    HW230321   0.650   2.538  11.768 -0.3313 -0.8665  0.2468
 6230SOL     OW30322   4.001   1.364   3.975 -0.2224 -0.6953  0.6944
 6230SOL    HW130323   4.040   1.362   4.062  0.1560 -1.9737  0.4841
 6230SOL    HW230324   4.028   1.451   3.944  1.4339 -0.9044  1.5643
 6231SOL     OW30325   0.868   4.464   7.751  0.3379  0.2481  0.5129
 6231SOL    HW130326   0.787   4.415   7.736  0.9362  0.0362 -2.0359
 6231SOL    HW230327   0.929   4.408   7.704 -1.9155 -1.2160 -0.6932
 6232SOL     OW30328   2.235   1.920   5.305  0.0092 -0.1256  0.2598
 6232SOL    HW130329   2.166   1.878   5.254  0.2429 -1.9788  1.4445
 6232SOL    HW230330   2.230   2.010   5.274 -1.5707 -0.1402  0.4695
 6233SOL     OW30331   3.471   2.789  15.689 -0.4528 -0.6164  0.0906
 6233SOL    HW130332   3.418   2.867  15.673 -1.6612 -1.2840  0.7671
 6233SOL    HW230333   3.448   2.728  15.619 -0.2118 -0.3112 -0.2496
 6234SOL     OW30334   4.669   2.671  15.967 -0.5803 -0.1810 -0.4076
 6234SOL    HW130335   4.642   2.760  15.989 -1.0057  0.0195 -1.7170
 6234SOL    HW230336   4.638   2.668  15.876  0.2786  2.9191 -0.8091
 6235SOL     OW30337   1.311   1.735   9.202 -0.5344  0.2339  0.3233
 6235SOL    HW130338   1.329   1.812   9.256  0.9819  0.1292 -0.0396
 6235SOL    HW230339   1.376   1.750   9.134 -1.2847 -0.6026 -0.5854
 6236SOL     OW30340   2.066   0.803  10.155  0.1530  0.0737 -0.0831
 6236SOL    HW130341   2.114   0.879  10.122 -0.8375  0.7596  0.0764
 6236SOL    HW230342   2.131   0.776  10.220 -0.4427  0.4414  0.6646
 6237SOL     OW30343   4.531   2.627  14.710 -0.3310 -0.7062 -0.5635
 6237SOL    HW130344   4.620   2.662  14.705 -0.6703  0.1002 -0.9518
 6237SOL    HW230345   4.536   2.600  14.802  0.2380 -1.2047 -0.7429
 6238SOL     OW30346   3.993   0.898   8.531  0.0720 -0.1092  0.0746
 6238SOL    HW130347   4.020   0.937   8.614 -2.4003  1.0908  0.3066
 6238SOL    HW230348   3.899   0.917   8.531 -0.5013 -2.8988  0.9733
 6239SOL     OW30349   3.544   4.201  10.374  0.5066 -0.0935 -0.0152
 6239SOL    HW130350   3.546   4.283  10.323  0.0249 -0.1005 -0.0456
 6239SOL    HW230351   3.630   4.165  10.358  0.3595 -0.8120  0.8516
 6240SOL     OW30352   4.038   3.197   7.067 -0.7654  0.7322  0.4423
 6240SOL    HW130353   4.042   3.282   7.110 -0.4083  0.4845  0.9000
 6240SOL    HW230354   3.946   3.188   7.043  0.5047 -1.5837 -3.5353
 6241SOL     OW30355   2.688   0.954   9.154 -0.0707  0.0893 -0.0460
 6241SOL    HW130356   2.766   0.935   9.207 -0.2697  0.7159  0.4787
 6241SOL    HW230357   2.648   0.867   9.156  0.9126 -0.3202  2.2707
 6242SOL     OW30358   2.535   1.125  10.922 -0.1273  0.3500  0.2215
 6242SOL    HW130359   2.595   1.056  10.890 -2.2303 -0.3897 -2.1566
 6242SOL    HW230360   2.467   1.080  10.972 -0.3552  0.8769  0.3882
 6243SOL     OW30361   0.803   1.231  13.620  0.4576  0.1078  0.0307
 6243SOL    HW130362   0.800   1.275  13.535 -1.5039  1.0878  0.6305
 6243SOL    HW230363   0.889   1.256  13.652  0.0782  0.7674  0.5198
 6244SOL     OW30364   4.079   3.167   8.108  0.4650  0.0855 -0.4499
 6244SOL    HW130365   4.046   3.119   8.032  3.1856 -1.6270 -0.5395
 6244SOL    HW230366   4.124   3.236   8.059 -0.2978  0.3367 -0.8021
 6245SOL     OW30367   1.387   0.164  10.305 -0.5194  0.3242  0.2163
 6245SOL    HW130368   1.386   0.258  10.283  0.2567  0.5752  1.2495
 6245SOL    HW230369   1.468   0.158  10.357 -1.0991  0.7903  1.1742
 6246SOL     OW30370   3.826   2.860   2.350  0.0997  0.3691  0.3195
 6246SOL    HW130371   3.775   2.790   2.309  2.0569  1.8718 -4.6925
 6246SOL    HW230372   3.776   2.896   2.423 -2.2869  1.5473 -1.8832
 6247SOL     OW30373   0.135   2.815   5.340  0.0857 -0.4087  0.0082
 6247SOL    HW130374   0.089   2.786   5.262 -0.0558 -0.8822  0.2700
 6247SOL    HW230375   0.157   2.737   5.390  0.4012  0.9814  2.0374
 6248SOL     OW30376   2.315   2.096   3.986 -0.0059 -0.7072  0.2097
 6248SOL    HW130377   2.247   2.031   4.005  0.0479 -0.7785  0.1617
 6248SOL    HW230378   2.362   2.068   3.908  0.1441 -1.8704  0.7041
 6249SOL     OW30379   0.432   0.368  17.673 -0.1689 -0.0374  0.3597
 6249SOL    HW130380   0.469   0.279  17.674  0.3131  0.1653  0.4255
 6249SOL    HW230381   0.410   0.380   0.013 -0.9651 -2.0135  0.4306
 6250SOL     OW30382   2.857   3.459   5.041  0.1241 -0.3870  0.3034
 6250SOL    HW130383   2.910   3.525   4.996  1.1618 -0.4742  1.3932
 6250SOL    HW230384   2.807   3.422   4.967 -1.4589 -0.5685  1.4735
 6251SOL     OW30385   4.425   0.676   7.707 -1.1004 -0.0376 -0.2258
 6251SOL    HW130386   4.376   0.751   7.741 -2.4233 -1.1377  0.3095
 6251SOL    HW230387   4.390   0.687   7.619  0.4638  1.4279 -0.6552
 6252SOL     OW30388   2.308   1.785  10.434  0.2655 -0.3376 -0.2945
 6252SOL    HW130389   2.324   1.827  10.518 -0.3848  1.0551 -0.8661
 6252SOL    HW230390   2.238   1.727  10.465  0.3797  0.5412  1.5846
 6253SOL     OW30391   3.381   1.518   9.127  0.2353  0.6803 -0.0072
 6253SOL    HW130392   3.320   1.592   9.115 -0.0975  0.5743  1.0331
 6253SOL    HW230393   3.455   1.558   9.172  1.7465 -0.6523 -1.3103
 6254SOL     OW30394   1.220   0.757   1.712 -0.3139 -0.0902 -0.0468
 6254SOL    HW130395   1.139   0.725   1.753  0.3360 -1.0750  0.4688
 6254SOL    HW230396   1.251   0.828   1.769 -1.5440 -0.3492  0.9504
 6255SOL     OW30397   1.922   0.485   8.681  0.2461 -0.9914 -0.6154
 6255SOL    HW130398   1.954   0.464   8.594  1.1665  0.8128 -0.7119
 6255SOL    HW230399   1.836   0.444   8.683  0.1962 -0.8932 -0.7531
 6256SOL     OW30400   4.050   4.551  17.168 -0.1133 -0.0347 -0.2991
 6256SOL    HW130401   4.074   4.459  17.167  3.4423  0.9180 -2.1055
 6256SOL    HW230402   4.121   4.578  17.110 -0.3654 -0.2612 -0.7193
 6257SOL     OW30403   0.736   2.195   7.078  0.6140  0.0693 -0.0259
 6257SOL    HW130404   0.671   2.243   7.029  0.2330 -1.3468 -0.9102
 6257SOL    HW230405   0.713   2.107   7.048 -1.3703  1.0402 -1.3056
 6258SOL     OW30406   4.247   2.542   8.141 -0.1918 -0.2070  0.2199
 6258SOL    HW130407   4.167   2.595   8.142 -1.1628 -1.6879  1.7176
 6258SOL    HW230408   4.205   2.473   8.088  0.7021 -1.8045  1.5930
 6259SOL     OW30409   3.952   2.276   6.819 -0.2930  0.2475 -0.6170
 6259SOL    HW130410   3.898   2.326   6.880  0.7361 -0.2800  0.7219
 6259SOL    HW230411   3.940   2.334   6.744  2.3217  2.0388  0.3628
 6260SOL     OW30412   4.067   3.154   3.757  0.9371  0.2375  0.7159
 6260SOL    HW130413   4.121   3.076   3.771  3.0583  1.6133  0.1643
 6260SOL    HW230414   4.103   3.221   3.814  2.0910 -0.2173  0.5270
 6261SOL     OW30415   1.003   0.170   4.951  0.8226  0.4892  0.5208
 6261SOL    HW130416   0.977   0.156   5.042 -0.0190 -1.9874 -0.0704
 6261SOL    HW230417   0.939   0.124   4.896  1.9305  1.0552 -1.2593
 6262SOL     OW30418   1.590   2.379  13.430 -0.5441 -0.1971  0.0204
 6262SOL    HW130419   1.675   2.394  13.471  0.2380  0.0357 -1.7052
 6262SOL    HW230420   1.568   2.299  13.478 -0.6659 -0.2799 -0.1730
 6263SOL     OW30421   3.876   4.722   5.921  0.7659  0.1970  0.4142
 6263SOL    HW130422   3.839   4.634   5.926  1.3584  0.0427  2.0000
 6263SOL    HW230423   3.811   0.012   5.857  2.0705  3.0543  0.4005
 6264SOL     OW30424   1.405   3.211   5.075 -0.2683  0.5973  0.7179
 6264SOL    HW130425   1.498   3.196   5.058 -0.6290 -0.6308 -0.1408
 6264SOL    HW230426   1.396   3.306   5.082  0.2422  0.7930 -1.4434
 6265SOL     OW30427   4.372   2.358  12.400 -0.5923 -0.4741 -0.2910
 6265SOL    HW130428   4.363   2.348  12.305 -0.8931  0.1923 -0.3306
 6265SOL    HW230429   4.460   2.395  12.405 -1.0005  0.5627 -0.6815
 6266SOL     OW30430   1.023   2.929   6.938  0.3165  0.6692 -0.3353
 6266SOL    HW130431   1.099   2.969   6.896  2.1358 -2.1247  0.3088
 6266SOL    HW230432   0.965   2.942   6.863 -0.7145 -0.9413  0.1887
 6267SOL     OW30433   4.642   1.215  11.133  0.3254 -0.3464 -0.2058
 6267SOL    HW130434   4.636   1.134  11.083 -2.4829  0.7440 -1.5950
 6267SOL    HW230435   4.735   1.228  11.152  0.3167  0.2819 -0.6014
 6268SOL     OW30436   4.108   3.569   9.012 -0.1269  0.2222  0.0794
 6268SOL    HW130437   4.082   3.655   9.044  1.5920  0.0610  1.9565
 6268SOL    HW230438   4.020   3.534   8.996 -1.3199  3.0186  0.6049
 6269SOL     OW30439   4.668   1.809   3.190 -0.7235 -0.2171 -0.1745
 6269SOL    HW130440   4.631   1.855   3.114 -0.6724 -0.6053 -0.4334
 6269SOL    HW230441   4.675   1.721   3.153  2.6543  0.9154 -2.2508
 6270SOL     OW30442   3.357   3.225   6.912  0.0152  0.1145  0.0309
 6270SOL    HW130443   3.396   3.308   6.884  1.4575 -1.6859 -3.3356
 6270SOL    HW230444   3.280   3.222   6.855 -0.1566 -0.0536  0.2721
 6271SOL     OW30445   2.418   3.458   3.494  0.2691  0.0796  0.5583
 6271SOL    HW130446   2.454   3.545   3.510  1.7876 -0.7965  1.8758
 6271SOL    HW230447   2.461   3.439   3.410  0.1261 -1.7152  0.9006
 6272SOL     OW30448   1.842   1.189   9.240  0.3452  0.2315 -0.3124
 6272SOL    HW130449   1.856   1.103   9.201 -1.2236 -0.5334  0.8273
 6272SOL    HW230450   1.746   1.189   9.245  0.4742 -0.4992  2.0892
 6273SOL     OW30451   4.029   3.455   7.137 -0.0805 -0.4138  0.0086
 6273SOL    HW130452   3.934   3.457   7.151  0.0407  0.3531  0.7207
 6273SOL    HW230453   4.039   3.503   7.055 -0.6415 -1.5942 -0.7487
 6274SOL     OW30454   0.925   1.819   6.725  0.0861 -0.0729 -0.0803
 6274SOL    HW130455   1.012   1.837   6.759 -0.1738  0.9982 -0.0019
 6274SOL    HW230456   0.954   1.781   6.643  1.5369  2.2262 -0.5943
 6275SOL     OW30457   1.929   2.044  17.601  0.1343  0.1957 -0.3234
 6275SOL    HW130458   2.006   2.056  17.544 -0.8343  1.9366 -1.2992
 6275SOL    HW230459   1.858   2.027  17.540 -2.0133 -0.5534  2.4098
 6276SOL     OW30460   4.357   1.917   3.372 -0.0988  0.3454  0.7077
 6276SOL    HW130461   4.397   1.994   3.331 -0.4034 -0.2753 -0.7300
 6276SOL    HW230462   4.431   1.865   3.402 -1.0829 -0.2264  2.1388
 6277SOL     OW30463   1.263   2.059   2.369 -0.1004  0.0673 -0.0775
 6277SOL    HW130464   1.280   2.143   2.328  0.5209  0.2231  0.4950
 6277SOL    HW230465   1.247   2.087   2.459 -1.6379 -2.5074  0.4542
 6278SOL     OW30466   0.345   3.268   7.366 -0.3120  0.3916  0.2376
 6278SOL    HW130467   0.415   3.224   7.415  1.1073  2.0153 -0.3196
 6278SOL    HW230468   0.296   3.287   7.446 -1.7275  1.1997 -0.8319
 6279SOL     OW30469   1.535   0.866  15.597 -0.2725 -0.3695 -0.0092
 6279SOL    HW130470   1.554   0.772  15.600 -0.2100 -0.3611 -0.1439
 6279SOL    HW230471   1.603   0.884  15.662 -0.1614 -0.8432  0.0095
 6280SOL     OW30472   0.021   4.588  15.879  0.1567 -0.0518 -0.6976
 6280SOL    HW130473   0.061   4.651  15.819  2.6314  0.0768  1.0766
 6280SOL    HW230474   4.688   4.558  15.823 -1.4733 -0.2507  1.4998
 6281SOL     OW30475   4.105   1.150   4.802 -0.1215  0.1015 -0.7958
 6281SOL    HW130476   4.115   1.241   4.830 -0.8785  0.0424 -0.3311
 6281SOL    HW230477   4.093   1.106   4.887  3.5091 -0.5235 -0.5775
 6282SOL     OW30478   1.975   2.345   4.715 -0.2000  0.5757 -0.2277
 6282SOL    HW130479   2.034   2.328   4.789 -0.2326  2.5640  0.2428
 6282SOL    HW230480   1.895   2.337   4.767  0.6707 -1.1835  0.8493
 6283SOL     OW30481   2.316   2.089   5.912  0.1730 -0.1074 -0.1062
 6283SOL    HW130482   2.343   2.124   5.997 -1.5996 -0.0026  0.4086
 6283SOL    HW230483   2.295   1.996   5.924  0.2508  0.0356  1.1996
 6284SOL     OW30484   2.791   1.109   7.227 -0.2717 -0.2647  0.2043
 6284SOL    HW130485   2.882   1.139   7.228 -0.5130  0.5148 -1.0628
 6284SOL    HW230486   2.800   1.034   7.285 -0.7552 -0.3702  0.1446
 6285SOL     OW30487   0.160   0.866   9.890  0.2897  0.0653 -0.7676
 6285SOL    HW130488   0.129   0.956   9.902 -0.4335 -0.2040 -0.5951
 6285SOL    HW230489   0.253   0.866   9.910  0.2009  2.5221 -0.3693
 6286SOL     OW30490   3.010   3.055  15.188  0.2553 -0.6313 -0.3125
 6286SOL    HW130491   2.975   3.142  15.207 -1.4114 -1.3877  0.0943
 6286SOL    HW230492   3.018   3.020  15.277  0.4716 -1.9848 -0.8570
 6287SOL     OW30493   0.530   4.617   3.564  0.3558  0.0301 -0.0762
 6287SOL    HW130494   0.542   4.712   3.557 -0.6377  0.0387 -1.7537
 6287SOL    HW230495   0.533   4.599   3.658  2.1430  0.3378 -0.0850
 6288SOL     OW30496   0.463   2.435  14.342  0.1283 -0.7118 -0.0502
 6288SOL    HW130497   0.457   2.441  14.437 -3.7156 -0.2612 -0.3010
 6288SOL    HW230498   0.393   2.373  14.320  0.2572 -0.7902 -0.2358
 6289SOL     OW30499   0.234   0.255  12.254  0.5759  0.9246 -0.3477
 6289SOL    HW130500   0.239   0.343  12.218  0.7883  0.3831 -1.6488
 6289SOL    HW230501   0.289   0.217  12.186 -0.3483  1.4254 -1.3718
 6290SOL     OW30502   2.789   4.045  11.407 -0.7488  0.3213 -0.3421
 6290SOL    HW130503   2.727   4.111  11.436  0.6696  0.7081  1.8556
 6290SOL    HW230504   2.796   3.993  11.487 -0.7140 -1.6627 -1.6282
 6291SOL     OW30505   2.466   0.125   2.028 -0.6677  0.3009  0.5662
 6291SOL    HW130506   2.526   0.168   2.088 -0.0474  0.6442 -0.2961
 6291SOL    HW230507   2.416   0.058   2.075 -2.3679 -0.2617 -1.9837
 6292SOL     OW30508   1.962   0.852   5.594 -0.2087 -0.4109 -0.6976
 6292SOL    HW130509   2.019   0.864   5.670 -1.7184 -0.1793  0.3949
 6292SOL    HW230510   1.953   0.757   5.590  1.3445 -0.5752 -0.4850
 6293SOL     OW30511   2.749   4.100   2.541 -0.0407  0.9868  0.4974
 6293SOL    HW130512   2.803   4.179   2.527  0.8718  0.0253 -1.4504
 6293SOL    HW230513   2.676   4.115   2.481  0.4098  0.4913 -0.1674
 6294SOL     OW30514   1.799   1.173   7.697  0.1284 -0.1583 -0.2238
 6294SOL    HW130515   1.776   1.117   7.623 -1.4931  0.6197 -0.2931
 6294SOL    HW230516   1.712   1.213   7.701 -0.4843 -1.5492  0.5477
 6295SOL     OW30517   4.637   1.681  10.991 -0.0829  0.4982 -0.2760
 6295SOL    HW130518   4.655   1.738  10.916 -0.9586  0.6814 -0.3482
 6295SOL    HW230519   4.609   1.746  11.056 -1.0487  1.3484 -1.5455
 6296SOL     OW30520   2.056   3.663   2.331  0.1916  0.8657  0.3280
 6296SOL    HW130521   2.108   3.741   2.352 -0.6904  1.0657  1.7904
 6296SOL    HW230522   1.977   3.693   2.375  0.0619  0.5166  0.3303
 6297SOL     OW30523   2.123   4.698   8.569  0.1034 -0.2745  0.5393
 6297SOL    HW130524   2.213   4.728   8.558 -0.4518  1.2556  0.2625
 6297SOL    HW230525   2.123   4.637   8.643 -3.0882 -1.2021 -0.2161
 6298SOL     OW30526   0.717   3.742  15.479  0.1047  0.3233  0.2458
 6298SOL    HW130527   0.656   3.792  15.533 -2.6451 -2.4200 -0.3539
 6298SOL    HW230528   0.667   3.667  15.450 -0.9653  1.1576 -0.0512
 6299SOL     OW30529   2.290   3.500   1.517 -0.1701  0.4004 -0.3759
 6299SOL    HW130530   2.286   3.518   1.611 -0.1629 -1.2718 -0.0523
 6299SOL    HW230531   2.197   3.478   1.507 -0.6525  1.7779  1.1179
 6300SOL     OW30532   1.679   2.543  13.745  0.0398 -0.2458  0.5788
 6300SOL    HW130533   1.693   2.506  13.832 -1.2319 -0.3906  0.7237
 6300SOL    HW230534   1.728   2.481  13.691  0.0255 -1.3338  1.8077
 6301SOL     OW30535   3.838   4.244  14.095  0.6062  0.0105  0.3381
 6301SOL    HW130536   3.927   4.269  14.069  0.4344  1.6118  1.2665
 6301SOL    HW230537   3.786   4.322  14.072  0.1442 -0.2906  0.3697
 6302SOL     OW30538   3.872   1.888   8.831 -0.2437 -0.1381 -0.3821
 6302SOL    HW130539   3.939   1.871   8.897 -2.7475 -3.0652  1.4083
 6302SOL    HW230540   3.804   1.918   8.892  0.8932  2.6422 -0.5041
 6303SOL     OW30541   1.466   4.217  13.306 -0.2213  0.1330  0.5063
 6303SOL    HW130542   1.469   4.289  13.368  1.9296  0.0259  0.4959
 6303SOL    HW230543   1.403   4.256  13.245 -1.2140 -0.2029  1.3162
 6304SOL     OW30544   1.465   2.504   3.618 -0.2189  0.3765 -0.8388
 6304SOL    HW130545   1.452   2.598   3.630  0.7429  0.3141  0.6867
 6304SOL    HW230546   1.413   2.488   3.697 -0.3819  0.5462 -0.9093
 6305SOL     OW30547   4.045   2.093  15.902 -0.0214  0.7286  0.4401
 6305SOL    HW130548   4.137   2.072  15.885 -0.2106  0.3733 -0.1294
 6305SOL    HW230549   4.049   2.186  15.881  0.2930  0.7377  0.5312
 6306SOL     OW30550   3.396   3.985   7.948 -0.0379 -0.1942  0.3008
 6306SOL    HW130551   3.400   3.895   7.980 -0.0501 -0.7378 -1.2252
 6306SOL    HW230552   3.311   4.004   7.987  0.3364  0.0214  1.0076
 6307SOL     OW30553   2.303   2.378   6.953 -0.6135 -0.2618  0.5639
 6307SOL    HW130554   2.251   2.452   6.986  0.2179  0.2325  0.7829
 6307SOL    HW230555   2.239   2.308   6.951 -2.7802  1.6728  1.4711
 6308SOL     OW30556   0.373   3.660   9.245  0.1026 -0.2083  0.1690
 6308SOL    HW130557   0.349   3.704   9.327  0.4178  1.7668 -0.7868
 6308SOL    HW230558   0.300   3.685   9.187 -1.3128 -2.5368  0.9655
 6309SOL     OW30559   1.181   1.872  17.690  0.2111  0.3518 -0.4941
 6309SOL    HW130560   1.092   1.888  17.658 -0.2590  0.5917  0.9425
 6309SOL    HW230561   1.234   1.895  17.613  1.4602 -0.4051  0.1591
 6310SOL     OW30562   2.227   0.927   6.267  0.3066  0.3939  0.3851
 6310SOL    HW130563   2.312   0.966   6.250  0.3425  0.5100  0.8462
 6310SOL    HW230564   2.175   1.001   6.236  0.8946  0.6244 -0.0381
 6311SOL     OW30565   0.684   1.993  11.972  0.3657  0.6123  0.6438
 6311SOL    HW130566   0.738   2.072  11.967  0.6385  0.2965 -1.3950
 6311SOL    HW230567   0.605   2.035  12.006 -1.3146 -0.3756 -2.0297
 6312SOL     OW30568   1.124   0.864   6.316  0.2185  0.2329  0.5779
 6312SOL    HW130569   1.048   0.826   6.360 -0.3416  0.1850 -0.4133
 6312SOL    HW230570   1.195   0.816   6.359  0.5580  0.3755  0.1792
 6313SOL     OW30571   0.707   4.114   6.525  0.3511  0.0521  0.0266
 6313SOL    HW130572   0.693   4.019   6.528  0.7487 -0.0167 -0.3421
 6313SOL    HW230573   0.615   4.141   6.528  0.1577 -0.7032  0.9988
 6314SOL     OW30574   2.606   4.353   6.625  0.3200  0.6200 -0.7446
 6314SOL    HW130575   2.577   4.424   6.567 -2.2896  0.8806  0.8693
 6314SOL    HW230576   2.694   4.385   6.648  0.2579  1.8549 -2.2367
 6315SOL     OW30577   1.205   0.537   2.809 -0.0066  0.5318  0.1562
 6315SOL    HW130578   1.249   0.459   2.777 -0.1897  0.7077 -0.5287
 6315SOL    HW230579   1.132   0.521   2.750  1.3304 -1.3899 -0.9798
 6316SOL     OW30580   0.606   0.012  10.119 -0.0813 -0.1243  0.3691
 6316SOL    HW130581   0.662   4.709  10.054  0.1869  0.4303  0.2417
 6316SOL    HW230582   0.641   4.713  10.200 -0.6747 -1.3139  0.0780
 6317SOL     OW30583   4.452   1.890   7.196 -0.1134 -0.7793 -0.0297
 6317SOL    HW130584   4.494   1.923   7.116 -0.7023 -1.7587 -0.7496
 6317SOL    HW230585   4.438   1.797   7.179  1.2270 -0.7938 -1.1347
 6318SOL     OW30586   1.637   0.089   6.618  0.3878 -0.3689  0.0786
 6318SOL    HW130587   1.670   0.129   6.698  0.8540  1.4806 -1.0272
 6318SOL    HW230588   1.713   0.074   6.562 -0.5730 -3.9830 -0.2388
 6319SOL     OW30589   2.904   4.005   9.443 -0.3316 -0.0001  0.2849
 6319SOL    HW130590   2.877   4.094   9.420  0.9406  0.1398 -0.6503
 6319SOL    HW230591   2.839   3.977   9.508 -0.3439 -1.1871 -0.2505
 6320SOL     OW30592   0.286   0.213   5.155 -0.4459  0.0294  0.1858
 6320SOL    HW130593   0.208   0.232   5.207 -1.0140 -2.5558  0.2612
 6320SOL    HW230594   0.297   0.301   5.118 -0.6700  0.0256  0.1053
 6321SOL     OW30595   2.679   1.815   3.639  0.8313 -0.0674  0.7620
 6321SOL    HW130596   2.696   1.905   3.609 -0.6941 -0.1247 -0.2332
 6321SOL    HW230597   2.697   1.768   3.558 -0.9300 -0.8253  0.8081
 6322SOL     OW30598   0.117   0.283   9.917  0.8378 -0.4357  0.5336
 6322SOL    HW130599   0.204   0.246   9.930  1.0207  0.0571  0.7006
 6322SOL    HW230600   0.058   0.226   9.966  0.4799  0.9098  1.6647
 6323SOL     OW30601   1.330   2.624   2.643 -0.0355 -0.4237 -0.7609
 6323SOL    HW130602   1.286   2.644   2.560  0.3841  0.7979 -0.6766
 6323SOL    HW230603   1.307   2.704   2.690 -0.2838 -1.3884  0.7538
 6324SOL     OW30604   0.778   2.512   1.195 -0.4889  0.4082 -0.0591
 6324SOL    HW130605   0.784   2.424   1.157 -2.8688  0.2696 -0.1434
 6324SOL    HW230606   0.733   2.563   1.128 -1.6225  0.9436  1.1135
 6325SOL     OW30607   0.693   3.523   6.972  0.6947 -0.4107 -0.6355
 6325SOL    HW130608   0.629   3.537   6.902  0.6778 -0.3733 -0.6122
 6325SOL    HW230609   0.666   3.433   6.990  0.3629 -0.2386 -0.2731
 6326SOL     OW30610   1.418   2.921  14.788  0.2808  0.1754  0.2465
 6326SOL    HW130611   1.421   3.017  14.790 -0.6069  0.1832  1.1760
 6326SOL    HW230612   1.477   2.895  14.717 -0.9689 -0.3058 -0.6023
 6327SOL     OW30613   0.756   3.125  13.408  0.1690  0.2428  0.4527
 6327SOL    HW130614   0.825   3.182  13.373  0.0857 -0.7275 -1.2703
 6327SOL    HW230615   0.767   3.133  13.503  2.8293 -1.6269  0.3053
 6328SOL     OW30616   1.807   1.780   8.991 -0.3336 -0.0746  0.1571
 6328SOL    HW130617   1.782   1.871   9.005 -1.7772 -0.0712 -2.4700
 6328SOL    HW230618   1.834   1.779   8.899 -1.5327 -2.1120 -0.1641
 6329SOL     OW30619   2.622   2.818   5.958 -0.0779 -0.9064  1.0322
 6329SOL    HW130620   2.628   2.899   5.908 -0.8325 -0.2161  2.0743
 6329SOL    HW230621   2.569   2.770   5.894  1.5715  2.1113 -2.6226
 6330SOL     OW30622   4.285   3.127   1.910 -0.3084  0.5337  0.3637
 6330SOL    HW130623   4.194   3.127   1.941 -0.9543  0.2886 -1.5217
 6330SOL    HW230624   4.313   3.217   1.924  1.5286 -0.0741  0.5542
 6331SOL     OW30625   2.999   3.607   7.708 -0.2014 -0.1231 -0.2217
 6331SOL    HW130626   2.914   3.564   7.717  1.1818 -2.7743  0.0921
 6331SOL    HW230627   3.012   3.578   7.618 -1.2138 -1.5891  0.1032
 6332SOL     OW30628   4.522   3.317   4.797 -0.0663  0.3587  0.1070
 6332SOL    HW130629   4.585   3.281   4.859  0.2485 -1.6017 -1.3557
 6332SOL    HW230630   4.545   3.268   4.718  2.4431  1.1032  0.3599
 6333SOL     OW30631   2.116   2.673   4.259 -0.4879  0.0235 -0.2261
 6333SOL    HW130632   2.104   2.614   4.185  2.0900 -2.5589  1.3845
 6333SOL    HW230633   2.061   2.622   4.319 -2.1419  1.5483 -0.4530
 6334SOL     OW30634   2.145   1.200   0.655 -0.3668 -0.3370 -0.3156
 6334SOL    HW130635   2.058   1.239   0.666 -0.4736 -0.4841 -0.6442
 6334SOL    HW230636   2.197   1.242   0.723  0.1109 -2.4121  0.5861
 6335SOL     OW30637   3.331   1.933   2.077  0.3028 -0.2311  0.4817
 6335SOL    HW130638   3.342   1.856   2.021  3.1434  0.7812 -0.3339
 6335SOL    HW230639   3.238   1.952   2.062 -0.2977 -1.9303  2.0900
 6336SOL     OW30640   3.996   1.984   7.434  0.2207  0.0409 -0.5319
 6336SOL    HW130641   4.022   2.069   7.398 -0.1140  0.4779  0.2659
 6336SOL    HW230642   4.046   1.979   7.515 -1.8742  2.2119  0.8803
 6337SOL     OW30643   2.221   1.155   8.711 -0.9840 -0.1653  0.1174
 6337SOL    HW130644   2.229   1.068   8.672  0.1479 -0.7549  1.6945
 6337SOL    HW230645   2.311   1.173   8.736 -0.1449 -2.9109 -0.9391
 6338SOL     OW30646   2.372   3.375  10.961  0.6149 -0.6073 -0.0696
 6338SOL    HW130647   2.418   3.408  11.038 -0.6496  0.9991  0.0224
 6338SOL    HW230648   2.436   3.384  10.890  1.7022  0.4501  1.0537
 6339SOL     OW30649   1.351   3.242  16.531 -0.2644  0.0835  0.0561
 6339SOL    HW130650   1.262   3.252  16.499 -0.0162  2.6265  0.1745
 6339SOL    HW230651   1.389   3.309  16.474  0.4870 -1.4663 -1.2576
 6340SOL     OW30652   0.601   0.623   9.536  0.4054  0.3734 -0.2838
 6340SOL    HW130653   0.553   0.623   9.453  0.1979  0.0250 -0.1650
 6340SOL    HW230654   0.533   0.638   9.602  0.7627  0.3213  0.0948
 6341SOL     OW30655   4.571   3.887   8.340  0.3017 -0.1734  0.0172
 6341SOL    HW130656   4.663   3.894   8.364  0.7520  0.3494 -1.8603
 6341SOL    HW230657   4.524   3.881   8.423 -1.7198  2.3726 -0.9507
 6342SOL     OW30658   3.622   4.356   2.173 -0.2158  0.9052 -0.1203
 6342SOL    HW130659   3.608   4.398   2.258 -0.5623 -0.0968  0.3166
 6342SOL    HW230660   3.709   4.315   2.171 -1.3640 -1.5093 -0.2902
 6343SOL     OW30661   3.770   2.670   0.062 -0.2706  0.8569  0.5076
 6343SOL    HW130662   3.794   2.607  17.747  0.7006  2.4305 -0.6376
 6343SOL    HW230663   3.710   2.615   0.112  0.3352 -0.7635 -0.5596
 6344SOL     OW30664   4.050   2.890   2.499  0.7981  0.9278  0.2974
 6344SOL    HW130665   4.064   2.810   2.550 -1.3389  0.0461 -0.5369
 6344SOL    HW230666   3.975   2.861   2.448 -0.3350 -2.4997  3.9707
 6345SOL     OW30667   3.523   3.627   2.001 -0.9516 -0.0619  0.2508
 6345SOL    HW130668   3.576   3.633   2.081 -0.2263  0.4723 -0.2683
 6345SOL    HW230669   3.459   3.697   2.013 -0.3105  0.3329  1.4212
 6346SOL     OW30670   0.116   3.782  10.469 -0.3781 -0.3630 -0.3346
 6346SOL    HW130671   0.046   3.721  10.494  2.5778 -3.9514 -0.8577
 6346SOL    HW230672   0.157   3.793  10.555  1.0320 -0.9801 -0.9289
 6347SOL     OW30673   0.111   1.431   1.634 -0.8253 -0.4524 -0.1294
 6347SOL    HW130674   0.159   1.425   1.551 -2.7306 -0.6433 -1.2273
 6347SOL    HW230675   0.183   1.420   1.697 -2.1736  2.9972  1.9960
 6348SOL     OW30676   2.412   4.086   4.575 -0.9520  0.2367 -0.3756
 6348SOL    HW130677   2.386   4.112   4.663 -1.8883  0.0991 -0.6096
 6348SOL    HW230678   2.436   4.169   4.535  1.2436  0.3004  1.0864
 6349SOL     OW30679   0.299   0.439   7.423 -0.0621  0.0551  0.5621
 6349SOL    HW130680   0.209   0.467   7.440 -0.1869 -0.1905  0.3008
 6349SOL    HW230681   0.348   0.504   7.473  0.0859  0.7481 -0.4824
 6350SOL     OW30682   1.916   2.296   3.593  0.2283 -0.1010  0.3250
 6350SOL    HW130683   1.865   2.362   3.546 -1.1788 -0.8024  0.8743
 6350SOL    HW230684   1.878   2.213   3.564  1.4854 -1.1006  1.5897
 6351SOL     OW30685   0.430   1.824  12.516  0.2879 -0.2057 -0.5390
 6351SOL    HW130686   0.355   1.766  12.534 -1.9240  2.6613 -0.4539
 6351SOL    HW230687   0.403   1.890  12.580  1.5446 -1.5032  1.3246
 6352SOL     OW30688   1.497   3.669   2.045 -0.0833  0.2125 -0.0691
 6352SOL    HW130689   1.549   3.596   2.078  0.4447  1.4649  1.8770
 6352SOL    HW230690   1.556   3.745   2.044 -1.9334  1.6489 -0.7262
 6353SOL     OW30691   2.393   4.187  14.985 -0.4194  0.6043  0.0844
 6353SOL    HW130692   2.464   4.125  14.974 -0.1530  1.3387 -2.1788
 6353SOL    HW230693   2.343   4.159  15.062  1.5764  1.7980  1.8249
 6354SOL     OW30694   4.264   0.275   7.194 -0.0126  0.1338 -0.3234
 6354SOL    HW130695   4.274   0.212   7.123  1.9238  0.1407 -0.0749
 6354SOL    HW230696   4.350   0.317   7.186 -0.2125  0.8085  1.1394
 6355SOL     OW30697   3.213   2.799  17.085 -0.3710  0.3879 -0.1995
 6355SOL    HW130698   3.228   2.732  17.151  1.3182 -0.8012 -1.7977
 6355SOL    HW230699   3.299   2.805  17.045  0.1922  0.5738  1.0573
 6356SOL     OW30700   4.676   2.868   4.784 -0.0875  0.1073  0.4190
 6356SOL    HW130701   4.714   2.803   4.726  1.5383  1.6847 -0.3052
 6356SOL    HW230702   4.604   2.811   4.810 -0.8163  0.7927 -0.1254
 6357SOL     OW30703   3.996   3.069   9.713  0.0376 -0.4995 -0.7187
 6357SOL    HW130704   3.906   3.097   9.730  0.1492 -0.5695 -0.0175
 6357SOL    HW230705   4.039   3.142   9.756  1.1556 -0.6926 -1.5093
 6358SOL     OW30706   1.097   3.136  10.355 -0.3441  0.2939  0.0797
 6358SOL    HW130707   1.102   3.043  10.377 -1.0111  0.2011 -0.1572
 6358SOL    HW230708   1.048   3.172  10.429 -2.1551  2.3168 -2.0989
 6359SOL     OW30709   1.292   1.145   8.948 -0.4360  0.4887 -0.5186
 6359SOL    HW130710   1.278   1.190   8.865  0.0255  0.8520 -0.3999
 6359SOL    HW230711   1.209   1.098   8.946 -0.1183 -0.1315  0.7429
 6360SOL     OW30712   2.004   0.765   6.199 -0.5494 -0.2450 -0.2819
 6360SOL    HW130713   2.081   0.819   6.214 -0.0694 -0.8785 -0.4673
 6360SOL    HW230714   2.025   0.735   6.111  1.0783 -0.4119  0.1766
 6361SOL     OW30715   2.722   3.138   1.693  0.0309 -1.0511  0.0397
 6361SOL    HW130716   2.654   3.113   1.756 -2.1968  1.8633 -1.1780
 6361SOL    HW230717   2.695   3.088   1.616 -0.7437 -1.3717  0.5233
 6362SOL     OW30718   0.065   4.190  12.323 -0.4709  0.0400  0.6936
 6362SOL    HW130719   0.060   4.148  12.408 -1.0030 -2.5080 -0.6145
 6362SOL    HW230720   0.141   4.249  12.330 -1.1762  1.1156 -0.6382
 6363SOL     OW30721   1.610   2.030   1.800  0.5042  0.0296 -0.0297
 6363SOL    HW130722   1.704   2.014   1.803  0.3723 -0.5582  1.0754
 6363SOL    HW230723   1.581   1.983   1.722  0.5956  2.7209 -1.6891
 6364SOL     OW30724   1.757   2.698  11.986 -0.0730  0.2216  0.0589
 6364SOL    HW130725   1.785   2.614  11.951 -0.6957 -0.2843  0.7929
 6364SOL    HW230726   1.667   2.684  12.014  0.3632 -3.1153 -0.2958
 6365SOL     OW30727   0.714   2.378   6.364  0.3049  0.0716 -0.5807
 6365SOL    HW130728   0.771   2.453   6.345 -0.5294  0.2428 -2.3737
 6365SOL    HW230729   0.766   2.304   6.394 -1.7552 -0.9730  0.3841
 6366SOL     OW30730   2.191   3.273   3.537  0.4331 -0.6051  0.4566
 6366SOL    HW130731   2.208   3.266   3.631  0.5332  1.3813  0.5896
 6366SOL    HW230732   2.269   3.317   3.503 -0.1269  0.9401  1.1759
 6367SOL     OW30733   2.373   0.153  15.889 -0.5036 -0.0078  0.0667
 6367SOL    HW130734   2.461   0.168  15.924 -0.0946 -1.2419 -0.4166
 6367SOL    HW230735   2.391   0.148  15.795 -1.6230 -1.8793 -0.0467
 6368SOL     OW30736   2.751   4.230   9.561 -0.1078  0.0632 -0.0142
 6368SOL    HW130737   2.746   4.216   9.655  1.9959 -0.1654  0.0724
 6368SOL    HW230738   2.666   4.196   9.533  0.0532 -2.8907  3.1041
 6369SOL     OW30739   0.903   3.615   2.989  0.1473  0.1672 -0.3154
 6369SOL    HW130740   0.881   3.592   2.899  2.2025 -0.3566 -0.6737
 6369SOL    HW230741   0.994   3.643   2.982 -0.2337  2.5463  3.9178
 6370SOL     OW30742   0.523   3.528   3.870  0.3611  0.2846  0.1973
 6370SOL    HW130743   0.440   3.483   3.883  0.3522 -0.3526 -2.0345
 6370SOL    HW230744   0.531   3.533   3.774  0.0741 -0.4236  0.1379
 6371SOL     OW30745   0.332   4.059   7.519  0.2085  0.5323  0.1853
 6371SOL    HW130746   0.380   3.982   7.551 -0.8028  0.6136  1.8604
 6371SOL    HW230747   0.270   4.020   7.457  1.9996 -2.7439  0.4439
 6372SOL     OW30748   3.849   2.943   5.568  0.3470 -0.9054 -0.2346
 6372SOL    HW130749   3.827   3.003   5.639  1.8210 -1.1839  0.4678
 6372SOL    HW230750   3.934   2.981   5.545  0.0665 -1.3067 -1.8996
 6373SOL     OW30751   3.336   4.234  14.368 -0.3493  0.7116 -0.0185
 6373SOL    HW130752   3.344   4.306  14.306 -0.8530 -0.9290 -1.9701
 6373SOL    HW230753   3.284   4.172  14.317  0.9064 -0.2237 -0.1473
 6374SOL     OW30754   3.897   4.501   6.347  0.0179 -0.5576 -0.4099
 6374SOL    HW130755   3.888   4.438   6.419  1.9488 -0.4690 -0.1124
 6374SOL    HW230756   3.919   4.439   6.277  0.9114 -0.4749 -0.2025
 6375SOL     OW30757   1.992   3.350  17.514 -0.2592 -0.7228 -0.5897
 6375SOL    HW130758   1.949   3.434  17.493  0.5346 -0.1473  0.0750
 6375SOL    HW230759   2.083   3.375  17.503 -0.8263  1.1273 -1.1645
 6376SOL     OW30760   1.406   4.338   7.770  0.1296  0.6202 -0.2887
 6376SOL    HW130761   1.366   4.372   7.690  3.3476  1.8329 -1.4111
 6376SOL    HW230762   1.454   4.416   7.801 -0.1301  0.2135  1.0963
 6377SOL     OW30763   1.009   1.473   6.106  0.4530  0.2231 -0.3611
 6377SOL    HW130764   1.097   1.507   6.123 -0.5022  2.4186  0.2650
 6377SOL    HW230765   0.960   1.545   6.146 -0.2592 -0.7159  0.4647
 6378SOL     OW30766   0.141   1.194   7.437 -0.1335  0.4400  0.0701
 6378SOL    HW130767   0.143   1.119   7.496 -0.4505  1.3944  1.2856
 6378SOL    HW230768   0.053   1.233   7.440  0.4971  1.7431  1.0603
 6379SOL     OW30769   0.342   1.234   5.687 -0.3564  0.0101 -0.2223
 6379SOL    HW130770   0.432   1.240   5.655 -0.7584 -1.7362 -1.6634
 6379SOL    HW230771   0.334   1.321   5.727 -1.2740  0.9951 -2.5433
 6380SOL     OW30772   2.523   0.591   9.886  0.3410  0.1819 -0.2399
 6380SOL    HW130773   2.551   0.676   9.920 -2.5556  1.6693 -1.5401
 6380SOL    HW230774   2.535   0.587   9.791 -1.1500  0.9259 -0.4702
 6381SOL     OW30775   3.978   3.638   3.546 -0.1387 -0.0868  0.4004
 6381SOL    HW130776   3.967   3.545   3.530 -1.2792  0.2719 -0.8927
 6381SOL    HW230777   3.967   3.676   3.459  0.5967 -0.6936  0.0491
 6382SOL     OW30778   1.336   3.835  16.382 -0.2698  0.2128 -0.2685
 6382SOL    HW130779   1.402   3.797  16.440 -0.8998  0.8204  0.8450
 6382SOL    HW230780   1.378   3.830  16.296 -1.3234  2.2910 -0.9168
 6383SOL     OW30781   2.758   2.404  17.332 -0.1215 -0.0052 -0.0147
 6383SOL    HW130782   2.778   2.340  17.401 -1.3613 -0.9720 -0.5468
 6383SOL    HW230783   2.708   2.352  17.269  1.3131  1.7054 -2.5742
 6384SOL     OW30784   2.007   4.523   1.597  0.6099 -0.3903 -0.0009
 6384SOL    HW130785   1.988   4.483   1.512 -1.1961 -1.6534  1.0156
 6384SOL    HW230786   1.936   4.585   1.607 -1.3679 -2.5420 -0.6857
 6385SOL     OW30787   4.401   2.086   7.360 -0.5805 -0.0559  0.0824
 6385SOL    HW130788   4.407   2.009   7.304  0.2370 -0.4948  0.7579
 6385SOL    HW230789   4.428   2.041   7.441 -0.1771 -0.1809 -0.1217
 6386SOL     OW30790   3.095   4.704   9.322  0.5151 -0.0532  0.0716
 6386SOL    HW130791   3.072   0.048   9.280 -4.6876 -2.3394 -1.5350
 6386SOL    HW230792   3.185   4.717   9.353  0.9466  1.0796 -1.6729
 6387SOL     OW30793   2.073   3.080   8.681  0.3313  0.0720 -0.4644
 6387SOL    HW130794   2.018   3.048   8.752  0.1000  0.1936 -0.5871
 6387SOL    HW230795   2.160   3.058   8.712 -0.0410 -1.1859 -0.3120
 6388SOL     OW30796   1.036   2.190   5.263  0.1604 -0.2674  0.1793
 6388SOL    HW130797   1.082   2.238   5.194 -2.3388  0.1022 -1.2718
 6388SOL    HW230798   1.058   2.102   5.235  0.7838  0.0920 -0.4766
 6389SOL     OW30799   0.423   4.301   4.517 -0.6271  0.1381 -0.6081
 6389SOL    HW130800   0.336   4.306   4.477 -0.1732  1.5611 -1.4027
 6389SOL    HW230801   0.395   4.321   4.606 -1.5864  2.4077 -1.4395
 6390SOL     OW30802   3.976   2.408   6.540 -0.4881  0.4131 -0.3986
 6390SOL    HW130803   3.971   2.471   6.468 -2.3600  0.8556  0.1245
 6390SOL    HW230804   3.998   2.325   6.497 -0.9662  0.1857 -0.2071
 6391SOL     OW30805   2.371   0.200   6.120 -0.2825  0.2893  0.0199
 6391SOL    HW130806   2.306   0.190   6.051 -0.3587 -1.3053  0.3260
 6391SOL    HW230807   2.347   0.287   6.151  0.4708 -0.0728  1.6677
 6392SOL     OW30808   0.145   1.929  15.982 -0.0228 -0.4635  0.2817
 6392SOL    HW130809   0.203   1.855  15.968 -1.2601 -0.7818 -2.9196
 6392SOL    HW230810   0.165   1.981  15.904  1.3697 -0.5739  0.5589
 6393SOL     OW30811   3.368   4.505   2.673  0.0570  0.3993  0.4676
 6393SOL    HW130812   3.373   4.423   2.625 -1.2809  2.2157 -2.7825
 6393SOL    HW230813   3.352   4.569   2.603  0.1794 -0.8278 -0.6751
 6394SOL     OW30814   0.541   4.208   3.078 -0.3786  0.0749 -0.2109
 6394SOL    HW130815   0.447   4.208   3.096 -0.3104  1.1941  0.1317
 6394SOL    HW230816   0.561   4.114   3.073 -1.8558 -0.1463 -2.3846
 6395SOL     OW30817   2.397   1.747   7.397 -0.0618  0.3561 -0.0518
 6395SOL    HW130818   2.398   1.653   7.417  1.1238  0.0620 -1.4070
 6395SOL    HW230819   2.481   1.764   7.353  1.6825 -0.4584  2.9681
 6396SOL     OW30820   3.957   1.112   4.222 -0.6012 -0.1811 -0.0515
 6396SOL    HW130821   3.865   1.104   4.196 -0.3200 -0.6683 -0.8981
 6396SOL    HW230822   3.975   1.204   4.202 -0.9678 -0.1753 -0.3608
 6397SOL     OW30823   2.486   0.075   2.737  0.7276  0.1932  0.7313
 6397SOL    HW130824   2.429   0.009   2.699  0.7908 -1.8832  4.3018
 6397SOL    HW230825   2.497   0.038   2.824 -0.7571 -2.8259 -0.3525
 6398SOL     OW30826   1.111   2.168  17.563 -0.1315 -0.4384 -0.2988
 6398SOL    HW130827   1.067   2.088  17.535  1.5610 -1.2011 -0.7932
 6398SOL    HW230828   1.052   2.234  17.525 -0.1229  0.4621  1.2777
 6399SOL     OW30829   2.186   0.158   1.168 -0.3103  0.2670 -0.3409
 6399SOL    HW130830   2.168   0.128   1.257 -0.9227  1.8289  0.0578
 6399SOL    HW230831   2.115   0.221   1.156 -0.6745  0.8874  5.0831
 6400SOL     OW30832   3.399   1.445   7.161 -0.1417  0.8938  0.0060
 6400SOL    HW130833   3.322   1.442   7.103  0.2718 -2.3107 -0.3776
 6400SOL    HW230834   3.363   1.500   7.230  0.7505 -0.1327  1.2759
 6401SOL     OW30835   0.964   1.291   8.179 -0.6942 -0.6215  0.4415
 6401SOL    HW130836   0.988   1.287   8.086 -2.5703  1.5991 -0.1575
 6401SOL    HW230837   0.906   1.367   8.185 -0.1983 -0.2537  0.5763
 6402SOL     OW30838   3.425   3.006   6.415  0.2704  0.5951 -0.2954
 6402SOL    HW130839   3.460   2.985   6.501 -1.7833 -1.3137  0.0790
 6402SOL    HW230840   3.403   3.097   6.434  0.8474  0.2876  1.8249
 6403SOL     OW30841   4.662   0.780   7.611 -0.0951  0.1304  0.5417
 6403SOL    HW130842   4.706   0.863   7.632  1.6073 -0.5244 -0.3904
 6403SOL    HW230843   4.601   0.779   7.684  1.4774  3.1271  1.9157
 6404SOL     OW30844   3.480   2.776   8.426 -0.1797  0.1663 -0.8461
 6404SOL    HW130845   3.540   2.782   8.351  2.1744  0.0073  1.0424
 6404SOL    HW230846   3.430   2.858   8.431  0.8383  0.5670  2.4858
 6405SOL     OW30847   2.006   4.476   1.278  0.1711 -0.8058  0.0085
 6405SOL    HW130848   2.066   4.548   1.258  0.7149 -1.4724 -0.7909
 6405SOL    HW230849   1.997   4.449   1.186  0.3454  1.7956 -0.7965
 6406SOL     OW30850   4.091   3.067   5.537 -0.4889  0.4661  0.5130
 6406SOL    HW130851   4.156   2.998   5.521 -0.6662  0.7342 -1.3643
 6406SOL    HW230852   4.132   3.145   5.500 -0.1363  1.1467  2.3348
 6407SOL     OW30853   3.731   2.091   6.602 -0.8533  0.4665 -0.0584
 6407SOL    HW130854   3.784   2.056   6.530 -0.4914 -2.1959  1.5283
 6407SOL    HW230855   3.681   2.015   6.631 -1.7605  1.8349  1.9334
 6408SOL     OW30856   4.075   1.927   9.061  0.1682 -0.4617 -0.2796
 6408SOL    HW130857   4.035   2.013   9.046  1.9670  0.5942  1.1256
 6408SOL    HW230858   4.143   1.936   8.994  1.1799  0.4503  0.8897
 6409SOL     OW30859   1.495   2.780   5.915 -0.4726  0.8464 -0.1033
 6409SOL    HW130860   1.451   2.826   5.986  1.1109  1.1593  0.6936
 6409SOL    HW230861   1.508   2.860   5.864 -1.3132  1.2739  0.3595
 6410SOL     OW30862   1.218   2.323   9.641  0.6272 -0.2926  0.4994
 6410SOL    HW130863   1.183   2.250   9.692 -1.6422  0.3400 -0.1611
 6410SOL    HW230864   1.133   2.365   9.628  0.7703  0.4222  1.8614
 6411SOL     OW30865   4.308   1.848   3.873 -0.2906  0.5270 -0.2584
 6411SOL    HW130866   4.225   1.869   3.915 -1.1066 -1.2812 -0.9709
 6411SOL    HW230867   4.296   1.896   3.791 -0.0604 -2.3924 -1.9931
 6412SOL     OW30868   0.597   1.345  15.527  0.1795  0.1697 -0.1381
 6412SOL    HW130869   0.602   1.429  15.481  1.2505  0.4735  0.5141
 6412SOL    HW230870   0.605   1.287  15.452 -1.2707  0.8635 -0.8077
 6413SOL     OW30871   3.376   4.697   9.443 -0.2948 -0.6811 -0.8096
 6413SOL    HW130872   3.417   0.043   9.426  0.8177 -1.0502  0.0907
 6413SOL    HW230873   3.420   4.673   9.524 -0.4166 -1.4560 -0.9741
 6414SOL     OW30874   1.980   0.206   7.040 -0.6357 -0.6153  0.7054
 6414SOL    HW130875   2.074   0.194   7.026 -0.7578 -2.4359  1.4528
 6414SOL    HW230876   1.952   0.183   6.951  0.3827 -0.1897  0.2683
 6415SOL     OW30877   2.194   0.960  16.830  0.4223 -0.4218 -0.2608
 6415SOL    HW130878   2.124   0.897  16.847 -1.4368  1.3577 -1.2515
 6415SOL    HW230879   2.165   0.980  16.741 -0.3044  0.4881  0.1803
 6416SOL     OW30880   1.306   2.029   0.404 -0.0796  0.5968 -0.0549
 6416SOL    HW130881   1.283   1.957   0.345  1.1339  1.2639 -1.3659
 6416SOL    HW230882   1.284   2.105   0.350  0.9453  0.5376 -0.5574
 6417SOL     OW30883   1.639   3.529   3.522 -0.2052  0.3257 -1.3577
 6417SOL    HW130884   1.705   3.489   3.578 -1.2574  0.3908 -0.0588
 6417SOL    HW230885   1.560   3.478   3.542 -0.6197  0.8609 -1.6166
 6418SOL     OW30886   4.231   0.261   6.523  0.1735  0.5050 -0.2157
 6418SOL    HW130887   4.209   0.350   6.553  0.6195  0.1081  1.2800
 6418SOL    HW230888   4.321   0.270   6.490  0.1281  1.6866 -0.0321
 6419SOL     OW30889   4.275   3.609   9.302  0.6942  0.4856  0.0455
 6419SOL    HW130890   4.222   3.687   9.320  0.5789  0.5060 -0.3737
 6419SOL    HW230891   4.355   3.617   9.353  0.1381  0.2378  0.9592
 6420SOL     OW30892   1.099   4.450  12.078  0.4365 -0.2607 -0.1879
 6420SOL    HW130893   1.125   4.535  12.042  1.0295 -1.0660 -1.6481
 6420SOL    HW230894   1.147   4.386  12.026  2.5887  0.1478  1.3009
 6421SOL     OW30895   0.276   4.238   5.944 -0.2338  0.8127 -0.2794
 6421SOL    HW130896   0.212   4.173   5.915  1.4472  0.0450 -2.2436
 6421SOL    HW230897   0.270   4.231   6.040 -0.0981 -0.8628 -0.3918
 6422SOL     OW30898   3.818   3.064   6.403  0.1572 -0.1095  0.0732
 6422SOL    HW130899   3.807   2.976   6.439  1.3828  0.0166  0.7443
 6422SOL    HW230900   3.854   3.042   6.317  0.8840  2.3706 -0.2487
 6423SOL     OW30901   4.606   0.384   4.130  0.0479 -0.5718 -0.2116
 6423SOL    HW130902   4.614   0.413   4.221  1.2114  0.1989 -0.5615
 6423SOL    HW230903   4.544   0.312   4.135  0.2584 -0.5504  2.5602
 6424SOL     OW30904   1.611   3.313   6.163  0.5618  0.3136 -0.5389
 6424SOL    HW130905   1.700   3.280   6.176 -0.2782 -1.4197  0.8739
 6424SOL    HW230906   1.557   3.262   6.224 -0.3199 -0.0588 -1.6121
 6425SOL     OW30907   3.673   1.784   5.506  0.1273  0.4832 -0.2429
 6425SOL    HW130908   3.679   1.783   5.410  0.6720 -1.3658 -0.1865
 6425SOL    HW230909   3.586   1.753   5.531 -0.0312  2.4686  1.6454
 6426SOL     OW30910   2.207   2.594   7.075  0.4283 -0.0802 -0.4629
 6426SOL    HW130911   2.297   2.625   7.071  0.1225  1.1761  2.6541
 6426SOL    HW230912   2.176   2.658   7.139 -0.1731  0.4154 -1.2542
 6427SOL     OW30913   2.461   0.378   5.494 -0.5016  0.2787  0.1364
 6427SOL    HW130914   2.470   0.284   5.480 -1.3580 -0.1212  2.2086
 6427SOL    HW230915   2.392   0.403   5.433  1.1690 -1.6802 -2.5303
 6428SOL     OW30916   3.189   0.643   9.077 -0.1929  0.2563 -0.1883
 6428SOL    HW130917   3.126   0.715   9.080  1.6799  1.9051 -0.3072
 6428SOL    HW230918   3.186   0.618   9.169 -0.3008  1.5554  0.1632
 6429SOL     OW30919   4.738   4.309   2.848 -0.5027 -0.2986  0.4016
 6429SOL    HW130920   4.703   4.398   2.849 -1.6919 -0.7391 -1.4536
 6429SOL    HW230921   4.661   4.252   2.852 -0.3561 -0.5365 -0.0885
 6430SOL     OW30922   2.240   2.682  10.643  0.0511  0.4829 -0.1247
 6430SOL    HW130923   2.220   2.605  10.697  0.7906  1.4984  1.5709
 6430SOL    HW230924   2.335   2.677  10.643  0.0345  0.2237 -2.9983
 6431SOL     OW30925   0.063   3.235   9.287 -0.3202  0.6622 -0.3064
 6431SOL    HW130926   0.019   3.300   9.341  3.2036  1.7750  1.2082
 6431SOL    HW230927   0.119   3.193   9.351  1.0958 -0.4788 -2.2773
 6432SOL     OW30928   0.430   4.006   0.447 -0.2389  0.2241 -0.4041
 6432SOL    HW130929   0.465   4.054   0.522 -2.4589 -0.3668  1.0216
 6432SOL    HW230930   0.464   3.917   0.458  1.2145  0.9515  1.0702
 6433SOL     OW30931   3.926   1.282   2.056  0.0662  0.3735 -0.0717
 6433SOL    HW130932   3.844   1.312   2.018  0.7176  1.1786 -0.8578
 6433SOL    HW230933   3.895   1.210   2.110 -2.2507  1.2521 -0.2236
 6434SOL     OW30934   4.258   4.554   0.434 -0.2731 -0.1720 -0.1091
 6434SOL    HW130935   4.311   4.598   0.368  0.6874  1.9787  2.0611
 6434SOL    HW230936   4.313   4.570   0.511  0.3853  0.0124 -0.6176
 6435SOL     OW30937   3.547   1.937   4.449 -0.0824  0.2181  0.4517
 6435SOL    HW130938   3.464   1.984   4.438 -0.5251 -0.4388  0.9915
 6435SOL    HW230939   3.543   1.880   4.372  1.4004  0.7335 -0.0167
 6436SOL     OW30940   4.386   2.265   0.740  0.2409  0.0706 -0.4263
 6436SOL    HW130941   4.460   2.297   0.688  0.8481 -0.3330  0.1862
 6436SOL    HW230942   4.321   2.324   0.701  1.9398  1.7965 -0.6608
 6437SOL     OW30943   0.818   4.314  12.053 -0.2643 -0.3941  0.2253
 6437SOL    HW130944   0.900   4.364  12.058 -2.0331  2.3361  1.8176
 6437SOL    HW230945   0.827   4.252  11.981 -0.3788  0.9945 -0.9684
 6438SOL     OW30946   2.709   4.158   5.774  0.6098  0.3241  0.0738
 6438SOL    HW130947   2.695   4.066   5.799  1.4457 -0.0040 -0.6882
 6438SOL    HW230948   2.775   4.190   5.836  0.4033  2.3093 -0.7370
 6439SOL     OW30949   0.483   4.139   0.698  0.1674  0.2698  0.5490
 6439SOL    HW130950   0.530   4.060   0.723 -0.1976 -0.8336 -2.3585
 6439SOL    HW230951   0.419   4.138   0.770 -1.9517  0.1969 -1.3207
 6440SOL     OW30952   3.338   0.226   5.634  0.3476 -0.2944  0.0580
 6440SOL    HW130953   3.334   0.263   5.546  0.7613  1.3117  0.7283
 6440SOL    HW230954   3.378   0.301   5.678  0.1938  0.0313 -0.3696
 6441SOL     OW30955   2.534   0.864  13.011 -0.1506  1.2232  0.0702
 6441SOL    HW130956   2.457   0.808  13.003 -0.1240  0.6445  4.2600
 6441SOL    HW230957   2.486   0.947  13.004  0.0416  1.3851  0.7288
 6442SOL     OW30958   4.089   1.562  12.052 -0.4221 -0.0270 -0.4235
 6442SOL    HW130959   4.059   1.515  12.130 -0.0285  0.8892  0.2852
 6442SOL    HW230960   4.185   1.559  12.055 -0.3715  0.9776 -1.2699
 6443SOL     OW30961   4.735   2.850   5.717  0.4636  0.0160 -0.0792
 6443SOL    HW130962   0.030   2.761   5.705  2.1551  0.8761 -1.6876
 6443SOL    HW230963   4.644   2.839   5.742  1.5209  0.5258  3.9201
 6444SOL     OW30964   1.644   3.343   2.465  0.2780 -0.5977 -0.2899
 6444SOL    HW130965   1.590   3.319   2.389  0.2282  0.3517 -0.5491
 6444SOL    HW230966   1.655   3.434   2.440 -0.8837  0.2215  2.2038
 6445SOL     OW30967   2.733   0.325  10.655 -0.5030  0.2089  0.5629
 6445SOL    HW130968   2.667   0.284  10.711 -0.6409 -1.8421 -1.1007
 6445SOL    HW230969   2.708   0.416  10.667  2.5470  0.9777  1.1287
 6446SOL     OW30970   2.935   3.186  13.811  0.0365 -0.0394  0.0864
 6446SOL    HW130971   2.954   3.275  13.779 -0.4399 -0.0377 -0.1873
 6446SOL    HW230972   2.969   3.116  13.755  1.1240 -0.1041  0.8348
 6447SOL     OW30973   3.221   2.652   1.671  0.1207  0.5874  0.1088
 6447SOL    HW130974   3.138   2.700   1.674 -0.4803 -0.3165 -2.0973
 6447SOL    HW230975   3.278   2.727   1.687  0.5511 -0.0630  1.6642
 6448SOL     OW30976   4.279   4.228   2.584  0.6342  0.1691  0.5382
 6448SOL    HW130977   4.364   4.185   2.588  0.8452  0.3878 -1.8911
 6448SOL    HW230978   4.281   4.245   2.490  0.8112 -1.2735  0.2838
 6449SOL     OW30979   4.579   2.436  17.711  0.7672  0.1533  0.3581
 6449SOL    HW130980   4.554   2.519  17.669  2.0793 -0.3545 -1.4273
 6449SOL    HW230981   4.565   2.374  17.639  1.1141  0.3347  0.1340
 6450SOL     OW30982   1.202   3.053  13.489 -0.6177 -0.2730  0.0691
 6450SOL    HW130983   1.234   2.994  13.557  0.6718 -0.9589 -1.1335
 6450SOL    HW230984   1.199   2.987  13.420 -1.1681 -0.5561  0.3597
 6451SOL     OW30985   2.389   0.439   5.901  0.2150  0.1056 -0.0377
 6451SOL    HW130986   2.398   0.479   5.815  1.0059 -0.5452 -0.2534
 6451SOL    HW230987   2.452   0.367   5.894 -0.6479 -0.6738  0.1415
 6452SOL     OW30988   2.562   2.439  11.918  0.1344  0.1395  0.9092
 6452SOL    HW130989   2.470   2.451  11.944  0.4442 -1.5794  2.7124
 6452SOL    HW230990   2.579   2.523  11.875 -0.0349 -0.1387  0.3054
 6453SOL     OW30991   0.790   3.089  13.685 -0.1813  0.1233  0.1660
 6453SOL    HW130992   0.808   3.025  13.754 -3.2627  0.4055  1.2338
 6453SOL    HW230993   0.796   3.169  13.737  1.8649  0.1833 -0.1600
 6454SOL     OW30994   2.947   1.539   8.363 -0.0743  0.9855  0.2739
 6454SOL    HW130995   3.017   1.528   8.427 -0.1267  2.4882  0.6036
 6454SOL    HW230996   2.996   1.576   8.290 -1.1867  2.4448  0.2466
 6455SOL     OW30997   1.576   1.145   4.543 -0.3226 -0.2427  0.2232
 6455SOL    HW130998   1.599   1.224   4.592 -0.3092 -0.6587  0.8877
 6455SOL    HW230999   1.486   1.163   4.518 -0.0745  0.1998 -0.3565
 6456SOL     OW31000   0.128   0.525   7.053 -0.1501 -0.5526  0.1695
 6456SOL    HW131001   0.215   0.534   7.091  0.2719  0.0496 -0.9459
 6456SOL    HW231002   0.074   0.541   7.130 -0.9422  0.9190 -0.7017
 6457SOL     OW31003   2.646   2.878   6.419 -0.4434  0.4350  0.5186
 6457SOL    HW131004   2.585   2.930   6.366  1.1009 -0.7103 -2.3588
 6457SOL    HW231005   2.723   2.886   6.364 -0.0768 -0.7153  0.8596
 6458SOL     OW31006   2.182   0.537   8.321  0.8463 -0.3367 -0.0806
 6458SOL    HW131007   2.264   0.529   8.272  0.7633 -0.6078 -0.1781
 6458SOL    HW231008   2.220   0.573   8.401  0.0733 -2.3562  1.2028
 6459SOL     OW31009   2.590   2.512   7.855 -0.9676 -0.0710  0.2075
 6459SOL    HW131010   2.654   2.573   7.892  0.4510 -0.6124 -1.3653
 6459SOL    HW231011   2.620   2.422   7.866  2.3620  1.1287  1.1623
 6460SOL     OW31012   0.323   2.009   4.048 -0.2861  0.6568  0.2471
 6460SOL    HW131013   0.257   2.060   4.095 -0.2927  0.5897  0.3091
 6460SOL    HW231014   0.302   2.029   3.956 -0.9555 -1.6317 -0.0981
 6461SOL     OW31015   3.763   4.309   5.180 -0.5656 -0.3543  0.0939
 6461SOL    HW131016   3.840   4.253   5.189 -0.1706  0.4392  1.6502
 6461SOL    HW231017   3.737   4.294   5.089 -1.0517  2.1721 -0.1767
 6462SOL     OW31018   3.290   1.593   7.344  0.0988 -0.2505 -0.0930
 6462SOL    HW131019   3.276   1.551   7.429 -0.6543 -1.1951 -0.6815
 6462SOL    HW231020   3.200   1.613   7.319  0.5045  2.9457  1.0422
 6463SOL     OW31021   4.190   1.017   7.174  0.0106  0.0181  0.1123
 6463SOL    HW131022   4.233   1.096   7.142  1.1156  0.2001  2.1116
 6463SOL    HW231023   4.127   1.047   7.240 -0.5795  1.2902 -1.0289
 6464SOL     OW31024   1.751   2.856   1.625  0.2266 -0.1222 -0.3173
 6464SOL    HW131025   1.760   2.801   1.547 -0.2513  0.9218 -1.1056
 6464SOL    HW231026   1.659   2.875   1.607  0.3212  0.2818 -0.3887
 6465SOL     OW31027   4.677   2.193  16.090  0.8018  0.3265  0.4184
 6465SOL    HW131028   4.663   2.099  16.097 -2.9086  0.6870 -2.3023
 6465SOL    HW231029   4.586   2.218  16.105  1.1047  1.8026 -0.1776
 6466SOL     OW31030   4.171   2.422   4.706 -0.1435  0.1694 -0.1062
 6466SOL    HW131031   4.152   2.462   4.621  3.7254 -0.3662 -1.2680
 6466SOL    HW231032   4.140   2.333   4.690 -1.6714  0.7793 -0.4793
 6467SOL     OW31033   2.057   2.151   0.693  0.0382  0.6621 -0.3502
 6467SOL    HW131034   2.020   2.209   0.627  1.5513  0.6051 -1.2447
 6467SOL    HW231035   2.069   2.065   0.651 -1.8290  0.4380 -0.4273
 6468SOL     OW31036   1.750   1.220   1.130 -0.3229 -0.1030  0.2338
 6468SOL    HW131037   1.798   1.175   1.061 -1.0052  1.8594 -1.5363
 6468SOL    HW231038   1.717   1.152   1.188 -0.0855  0.5773  1.1606
 6469SOL     OW31039   1.889   3.852  17.014  0.1601  0.8744 -0.3321
 6469SOL    HW131040   1.853   3.818  17.096 -1.8475  0.3524 -1.4533
 6469SOL    HW231041   1.981   3.853  17.042  0.2191  4.1293 -0.7223
 6470SOL     OW31042   1.851   1.119   6.795  0.6113 -0.0071  0.4383
 6470SOL    HW131043   1.859   1.184   6.865 -1.4313  1.1886 -0.4587
 6470SOL    HW231044   1.941   1.087   6.794  0.2014 -1.1849  1.1264
 6471SOL     OW31045   2.030   0.494   3.269 -0.5237  0.0447 -0.4202
 6471SOL    HW131046   1.945   0.534   3.250 -0.6915  0.4245  1.1808
 6471SOL    HW231047   2.040   0.444   3.188  2.0071 -0.1536  0.0024
 6472SOL     OW31048   3.458   2.654  11.766  0.2359  0.2930 -0.3734
 6472SOL    HW131049   3.377   2.627  11.724  0.4393  2.5511 -2.2654
 6472SOL    HW231050   3.462   2.750  11.759  2.3978  0.2756  0.4522
 6473SOL     OW31051   3.977   3.273  14.317 -0.6720  0.6162  0.1431
 6473SOL    HW131052   3.932   3.234  14.392 -1.3017  0.4719 -0.3028
 6473SOL    HW231053   4.060   3.226  14.314 -1.2341 -0.4094  0.7343
 6474SOL     OW31054   1.761   0.943   7.954 -0.5463  0.1509  0.7309
 6474SOL    HW131055   1.684   1.000   7.955 -0.8422 -0.2380 -0.1032
 6474SOL    HW231056   1.822   1.010   7.922  0.6502 -1.0911  0.4541
 6475SOL     OW31057   0.792   2.503   3.706 -0.3985 -0.1545 -0.4022
 6475SOL    HW131058   0.750   2.583   3.674  0.5684  0.5964  0.1842
 6475SOL    HW231059   0.828   2.472   3.622 -0.2666 -1.7524  0.2514
 6476SOL     OW31060   0.577   3.152   7.530 -0.1353 -0.3297 -0.2138
 6476SOL    HW131061   0.635   3.193   7.594  0.5565 -1.7026  0.0333
 6476SOL    HW231062   0.530   3.093   7.588  0.5487 -0.7075 -0.0487
 6477SOL     OW31063   1.434   3.566   2.420  0.3291  0.0516 -0.3236
 6477SOL    HW131064   1.431   3.482   2.374  2.5217  0.0707 -0.5314
 6477SOL    HW231065   1.360   3.611   2.378  0.4754  0.7636  0.1867
 6478SOL     OW31066   0.747   3.082   4.140  0.3831  0.2364 -0.2325
 6478SOL    HW131067   0.765   3.169   4.176 -2.8135  0.2341  1.3185
 6478SOL    HW231068   0.687   3.096   4.067 -0.8123  0.3979  0.7919
 6479SOL     OW31069   0.759   4.219   3.938 -0.0923 -0.6105 -0.1237
 6479SOL    HW131070   0.740   4.309   3.965  0.4572 -0.2668 -0.8818
 6479SOL    HW231071   0.848   4.224   3.904 -0.5650 -0.8681 -1.3799
 6480SOL     OW31072   2.811   0.468   6.109  0.6756 -0.3531  0.6609
 6480SOL    HW131073   2.720   0.499   6.104  0.9100  0.6331  2.8085
 6480SOL    HW231074   2.865   0.527   6.057 -0.0818 -1.3114 -1.2275
 6481SOL     OW31075   4.077   0.487  10.938  0.2448  0.4120  0.6466
 6481SOL    HW131076   4.076   0.392  10.947 -1.8980  0.6509  3.0158
 6481SOL    HW231077   3.984   0.501  10.960  0.5037  0.6689  1.6052
 6482SOL     OW31078   4.357   3.980   6.402  0.4627 -0.5054 -0.4592
 6482SOL    HW131079   4.368   4.074   6.419  0.8185 -0.7078  0.4181
 6482SOL    HW231080   4.267   3.979   6.370  1.0363  2.5198 -2.1804
 6483SOL     OW31081   4.314   1.867   4.644  0.3037 -0.4177 -0.8320
 6483SOL    HW131082   4.287   1.776   4.656  0.2744 -0.3418 -0.3280
 6483SOL    HW231083   4.359   1.876   4.728 -2.2471 -1.3533  0.6154
 6484SOL     OW31084   3.556   1.032   6.879  0.3478  0.0270  0.3657
 6484SOL    HW131085   3.646   1.054   6.904  1.2125 -1.8568 -1.0628
 6484SOL    HW231086   3.503   1.046   6.957 -0.2012 -3.8971  0.6916
 6485SOL     OW31087   1.344   1.229   5.251  0.4427 -0.0819 -0.7468
 6485SOL    HW131088   1.259   1.215   5.210 -0.7526 -0.4483  1.8337
 6485SOL    HW231089   1.335   1.322   5.271  1.4803 -0.0736 -0.3170
 6486SOL     OW31090   0.570   3.763  11.417  0.6114 -0.1065  0.6211
 6486SOL    HW131091   0.629   3.700  11.458 -1.6806 -2.1248  0.8920
 6486SOL    HW231092   0.494   3.738  11.471  0.0500 -0.6985 -0.4226
 6487SOL     OW31093   3.529   1.097   5.377 -0.2348  0.5317  0.1898
 6487SOL    HW131094   3.558   1.170   5.432 -1.7124  0.8881  0.5023
 6487SOL    HW231095   3.521   1.029   5.444  0.5484 -0.0022 -0.2588
 6488SOL     OW31096   3.448   4.454   5.308 -0.3539 -0.6506  0.2079
 6488SOL    HW131097   3.543   4.463   5.320  0.1412 -3.9758 -1.1579
 6488SOL    HW231098   3.420   4.520   5.372  0.1642 -1.0714  0.8776
 6489SOL     OW31099   1.790   3.142   7.524 -0.1128 -0.0165 -0.2632
 6489SOL    HW131100   1.707   3.097   7.538  0.3683 -1.2918 -1.5241
 6489SOL    HW231101   1.841   3.073   7.481 -2.5725 -1.7807 -0.3691
 6490SOL     OW31102   3.865   1.688   3.935 -0.2060  0.3389  0.0908
 6490SOL    HW131103   3.827   1.732   4.011  0.3326 -0.1693  0.6533
 6490SOL    HW231104   3.782   1.651   3.904  0.9759 -0.2557 -2.3817
 6491SOL     OW31105   3.547   3.392  11.104 -0.1550  0.1324 -0.1105
 6491SOL    HW131106   3.602   3.399  11.181 -0.0696  1.7177 -0.3185
 6491SOL    HW231107   3.609   3.388  11.031  0.3203 -0.1863  0.3147
 6492SOL     OW31108   0.057   1.100   3.869  0.6067  0.0897 -0.1427
 6492SOL    HW131109   4.736   1.057   3.808  0.1815 -0.1218  0.4216
 6492SOL    HW231110   0.075   1.037   3.939  0.6537 -0.0690 -0.3001
 6493SOL     OW31111   3.023   1.295   6.039 -0.1729 -0.6758  0.0437
 6493SOL    HW131112   3.117   1.298   6.052  0.0552 -1.3194 -1.3874
 6493SOL    HW231113   3.013   1.203   6.015  1.6812 -1.1107  0.9400
 6494SOL     OW31114   3.687   3.077  13.659  0.1865  0.8300 -0.4865
 6494SOL    HW131115   3.624   3.139  13.697 -0.5466 -0.1148 -0.1630
 6494SOL    HW231116   3.752   3.077  13.730  1.2226  2.9045 -1.4383
 6495SOL     OW31117   3.179   1.968   6.471  0.3092  0.1212  0.1299
 6495SOL    HW131118   3.094   1.935   6.500 -0.4865  1.5980 -0.5181
 6495SOL    HW231119   3.190   2.051   6.519  0.6294 -1.1008  2.1955
 6496SOL     OW31120   3.550   2.029   3.327 -0.0467 -0.1777 -0.4923
 6496SOL    HW131121   3.611   1.970   3.283 -0.1076 -1.0454  0.6025
 6496SOL    HW231122   3.465   1.988   3.307  0.7763 -1.6581 -0.9201
 6497SOL     OW31123   3.392   2.517   5.496 -0.1436 -0.2419  0.3170
 6497SOL    HW131124   3.477   2.532   5.537  0.0391  2.4332 -1.0441
 6497SOL    HW231125   3.384   2.604   5.457  0.0105 -1.1424 -1.7585
 6498SOL     OW31126   3.330   3.716   3.649  0.7127  0.0196 -0.5358
 6498SOL    HW131127   3.385   3.657   3.599  0.8279  0.8066 -1.3388
 6498SOL    HW231128   3.267   3.743   3.582  1.1161  1.1624 -0.4504
 6499SOL     OW31129   2.340   0.425   5.263  0.1246  0.6010 -0.1606
 6499SOL    HW131130   2.410   0.395   5.205  0.4621  1.5760 -0.2583
 6499SOL    HW231131   2.257   0.407   5.218 -0.4435 -0.8955  1.4525
 6500SOL     OW31132   1.449   3.768   7.638  0.5159  0.1837  0.6062
 6500SOL    HW131133   1.524   3.798   7.586  0.1743 -1.0285 -0.5824
 6500SOL    HW231134   1.491   3.782   7.723  1.6224 -0.9268  0.2366
 6501SOL     OW31135   0.559   0.995   6.084  0.8862  0.3211  0.2204
 6501SOL    HW131136   0.641   0.995   6.036  1.9252  1.0586  1.9740
 6501SOL    HW231137   0.519   1.059   6.026  0.7035  0.5942  0.6413
 6502SOL     OW31138   2.654   3.319   7.055  0.3932  0.1974  0.2193
 6502SOL    HW131139   2.731   3.276   7.020  0.8985  1.8365 -0.6733
 6502SOL    HW231140   2.697   3.389   7.104  1.1602  0.3683 -0.6999
 6503SOL     OW31141   2.734   0.238   3.688 -0.2158 -0.1606 -0.1824
 6503SOL    HW131142   2.797   0.167   3.701 -1.2834 -1.0758 -0.0231
 6503SOL    HW231143   2.773   0.280   3.612 -1.7043 -0.6736 -1.2367
 6504SOL     OW31144   3.188   4.170  11.931 -0.5117  0.3584 -0.6052
 6504SOL    HW131145   3.160   4.251  11.973 -0.8416 -0.1089  0.0860
 6504SOL    HW231146   3.133   4.174  11.853 -1.1296 -2.6709 -0.3310
 6505SOL     OW31147   4.090   0.098   7.348  0.1908 -0.4528 -0.0085
 6505SOL    HW131148   4.127   0.174   7.304  1.9095 -2.1011 -1.3883
 6505SOL    HW231149   4.171   0.054   7.374  1.6898  2.7074  0.6453
 6506SOL     OW31150   1.452   0.188   9.912 -0.5681  0.5172 -0.0613
 6506SOL    HW131151   1.490   0.100   9.906  1.9529  1.5482  0.6876
 6506SOL    HW231152   1.366   0.178   9.872 -0.0074 -1.9045 -0.6465
 6507SOL     OW31153   2.842   1.866   9.855  0.1458 -0.6888  0.3483
 6507SOL    HW131154   2.843   1.915   9.937  3.3033 -0.0491 -0.0832
 6507SOL    HW231155   2.930   1.832   9.868 -0.0828 -0.3938  2.6493
 6508SOL     OW31156   1.276   3.004   7.505  0.6268  0.2756  0.2041
 6508SOL    HW131157   1.229   2.954   7.571 -0.7171  1.3966  0.1005
 6508SOL    HW231158   1.306   3.081   7.554 -2.2370  1.3629  0.2334
 6509SOL     OW31159   2.538   0.305   7.454  0.0902 -0.1478 -0.3362
 6509SOL    HW131160   2.614   0.279   7.507 -0.7546 -0.5455  0.6841
 6509SOL    HW231161   2.583   0.329   7.373  0.0550 -0.9876 -0.5990
 6510SOL     OW31162   3.772   3.002   5.093 -0.0072  0.3875  0.4316
 6510SOL    HW131163   3.754   2.931   5.032 -1.2225 -0.1004  1.3587
 6510SOL    HW231164   3.797   2.944   5.165  3.4088  1.6458  0.2265
 6511SOL     OW31165   1.660   0.418   6.941 -0.1370 -0.1959  0.5875
 6511SOL    HW131166   1.728   0.422   6.874 -1.9722  2.1159 -1.1413
 6511SOL    HW231167   1.712   0.462   7.009 -1.0954  1.3503  0.3290
 6512SOL     OW31168   3.289   1.300  13.098  0.4406  0.5374  0.4597
 6512SOL    HW131169   3.382   1.309  13.080  0.5394 -0.6063  0.3995
 6512SOL    HW231170   3.250   1.293  13.011  0.7554  0.5239  0.3198
 6513SOL     OW31171   1.195   2.976  15.203 -0.3827  0.5363 -0.0140
 6513SOL    HW131172   1.260   3.041  15.179  1.5823 -0.4121  2.7494
 6513SOL    HW231173   1.236   2.939  15.282 -1.5572  0.0932  0.3938
 6514SOL     OW31174   3.392   0.327   5.119 -0.1780 -0.0519  0.4484
 6514SOL    HW131175   3.359   0.366   5.200 -1.3636 -0.6394  0.2497
 6514SOL    HW231176   3.311   0.327   5.067  1.0694 -2.4647 -1.5166
 6515SOL     OW31177   4.104   1.050   9.087 -0.5240 -0.8039 -0.4641
 6515SOL    HW131178   4.189   1.027   9.125 -0.9925 -1.1775  0.3830
 6515SOL    HW231179   4.076   0.964   9.057 -2.6171 -0.7997  1.4325
 6516SOL     OW31180   1.405   2.465   4.791 -0.3890  0.2508 -0.0923
 6516SOL    HW131181   1.421   2.464   4.696 -0.4537 -0.0547 -0.1022
 6516SOL    HW231182   1.339   2.396   4.785  0.6836 -0.8736  0.9729
 6517SOL     OW31183   3.145   3.935  11.721  0.1507 -0.7990 -0.0743
 6517SOL    HW131184   3.065   3.983  11.701  0.4990  0.9879  2.8305
 6517SOL    HW231185   3.161   3.872  11.651 -1.1221 -2.4985  1.1849
 6518SOL     OW31186   0.805   0.404   6.427  0.2767 -0.1303  0.4476
 6518SOL    HW131187   0.862   0.450   6.366 -0.2175  0.4111  0.3900
 6518SOL    HW231188   0.876   0.399   6.491  1.0366  0.1490 -0.3721
 6519SOL     OW31189   1.667   3.769   4.417  0.0491 -0.0768 -0.3982
 6519SOL    HW131190   1.592   3.809   4.462 -1.1680 -1.8229 -0.8823
 6519SOL    HW231191   1.649   3.789   4.326  1.6081 -1.5522 -1.0275
 6520SOL     OW31192   0.651   0.317   9.892  0.3996  0.3668  0.2539
 6520SOL    HW131193   0.689   0.260   9.826  0.1741 -2.0060  2.1888
 6520SOL    HW231194   0.666   0.270   9.974 -0.7108  0.9240  0.7808
 6521SOL     OW31195   3.925   3.482  15.619  0.3788 -0.2033  0.2182
 6521SOL    HW131196   3.902   3.561  15.571  3.0370  0.8400  0.6486
 6521SOL    HW231197   3.918   3.495  15.713  0.2118 -2.9095  0.5706
 6522SOL     OW31198   4.358   2.890   8.033  0.8342  0.0027  0.0525
 6522SOL    HW131199   4.421   2.960   8.047  0.0058  0.9391 -0.8652
 6522SOL    HW231200   4.326   2.885   8.123  0.1052  1.0476 -0.1515
 6523SOL     OW31201   2.450   0.313   9.720 -0.0129 -0.2786  0.5067
 6523SOL    HW131202   2.519   0.253   9.691  0.5816 -0.2644  1.8949
 6523SOL    HW231203   2.484   0.397   9.689  0.0826 -0.7693 -0.7096
 6524SOL     OW31204   3.083   1.242   4.935  0.0839  0.5335 -0.5755
 6524SOL    HW131205   3.035   1.265   4.855  1.3476  0.6267 -1.3001
 6524SOL    HW231206   3.174   1.265   4.922  0.6508 -0.0469  2.2767
 6525SOL     OW31207   4.087   4.452   6.926  0.3357  0.2343 -0.1566
 6525SOL    HW131208   4.167   4.439   6.875  0.3131 -0.3920 -0.0380
 6525SOL    HW231209   4.106   4.522   6.988  0.3518 -0.5262  0.6955
 6526SOL     OW31210   1.194   1.030   7.056  0.6711 -0.3002 -0.5002
 6526SOL    HW131211   1.193   1.118   7.095  1.4111  0.5660 -2.4466
 6526SOL    HW231212   1.277   0.999   7.091  1.0242  2.2318  0.8943
 6527SOL     OW31213   0.859   0.074   8.936  0.1945  0.4599 -0.2519
 6527SOL    HW131214   0.911   0.067   8.856  0.8307  1.7855  0.0397
 6527SOL    HW231215   0.814   0.155   8.911 -0.4084  0.1881 -0.0500
 6528SOL     OW31216   3.283   4.350  12.340 -0.5241 -0.1326  0.4302
 6528SOL    HW131217   3.277   4.267  12.387  1.2562 -1.6118 -1.9283
 6528SOL    HW231218   3.277   4.409  12.415  2.4423  2.2847 -1.2340
 6529SOL     OW31219   2.408   3.148  16.958 -0.5190 -0.4188  0.5939
 6529SOL    HW131220   2.352   3.176  16.886 -1.0427 -1.1265  0.7326
 6529SOL    HW231221   2.431   3.059  16.931  1.9492  0.1770  0.6905
 6530SOL     OW31222   4.581   3.773   2.103 -0.0861 -0.0044 -0.2349
 6530SOL    HW131223   4.501   3.823   2.087 -0.1182 -0.2772 -0.9525
 6530SOL    HW231224   4.562   3.687   2.140  1.2905  0.2240  1.0115
 6531SOL     OW31225   2.542   4.708   4.406  0.6993  0.2253  0.3085
 6531SOL    HW131226   2.486   0.035   4.364 -0.1075  0.1959  1.3488
 6531SOL    HW231227   2.535   0.001   4.496  1.9740  0.7473  0.2244
 6532SOL     OW31228   0.605   1.721   5.555 -0.1603  0.0696  0.5870
 6532SOL    HW131229   0.560   1.786   5.609  0.2638 -0.4389  1.5436
 6532SOL    HW231230   0.629   1.767   5.475 -1.1662  0.9456  0.7831
 6533SOL     OW31231   0.207   1.591   3.312 -0.2056 -0.4607 -0.2387
 6533SOL    HW131232   0.174   1.650   3.380  1.4324  0.8654 -0.6082
 6533SOL    HW231233   0.192   1.644   3.234  1.7509  0.9233  0.3390
 6534SOL     OW31234   3.684   0.921   7.914  0.0437  0.0009 -0.2531
 6534SOL    HW131235   3.689   0.923   7.818 -1.8186 -1.9231 -0.3893
 6534SOL    HW231236   3.604   0.963   7.943  0.4301  1.7999 -1.7755
 6535SOL     OW31237   2.166   1.653   6.256  0.3465 -0.1894  0.1710
 6535SOL    HW131238   2.077   1.690   6.255  0.0323 -0.8659  1.7588
 6535SOL    HW231239   2.150   1.567   6.218 -0.7394  0.4176 -0.7539
 6536SOL     OW31240   3.862   3.387   3.903 -0.2847  0.2303  0.0536
 6536SOL    HW131241   3.841   3.480   3.910  0.0734  0.2845  0.3918
 6536SOL    HW231242   3.939   3.384   3.960 -1.3484  1.8724  1.5632
 6537SOL     OW31243   1.862   0.636   5.102 -0.0918 -0.1727  0.4556
 6537SOL    HW131244   1.823   0.612   5.186 -0.3717  0.5185  0.5236
 6537SOL    HW231245   1.928   0.696   5.134  0.5688  0.6179 -2.3558
 6538SOL     OW31246   2.507   0.258  10.804 -0.2536  0.0040 -0.0442
 6538SOL    HW131247   2.470   0.236  10.889 -0.0419 -1.1535 -0.2556
 6538SOL    HW231248   2.466   0.191  10.749 -0.7152  0.7828 -0.6562
 6539SOL     OW31249   0.017   4.336   5.181 -0.2042  0.5519  0.0495
 6539SOL    HW131250   0.025   4.267   5.247 -1.1884 -0.9888 -1.4600
 6539SOL    HW231251   0.099   4.384   5.196 -0.1273 -0.2488  2.2073
 6540SOL     OW31252   0.364   0.537   9.764 -0.1632  0.3186  0.8022
 6540SOL    HW131253   0.384   0.568   9.852 -1.9089  1.9582  0.6236
 6540SOL    HW231254   0.269   0.534   9.760 -0.1852  0.3661  1.2901
 6541SOL     OW31255   0.051   4.722  16.109  0.9432  0.0006 -0.7287
 6541SOL    HW131256   0.006   4.660  16.052  0.8227  0.4269 -1.0984
 6541SOL    HW231257   0.089   0.042  16.044  0.0782  4.0103  2.3670
 6542SOL     OW31258   3.779   3.350   4.868 -0.4194  0.0209 -0.2921
 6542SOL    HW131259   3.868   3.348   4.833 -0.5665 -2.4410 -0.4705
 6542SOL    HW231260   3.717   3.365   4.797 -0.7898 -0.2478 -0.0214
 6543SOL     OW31261   1.921   1.078   3.107  0.1421  0.2642 -0.1943
 6543SOL    HW131262   1.939   1.002   3.163 -1.9338 -0.9139 -1.1168
 6543SOL    HW231263   1.924   1.033   3.022 -2.6487  1.8362 -1.1217
 6544SOL     OW31264   2.101   3.300   5.585  0.3526  0.4526  0.0376
 6544SOL    HW131265   2.061   3.214   5.598 -1.1232  1.2768  0.9836
 6544SOL    HW231266   2.161   3.290   5.511 -0.5041  0.0292 -0.6032
 6545SOL     OW31267   0.434   1.833   7.558 -0.2418 -0.3637 -0.2846
 6545SOL    HW131268   0.489   1.821   7.480  2.0111  0.9368  1.0862
 6545SOL    HW231269   0.456   1.921   7.589  1.2768 -0.6901 -0.4105
 6546SOL     OW31270   3.817   3.388   2.437  0.2367 -0.1015 -0.0766
 6546SOL    HW131271   3.783   3.390   2.348 -1.4848  1.5936  0.6113
 6546SOL    HW231272   3.879   3.316   2.436 -1.2699 -1.3822 -0.2185
 6547SOL     OW31273   2.518   4.243   1.947 -0.0208 -0.3167  0.5233
 6547SOL    HW131274   2.609   4.243   1.917 -1.2318  1.1881 -3.0726
 6547SOL    HW231275   2.516   4.148   1.963 -0.3141 -0.3490  0.2967
 6548SOL     OW31276   2.403   4.365  13.320 -0.2760 -0.2374  0.2341
 6548SOL    HW131277   2.449   4.441  13.355 -0.2020  0.0359 -0.4501
 6548SOL    HW231278   2.320   4.403  13.290 -0.4469 -1.1670 -0.4556
 6549SOL     OW31279   2.772   3.073   7.627  0.1580  0.9643  0.3685
 6549SOL    HW131280   2.683   3.107   7.620 -0.7505 -1.5513 -0.0920
 6549SOL    HW231281   2.748   2.983   7.646  1.8133  0.7198  1.2957
 6550SOL     OW31282   0.190   2.588   5.580 -0.1087  0.8103  0.0278
 6550SOL    HW131283   0.283   2.581   5.603 -1.0498 -0.3523  3.4795
 6550SOL    HW231284   0.155   2.611   5.666 -2.0881  0.0079 -0.5683
 6551SOL     OW31285   2.300   0.385  13.270 -0.0368  0.1179  0.3374
 6551SOL    HW131286   2.255   0.384  13.186  0.8505  2.2835 -0.1493
 6551SOL    HW231287   2.338   0.472  13.265 -0.5160  0.3782  1.2978
 6552SOL     OW31288   3.809   1.595  12.851  0.5816 -0.5670  0.4072
 6552SOL    HW131289   3.835   1.540  12.925  0.9499 -2.4685 -1.1308
 6552SOL    HW231290   3.878   1.581  12.786  0.6244 -0.6385  0.4677
 6553SOL     OW31291   3.671   2.010  13.391 -0.2594  0.3220 -0.7948
 6553SOL    HW131292   3.630   1.925  13.378  0.2535 -0.1250  0.5873
 6553SOL    HW231293   3.719   2.013  13.308 -0.4806  1.5989 -0.8717
 6554SOL     OW31294   0.220   0.479   9.278 -0.0426  0.2248 -0.5192
 6554SOL    HW131295   0.266   0.550   9.323  0.2611 -1.5765  2.0126
 6554SOL    HW231296   0.282   0.406   9.281 -0.6358 -0.2210  0.6950
 6555SOL     OW31297   1.796   0.856  16.178  0.4905  0.3712  0.3310
 6555SOL    HW131298   1.754   0.862  16.264 -1.4829  0.6014 -0.6411
 6555SOL    HW231299   1.738   0.906  16.121  1.1123  1.6389  0.8282
 6556SOL     OW31300   2.608   3.637   1.702 -0.2438  0.0690  0.2176
 6556SOL    HW131301   2.702   3.630   1.689 -0.4227 -1.8924 -0.0075
 6556SOL    HW231302   2.586   3.545   1.694  0.1760 -0.1130  1.1061
 6557SOL     OW31303   1.047   2.041   7.681  0.1606  0.1006  0.0251
 6557SOL    HW131304   0.981   2.069   7.617  1.8754  1.1682 -1.3069
 6557SOL    HW231305   1.107   2.114   7.667  0.0924  0.3987  1.2841
 6558SOL     OW31306   0.197   2.154   6.752 -0.0132  0.2565 -0.1397
 6558SOL    HW131307   0.140   2.082   6.727  1.3834 -0.5085 -1.1340
 6558SOL    HW231308   0.153   2.219   6.698  1.5505  0.6843 -0.9051
 6559SOL     OW31309   3.527   1.306   7.352  0.1156  0.0167  0.2009
 6559SOL    HW131310   3.589   1.378   7.364 -1.0429  1.0521 -0.0071
 6559SOL    HW231311   3.472   1.348   7.285  0.7756 -2.4224 -1.9002
 6560SOL     OW31312   2.070   2.652   0.508 -0.0456  0.0434  0.0246
 6560SOL    HW131313   2.155   2.608   0.496 -0.1081  0.6059 -2.3218
 6560SOL    HW231314   2.099   2.740   0.485 -2.0475  0.4897 -0.7611
 6561SOL     OW31315   3.213   0.100   3.658  0.2528 -0.5279 -0.2203
 6561SOL    HW131316   3.209   0.011   3.624 -2.7853 -0.3609 -0.3038
 6561SOL    HW231317   3.298   0.091   3.702  0.5598  0.2431 -0.6556
 6562SOL     OW31318   1.485   2.729   5.336 -0.0565  0.1672  0.0564
 6562SOL    HW131319   1.447   2.788   5.270  1.0750  1.5245  0.6042
 6562SOL    HW231320   1.414   2.718   5.399 -0.2524 -1.7418 -0.5044
 6563SOL     OW31321   4.307   4.024  14.242  0.3375 -0.3955 -0.1199
 6563SOL    HW131322   4.239   4.022  14.175  2.5743  0.9216 -2.4543
 6563SOL    HW231323   4.328   3.932  14.254  1.0159 -0.0080  1.6132
 6564SOL     OW31324   0.980   2.357   5.779 -0.7096  0.0040  0.6571
 6564SOL    HW131325   1.030   2.278   5.798  0.3878  1.1153  2.2835
 6564SOL    HW231326   0.908   2.331   5.837 -0.1372  0.0732  1.3931
 6565SOL     OW31327   2.212   2.797   7.255  0.3152 -0.6577  0.1566
 6565SOL    HW131328   2.287   2.847   7.225  0.2087 -0.3401  0.4228
 6565SOL    HW231329   2.214   2.825   7.346 -1.4222 -0.7356  0.2308
 6566SOL     OW31330   4.701   2.375  12.784  0.3724  0.0745 -0.1947
 6566SOL    HW131331   4.706   2.420  12.700 -0.8780 -1.1242 -0.9226
 6566SOL    HW231332   0.041   2.408  12.825  0.3930 -0.1871 -0.0239
 6567SOL     OW31333   0.331   3.615   9.742  0.4113  0.4857  0.2483
 6567SOL    HW131334   0.310   3.700   9.781  0.7081  1.4155 -1.5914
 6567SOL    HW231335   0.295   3.555   9.807 -2.3746  0.6603 -1.1799
 6568SOL     OW31336   0.830   1.916   7.385  0.0605  0.4088 -0.1775
 6568SOL    HW131337   0.833   1.998   7.434  0.1575  0.0363  0.4445
 6568SOL    HW231338   0.921   1.904   7.358  0.4668  0.2694  1.2176
 6569SOL     OW31339   2.505   2.833   4.445 -0.2483 -0.3601  0.4731
 6569SOL    HW131340   2.469   2.851   4.358  0.4579 -0.3114  0.1915
 6569SOL    HW231341   2.462   2.901   4.496  0.6191 -0.2792  1.0978
 6570SOL     OW31342   0.018   0.615   9.782 -0.0306 -0.8421  0.4839
 6570SOL    HW131343   0.060   0.695   9.814  1.3400 -0.6460 -1.8529
 6570SOL    HW231344   4.705   0.587   9.858 -2.6806  0.5202 -0.8258
 6571SOL     OW31345   4.319   2.186  13.329  0.1816  0.2154 -0.0637
 6571SOL    HW131346   4.234   2.228  13.323  0.4466  0.7146 -0.2773
 6571SOL    HW231347   4.357   2.234  13.403 -1.4204  1.6092 -0.1477
 6572SOL     OW31348   1.578   3.755   5.110  0.4065  0.5899 -0.6460
 6572SOL    HW131349   1.578   3.846   5.082 -1.2889  1.2491  1.4957
 6572SOL    HW231350   1.547   3.765   5.200  0.8610 -0.0449 -0.4192
 6573SOL     OW31351   0.296   2.064  12.406 -0.4902 -0.1323  0.4644
 6573SOL    HW131352   0.295   2.041  12.498 -1.1794 -1.7243  0.0465
 6573SOL    HW231353   0.312   2.158  12.411  2.0271 -0.3613 -2.7367
 6574SOL     OW31354   2.552   2.397   3.006  0.2061 -0.1178  0.0250
 6574SOL    HW131355   2.599   2.363   2.930  1.3336 -0.4319  0.8850
 6574SOL    HW231356   2.566   2.491   2.995 -1.5959  0.1731  0.0543
 6575SOL     OW31357   4.694   2.681   0.808 -0.1955 -0.0365 -0.4586
 6575SOL    HW131358   4.696   2.654   0.899 -1.0780 -0.0114 -0.4260
 6575SOL    HW231359   4.731   2.768   0.820 -0.5430 -0.0910  0.9093
 6576SOL     OW31360   2.936   0.596  13.200 -0.0687  0.0383 -0.0079
 6576SOL    HW131361   2.870   0.665  13.193 -0.1304 -0.0550 -0.3485
 6576SOL    HW231362   2.902   0.536  13.266 -3.3835  3.2354  1.1669
 6577SOL     OW31363   2.980   0.219   6.329 -0.3190  0.0286  0.1017
 6577SOL    HW131364   2.982   0.309   6.362  2.2712  0.1782 -0.4826
 6577SOL    HW231365   3.055   0.184   6.377 -0.0614 -0.0575 -0.3695
 6578SOL     OW31366   4.549   3.501   5.391 -0.2307  0.2413 -0.2647
 6578SOL    HW131367   4.534   3.581   5.340  1.7582  1.5983  1.2620
 6578SOL    HW231368   4.497   3.528   5.466  2.2871 -0.9524  1.9237
 6579SOL     OW31369   4.272   0.267   9.203 -0.3719  0.5330 -0.5267
 6579SOL    HW131370   4.285   0.327   9.130  0.3514  2.2240  0.9606
 6579SOL    HW231371   4.241   0.192   9.153 -0.8479 -0.7221  1.6335
 6580SOL     OW31372   0.637   0.400   1.377 -0.4335  0.0671 -0.3048
 6580SOL    HW131373   0.562   0.396   1.317  0.4772  1.4132 -1.5181
 6580SOL    HW231374   0.645   0.307   1.400  3.3270  0.3357 -0.5694
 6581SOL     OW31375   0.463   1.037  13.349  0.3659  0.2249 -0.8346
 6581SOL    HW131376   0.531   0.989  13.397 -2.4331 -1.5566  1.3573
 6581SOL    HW231377   0.429   1.090  13.421 -0.9282 -0.9436 -0.5988
 6582SOL     OW31378   2.587   3.090  11.735 -0.0590 -0.5534 -0.1256
 6582SOL    HW131379   2.575   3.182  11.757  0.1316 -0.1567 -1.6818
 6582SOL    HW231380   2.539   3.087  11.652 -0.1508  2.4188 -0.1608
 6583SOL     OW31381   0.474   3.626   5.931 -0.0280  0.2743  0.3696
 6583SOL    HW131382   0.438   3.538   5.917  0.0062  0.3147  0.0366
 6583SOL    HW231383   0.559   3.609   5.972  1.0450  1.0215 -1.5735
 6584SOL     OW31384   0.751   1.572   2.130  0.0186 -0.1623  0.0245
 6584SOL    HW131385   0.664   1.577   2.169 -0.0672 -3.6757  0.2704
 6584SOL    HW231386   0.802   1.526   2.197 -0.7105 -3.0840 -1.4001
 6585SOL     OW31387   0.146   1.773   7.326 -0.1492 -0.3548 -0.2052
 6585SOL    HW131388   0.191   1.852   7.296  0.4607 -0.8771 -0.6831
 6585SOL    HW231389   0.138   1.780   7.421 -0.7253  0.2939 -0.3031
 6586SOL     OW31390   0.721   4.452  12.291  1.2515 -0.2922 -0.7191
 6586SOL    HW131391   0.719   4.463  12.196  1.7073 -2.2518 -0.9680
 6586SOL    HW231392   0.760   4.365  12.298 -0.1565 -0.7777  1.2045
 6587SOL     OW31393   1.483   1.182   5.794 -0.1423 -0.8682  0.5640
 6587SOL    HW131394   1.429   1.206   5.869  0.8890 -0.9686  1.3375
 6587SOL    HW231395   1.561   1.224   5.830 -1.7890  3.3151 -0.7982
 6588SOL     OW31396   4.564   1.318   4.746  0.6251 -0.1112 -0.2245
 6588SOL    HW131397   4.618   1.243   4.770  0.1837 -0.1281  0.7068
 6588SOL    HW231398   4.519   1.283   4.670 -2.3906  1.4793  0.8430
 6589SOL     OW31399   4.223   1.369   6.532  0.0554 -0.3771 -0.0799
 6589SOL    HW131400   4.268   1.433   6.477 -1.2775  2.0083  1.5976
 6589SOL    HW231401   4.139   1.415   6.540  1.0230  1.6111 -1.3714
 6590SOL     OW31402   0.938   3.267   0.529  0.1543  0.4649 -0.1068
 6590SOL    HW131403   0.983   3.183   0.536  0.6446  0.5893 -1.7770
 6590SOL    HW231404   1.007   3.333   0.528 -0.4073  1.0920  2.8784
 6591SOL     OW31405   0.056   1.326   2.084  0.1453  0.0039  0.0450
 6591SOL    HW131406   0.081   1.271   2.010 -0.8050 -0.1038 -0.1918
 6591SOL    HW231407   0.042   1.252   2.144  1.8799 -1.3537 -1.2256
 6592SOL     OW31408   0.832   4.322  11.049  0.2599 -0.5971 -0.3698
 6592SOL    HW131409   0.862   4.283  11.131 -0.1484 -0.7793 -0.3066
 6592SOL    HW231410   0.919   4.354  11.025 -0.1353 -1.2510 -2.6893
 6593SOL     OW31411   4.410   3.874   9.587 -0.2364  0.3699 -0.0826
 6593SOL    HW131412   4.488   3.913   9.546 -0.1834  1.4632  1.0571
 6593SOL    HW231413   4.402   3.934   9.661  1.4303  0.6860 -0.1542
 6594SOL     OW31414   1.392   3.191  17.299 -0.2539  0.0175  0.1668
 6594SOL    HW131415   1.462   3.201  17.235 -0.1033 -2.5189 -0.0539
 6594SOL    HW231416   1.387   3.096  17.298 -3.0205  0.1262  2.4755
 6595SOL     OW31417   0.326   3.832  12.159 -0.2346  0.2095 -0.0572
 6595SOL    HW131418   0.281   3.754  12.191  0.6826  0.7939  2.7019
 6595SOL    HW231419   0.271   3.863  12.087 -2.2906  1.0238  1.8750
 6596SOL     OW31420   4.211   3.150  14.369  0.3286  0.1278  0.7076
 6596SOL    HW131421   4.251   3.234  14.391 -0.7962  1.4477 -2.2506
 6596SOL    HW231422   4.272   3.091  14.414  2.5356  2.3844  0.6783
 6597SOL     OW31423   0.627   0.724  13.729 -0.5768  0.7982 -0.5978
 6597SOL    HW131424   0.576   0.731  13.649 -0.2486 -0.0073 -0.8795
 6597SOL    HW231425   0.662   0.812  13.739  1.1239  0.0510  0.0422
 6598SOL     OW31426   0.347   0.486   5.515  0.6534 -0.0015 -0.4903
 6598SOL    HW131427   0.374   0.394   5.522  1.3735  0.3414  1.3502
 6598SOL    HW231428   0.307   0.504   5.601  0.7796 -0.4558 -0.3383
 6599SOL     OW31429   1.442   1.015   7.184  0.2059  0.0380  0.3963
 6599SOL    HW131430   1.465   0.957   7.257 -1.6349 -0.3238  0.6922
 6599SOL    HW231431   1.510   1.081   7.194 -1.4617  1.8925 -0.4405
 6600SOL     OW31432   2.571   0.264   2.574  0.1998  0.5756 -0.0226
 6600SOL    HW131433   2.538   0.210   2.646  2.3222 -2.1008 -1.0619
 6600SOL    HW231434   2.660   0.244   2.602 -0.2738 -0.5570  0.6769
 6601SOL     OW31435   4.639   1.722   5.660 -0.2820  0.7514 -0.0877
 6601SOL    HW131436   4.629   1.659   5.589 -0.1034 -0.9102  1.3617
 6601SOL    HW231437   4.678   1.800   5.620 -0.2682  1.1196  0.6444
 6602SOL     OW31438   0.257   0.403  17.230 -0.2261  0.3910 -0.6137
 6602SOL    HW131439   0.194   0.456  17.278  0.9284 -1.0130  2.4049
 6602SOL    HW231440   0.275   0.456  17.152  2.5472 -0.5339 -0.6033
 6603SOL     OW31441   3.894   0.856   1.583  0.5234 -0.0493 -0.4341
 6603SOL    HW131442   3.819   0.896   1.626  0.2845 -0.0467 -0.8586
 6603SOL    HW231443   3.953   0.824   1.651 -0.4071 -4.0949 -1.5589
 6604SOL     OW31444   0.127   2.269   8.986  0.0826  0.1582  0.2779
 6604SOL    HW131445   0.171   2.350   8.960 -0.3885  0.8324  1.5748
 6604SOL    HW231446   0.129   2.209   8.912 -0.9191  0.3137  0.1193
 6605SOL     OW31447   1.600   1.468   5.152 -0.1145 -0.0380 -0.1956
 6605SOL    HW131448   1.621   1.386   5.196 -0.3817 -1.1601 -2.1727
 6605SOL    HW231449   1.531   1.445   5.090 -1.0967 -1.4181  1.4351
 6606SOL     OW31450   2.275   3.933   9.721  0.1159  0.1351 -0.3247
 6606SOL    HW131451   2.346   3.870   9.712 -0.9601 -1.0461 -0.6079
 6606SOL    HW231452   2.222   3.923   9.642 -0.0820 -2.9399  0.2006
 6607SOL     OW31453   1.950   2.669   2.337 -0.5221  0.3679 -0.2858
 6607SOL    HW131454   1.943   2.587   2.386 -1.8041 -0.0634 -1.2122
 6607SOL    HW231455   1.880   2.657   2.273  0.2083 -0.4605 -0.9356
 6608SOL     OW31456   2.910   4.486   4.415  0.0836 -0.2534 -0.2019
 6608SOL    HW131457   3.002   4.462   4.402  0.4100  1.4226 -0.8645
 6608SOL    HW231458   2.920   4.560   4.474 -1.9476  1.0375 -1.5005
 6609SOL     OW31459   3.517   0.245  12.439 -0.1971 -0.1434 -0.0465
 6609SOL    HW131460   3.496   0.257  12.347 -0.8269 -1.4385 -0.0749
 6609SOL    HW231461   3.517   0.335  12.471 -0.4485 -0.3272  0.4702
 6610SOL     OW31462   4.078   1.687   9.178  0.2345 -0.0162  0.2500
 6610SOL    HW131463   4.083   1.776   9.144 -1.8572  0.3017  0.7732
 6610SOL    HW231464   4.116   1.638   9.104  1.3282  2.2493 -0.6896
 6611SOL     OW31465   2.136   1.106  16.317  0.1615 -0.3120 -0.6040
 6611SOL    HW131466   2.217   1.080  16.274  0.7743 -1.0787  0.9949
 6611SOL    HW231467   2.167   1.082  16.405  1.4577 -0.5747 -1.1385
 6612SOL     OW31468   1.175   0.302   9.154 -0.2740 -0.1540 -0.1138
 6612SOL    HW131469   1.250   0.354   9.182 -2.2408  1.7015  1.5848
 6612SOL    HW231470   1.186   0.326   9.061 -0.0484  0.5592  0.0988
 6613SOL     OW31471   4.414   2.144   8.752  0.3719 -0.1917  0.3595
 6613SOL    HW131472   4.478   2.127   8.683  0.0205  2.2121 -0.5604
 6613SOL    HW231473   4.427   2.238   8.766 -0.6412  0.0155 -0.1216
 6614SOL     OW31474   1.955   0.108   7.360  0.6555 -0.2317 -0.1702
 6614SOL    HW131475   1.978   0.033   7.305  0.6815 -1.0297  0.9303
 6614SOL    HW231476   2.038   0.155   7.362  0.8594 -0.6220  0.3266
 6615SOL     OW31477   1.583   2.693  17.629 -0.0350  0.2648 -0.1739
 6615SOL    HW131478   1.551   2.783  17.636  0.5991  0.5871 -1.5680
 6615SOL    HW231479   1.518   2.643  17.579 -1.9437  1.9017  0.6662
 6616SOL     OW31480   3.264   1.977   4.578 -0.2089 -0.0917  0.3773
 6616SOL    HW131481   3.247   1.923   4.655  0.8209 -1.4275 -0.3539
 6616SOL    HW231482   3.263   1.915   4.505 -1.1925  0.0131  0.2939
 6617SOL     OW31483   1.265   3.042   5.560 -0.4725  0.3640 -0.7316
 6617SOL    HW131484   1.267   2.948   5.542  1.0748  0.2395  0.1189
 6617SOL    HW231485   1.264   3.069   5.468  0.1924 -2.0125 -1.4249
 6618SOL     OW31486   1.897   4.309   9.961 -0.5084 -0.4882 -0.0361
 6618SOL    HW131487   1.939   4.245   9.903 -1.3189 -0.4514 -0.6670
 6618SOL    HW231488   1.937   4.279  10.042  2.1924  0.3831 -1.0613
 6619SOL     OW31489   2.447   0.644   3.073 -0.6344  0.2842 -0.6999
 6619SOL    HW131490   2.503   0.581   3.027 -0.3540 -1.4489  1.9998
 6619SOL    HW231491   2.489   0.728   3.056  0.5334 -0.1140  0.1769
 6620SOL     OW31492   4.613   1.426   0.862  0.0557 -0.2934 -0.4007
 6620SOL    HW131493   4.521   1.449   0.877  0.3050  2.3398 -3.0658
 6620SOL    HW231494   4.608   1.331   0.850 -0.6668 -0.1667 -1.1082
 6621SOL     OW31495   4.071   0.314   8.700  0.1862 -0.2036  0.0920
 6621SOL    HW131496   3.980   0.286   8.709  0.0958  0.5996  1.6050
 6621SOL    HW231497   4.100   0.289   8.788 -0.2884 -2.7892 -0.4972
 6622SOL     OW31498   1.976   2.931   7.424  0.2715 -0.2805 -0.0852
 6622SOL    HW131499   1.956   2.898   7.512 -1.0775  0.8121  0.0109
 6622SOL    HW231500   2.061   2.972   7.440 -0.8161  2.2871 -0.8445
 6623SOL     OW31501   0.596   0.539   3.289  0.0429 -0.3801 -0.4328
 6623SOL    HW131502   0.623   0.630   3.291 -1.2468  0.0070 -0.4673
 6623SOL    HW231503   0.504   0.546   3.263  0.4240 -1.1495 -1.9914
 6624SOL     OW31504   0.037   2.296  15.691  0.1698 -0.0016  0.3267
 6624SOL    HW131505   0.010   2.379  15.728 -1.3265 -0.5577  0.4860
 6624SOL    HW231506   4.695   2.264  15.650  0.5528 -0.5031 -0.0454
 6625SOL     OW31507   3.380   1.653  12.937  0.0251  0.2297 -0.2652
 6625SOL    HW131508   3.457   1.596  12.945  1.7539  2.4607 -0.9998
 6625SOL    HW231509   3.414   1.729  12.984  0.9593  2.0373 -3.8547
 6626SOL     OW31510   1.336   3.903   5.733 -0.6332  0.0631 -0.2103
 6626SOL    HW131511   1.291   3.824   5.762 -0.4045  0.6571  1.8069
 6626SOL    HW231512   1.323   3.895   5.639 -0.8961 -0.6380 -0.1178
 6627SOL     OW31513   4.527   1.169  15.168  0.1713  0.2586  0.9127
 6627SOL    HW131514   4.596   1.105  15.150 -0.7547 -0.4543 -0.0232
 6627SOL    HW231515   4.455   1.109  15.182  1.0375 -0.7229  1.1390
 6628SOL     OW31516   0.907   1.276   3.561  0.4942 -0.2027 -0.1146
 6628SOL    HW131517   0.890   1.358   3.514 -0.0641  0.3496  1.0697
 6628SOL    HW231518   0.993   1.268   3.518  0.7209  0.2810  0.2436
 6629SOL     OW31519   2.188   3.911  17.012  0.1805  0.1505 -0.1285
 6629SOL    HW131520   2.183   3.966  16.933  1.4458 -0.7208 -0.8115
 6629SOL    HW231521   2.159   3.974  17.078 -0.2053  0.4497 -0.5743
 6630SOL     OW31522   2.329   1.116   7.952  0.0153  0.2287  0.8996
 6630SOL    HW131523   2.290   1.042   7.999  0.4551 -0.6734 -0.1328
 6630SOL    HW231524   2.313   1.183   8.018 -1.1468 -1.3310  2.1803
 6631SOL     OW31525   2.068   4.629   3.503  0.1428 -0.3240 -0.1248
 6631SOL    HW131526   2.138   4.663   3.557 -1.1712 -1.6684  2.4320
 6631SOL    HW231527   2.104   4.638   3.415 -3.0951 -0.4154 -1.4693
 6632SOL     OW31528   3.694   3.219  11.686  0.3370 -0.2709  0.2565
 6632SOL    HW131529   3.725   3.130  11.700  1.2306 -0.2002 -1.2317
 6632SOL    HW231530   3.609   3.188  11.654  0.4934 -0.8477  0.3953
 6633SOL     OW31531   0.773   1.674   3.972  0.2522 -0.2912 -0.1377
 6633SOL    HW131532   0.798   1.714   4.055 -0.5769 -1.2731  0.5997
 6633SOL    HW231533   0.770   1.584   4.006  1.7507 -0.5626 -0.7424
 6634SOL     OW31534   2.618   3.460   3.284  0.4227  0.0078 -0.5128
 6634SOL    HW131535   2.711   3.442   3.295  0.3929  1.3042  2.0011
 6634SOL    HW231536   2.604   3.400   3.211 -0.8370  0.2339 -0.4669
 6635SOL     OW31537   1.918   4.550   7.811  0.3776 -0.2654 -0.3398
 6635SOL    HW131538   1.888   4.629   7.855 -1.1548 -0.3827 -1.1522
 6635SOL    HW231539   1.967   4.584   7.737  0.6729 -2.4360 -1.1452
 6636SOL     OW31540   1.126   0.516   3.109  0.1429  0.4719 -0.0964
 6636SOL    HW131541   1.205   0.478   3.149  1.8717  3.3439 -0.7106
 6636SOL    HW231542   1.159   0.536   3.022 -1.0621  1.6825 -0.2772
 6637SOL     OW31543   4.295   2.379   2.475 -0.5888  0.0626 -0.4483
 6637SOL    HW131544   4.231   2.339   2.416  0.8997 -0.3850 -1.7625
 6637SOL    HW231545   4.380   2.376   2.432 -0.7765 -3.0158 -0.5900
 6638SOL     OW31546   3.033   4.179   6.974 -0.0101 -0.7771  0.0534
 6638SOL    HW131547   2.982   4.099   6.963 -0.5781 -0.4476  0.2800
 6638SOL    HW231548   2.959   4.239   6.970  0.1035 -0.7901 -1.9765
 6639SOL     OW31549   3.477   0.369   1.892  0.0432 -0.1982  0.1624
 6639SOL    HW131550   3.462   0.351   1.800 -0.1548 -0.2551  0.2052
 6639SOL    HW231551   3.399   0.337   1.938  1.1457 -0.3174  1.9592
 6640SOL     OW31552   1.180   4.312   5.066 -0.8548 -0.0734  0.0177
 6640SOL    HW131553   1.091   4.296   5.097 -1.0104  2.0191  0.6073
 6640SOL    HW231554   1.226   4.312   5.150  0.1559 -1.5086 -0.5428
 6641SOL     OW31555   1.574   0.639  15.001  0.5593 -0.2891  0.5974
 6641SOL    HW131556   1.498   0.599  15.042  1.2779 -2.0398  0.2229
 6641SOL    HW231557   1.588   0.575  14.931  0.6714 -0.4091  0.7285
 6642SOL     OW31558   0.486   1.115  16.406  0.2452  0.3443  0.3861
 6642SOL    HW131559   0.518   1.188  16.354  0.7785  0.2032  0.5088
 6642SOL    HW231560   0.424   1.157  16.465  2.4175  2.9812  0.8150
 6643SOL     OW31561   1.885   1.170   0.446 -0.1702 -0.0396  0.1265
 6643SOL    HW131562   1.896   1.257   0.483  0.3433 -1.6703  3.9034
 6643SOL    HW231563   1.818   1.192   0.381  0.6603  3.4351  0.4675
 6644SOL     OW31564   3.724   0.336   7.301 -0.3173 -0.1495  0.1270
 6644SOL    HW131565   3.647   0.322   7.246 -2.6399  0.0026  3.3562
 6644SOL    HW231566   3.759   0.408   7.249  0.2494 -0.2983  0.3089
 6645SOL     OW31567   3.019   2.581   2.551 -0.3844  0.0666  0.3565
 6645SOL    HW131568   3.054   2.668   2.568 -0.7622  0.6680 -1.9366
 6645SOL    HW231569   2.976   2.567   2.635  0.3230 -1.2601  0.4966
 6646SOL     OW31570   1.892   3.280   6.198 -0.1515  0.1357  0.2231
 6646SOL    HW131571   1.943   3.216   6.149 -2.6920  0.1175 -2.3480
 6646SOL    HW231572   1.963   3.344   6.202 -1.7951  1.8918  2.0099
 6647SOL     OW31573   2.000   2.386   8.699  0.2553  0.1979 -0.1202
 6647SOL    HW131574   2.052   2.305   8.700  0.6125  0.4171 -1.0464
 6647SOL    HW231575   2.030   2.439   8.773  2.2222  0.3405 -1.0228
 6648SOL     OW31576   3.099   4.467   5.403  0.3806  0.2147 -0.0577
 6648SOL    HW131577   3.087   4.379   5.439  0.7351  1.6039  3.3640
 6648SOL    HW231578   3.013   4.507   5.412  0.9567  1.3520  0.3226
 6649SOL     OW31579   2.218   1.976   2.866  0.2134 -0.4728 -0.1772
 6649SOL    HW131580   2.205   1.973   2.771  2.8910  0.9426 -0.5798
 6649SOL    HW231581   2.216   1.884   2.893  0.6407 -0.7700 -1.1503
 6650SOL     OW31582   0.736   4.327   2.274  0.9915  0.1272  0.2498
 6650SOL    HW131583   0.811   4.275   2.303  1.4359  0.2694 -0.6278
 6650SOL    HW231584   0.694   4.342   2.359 -1.1071  0.3138 -0.8253
 6651SOL     OW31585   3.231   1.053   2.105 -0.3703 -0.2717 -0.0443
 6651SOL    HW131586   3.266   1.135   2.069  0.1729 -0.2920  0.4233
 6651SOL    HW231587   3.196   1.013   2.025 -2.0870  0.7981  0.1797
 6652SOL     OW31588   0.634   1.906   6.723 -0.0666  0.2545 -0.5594
 6652SOL    HW131589   0.719   1.861   6.719 -0.4913 -0.3614 -2.3186
 6652SOL    HW231590   0.585   1.838   6.677  1.1409  0.1785 -1.7207
 6653SOL     OW31591   2.723   0.543   8.158 -0.5595 -0.5152 -0.3415
 6653SOL    HW131592   2.631   0.527   8.182 -0.4435  0.0577  0.5107
 6653SOL    HW231593   2.763   0.586   8.234 -0.2195  0.1664 -0.9123
 6654SOL     OW31594   1.082   3.724   2.386 -0.4132 -0.2922  0.1436
 6654SOL    HW131595   1.152   3.750   2.326  0.6155 -0.6657  1.1725
 6654SOL    HW231596   1.053   3.639   2.352 -1.6841  0.7173 -1.3337
 6655SOL     OW31597   0.972   4.681   2.048  0.5975  0.2424  0.2172
 6655SOL    HW131598   0.932   4.707   2.131 -0.4287  1.9397 -0.8246
 6655SOL    HW231599   0.958   0.022   1.997 -0.6396  0.1983  0.4791
 6656SOL     OW31600   4.148   2.103   4.723  0.0543  0.4028 -0.0591
 6656SOL    HW131601   4.145   2.007   4.720 -2.7089  0.4912  0.2275
 6656SOL    HW231602   4.066   2.128   4.681  0.9669  0.7938 -1.6449
 6657SOL     OW31603   4.200   2.261   9.146  0.2451  0.0508 -0.7913
 6657SOL    HW131604   4.115   2.244   9.105 -0.1109 -1.4494  0.5959
 6657SOL    HW231605   4.210   2.356   9.145 -0.2551  0.1159  0.9493
 6658SOL     OW31606   4.430   0.689   5.627  0.1445 -0.5423 -0.3881
 6658SOL    HW131607   4.422   0.761   5.690 -3.6847 -1.9906  0.7456
 6658SOL    HW231608   4.521   0.664   5.647 -0.0107 -1.0444 -0.3224
 6659SOL     OW31609   2.790   4.229  11.940 -0.6744 -0.0408  0.6798
 6659SOL    HW131610   2.709   4.222  11.890 -0.9140 -1.1995  1.2200
 6659SOL    HW231611   2.776   4.185  12.024  1.5969 -2.2542 -0.0936
 6660SOL     OW31612   0.544   3.231   2.876  0.7403  0.0424 -0.2608
 6660SOL    HW131613   0.579   3.195   2.958  0.6394 -2.3580 -1.2561
 6660SOL    HW231614   0.458   3.265   2.900  0.6942 -1.4544  1.7930
 6661SOL     OW31615   1.585   2.277  15.781 -0.5783  0.1163  0.4480
 6661SOL    HW131616   1.592   2.305  15.872 -0.5390  0.2471  0.4050
 6661SOL    HW231617   1.634   2.195  15.770  1.0252  1.1396 -0.0316
 6662SOL     OW31618   3.380   0.450   3.123  0.8649  0.0532  0.4589
 6662SOL    HW131619   3.394   0.401   3.203  2.0520  0.5890  0.5866
 6662SOL    HW231620   3.432   0.531   3.123 -0.3360  0.8175 -0.9357
 6663SOL     OW31621   4.364   3.381   1.981  0.3722 -0.5282 -0.0339
 6663SOL    HW131622   4.390   3.421   1.898 -1.5823 -1.0768 -0.9144
 6663SOL    HW231623   4.276   3.413   2.002  1.4785  2.1493  0.5382
 6664SOL     OW31624   2.092   1.272   6.582  0.8957  0.0996  0.2225
 6664SOL    HW131625   2.059   1.193   6.624  2.1171 -1.0743 -1.0244
 6664SOL    HW231626   2.147   1.240   6.511  1.9071 -1.1194  1.5821
 6665SOL     OW31627   4.036   1.149   9.613  0.4508  0.1174  0.4540
 6665SOL    HW131628   4.020   1.243   9.619 -0.3882 -0.1710  2.6625
 6665SOL    HW231629   4.001   1.123   9.698  1.0904  1.6324  1.1723
 6666SOL     OW31630   0.901   0.445   8.693 -0.4159  0.0738  0.6783
 6666SOL    HW131631   0.916   0.531   8.731  0.2931  0.5606 -0.7070
 6666SOL    HW231632   0.984   0.445   8.644 -0.6021  1.0954  0.3769
 6667SOL     OW31633   2.862   3.906   9.853 -0.1950  0.5241  0.4773
 6667SOL    HW131634   2.843   3.853   9.931 -1.0246  3.8015  2.5096
 6667SOL    HW231635   2.784   3.889   9.800 -0.2954 -0.9884  1.1000
 6668SOL     OW31636   2.552   2.149  11.839  0.8299 -0.1633  0.1634
 6668SOL    HW131637   2.576   2.223  11.895  1.7507  0.2865 -0.8394
 6668SOL    HW231638   2.510   2.191  11.764 -0.4804 -3.4309 -0.9633
 6669SOL     OW31639   1.537   2.516   8.332  0.5067 -0.4986 -0.2960
 6669SOL    HW131640   1.622   2.532   8.290  0.7125 -1.9401 -0.4529
 6669SOL    HW231641   1.551   2.567   8.411 -0.9544 -1.0843  0.3398
 6670SOL     OW31642   4.097   2.253   5.839  0.1408 -0.0014  0.6030
 6670SOL    HW131643   4.081   2.161   5.861 -2.4322  0.3411  0.2221
 6670SOL    HW231644   4.185   2.238   5.803  0.5895  1.7232  0.9669
 6671SOL     OW31645   1.895   0.343   6.402 -0.4719 -0.6553  0.5972
 6671SOL    HW131646   1.876   0.416   6.343  0.7466 -0.3257  0.6097
 6671SOL    HW231647   1.839   0.352   6.479 -0.6921 -3.9483  0.8184
 6672SOL     OW31648   0.664   2.920   5.808  0.4977 -0.0230  0.0560
 6672SOL    HW131649   0.673   2.899   5.901 -1.1171 -0.2999  0.1543
 6672SOL    HW231650   0.620   2.839   5.782 -1.7638  0.8171  1.2432
 6673SOL     OW31651   3.792   0.633   4.581  0.2149  0.2735 -0.4311
 6673SOL    HW131652   3.807   0.572   4.653 -1.3044 -0.9399 -1.1371
 6673SOL    HW231653   3.861   0.695   4.606 -0.7690  0.1623  2.5976
 6674SOL     OW31654   2.522   2.463   3.643 -0.3273 -0.3127 -0.3140
 6674SOL    HW131655   2.615   2.475   3.625 -0.7912  1.6074 -1.4931
 6674SOL    HW231656   2.499   2.547   3.603  0.9446  0.7442  1.2093
 6675SOL     OW31657   2.476   1.114   9.608  0.6386  0.2948  0.0869
 6675SOL    HW131658   2.422   1.040   9.580  2.2471 -0.3843 -1.2935
 6675SOL    HW231659   2.418   1.189   9.591  0.4147  0.3738  1.2449
 6676SOL     OW31660   0.933   3.956   4.424  0.1691 -0.6057  0.4742
 6676SOL    HW131661   0.906   3.980   4.512 -0.3981 -1.7203  0.6020
 6676SOL    HW231662   0.934   3.861   4.414  2.4702 -0.7334  1.8312
 6677SOL     OW31663   4.245   1.632   4.453 -0.2127 -0.0927  0.3897
 6677SOL    HW131664   4.152   1.614   4.467  0.0952 -0.3660  2.0561
 6677SOL    HW231665   4.247   1.664   4.362  0.0615 -0.4195  0.2781
 6678SOL     OW31666   0.192   3.504  11.212 -0.2248 -0.0336 -0.0984
 6678SOL    HW131667   0.205   3.459  11.129 -0.4178  0.5800 -0.4572
 6678SOL    HW231668   0.163   3.590  11.182 -0.5036  0.2859  1.0713
 6679SOL     OW31669   1.240   2.494   7.889  0.1268 -0.0983  0.5155
 6679SOL    HW131670   1.148   2.517   7.878  0.2879  0.0035 -0.6529
 6679SOL    HW231671   1.227   2.424   7.952 -0.9363  1.1284  1.6528
 6680SOL     OW31672   4.127   3.356   3.051 -0.1399 -0.2120  0.1180
 6680SOL    HW131673   4.177   3.341   2.971  0.2847 -0.8811  0.5088
 6680SOL    HW231674   4.036   3.334   3.029 -0.4914  0.1693  1.2212
 6681SOL     OW31675   0.117   1.305   6.993 -0.6545 -0.5525  0.1591
 6681SOL    HW131676   0.212   1.301   7.007 -0.8459 -0.9778  1.3342
 6681SOL    HW231677   0.090   1.219   7.024 -1.5854  0.2869  1.6647
 6682SOL     OW31678   2.474   1.110   9.069  0.5661 -0.2200  0.2878
 6682SOL    HW131679   2.554   1.080   9.113  0.2769 -1.7827 -0.2334
 6682SOL    HW231680   2.415   1.041   9.101 -0.1933 -0.1903 -1.0461
 6683SOL     OW31681   0.277   0.513  16.654 -0.5049  0.6928  0.2624
 6683SOL    HW131682   0.252   0.545  16.567  1.8679  2.6739  0.3239
 6683SOL    HW231683   0.232   0.576  16.710  0.6075  0.3419  1.5656
 6684SOL     OW31684   0.513   2.227  10.233 -0.0089 -0.0256  0.4830
 6684SOL    HW131685   0.508   2.148  10.180  0.5265  0.2878 -0.0448
 6684SOL    HW231686   0.606   2.222  10.256  0.3228 -0.9878 -1.0902
 6685SOL     OW31687   0.837   1.289   6.744  0.0316 -0.3236 -0.5427
 6685SOL    HW131688   0.838   1.197   6.717 -0.3109 -0.8547  1.2099
 6685SOL    HW231689   0.856   1.276   6.837  1.4785  2.7583 -0.4134
 6686SOL     OW31690   3.817   3.004   6.798  0.1720 -0.1205 -0.0144
 6686SOL    HW131691   3.855   2.937   6.854  1.3484 -2.0344 -3.0832
 6686SOL    HW231692   3.892   3.046   6.757 -0.5375  1.6745  0.5287
 6687SOL     OW31693   1.197   2.452  17.184 -0.4564  0.0908  0.1759
 6687SOL    HW131694   1.102   2.449  17.181 -0.4156  0.5121 -2.0466
 6687SOL    HW231695   1.221   2.544  17.169  2.3694 -0.9262 -1.6230
 6688SOL     OW31696   0.174   2.270   7.269  0.0065  0.6965  0.4522
 6688SOL    HW131697   0.131   2.232   7.193  0.2878 -0.9419  1.0994
 6688SOL    HW231698   0.229   2.198   7.301  0.0058  0.2551 -0.5313
 6689SOL     OW31699   0.305   0.365   0.561  0.0242  0.1278  0.9899
 6689SOL    HW131700   0.285   0.381   0.469  2.4353  0.6330  0.5675
 6689SOL    HW231701   0.231   0.308   0.580  0.4693  0.3237  3.3094
 6690SOL     OW31702   4.179   4.393   4.253 -0.2989  0.1641  0.7297
 6690SOL    HW131703   4.199   4.299   4.243  0.8279  0.5405 -0.5113
 6690SOL    HW231704   4.232   4.409   4.330 -1.8050 -1.3682  2.1009
 6691SOL     OW31705   0.279   3.579   1.781 -0.3763  0.0586 -1.0286
 6691SOL    HW131706   0.373   3.561   1.778 -0.2358  0.7592 -0.9348
 6691SOL    HW231707   0.266   3.660   1.732 -2.0256  0.7097  0.4671
 6692SOL     OW31708   4.350   0.624  10.604  0.2736 -1.2651 -0.4328
 6692SOL    HW131709   4.344   0.648  10.512 -0.9243 -0.7880 -0.2321
 6692SOL    HW231710   4.271   0.569  10.608 -0.6146  0.0193 -0.3274
 6693SOL     OW31711   3.771   0.516   4.331  0.0098 -0.2457 -0.3388
 6693SOL    HW131712   3.837   0.570   4.288  0.4228  1.0063  1.8422
 6693SOL    HW231713   3.787   0.542   4.422  0.3764  2.7737 -1.2906
 6694SOL     OW31714   3.740   1.514   8.315 -0.3366 -0.1284  0.0625
 6694SOL    HW131715   3.737   1.477   8.226  1.9926  0.9365 -0.4388
 6694SOL    HW231716   3.700   1.600   8.304 -1.5527 -0.6534  0.3557
 6695SOL     OW31717   4.585   0.801  13.856  0.1237  0.1926  0.0428
 6695SOL    HW131718   4.584   0.754  13.939 -0.3763 -1.5717 -0.9589
 6695SOL    HW231719   4.513   0.755  13.812  1.2753 -1.9703  0.4059
 6696SOL     OW31720   4.050   0.357   3.751  0.1684 -0.0832  0.1757
 6696SOL    HW131721   3.993   0.303   3.695  2.4864 -2.7977  0.4938
 6696SOL    HW231722   3.995   0.435   3.764 -0.6500 -0.2086 -2.4435
 6697SOL     OW31723   2.446   1.158  12.175 -0.1288 -0.4641 -0.2964
 6697SOL    HW131724   2.453   1.092  12.106 -0.6922 -0.7113 -0.1139
 6697SOL    HW231725   2.525   1.211  12.164 -2.5077  2.8121 -1.7494
 6698SOL     OW31726   4.199   3.212   6.052 -0.5076  0.0075 -0.7962
 6698SOL    HW131727   4.230   3.174   5.970  0.1233  0.6964 -0.8785
 6698SOL    HW231728   4.281   3.252   6.083  0.2757 -2.0942 -0.1686
 6699SOL     OW31729   1.809   2.756   2.621  0.0645 -0.5156 -0.0605
 6699SOL    HW131730   1.740   2.696   2.593  1.3931 -1.5267 -1.1463
 6699SOL    HW231731   1.755   2.824   2.662  0.0652 -1.7491  1.9783
 6700SOL     OW31732   2.027   1.324   8.128  0.0044  0.0562  0.0349
 6700SOL    HW131733   1.967   1.336   8.054  0.9095 -2.3985 -1.1019
 6700SOL    HW231734   1.972   1.370   8.191  2.3850  1.9398  0.7438
 6701SOL     OW31735   1.979   1.071   8.212 -0.0006  0.3892  0.5546
 6701SOL    HW131736   2.018   1.153   8.183  2.2722 -1.4338 -1.4877
 6701SOL    HW231737   2.014   1.016   8.143 -0.1492 -0.3161  1.0480
 6702SOL     OW31738   4.220   1.401  11.254 -0.3697  0.4820 -0.2200
 6702SOL    HW131739   4.159   1.343  11.300 -2.3539  1.9774 -0.9696
 6702SOL    HW231740   4.252   1.337  11.190 -2.0253 -0.4567 -0.1168
 6703SOL     OW31741   4.702   0.684   5.737  0.6629  0.5470  0.0711
 6703SOL    HW131742   4.679   0.777   5.745 -0.5866  0.1897  0.5904
 6703SOL    HW231743   4.678   0.647   5.822 -1.5885  3.1158  0.5552
 6704SOL     OW31744   1.540   0.216   3.116  0.0790 -0.1087  0.6457
 6704SOL    HW131745   1.575   0.134   3.152  2.4345  0.0421 -1.2067
 6704SOL    HW231746   1.457   0.187   3.079 -1.7944  1.8358  3.4157
 6705SOL     OW31747   0.386   0.262   5.955  0.1757  0.1276 -0.4332
 6705SOL    HW131748   0.463   0.228   6.001 -0.9503  0.3793  1.6192
 6705SOL    HW231749   0.359   0.342   6.001  0.3662 -0.1430  0.1450
 6706SOL     OW31750   4.033   1.766  16.456  0.5036  0.2837 -0.0975
 6706SOL    HW131751   4.066   1.765  16.366 -0.6467  0.0925 -0.5133
 6706SOL    HW231752   3.949   1.725  16.434 -0.6132  2.7930 -0.5245
 6707SOL     OW31753   1.167   3.348   2.239 -0.3655 -0.5719 -0.7038
 6707SOL    HW131754   1.152   3.439   2.215  1.9969 -0.3842 -1.4782
 6707SOL    HW231755   1.114   3.304   2.173 -2.6513  0.0386  0.7587
 6708SOL     OW31756   0.286   2.654   1.459  0.6859  0.2935  0.3057
 6708SOL    HW131757   0.213   2.645   1.521  0.6140  1.1825  0.3507
 6708SOL    HW231758   0.343   2.703   1.518  0.8962 -0.3611  0.6541
 6709SOL     OW31759   3.108   3.017  10.409  0.5492 -0.3086 -0.2126
 6709SOL    HW131760   3.088   3.013  10.316  0.7444  0.1941 -0.2708
 6709SOL    HW231761   3.185   3.072  10.419 -0.3734  1.0730 -0.7370
 6710SOL     OW31762   3.728   2.501   4.374 -0.1452 -0.6231 -0.0300
 6710SOL    HW131763   3.822   2.488   4.371  0.1657  1.0568  2.1162
 6710SOL    HW231764   3.699   2.520   4.285  1.3238 -1.2614 -0.6415
 6711SOL     OW31765   0.131   4.374   3.949  0.0745 -0.0741 -0.0086
 6711SOL    HW131766   0.217   4.386   3.989  0.6094 -2.2603 -0.5432
 6711SOL    HW231767   0.109   4.466   3.932  1.3153  0.1341 -0.4616
 6712SOL     OW31768   0.966   2.799   9.698 -0.1571  0.1908 -0.7120
 6712SOL    HW131769   0.871   2.798   9.688 -0.1274 -3.5021 -0.5642
 6712SOL    HW231770   0.977   2.859   9.772 -0.6412  0.2743 -0.7138
 6713SOL     OW31771   4.176   3.617   3.742 -0.6293  0.4161 -0.4752
 6713SOL    HW131772   4.111   3.643   3.676 -0.5259  1.7076 -0.0690
 6713SOL    HW231773   4.126   3.643   3.820 -1.2381  0.7795 -0.9934
 6714SOL     OW31774   4.261   0.467   1.460  0.3416 -0.3201 -0.0434
 6714SOL    HW131775   4.319   0.542   1.445  0.7305 -0.8594 -1.2409
 6714SOL    HW231776   4.190   0.487   1.398 -0.9724 -2.3745  0.8215
 6715SOL     OW31777   2.176   1.053   2.681 -0.7683 -0.0223 -0.4741
 6715SOL    HW131778   2.224   1.123   2.725  0.1050 -1.3866  0.7442
 6715SOL    HW231779   2.129   1.031   2.762  0.1347 -1.6685 -0.3872
 6716SOL     OW31780   1.244   2.734   7.692  0.0313 -0.1816  0.0180
 6716SOL    HW131781   1.248   2.651   7.645  1.7465  0.5942 -1.2360
 6716SOL    HW231782   1.204   2.695   7.770 -0.1342  0.1057  0.0774
 6717SOL     OW31783   2.871   2.644  10.815 -0.1564 -0.0950 -0.1352
 6717SOL    HW131784   2.819   2.724  10.821 -0.2789 -0.2979  1.5203
 6717SOL    HW231785   2.907   2.649  10.727  3.4430 -0.5419  1.2984
 6718SOL     OW31786   0.060   2.702   1.625 -0.9134 -0.5902  0.0512
 6718SOL    HW131787   0.080   2.661   1.709  3.2436 -1.0471 -1.1292
 6718SOL    HW231788   4.704   2.693   1.621 -0.9451 -0.1048 -0.3179
 6719SOL     OW31789   1.979   4.454   2.305  0.1495  0.1280  0.1531
 6719SOL    HW131790   2.002   4.416   2.221  1.0404 -2.8558  1.7576
 6719SOL    HW231791   1.905   4.405   2.342 -0.5724  0.6985 -0.5402
 6720SOL     OW31792   2.901   4.193  15.297  0.6881  0.6156 -0.3933
 6720SOL    HW131793   2.818   4.152  15.272  1.2071 -1.0750  0.6860
 6720SOL    HW231794   2.961   4.181  15.223  1.2381 -0.4111  0.2093
 6721SOL     OW31795   3.377   0.944   6.343  0.1097 -0.0203 -0.5309
 6721SOL    HW131796   3.356   0.971   6.254  1.2083 -1.0212 -1.0959
 6721SOL    HW231797   3.292   0.927   6.384  0.0582  2.7432  0.4521
 6722SOL     OW31798   0.415   0.266   9.650  0.9139  0.0902 -0.0763
 6722SOL    HW131799   0.405   0.358   9.629 -0.7936  0.0775  0.7018
 6722SOL    HW231800   0.365   0.260   9.732  0.3732 -0.0032 -0.4198
 6723SOL     OW31801   2.609   4.430   6.015 -0.1978  0.1022  0.0342
 6723SOL    HW131802   2.650   4.400   6.096 -3.0354 -1.0407  1.0791
 6723SOL    HW231803   2.560   4.509   6.038  2.9158  2.2813 -0.7915
 6724SOL     OW31804   1.370   0.697   7.025 -0.4058  0.8152  0.8510
 6724SOL    HW131805   1.427   0.770   7.048  1.0666  0.2783 -1.0936
 6724SOL    HW231806   1.409   0.628   7.078  3.4275  1.8618 -0.5892
 6725SOL     OW31807   3.759   3.895   1.131 -0.1800 -0.4276  1.2449
 6725SOL    HW131808   3.841   3.944   1.138 -1.3736  1.9773 -1.3256
 6725SOL    HW231809   3.758   3.876   1.037  2.1922  0.2400  1.0648
 6726SOL     OW31810   0.501   0.705  16.867 -0.2832  0.4689 -0.7422
 6726SOL    HW131811   0.555   0.678  16.941 -3.4157 -1.8386  0.6935
 6726SOL    HW231812   0.504   0.800  16.852  0.2089  0.8111  1.5376
 6727SOL     OW31813   2.984   0.947   6.256  0.0143 -0.2922  0.5308
 6727SOL    HW131814   2.895   0.983   6.263 -0.0320  0.3879 -3.1056
 6727SOL    HW231815   3.000   0.977   6.166 -2.9760  0.9094  0.3845
 6728SOL     OW31816   1.895   1.538   8.586 -0.1808  0.3849 -0.0322
 6728SOL    HW131817   1.832   1.480   8.629 -0.5213  0.9901  0.2688
 6728SOL    HW231818   1.968   1.476   8.578  0.5615  1.2444  0.1339
 6729SOL     OW31819   4.592   3.335   3.684  0.5453 -0.0697 -0.2216
 6729SOL    HW131820   4.518   3.274   3.690  0.7102 -0.1964  0.5259
 6729SOL    HW231821   4.550   3.404   3.633  0.3364  0.7517  1.0543
 6730SOL     OW31822   0.620   3.363   8.475  0.4271  0.2158  0.5254
 6730SOL    HW131823   0.647   3.313   8.551 -0.6080 -1.0365  0.0722
 6730SOL    HW231824   0.608   3.447   8.518 -1.0605  1.8169 -2.9657
 6731SOL     OW31825   3.443   0.933   4.459  0.0467 -0.7286  0.0119
 6731SOL    HW131826   3.532   0.957   4.487  0.0631  0.0625 -0.6949
 6731SOL    HW231827   3.402   0.985   4.528  0.7311 -0.8782  0.5358
 6732SOL     OW31828   0.990   3.764   6.356 -0.0976 -0.1446 -0.3353
 6732SOL    HW131829   1.040   3.781   6.436 -0.9394 -2.5216  0.6850
 6732SOL    HW231830   0.953   3.677   6.371 -2.1994  0.5796 -1.4039
 6733SOL     OW31831   3.386   1.273  17.649  0.3069 -0.2130 -0.1226
 6733SOL    HW131832   3.406   1.318  17.567  0.1984  0.7017  0.3563
 6733SOL    HW231833   3.318   1.211  17.622 -0.7210  0.4564  0.9188
 6734SOL     OW31834   3.332   0.060   5.261  0.4717 -0.4078 -0.2358
 6734SOL    HW131835   3.419   0.095   5.283  0.1157  1.1112 -1.2483
 6734SOL    HW231836   3.355   0.034   5.172 -0.4789  1.3092 -0.9725
 6735SOL     OW31837   2.492   3.869   2.645  0.1833  0.4096 -0.3539
 6735SOL    HW131838   2.467   3.795   2.590 -2.8414  0.7179  0.6231
 6735SOL    HW231839   2.583   3.870   2.616 -0.0518  0.0393 -1.1056
 6736SOL     OW31840   0.021   3.863   6.484 -0.2490  0.0843  0.0603
 6736SOL    HW131841   4.720   3.926   6.424  0.2262  0.0577 -0.2743
 6736SOL    HW231842   4.736   3.777   6.449 -1.6579 -0.6446  2.7818
 6737SOL     OW31843   2.460   1.174   3.057 -0.9731 -0.1263  0.0164
 6737SOL    HW131844   2.485   1.244   2.997 -2.2234  0.4748  0.1869
 6737SOL    HW231845   2.452   1.227   3.136 -1.2253  1.1076 -0.8412
 6738SOL     OW31846   3.633   1.543   5.099  0.1208 -0.1317 -0.4552
 6738SOL    HW131847   3.541   1.565   5.086  0.4428  2.2708  1.3734
 6738SOL    HW231848   3.675   1.589   5.026 -0.1608  1.6660  0.5111
 6739SOL     OW31849   4.593   0.599   9.542 -0.1073 -0.2694 -0.6888
 6739SOL    HW131850   4.652   0.531   9.508 -0.6301 -1.2969  0.4643
 6739SOL    HW231851   4.640   0.647   9.610  0.6855 -0.3994 -1.1431
 6740SOL     OW31852   4.071   4.170   6.917 -0.1234 -0.1098  0.0850
 6740SOL    HW131853   4.075   4.265   6.908  0.5367 -0.2675 -1.2930
 6740SOL    HW231854   4.159   4.149   6.947  0.1542 -0.9800 -1.2806
 6741SOL     OW31855   0.651   3.393  14.442  0.0075  0.6001  0.5232
 6741SOL    HW131856   0.621   3.390  14.351  1.1450 -1.2235  0.2021
 6741SOL    HW231857   0.643   3.302  14.470 -1.6683 -0.6459 -4.0523
 6742SOL     OW31858   3.650   3.313   6.283  0.2401  0.6322 -0.0198
 6742SOL    HW131859   3.666   3.370   6.208 -1.3002  1.6971  0.4665
 6742SOL    HW231860   3.726   3.255   6.284  0.5767  1.0936  2.3790
 6743SOL     OW31861   3.885   2.109   7.951 -0.1755 -0.4321  0.3114
 6743SOL    HW131862   3.907   2.148   8.036 -0.9548 -1.0524  0.8015
 6743SOL    HW231863   3.935   2.164   7.891 -0.2579  1.1532  1.6997
 6744SOL     OW31864   4.465   2.590   9.169 -0.9099 -0.4675 -0.0393
 6744SOL    HW131865   4.459   2.662   9.231  0.0840  0.3254 -0.8613
 6744SOL    HW231866   4.509   2.528   9.227 -0.8816 -0.9186 -0.5478
 6745SOL     OW31867   1.734   4.654  11.740  0.3173  0.0288  0.0097
 6745SOL    HW131868   1.667   4.633  11.805  0.4567  0.5810  0.3286
 6745SOL    HW231869   1.782   4.724  11.784  2.0945 -1.4883  0.4890
 6746SOL     OW31870   0.810   3.825   7.224 -0.2720  0.3758 -0.2909
 6746SOL    HW131871   0.884   3.772   7.196  2.3286  3.6108  0.4094
 6746SOL    HW231872   0.802   3.798   7.315  1.0248  0.9917 -0.0058
 6747SOL     OW31873   0.378   1.119   3.446 -0.8170  0.0204 -0.2640
 6747SOL    HW131874   0.399   1.055   3.378 -1.0130  0.3132 -0.5987
 6747SOL    HW231875   0.346   1.181   3.380  0.4414 -0.7668 -1.6329
 6748SOL     OW31876   1.556   4.496   5.838 -0.8710 -0.0994  0.4559
 6748SOL    HW131877   1.475   4.489   5.889 -1.7702  0.0806 -0.9356
 6748SOL    HW231878   1.610   4.425   5.872 -1.7222 -1.5828 -1.3708
 6749SOL     OW31879   0.063   3.619   6.032  0.0422 -0.5110  0.0379
 6749SOL    HW131880   0.107   3.569   5.963 -2.7247 -0.6841 -1.6439
 6749SOL    HW231881   0.001   3.667   5.976  1.0049  3.0149  1.9900
 6750SOL     OW31882   1.363   3.371   7.271  0.7809 -0.6337  0.2593
 6750SOL    HW131883   1.403   3.383   7.357 -1.0903  2.1816  0.7388
 6750SOL    HW231884   1.274   3.402   7.284  1.4110  1.6571 -0.8431
 6751SOL     OW31885   1.775   4.530  12.649 -0.4863  0.5257 -0.4109
 6751SOL    HW131886   1.784   4.556  12.557 -0.3635 -2.4991 -1.2331
 6751SOL    HW231887   1.698   4.582  12.674 -0.8922  0.0805 -0.7253
 6752SOL     OW31888   1.253   1.902   3.848  0.1510  0.3434 -0.0960
 6752SOL    HW131889   1.165   1.917   3.882  0.8811 -1.3952  2.5212
 6752SOL    HW231890   1.283   1.988   3.819  0.1560 -0.0490 -1.2713
 6753SOL     OW31891   1.664   3.061   0.338 -0.0459  0.3224 -0.0398
 6753SOL    HW131892   1.759   3.057   0.350  0.0499  0.3338 -0.8505
 6753SOL    HW231893   1.664   3.040   0.245 -3.4879  1.2978 -0.2370
 6754SOL     OW31894   1.153   2.119  12.525 -0.7574 -0.2560 -0.0506
 6754SOL    HW131895   1.247   2.134  12.536 -0.9778  0.4015  0.8839
 6754SOL    HW231896   1.120   2.118  12.614  0.4618 -1.7593  0.3777
 6755SOL     OW31897   0.778   1.852  16.690  0.4532  0.2385  0.3112
 6755SOL    HW131898   0.730   1.926  16.653  0.5357 -0.4298 -1.1512
 6755SOL    HW231899   0.823   1.897  16.760  0.4554 -1.7340  1.5888
 6756SOL     OW31900   3.199   0.759   9.765 -0.0536 -0.1236  0.7507
 6756SOL    HW131901   3.114   0.802   9.756  0.4854  0.5168 -1.2447
 6756SOL    HW231902   3.178   0.677   9.809  0.9378  0.2554  1.9529
 6757SOL     OW31903   1.826   4.303   5.624 -0.1817  0.3505 -0.6204
 6757SOL    HW131904   1.845   4.396   5.609  0.5464  0.4042  0.6183
 6757SOL    HW231905   1.820   4.264   5.537  1.0747 -2.1410  0.4009
 6758SOL     OW31906   3.136   1.597   4.680 -0.4588 -0.0970  0.6264
 6758SOL    HW131907   3.071   1.634   4.620  0.8876  2.0982  0.5203
 6758SOL    HW231908   3.151   1.670   4.740  0.3565 -0.2677  0.6344
 6759SOL     OW31909   1.423   4.491  13.641 -0.1506  0.3344  0.6554
 6759SOL    HW131910   1.428   4.397  13.657 -1.7227  0.1994  0.3483
 6759SOL    HW231911   1.407   4.483  13.547 -1.1392  2.0733  0.6706
 6760SOL     OW31912   0.528   2.384   7.086 -0.3824  0.0558 -0.7134
 6760SOL    HW131913   0.594   2.429   7.139 -0.5189 -0.2071 -0.3281
 6760SOL    HW231914   0.453   2.395   7.143  0.3100  5.0813 -0.8064
 6761SOL     OW31915   2.830   0.378   5.486 -0.0638 -0.2163 -0.1769
 6761SOL    HW131916   2.775   0.364   5.563 -2.7596  4.0633 -1.3663
 6761SOL    HW231917   2.789   0.311   5.431 -1.0239  0.0745  0.1740
 6762SOL     OW31918   3.462   3.842   1.647  0.0663  0.2110  0.2913
 6762SOL    HW131919   3.516   3.916   1.620  0.9603 -1.1856 -1.6783
 6762SOL    HW231920   3.447   3.865   1.739 -0.5017 -0.9261  0.4864
 6763SOL     OW31921   2.666   3.922   5.280  0.4671  0.0193  0.6857
 6763SOL    HW131922   2.601   3.903   5.213  1.2841 -0.6150  0.0830
 6763SOL    HW231923   2.643   4.011   5.307 -0.6654  0.1435 -0.7409
 6764SOL     OW31924   0.672   1.082   2.572  0.0038  0.2084 -0.4134
 6764SOL    HW131925   0.590   1.056   2.613  0.5281  1.3933  1.3755
 6764SOL    HW231926   0.701   1.145   2.639  0.5545 -1.2279  0.7013
 6765SOL     OW31927   3.826   0.002   1.970 -0.7857  0.2260  0.2016
 6765SOL    HW131928   3.763   4.720   2.038 -2.7503  1.4956 -1.2092
 6765SOL    HW231929   3.793   0.050   1.893 -0.6191  1.7360  1.0767
 6766SOL     OW31930   1.931   4.518   5.156 -0.1134  0.2691  0.4267
 6766SOL    HW131931   1.846   4.491   5.122  0.5298  1.4513 -2.0596
 6766SOL    HW231932   1.902   4.590   5.213  0.8703  1.0347 -0.0497
 6767SOL     OW31933   3.005   1.089   6.898 -0.0552 -0.1179 -0.4832
 6767SOL    HW131934   2.999   1.160   6.962 -1.7731 -0.4120 -0.3058
 6767SOL    HW231935   2.993   1.130   6.812  4.5675  2.5121  0.1329
 6768SOL     OW31936   3.858   3.882   2.621  0.3095  0.0932  0.1607
 6768SOL    HW131937   3.815   3.844   2.697 -0.0179  1.7638  0.8153
 6768SOL    HW231938   3.878   3.970   2.653  1.2582  0.2180 -0.7690
 6769SOL     OW31939   2.369   1.761   0.213  0.2052 -0.2516  0.9024
 6769SOL    HW131940   2.369   1.763   0.118  0.4983 -0.4277  0.8964
 6769SOL    HW231941   2.425   1.683   0.220 -0.7080 -0.8224  1.7695
 6770SOL     OW31942   2.812   2.330   3.802  0.6019 -0.2257  0.4413
 6770SOL    HW131943   2.725   2.314   3.840  0.7918  0.8389  1.3515
 6770SOL    HW231944   2.800   2.383   3.723  1.4821  0.7357  0.9522
 6771SOL     OW31945   0.851   0.911   1.378  0.0873  0.1134 -1.0218
 6771SOL    HW131946   0.834   0.817   1.373  0.4980 -0.0268  0.3428
 6771SOL    HW231947   0.929   0.923   1.322  2.2116 -1.2422  1.6563
 6772SOL     OW31948   0.693   0.167   6.413 -0.0510 -0.2670  0.3054
 6772SOL    HW131949   0.722   0.258   6.419 -2.9352  0.6208  1.0588
 6772SOL    HW231950   0.621   0.181   6.351  0.3309 -1.5003 -0.4230
 6773SOL     OW31951   1.136   0.572  12.562 -0.0033  0.5912  0.4949
 6773SOL    HW131952   1.157   0.483  12.535 -0.8788  0.5961 -0.2478
 6773SOL    HW231953   1.223   0.607  12.580  0.1236  1.3131 -1.5227
 6774SOL     OW31954   0.433   2.807   1.689  0.5108  0.6093  0.3346
 6774SOL    HW131955   0.436   2.867   1.763  3.1407 -0.6267  1.1845
 6774SOL    HW231956   0.378   2.741   1.732  1.4005  0.5429  1.3555
 6775SOL     OW31957   3.488   3.588   9.962 -0.3026 -0.2077 -0.1954
 6775SOL    HW131958   3.506   3.670   9.917  3.0136  0.1195  1.7496
 6775SOL    HW231959   3.394   3.584   9.942 -0.0084 -0.9635 -1.4426
 6776SOL     OW31960   3.510   0.469  12.739  0.9977  0.0007  0.8370
 6776SOL    HW131961   3.532   0.377  12.726 -3.1362 -1.3614  3.5799
 6776SOL    HW231962   3.447   0.446  12.807  2.0858 -0.1836  1.7912
 6777SOL     OW31963   4.588   1.913   4.552 -0.2822  0.0939 -0.3918
 6777SOL    HW131964   4.546   1.984   4.601  0.6029  0.4913 -0.2114
 6777SOL    HW231965   4.511   1.857   4.547  0.7936 -1.1678 -2.8113
 6778SOL     OW31966   3.825   4.334   2.536  0.4377  0.4994 -0.2100
 6778SOL    HW131967   3.876   4.278   2.594 -1.1064  0.6814  1.3258
 6778SOL    HW231968   3.856   4.299   2.453  0.1133 -2.7944  1.0606
 6779SOL     OW31969   0.685   1.605  16.665 -0.4039 -0.9087 -0.3135
 6779SOL    HW131970   0.688   1.565  16.752  0.2374  1.2977  0.6884
 6779SOL    HW231971   0.718   1.694  16.679  0.8078 -1.3314 -0.4776
 6780SOL     OW31972   2.762   4.346   7.444  0.0270 -0.1501  0.2858
 6780SOL    HW131973   2.691   4.407   7.422  1.0672  0.9018 -0.1616
 6780SOL    HW231974   2.705   4.286   7.491  3.9379 -2.4794  1.9966
 6781SOL     OW31975   1.609   3.709   5.595  0.3303  0.3600 -0.0417
 6781SOL    HW131976   1.673   3.779   5.609  1.0341 -0.5528  1.2500
 6781SOL    HW231977   1.567   3.701   5.681 -0.8961  0.5264 -0.6149
 6782SOL     OW31978   2.535   1.860   1.508 -0.5090  0.1963 -0.5370
 6782SOL    HW131979   2.529   1.894   1.597 -3.1818 -2.0276  0.1118
 6782SOL    HW231980   2.537   1.765   1.520 -2.0900  0.2461  0.1469
 6783SOL     OW31981   1.331   3.205   6.587  0.3341 -0.4734 -0.3731
 6783SOL    HW131982   1.356   3.127   6.635  0.9629 -0.7752 -1.2025
 6783SOL    HW231983   1.411   3.257   6.594 -0.2241  0.6879 -2.4330
 6784SOL     OW31984   4.622   0.971  11.000  0.2320 -0.0601 -0.8278
 6784SOL    HW131985   4.642   0.955  10.908 -0.9011 -2.0788 -0.7355
 6784SOL    HW231986   4.654   0.886  11.030  1.7193  0.3033 -1.3578
 6785SOL     OW31987   2.770   4.053   4.381  0.3893 -0.2820  0.0885
 6785SOL    HW131988   2.687   4.074   4.337  0.5761  0.3461  0.0376
 6785SOL    HW231989   2.766   4.125   4.443 -1.1755  1.4797 -2.0419
 6786SOL     OW31990   4.541   0.340   6.405 -0.6584  0.4762  0.0795
 6786SOL    HW131991   4.628   0.304   6.387 -1.5822 -3.3628  3.3782
 6786SOL    HW231992   4.545   0.385   6.489  1.4169 -1.1665  0.8744
 6787SOL     OW31993   4.211   2.623   4.875 -0.1685  0.3274  0.0640
 6787SOL    HW131994   4.202   2.551   4.813 -1.3806  1.0074 -0.5487
 6787SOL    HW231995   4.122   2.658   4.871 -0.6156 -0.7296  0.6505
 6788SOL     OW31996   1.217   1.050   9.240  0.0303  0.0760 -0.0654
 6788SOL    HW131997   1.257   1.005   9.166 -0.1829  1.4696 -1.0307
 6788SOL    HW231998   1.174   0.977   9.285 -0.2113 -0.0256 -0.4564
 6789SOL     OW31999   3.544   1.427  12.955  0.8259  0.2194  0.0874
 6789SOL    HW132000   3.565   1.336  12.934 -1.4721 -0.3961  0.5135
 6789SOL    HW232001   3.612   1.448  13.019  1.4672 -0.1304 -0.4824
 6790SOL     OW32002   3.177   3.871   3.495  0.4208  0.0756 -0.0261
 6790SOL    HW132003   3.168   3.944   3.556  1.4746  0.5983 -0.4943
 6790SOL    HW232004   3.084   3.862   3.477  0.5457 -0.5990 -0.3575
 6791SOL     OW32005   0.329   0.582   1.039 -0.2295  0.0857  0.1921
 6791SOL    HW132006   0.419   0.598   1.067 -0.0633 -0.8232  0.1688
 6791SOL    HW232007   0.326   0.532   0.957  1.5958 -2.2148  1.5452
 6792SOL     OW32008   2.536   1.547   0.172 -0.8336  0.2796  0.0036
 6792SOL    HW132009   2.558   1.454   0.179  3.9822  1.2624 -1.6965
 6792SOL    HW232010   2.622   1.579   0.200 -0.4840  0.0149 -0.7562
 6793SOL     OW32011   3.969   1.775   3.698  0.2031 -0.2023  0.6796
 6793SOL    HW132012   3.929   1.744   3.779 -0.7661  0.7754  0.5653
 6793SOL    HW232013   4.010   1.692   3.674 -1.5634 -0.3144 -1.9773
 6794SOL     OW32014   1.408   1.458   8.561  0.1439 -0.0732 -0.0400
 6794SOL    HW132015   1.447   1.385   8.513  0.9902 -0.2380  0.9137
 6794SOL    HW232016   1.373   1.516   8.493 -2.2441  0.2967  1.4898
 6795SOL     OW32017   0.235   3.849  11.923 -0.1970  0.2302 -0.1785
 6795SOL    HW132018   0.161   3.907  11.908 -0.8840 -0.3307  1.0179
 6795SOL    HW232019   0.303   3.892  11.872 -0.9925 -1.2152 -2.4591
 6796SOL     OW32020   0.397   0.217  11.997 -0.4961  0.2378 -0.2787
 6796SOL    HW132021   0.301   0.211  11.989 -0.5763  0.3735  0.5940
 6796SOL    HW232022   0.407   0.145  11.935 -1.0140  0.7388 -0.9521
 6797SOL     OW32023   3.837   3.066   8.284  0.8333  0.2062 -0.1156
 6797SOL    HW132024   3.919   3.104   8.253  0.2505  1.3652 -0.2728
 6797SOL    HW232025   3.836   2.983   8.237  1.8450 -1.2778  2.5232
 6798SOL     OW32026   3.061   3.648  15.821  0.1275 -0.4422  0.1646
 6798SOL    HW132027   2.982   3.606  15.787  1.1937 -1.0939 -1.4988
 6798SOL    HW232028   3.116   3.619  15.748 -0.4640  0.1662 -0.5232
 6799SOL     OW32029   1.833   1.396   8.321  0.0397  0.1927 -0.2454
 6799SOL    HW132030   1.756   1.434   8.280 -0.5322  0.3004  0.9076
 6799SOL    HW232031   1.812   1.407   8.414 -0.5192 -2.5524 -0.0442
 6800SOL     OW32032   3.388   0.148   3.234  0.2308  0.4582 -0.0818
 6800SOL    HW132033   3.303   0.139   3.277  0.7187  1.2154  1.0504
 6800SOL    HW232034   3.379   0.124   3.142 -1.8936  2.6784 -0.4516
 6801SOL     OW32035   1.715   0.010   5.564  0.1017 -0.2892 -0.8900
 6801SOL    HW132036   1.737   0.036   5.654  0.5108  0.6475 -1.2534
 6801SOL    HW232037   1.654   4.679   5.585 -0.6250  0.3548 -0.8624
 6802SOL     OW32038   3.846   4.729   3.790  0.4931 -0.0202 -0.2218
 6802SOL    HW132039   3.931   0.027   3.815  0.8133  0.4022 -1.9237
 6802SOL    HW232040   3.800   0.071   3.770  1.5545  0.6398  0.0126
 6803SOL     OW32041   0.502   0.312   8.055 -0.4077 -0.5258  0.7458
 6803SOL    HW132042   0.409   0.299   8.036  0.0401 -0.6755 -1.3718
 6803SOL    HW232043   0.485   0.399   8.091 -0.4926 -1.1851  2.3285
 6804SOL     OW32044   0.865   2.849   3.430  0.1761  0.0912  0.3062
 6804SOL    HW132045   0.794   2.862   3.492 -0.1559  1.3581 -0.3341
 6804SOL    HW232046   0.938   2.848   3.492  0.1261 -0.6507  0.3502
 6805SOL     OW32047   4.662   0.193  13.153 -0.1512  0.4147  0.0646
 6805SOL    HW132048   0.003   0.246  13.155  0.4752 -0.6235  2.8853
 6805SOL    HW232049   4.602   0.259  13.118 -0.1748 -0.6089 -1.8193
 6806SOL     OW32050   4.664   1.485   0.390  0.2633  0.0976  0.6492
 6806SOL    HW132051   4.734   1.537   0.350  0.3351 -2.6944 -2.8652
 6806SOL    HW232052   4.694   1.482   0.481  3.3255 -1.4039 -0.4014
 6807SOL     OW32053   2.129   4.036   4.229 -0.1782  0.2340  0.0317
 6807SOL    HW132054   2.039   4.027   4.195 -0.0723  1.8047 -0.6818
 6807SOL    HW232055   2.133   4.130   4.243 -0.4301  0.1462  0.6682
 6808SOL     OW32056   2.900   1.143   3.452  0.8739 -0.1362 -0.4487
 6808SOL    HW132057   2.945   1.226   3.442  0.0142  0.5606  1.4470
 6808SOL    HW232058   2.842   1.150   3.376 -1.0062  2.0174  1.1799
 6809SOL     OW32059   1.573   0.316   0.617 -0.5139  0.3072  0.2762
 6809SOL    HW132060   1.607   0.293   0.531 -0.0387  0.5065  0.4119
 6809SOL    HW232061   1.606   0.245   0.673 -0.0735  1.8267  1.9323
 6810SOL     OW32062   1.760   2.586   2.142  0.1179 -0.4891 -0.3013
 6810SOL    HW132063   1.756   2.647   2.068  1.1012 -2.8695 -2.3282
 6810SOL    HW232064   1.775   2.503   2.095 -0.2672 -1.0168  0.5183
 6811SOL     OW32065   1.353   3.560   7.911  0.5846 -0.3213  0.0536
 6811SOL    HW132066   1.282   3.518   7.861  1.2990 -0.9015 -0.4771
 6811SOL    HW232067   1.304   3.641   7.924 -0.1493 -0.7050 -0.2895
 6812SOL     OW32068   3.757   1.142   7.290 -0.3196  0.3810  0.1390
 6812SOL    HW132069   3.720   1.220   7.331 -0.1491 -0.1471  1.3020
 6812SOL    HW232070   3.812   1.186   7.225  0.9428  0.2057  1.1030
 6813SOL     OW32071   2.873   0.311   7.439 -0.5960  0.3300  0.0749
 6813SOL    HW132072   2.893   0.399   7.470  2.3891 -0.4762  0.4796
 6813SOL    HW232073   2.933   0.263   7.495 -0.2356 -0.7152 -1.1973
 6814SOL     OW32074   1.617   4.536   3.980  0.5721 -0.3650  0.6401
 6814SOL    HW132075   1.636   4.561   3.890 -0.2401  0.5740  0.7318
 6814SOL    HW232076   1.597   4.625   4.010 -0.3848 -0.0719 -0.9018
 6815SOL     OW32077   4.088   2.897   8.505 -0.5077 -0.1648  0.3475
 6815SOL    HW132078   4.004   2.852   8.503 -1.0001  0.7726 -0.2227
 6815SOL    HW232079   4.057   2.978   8.545  1.1342  1.2638 -1.2619
 6816SOL     OW32080   3.732   3.434  11.337  0.5549 -0.0972  0.0109
 6816SOL    HW132081   3.754   3.525  11.313  1.4441 -0.9371 -2.3397
 6816SOL    HW232082   3.756   3.437  11.429 -0.0074  0.2090  0.1509
 6817SOL     OW32083   2.972   1.170   9.424  0.0195 -0.5384 -0.9461
 6817SOL    HW132084   2.900   1.145   9.481  1.5836 -0.9400  0.8485
 6817SOL    HW232085   2.984   1.262   9.449 -0.4769 -0.1744 -2.0290
 6818SOL     OW32086   0.270   3.161   8.220  0.0564 -0.3204 -0.1418
 6818SOL    HW132087   0.349   3.110   8.203  0.3920  0.5176 -1.0372
 6818SOL    HW232088   0.300   3.245   8.255 -1.0064 -0.7908  1.9416
 6819SOL     OW32089   4.684   2.012   8.085  0.2872  0.7421 -0.4902
 6819SOL    HW132090   4.625   1.945   8.049  1.0131 -0.1716  0.0128
 6819SOL    HW232091   4.631   2.091   8.079 -0.5312  0.2210 -0.1905
 6820SOL     OW32092   2.467   2.737   8.101  0.6204 -0.6317  0.0569
 6820SOL    HW132093   2.448   2.677   8.173 -0.0172  0.2486  0.6301
 6820SOL    HW232094   2.407   2.700   8.036 -0.5257  0.8559  0.2668
 6821SOL     OW32095   0.116   3.828   8.398 -0.3496 -0.5623 -0.2210
 6821SOL    HW132096   0.187   3.844   8.336 -1.7514  1.7075 -1.2385
 6821SOL    HW232097   0.153   3.752   8.442  0.5874 -0.8262 -1.4575
 6822SOL     OW32098   2.254   0.722  10.933  0.2249  0.2050  0.4867
 6822SOL    HW132099   2.295   0.669  11.001 -0.4311 -0.2922  0.4988
 6822SOL    HW232100   2.203   0.659  10.882  0.7974 -0.6441  0.9793
 6823SOL     OW32101   0.224   2.386   4.863 -0.4845 -0.1160  0.0563
 6823SOL    HW132102   0.217   2.292   4.845  0.3316 -0.2432  0.3941
 6823SOL    HW232103   0.293   2.409   4.801 -1.2369  0.8376 -0.4220
 6824SOL     OW32104   2.149   1.341   3.280 -0.4282 -0.2821 -0.0370
 6824SOL    HW132105   2.178   1.369   3.193  2.3251 -3.7904 -0.2597
 6824SOL    HW232106   2.061   1.378   3.275 -0.8863 -1.1011  2.1365
 6825SOL     OW32107   3.256   3.578   9.482 -0.1436 -0.0029 -0.0110
 6825SOL    HW132108   3.225   3.558   9.393  1.3086 -1.2747 -0.2212
 6825SOL    HW232109   3.186   3.531   9.527  1.1154 -3.5366 -1.7502
 6826SOL     OW32110   4.314   1.456   3.028 -0.5340 -0.2763  0.1970
 6826SOL    HW132111   4.337   1.367   2.999 -0.2095 -1.0574  2.8849
 6826SOL    HW232112   4.254   1.484   2.959 -0.7510  0.1905  0.5781
 6827SOL     OW32113   4.515   3.001   9.502 -0.3201  0.5139 -0.5326
 6827SOL    HW132114   4.550   3.057   9.433  1.6571 -1.6817 -1.3120
 6827SOL    HW232115   4.436   3.051   9.524 -0.3925  0.2902 -0.2783
 6828SOL     OW32116   0.368   3.715  13.749 -0.2160  0.3330 -0.5916
 6828SOL    HW132117   0.385   3.803  13.783 -2.9691  0.9119 -0.7202
 6828SOL    HW232118   0.434   3.707  13.680 -0.0473  0.8209 -0.4853
 6829SOL     OW32119   2.019   3.178   4.702 -0.5092 -0.4969  0.1899
 6829SOL    HW132120   1.999   3.248   4.639 -0.8145  0.9493  1.8753
 6829SOL    HW232121   2.046   3.229   4.779  2.1515 -1.8132  0.1027
 6830SOL     OW32122   1.076   0.130   5.799 -0.0940 -0.5957  0.1454
 6830SOL    HW132123   1.028   0.055   5.761 -1.2711  0.8548 -1.2194
 6830SOL    HW232124   1.116   0.172   5.723 -0.4965  2.8664  1.8964
 6831SOL     OW32125   3.865   1.894  15.851  0.7485 -0.7391 -0.1105
 6831SOL    HW132126   3.938   1.956  15.862  0.7875 -0.9554  0.8018
 6831SOL    HW232127   3.819   1.936  15.778  0.5469 -1.1833 -0.2363
 6832SOL     OW32128   2.463   1.769   6.048 -0.3175  0.1879  0.7382
 6832SOL    HW132129   2.389   1.783   5.989  0.3052 -0.1957 -0.1257
 6832SOL    HW232130   2.432   1.788   6.137  1.4675 -0.7576  1.5668
 6833SOL     OW32131   2.558   3.215  15.030  0.3826 -0.1180 -0.1677
 6833SOL    HW132132   2.642   3.192  14.991  0.2655  1.3731 -1.2909
 6833SOL    HW232133   2.501   3.165  14.972  2.1003 -1.2608 -0.8745
 6834SOL     OW32134   3.935   3.937   8.691  0.1792 -0.3957 -0.0838
 6834SOL    HW132135   4.011   3.903   8.738 -0.9235 -2.6506  0.1172
 6834SOL    HW232136   3.947   4.031   8.702 -1.9900 -0.1063 -0.2991
 6835SOL     OW32137   3.037   3.955   2.751  0.3997 -0.6136  0.2988
 6835SOL    HW132138   3.035   3.934   2.657 -0.8164 -2.0410  0.6594
 6835SOL    HW232139   3.020   3.871   2.792 -0.6724  0.1196  1.3243
 6836SOL     OW32140   4.690   0.084  10.055  0.2204 -0.0332 -0.4466
 6836SOL    HW132141   4.698   0.044  10.142  1.0756 -0.6198 -0.7935
 6836SOL    HW232142   4.680   0.002  10.007  1.7054  0.5154 -1.6999
 6837SOL     OW32143   2.942   2.679   3.687 -0.4487  0.2413  0.3372
 6837SOL    HW132144   3.037   2.684   3.672 -0.6857  0.7179 -1.0286
 6837SOL    HW232145   2.942   2.635   3.772  0.0430 -0.2108  0.1077
 6838SOL     OW32146   1.793   4.149   4.876 -0.0743 -0.3243  0.1888
 6838SOL    HW132147   1.852   4.183   4.809  0.6350 -2.3119 -0.1782
 6838SOL    HW232148   1.733   4.223   4.885 -1.6558 -1.4787 -1.0368
 6839SOL     OW32149   0.899   2.762   8.587  0.2436 -0.6982 -0.0005
 6839SOL    HW132150   0.945   2.698   8.533 -0.2878 -0.3187 -0.9074
 6839SOL    HW232151   0.849   2.698   8.638  1.5865 -1.2071  0.6780
 6840SOL     OW32152   1.935   2.189   4.241 -0.0205 -0.0060  0.1131
 6840SOL    HW132153   1.879   2.191   4.164 -0.6080  1.2963  0.5680
 6840SOL    HW232154   1.876   2.160   4.311 -0.0006 -0.6830 -0.1505
 6841SOL     OW32155   4.520   3.121   2.633 -0.2531 -0.5016  0.0855
 6841SOL    HW132156   4.485   3.085   2.552  2.1760 -0.8580 -0.7933
 6841SOL    HW232157   4.584   3.184   2.602 -2.7057  2.5332  1.2121
 6842SOL     OW32158   2.616   2.620   0.640  0.2654 -0.6552  0.0688
 6842SOL    HW132159   2.582   2.544   0.689 -1.5468  0.3040  0.3027
 6842SOL    HW232160   2.612   2.586   0.551 -0.7259 -1.5468  0.4526
 6843SOL     OW32161   2.182   3.264   8.499  0.3045  0.6698 -0.2712
 6843SOL    HW132162   2.150   3.222   8.579  2.4359  1.0607  0.7786
 6843SOL    HW232163   2.102   3.303   8.465 -3.4268 -4.2526  2.9380
 6844SOL     OW32164   2.877   3.603   1.635 -0.2090  0.4871  0.0390
 6844SOL    HW132165   2.909   3.644   1.555 -0.8866  3.0724  1.0925
 6844SOL    HW232166   2.944   3.628   1.698  1.1575 -2.7112 -0.1362
 6845SOL     OW32167   3.089   1.410  16.621  0.3120  0.2947 -0.5937
 6845SOL    HW132168   3.121   1.494  16.655 -0.3483  0.8698 -1.3821
 6845SOL    HW232169   3.042   1.437  16.542 -0.5379 -1.1543 -0.5736
 6846SOL     OW32170   0.066   0.471   7.905 -0.1122  0.2834  0.3103
 6846SOL    HW132171   4.727   0.447   7.856  0.2307  1.4141 -0.7598
 6846SOL    HW232172   0.027   0.547   7.948 -1.5036 -2.0513  3.1781
 6847SOL     OW32173   2.900   0.857  10.648 -0.1346 -0.2240  0.1270
 6847SOL    HW132174   2.920   0.910  10.570  1.6008 -1.5661 -0.3627
 6847SOL    HW232175   2.884   0.918  10.719 -0.6676  1.2655 -1.2768
 6848SOL     OW32176   0.798   0.680  15.893 -0.2306 -0.4179  0.0304
 6848SOL    HW132177   0.758   0.687  15.980 -3.3634  1.3287 -1.5426
 6848SOL    HW232178   0.717   0.669  15.843 -1.5458 -2.6400  2.6878
 6849SOL     OW32179   3.453   0.556   2.823  0.5392 -0.1185 -0.7421
 6849SOL    HW132180   3.506   0.546   2.901 -0.0069  0.7382 -0.2663
 6849SOL    HW232181   3.491   0.482   2.776  0.5213  0.7395 -2.1443
 6850SOL     OW32182   4.545   0.791   6.009  0.2467 -0.2755 -0.1583
 6850SOL    HW132183   4.535   0.883   5.988  0.4896 -0.5899 -1.6327
 6850SOL    HW232184   4.463   0.772   6.055  0.6159 -0.7532  0.3094
 6851SOL     OW32185   1.000   1.671   1.037 -0.1503  0.4909  0.3789
 6851SOL    HW132186   1.043   1.748   1.000  2.1707 -1.4710 -1.0012
 6851SOL    HW232187   0.909   1.699   1.043 -0.1089  0.7042  0.0270
 6852SOL     OW32188   0.368   3.069   6.529  0.5428  0.1154  0.2393
 6852SOL    HW132189   0.368   3.139   6.465 -2.5123  0.6474  0.8190
 6852SOL    HW232190   0.283   3.035   6.498  0.5708 -0.9684  1.3215
 6853SOL     OW32191   1.610   3.345   9.695 -0.5780 -0.4402 -0.6702
 6853SOL    HW132192   1.659   3.421   9.727  0.4114 -1.4664  0.2633
 6853SOL    HW232193   1.673   3.277   9.718 -0.1635  0.7132  1.6038
 6854SOL     OW32194   1.479   2.764  15.006 -0.2868  0.1248  0.5263
 6854SOL    HW132195   1.560   2.786  15.053 -0.5012 -0.2162  1.0619
 6854SOL    HW232196   1.464   2.821  14.931 -0.0946  1.6859  1.6681
 6855SOL     OW32197   0.500   3.009   8.158  0.2324  0.4815  0.3262
 6855SOL    HW132198   0.596   3.011   8.164  0.2751 -1.5448  0.4501
 6855SOL    HW232199   0.479   2.926   8.201  1.6199  0.4379  0.9275
 6856SOL     OW32200   2.070   3.600   5.139  0.6719  0.8826 -0.1482
 6856SOL    HW132201   2.103   3.690   5.135  4.0705 -0.3036  0.7074
 6856SOL    HW232202   2.152   3.551   5.128  0.0986  0.2030 -1.3564
 6857SOL     OW32203   0.452   0.408   8.358 -0.5904 -0.9337 -0.0309
 6857SOL    HW132204   0.546   0.392   8.372  0.3774  4.0242 -0.6124
 6857SOL    HW232205   0.426   0.402   8.449 -0.1317  1.8537  0.2958
 6858SOL     OW32206   3.925   3.919   3.871 -0.1191 -0.2020  0.6360
 6858SOL    HW132207   4.015   3.945   3.855  0.0819  0.0008  2.1997
 6858SOL    HW232208   3.889   3.990   3.817 -0.6084 -0.3704  0.7362
 6859SOL     OW32209   3.205   2.320   5.186  0.5409  0.3978  0.7216
 6859SOL    HW132210   3.214   2.416   5.187 -1.5155  0.5583  3.0625
 6859SOL    HW232211   3.131   2.302   5.243 -0.9432  0.4444 -1.1850
 6860SOL     OW32212   2.126   3.361  13.465 -0.9433  0.5375 -0.1757
 6860SOL    HW132213   2.069   3.287  13.445  0.4128 -0.7671  0.8109
 6860SOL    HW232214   2.120   3.373  13.559  1.3355  2.9402 -0.3454
 6861SOL     OW32215   3.919   4.072   5.074 -0.3881  0.1547 -0.1959
 6861SOL    HW132216   4.005   4.088   5.036 -0.0054 -3.3726 -0.8410
 6861SOL    HW232217   3.865   4.066   4.995 -0.6574 -0.2959  0.0188
 6862SOL     OW32218   1.065   1.257   2.811 -0.1306 -0.3071 -0.6237
 6862SOL    HW132219   1.037   1.244   2.902  1.9071  2.6679  0.4453
 6862SOL    HW232220   1.157   1.232   2.816 -0.4827 -1.5841 -0.4309
 6863SOL     OW32221   2.931   1.752   3.854  0.2967  0.1840  0.1699
 6863SOL    HW132222   2.848   1.779   3.815  1.1956  1.3063 -0.9758
 6863SOL    HW232223   2.970   1.715   3.775  0.2489  1.1322 -0.3003
 6864SOL     OW32224   3.057   3.304  10.216  0.0638  0.1379 -0.3049
 6864SOL    HW132225   3.139   3.271  10.254  0.4548  0.7348 -0.6136
 6864SOL    HW232226   3.016   3.222  10.190 -0.7223  0.7743 -1.0913
 6865SOL     OW32227   3.622   3.155   7.739  0.1073  0.4937 -0.1944
 6865SOL    HW132228   3.600   3.243   7.708 -0.7277  0.4750  0.3341
 6865SOL    HW232229   3.553   3.102   7.700  0.9990 -1.7678  1.2975
 6866SOL     OW32230   3.575   1.417  15.710 -0.1812  0.3994  0.1926
 6866SOL    HW132231   3.488   1.431  15.673  0.4564  0.2339 -1.3545
 6866SOL    HW232232   3.615   1.504  15.709  1.8518 -0.5391 -0.0810
 6867SOL     OW32233   2.224   4.423   1.711  0.3018 -0.1319  0.5558
 6867SOL    HW132234   2.159   4.484   1.675 -2.4832 -2.9037  0.9535
 6867SOL    HW232235   2.311   4.446   1.679 -0.0093  0.4003  0.0872
 6868SOL     OW32236   0.217   2.749   2.054 -0.3030 -0.0259  0.0257
 6868SOL    HW132237   0.267   2.668   2.063 -0.4729 -0.2796 -1.4235
 6868SOL    HW232238   0.169   2.728   1.974  1.4007  0.7270 -1.1945
 6869SOL     OW32239   3.299   3.837   6.261  0.3707  0.0378 -0.5539
 6869SOL    HW132240   3.360   3.772   6.227 -1.1056 -2.0840  0.8735
 6869SOL    HW232241   3.357   3.901   6.304  0.4656 -0.6791  0.4047
 6870SOL     OW32242   0.977   2.377  17.471  0.1374 -0.1907  0.2413
 6870SOL    HW132243   0.929   2.398  17.391 -0.2203 -2.6599 -0.1806
 6870SOL    HW232244   1.056   2.430  17.469 -0.1837  0.2969  0.3819
 6871SOL     OW32245   2.830   1.716   5.426 -0.3711  0.1344  0.0330
 6871SOL    HW132246   2.909   1.665   5.407 -0.8747 -0.8490  0.5575
 6871SOL    HW232247   2.862   1.798   5.389  0.2892  0.9817  2.4891
 6872SOL     OW32248   1.108   1.497   3.053  0.7694 -0.3292  0.6319
 6872SOL    HW132249   1.026   1.471   3.012  2.1472 -2.0882 -1.0039
 6872SOL    HW232250   1.068   1.567   3.105 -1.1024 -2.2949  1.8610
 6873SOL     OW32251   1.532   2.856  12.671 -0.2782 -0.2463  0.1388
 6873SOL    HW132252   1.585   2.777  12.681  2.1819  1.3554 -0.2453
 6873SOL    HW232253   1.519   2.902  12.753  2.6338 -1.7016  1.4030
 6874SOL     OW32254   2.831   4.479   1.305  0.4781  0.3080  0.7238
 6874SOL    HW132255   2.921   4.458   1.328 -0.1030 -1.3378  1.4768
 6874SOL    HW232256   2.804   4.552   1.361  0.5991  0.6511  0.3415
 6875SOL     OW32257   0.580   3.501   9.976  0.1352 -0.4696  0.0318
 6875SOL    HW132258   0.636   3.555   9.920 -0.1424 -0.4003 -0.1827
 6875SOL    HW232259   0.605   3.421   9.929  2.4359  0.0366  0.4166
 6876SOL     OW32260   1.287   3.244   0.684 -0.0245  0.4279 -0.5989
 6876SOL    HW132261   1.288   3.201   0.770  0.6532 -0.5559 -1.1107
 6876SOL    HW232262   1.227   3.188   0.636 -0.4548  0.8080 -0.5064
 6877SOL     OW32263   2.894   0.696  15.018 -0.0473  0.1852  0.3229
 6877SOL    HW132264   2.982   0.733  15.029  0.4472 -1.0541  0.4939
 6877SOL    HW232265   2.913   0.609  14.983 -0.1341  0.1206  0.4348
 6878SOL     OW32266   4.646   0.102   7.859 -0.5520 -0.3594 -0.2428
 6878SOL    HW132267   4.722   0.065   7.814 -1.0817  0.2833 -1.6665
 6878SOL    HW232268   4.686   0.129   7.942 -1.5864  0.1424  0.0940
 6879SOL     OW32269   4.430   2.367   6.617  0.1329 -0.2614  0.0859
 6879SOL    HW132270   4.435   2.462   6.627 -0.0854 -0.0191 -2.0469
 6879SOL    HW232271   4.443   2.343   6.709 -0.3887 -1.2141 -0.0858
 6880SOL     OW32272   1.125   1.711   8.722 -0.3503 -0.0731  0.4186
 6880SOL    HW132273   1.159   1.710   8.811 -0.4642 -1.1871  0.4495
 6880SOL    HW232274   1.139   1.619   8.697 -0.0255  0.1368 -0.1851
 6881SOL     OW32275   3.073   0.080   5.250  0.1166 -0.3243 -0.0919
 6881SOL    HW132276   3.066   0.174   5.271  1.2010 -0.8268  2.5269
 6881SOL    HW232277   3.168   0.070   5.249  0.2201  0.5983  0.6301
 6882SOL     OW32278   2.943   3.024   8.596  0.1084 -0.0376  0.0165
 6882SOL    HW132279   2.960   2.942   8.551  0.1544  0.6996 -1.3291
 6882SOL    HW232280   2.950   2.997   8.687 -0.1266  1.1090  0.3864
 6883SOL     OW32281   4.559   2.913   3.217 -0.1718 -0.4236 -0.2995
 6883SOL    HW132282   4.509   2.863   3.281  0.6430 -1.6559 -0.6209
 6883SOL    HW232283   4.561   3.005   3.246  0.4660  0.1633 -2.2052
 6884SOL     OW32284   3.886   1.574   1.671 -0.0613 -0.8376  0.0237
 6884SOL    HW132285   3.861   1.486   1.642  1.1005 -0.4840 -2.0671
 6884SOL    HW232286   3.974   1.582   1.636 -0.4379 -2.4929 -1.3355
 6885SOL     OW32287   3.567   1.090   5.949  0.7095  0.4702  0.3982
 6885SOL    HW132288   3.609   1.173   5.930 -0.5743  0.6938 -1.4360
 6885SOL    HW232289   3.639   1.053   5.999 -0.6439 -3.5917 -0.6218
 6886SOL     OW32290   2.922   1.943   6.589 -0.6705 -0.0410  0.3668
 6886SOL    HW132291   2.888   2.028   6.560  0.1202  0.4825  0.9809
 6886SOL    HW232292   2.849   1.910   6.642 -1.3068  1.2773  0.3291
 6887SOL     OW32293   0.331   0.907   4.319 -0.0789  1.1019  0.1568
 6887SOL    HW132294   0.268   0.837   4.340  2.1949 -1.0813 -0.3203
 6887SOL    HW232295   0.305   0.959   4.395 -0.4042  0.3454  0.5660
 6888SOL     OW32296   0.901   2.045   2.541 -0.3504  0.1243 -0.6472
 6888SOL    HW132297   0.898   2.129   2.495 -1.5787  0.9616  0.9575
 6888SOL    HW232298   0.912   1.990   2.464 -2.1063 -2.7466  1.1548
 6889SOL     OW32299   0.678   0.995  13.714  0.0442 -0.2674  0.3172
 6889SOL    HW132300   0.709   1.075  13.673 -1.6293 -1.1130 -2.6161
 6889SOL    HW232301   0.586   0.995  13.686  0.1521  1.0488 -0.0027
 6890SOL     OW32302   3.226   4.156   8.552 -0.2355  0.0700 -0.3237
 6890SOL    HW132303   3.262   4.079   8.508 -0.0094 -0.3277  0.5614
 6890SOL    HW232304   3.272   4.163   8.636  0.4191 -0.3878 -0.6467
 6891SOL     OW32305   4.142   4.498   5.310 -0.6792 -0.2412 -0.6175
 6891SOL    HW132306   4.126   4.459   5.397  1.7158  1.6090  0.6467
 6891SOL    HW232307   4.201   4.572   5.325  0.0205 -0.6605 -1.3030
 6892SOL     OW32308   4.234   0.477  14.381 -0.2064 -0.1356 -0.0431
 6892SOL    HW132309   4.277   0.537  14.320 -1.3702  0.1246 -0.6157
 6892SOL    HW232310   4.293   0.402  14.375  3.1021  2.3303  1.6986
 6893SOL     OW32311   1.471   3.171   7.625  0.1970 -0.0381  0.2778
 6893SOL    HW132312   1.533   3.132   7.686  1.1455  0.9525 -0.0604
 6893SOL    HW232313   1.462   3.262   7.652  0.2881 -0.1946  0.8373
 6894SOL     OW32314   2.795   2.030   3.494 -0.2601  0.0757  0.2538
 6894SOL    HW132315   2.877   2.030   3.444 -1.3838 -0.0896 -1.5850
 6894SOL    HW232316   2.753   2.113   3.471  0.0939 -0.2724 -1.6370
 6895SOL     OW32317   4.259   4.019   3.214  0.0350 -0.3498 -0.1902
 6895SOL    HW132318   4.210   4.004   3.294  0.3385 -2.1986 -0.3413
 6895SOL    HW232319   4.318   4.085   3.251 -0.1070 -1.6300  2.3060
 6896SOL     OW32320   2.483   3.266   2.065  0.0628  0.7883  0.0151
 6896SOL    HW132321   2.502   3.329   2.134  2.7327 -0.2085  0.1790
 6896SOL    HW232322   2.400   3.230   2.097  1.0010  0.0256  1.6005
 6897SOL     OW32323   2.443   4.354   3.924 -0.4834 -0.3626 -0.9481
 6897SOL    HW132324   2.433   4.433   3.978  0.1540 -1.0706  0.1915
 6897SOL    HW232325   2.380   4.369   3.853 -0.6770 -0.4192 -0.7894
 6898SOL     OW32326   1.250   0.828   4.344  0.0864  0.2186 -0.6062
 6898SOL    HW132327   1.342   0.806   4.333  0.0734 -0.6054  1.0260
 6898SOL    HW232328   1.224   0.826   4.252  0.8581 -0.6745 -0.7998
 6899SOL     OW32329   1.908   3.288   2.360  0.5221  0.3441  0.2891
 6899SOL    HW132330   1.950   3.327   2.437  0.5769 -0.1227  0.5024
 6899SOL    HW232331   1.848   3.228   2.405 -2.2671  1.0383 -2.6140
 6900SOL     OW32332   2.154   3.555   4.411 -0.1235  0.0889 -0.0601
 6900SOL    HW132333   2.081   3.570   4.471 -2.2873 -0.3549 -2.5884
 6900SOL    HW232334   2.169   3.641   4.373 -3.0444  0.8380  0.4442
 6901SOL     OW32335   4.451   4.460   7.387 -0.1263 -0.0386 -0.5301
 6901SOL    HW132336   4.528   4.515   7.368  1.0459 -1.6368 -0.3815
 6901SOL    HW232337   4.495   4.378   7.408 -0.0426  0.3583  0.8158
 6902SOL     OW32338   0.337   3.644   2.450  0.1807  0.2074 -0.0799
 6902SOL    HW132339   0.341   3.557   2.411 -1.2168  0.2784 -0.3810
 6902SOL    HW232340   0.278   3.695   2.394 -0.5320 -0.1016  0.3926
 6903SOL     OW32341   4.527   2.785   9.333 -0.6720 -0.3478 -0.2544
 6903SOL    HW132342   4.572   2.718   9.383  2.4672  1.0107 -1.2964
 6903SOL    HW232343   4.526   2.853   9.401  0.0330  1.7751 -2.3593
 6904SOL     OW32344   2.828   2.583   1.369 -0.3757 -0.1402 -0.2596
 6904SOL    HW132345   2.838   2.678   1.376  3.5630 -0.5037 -1.0285
 6904SOL    HW232346   2.852   2.568   1.277  1.0686  1.1270 -0.0831
 6905SOL     OW32347   2.696   1.882   6.133  0.2681 -0.1356 -0.4698
 6905SOL    HW132348   2.764   1.851   6.073  2.3119  1.5614  0.9694
 6905SOL    HW232349   2.621   1.832   6.102  0.7860 -0.0781 -1.8238
 6906SOL     OW32350   1.952   4.053  16.574 -0.4515 -0.2818 -0.3726
 6906SOL    HW132351   1.907   4.123  16.621  1.3287 -0.3669  1.4809
 6906SOL    HW232352   1.891   3.987  16.541  0.6412 -0.7489 -1.4594
 6907SOL     OW32353   1.203   0.091   7.249  0.1607  0.1801 -0.3011
 6907SOL    HW132354   1.189   0.013   7.303  0.4675  1.0127  1.0034
 6907SOL    HW232355   1.247   0.144   7.316  1.5835 -1.1263 -0.1813
 6908SOL     OW32356   0.296   0.906   3.620  0.3119 -0.0511  0.0935
 6908SOL    HW132357   0.317   0.895   3.712 -1.0517 -1.7077  0.2067
 6908SOL    HW232358   0.330   0.992   3.595 -0.2875 -0.4162 -2.0366
 6909SOL     OW32359   4.117   4.275   8.405  0.1176 -0.1171 -0.2946
 6909SOL    HW132360   4.181   4.343   8.426  0.9328 -0.5639 -1.3204
 6909SOL    HW232361   4.169   4.195   8.412  0.1755  0.0745  1.4090
 6910SOL     OW32362   1.933   3.009   4.079  0.1628 -0.0696  0.2404
 6910SOL    HW132363   1.982   3.016   3.997 -1.4646  0.3593 -0.6939
 6910SOL    HW232364   1.844   3.028   4.051  0.7823  1.3155 -0.7794
 6911SOL     OW32365   3.172   0.367   4.981  0.5079  0.3390  0.4169
 6911SOL    HW132366   3.104   0.424   5.018 -0.3365 -0.4520  0.0686
 6911SOL    HW232367   3.225   0.407   4.913  0.1193  0.6100  0.2753
 6912SOL     OW32368   0.082   3.699  12.257 -0.3433  0.3886  0.5162
 6912SOL    HW132369   0.030   3.779  12.252 -0.2969  0.3568 -0.6121
 6912SOL    HW232370   0.017   3.635  12.231  2.4811 -1.9188 -0.8661
 6913SOL     OW32371   4.544   1.002   4.815  0.1283 -0.0192  0.4084
 6913SOL    HW132372   4.612   0.943   4.783 -2.6299 -3.2658  0.4305
 6913SOL    HW232373   4.569   1.015   4.906  0.4703  1.3864  0.1140
 6914SOL     OW32374   2.268   4.549  10.725 -0.0015 -0.0052 -0.4163
 6914SOL    HW132375   2.356   4.575  10.699  1.0975 -2.6579  0.7290
 6914SOL    HW232376   2.303   4.502  10.801 -1.0989 -1.8698 -1.0657
 6915SOL     OW32377   3.001   4.248   5.526 -0.4321  0.5142  0.2386
 6915SOL    HW132378   2.919   4.242   5.477  0.3494 -2.8670 -0.6843
 6915SOL    HW232379   3.021   4.156   5.509 -2.0793  0.1160  0.5082
 6916SOL     OW32380   2.469   1.837  12.140 -0.6102 -0.0411  0.0600
 6916SOL    HW132381   2.399   1.892  12.175 -1.4494 -0.6449 -0.6465
 6916SOL    HW232382   2.544   1.848  12.198  0.0093  2.3673 -1.1984
 6917SOL     OW32383   4.510   1.969   8.952  0.0415 -0.0781  1.0420
 6917SOL    HW132384   4.492   1.898   8.891 -0.4819  1.1936 -0.2766
 6917SOL    HW232385   4.508   2.042   8.891 -1.2702 -1.3241 -0.3947
 6918SOL     OW32386   2.307   0.263   9.159 -0.3995 -0.2511  0.1877
 6918SOL    HW132387   2.305   0.280   9.253 -1.4368 -1.6288  0.4049
 6918SOL    HW232388   2.223   0.302   9.135 -1.1223 -0.5935  2.2173
 6919SOL     OW32389   4.112   2.343  15.825 -0.0169  0.0985  0.6476
 6919SOL    HW132390   4.098   2.296  15.743 -0.4615  1.4414 -0.0385
 6919SOL    HW232391   4.054   2.419  15.818  2.3210  1.8767  0.7931
 6920SOL     OW32392   3.530   3.120   3.521 -0.2683 -0.3043  0.0166
 6920SOL    HW132393   3.517   3.211   3.549 -0.9467 -0.6161  0.7118
 6920SOL    HW232394   3.494   3.113   3.433 -0.7073  0.9963  0.0920
 6921SOL     OW32395   1.215   1.089   8.482 -0.2151  0.3844  0.9758
 6921SOL    HW132396   1.299   1.051   8.455 -0.4525 -0.0873  0.9121
 6921SOL    HW232397   1.192   1.159   8.421  0.6781 -0.2583 -0.1041
 6922SOL     OW32398   0.699   4.250   6.761 -0.3033  0.8098 -0.1313
 6922SOL    HW132399   0.625   4.192   6.778  0.1705  0.3322  0.3445
 6922SOL    HW232400   0.737   4.218   6.679 -1.5903 -1.2326  0.0653
 6923SOL     OW32401   2.461   0.636  14.888  0.5061 -0.5119 -0.0989
 6923SOL    HW132402   2.438   0.567  14.950 -1.3713  1.0253  0.9176
 6923SOL    HW232403   2.425   0.590  14.812 -0.2227 -1.5562  0.8817
 6924SOL     OW32404   4.205   2.030   2.416  0.0133 -0.1422 -0.7204
 6924SOL    HW132405   4.241   2.025   2.504 -0.7801 -1.8879 -0.4928
 6924SOL    HW232406   4.118   1.992   2.429  1.3581 -2.5122  1.4493
 6925SOL     OW32407   2.948   1.610   8.955 -0.3448  0.2991 -0.1872
 6925SOL    HW132408   2.863   1.609   8.912  0.4436 -1.7897 -1.6893
 6925SOL    HW232409   2.928   1.625   9.047 -0.1057 -2.2675  0.2725
 6926SOL     OW32410   2.119   0.872   1.310  0.2924  0.0184 -0.0096
 6926SOL    HW132411   2.046   0.899   1.255  1.6969  1.4978 -1.1183
 6926SOL    HW232412   2.081   0.855   1.396 -1.3090  0.0525 -0.7109
 6927SOL     OW32413   1.007   2.101   8.180  0.2656  0.3267  0.1446
 6927SOL    HW132414   1.036   2.060   8.098  2.1140  1.9560 -0.0266
 6927SOL    HW232415   1.071   2.079   8.247 -0.9196  1.9397  1.8030
 6928SOL     OW32416   4.396   3.585   4.790 -0.2872 -0.4880  0.2365
 6928SOL    HW132417   4.469   3.557   4.735 -1.1614 -0.2854 -1.0239
 6928SOL    HW232418   4.418   3.561   4.880 -0.6328 -1.0983  0.1552
 6929SOL     OW32419   4.315   3.253   3.246 -0.0054  0.3077  0.5374
 6929SOL    HW132420   4.292   3.165   3.218 -1.6103  0.6753  0.6824
 6929SOL    HW232421   4.257   3.305   3.190  1.1936  0.8229 -0.2061
 6930SOL     OW32422   3.003   4.456   0.262 -0.2991  0.2976 -0.4144
 6930SOL    HW132423   3.059   4.457   0.184 -1.8750  0.8441 -1.5352
 6930SOL    HW232424   3.068   4.438   0.330 -1.0987  0.2358  0.3314
 6931SOL     OW32425   0.598   3.193  16.435 -0.2644 -0.3760  0.2471
 6931SOL    HW132426   0.569   3.236  16.515 -0.0899  0.9121 -0.3816
 6931SOL    HW232427   0.662   3.129  16.464 -1.5842 -1.7004  0.2243
 6932SOL     OW32428   0.250   2.404  12.828 -0.6093  0.1360 -0.0036
 6932SOL    HW132429   0.332   2.453  12.834  0.8803 -2.0819 -2.0256
 6932SOL    HW232430   0.247   2.357  12.911  1.1017  0.6608  0.3555
 6933SOL     OW32431   0.899   3.465   8.757  0.6280 -0.1512  0.4370
 6933SOL    HW132432   0.912   3.453   8.663  0.9440  0.1726  0.4387
 6933SOL    HW232433   0.837   3.395   8.778 -1.0541  1.3283  0.3125
 6934SOL     OW32434   0.134   3.301   0.775  0.2573 -0.5175 -0.4033
 6934SOL    HW132435   0.096   3.344   0.698  0.5021  0.8073  0.2194
 6934SOL    HW232436   0.189   3.246   0.719 -0.8112 -0.2115 -1.7557
 6935SOL     OW32437   3.690   0.907   4.017  0.4176 -0.2234  0.8859
 6935SOL    HW132438   3.700   0.821   4.058  1.8851 -1.2243 -1.5694
 6935SOL    HW232439   3.709   0.964   4.091 -0.7845 -0.3418  1.2809
 6936SOL     OW32440   2.435   1.731  12.607  0.2753 -0.3953  0.7352
 6936SOL    HW132441   2.413   1.666  12.673 -1.7330 -0.5972 -0.1368
 6936SOL    HW232442   2.478   1.799  12.660 -0.8928  0.9659 -0.0389
 6937SOL     OW32443   0.920   3.910   2.503  0.3604 -0.6222 -0.2766
 6937SOL    HW132444   0.962   3.888   2.587  2.3253  0.0088 -1.0929
 6937SOL    HW232445   0.975   3.857   2.445 -0.8801 -1.1562 -0.9567
 6938SOL     OW32446   2.777   4.406  14.893  0.3076  0.8082  0.4848
 6938SOL    HW132447   2.831   4.327  14.884  0.2559  0.8078  0.1680
 6938SOL    HW232448   2.770   4.426  14.799  2.1782  0.6151  0.3017
 6939SOL     OW32449   2.317   3.827  10.084 -0.1436 -0.1427 -0.1576
 6939SOL    HW132450   2.250   3.812  10.151 -1.0741  2.7727 -0.4347
 6939SOL    HW232451   2.286   3.915  10.061  0.1842  0.0980  0.3203
 6940SOL     OW32452   0.581   2.559   5.878  0.7375  0.0383 -0.2920
 6940SOL    HW132453   0.546   2.623   5.815  3.6447  2.2098  0.3132
 6940SOL    HW232454   0.530   2.593   5.951  0.8040  0.2402 -0.3398
 6941SOL     OW32455   0.763   2.832   3.765 -0.6055 -0.2948 -0.3470
 6941SOL    HW132456   0.725   2.842   3.853 -2.0299  1.2894 -1.1318
 6941SOL    HW232457   0.857   2.840   3.783 -0.6779 -0.1332 -0.0294
 6942SOL     OW32458   2.291   1.780   3.451  0.5050  0.4553  0.4874
 6942SOL    HW132459   2.203   1.744   3.465  0.5121  0.0568 -0.4947
 6942SOL    HW232460   2.284   1.862   3.499  0.9419  1.4114 -1.0962
 6943SOL     OW32461   1.899   4.458   8.649  0.0169  0.0693 -0.2494
 6943SOL    HW132462   1.965   4.390   8.639  0.2625 -0.1102  2.5316
 6943SOL    HW232463   1.825   4.415   8.605 -0.8117  0.0118  1.1745
 6944SOL     OW32464   3.888   0.276   3.524  0.4035  0.1382  0.0228
 6944SOL    HW132465   3.808   0.258   3.475  0.2198  0.7242  0.1119
 6944SOL    HW232466   3.894   0.371   3.513 -3.1223  0.4716  0.9477
 6945SOL     OW32467   2.926   3.266   0.132 -0.3553  0.3509 -0.7674
 6945SOL    HW132468   2.855   3.205   0.110 -0.6281 -0.2081  1.7423
 6945SOL    HW232469   2.954   3.289   0.043 -0.3567 -0.1633 -0.9031
 6946SOL     OW32470   0.389   3.886   9.812  0.3763 -0.0223  0.1344
 6946SOL    HW132471   0.420   3.964   9.859 -1.3284 -0.3713  1.8189
 6946SOL    HW232472   0.462   3.868   9.752 -0.2098  1.3128 -0.9802
 6947SOL     OW32473   2.082   3.949   1.830 -0.9441 -0.1447 -0.1808
 6947SOL    HW132474   2.157   3.924   1.777 -1.4666 -1.3131 -0.3632
 6947SOL    HW232475   2.078   4.040   1.802 -1.6448  0.2255  1.1313
 6948SOL     OW32476   2.797   1.212   5.805 -0.5920 -0.1086 -0.2946
 6948SOL    HW132477   2.883   1.223   5.764 -0.2287 -0.5296  0.3339
 6948SOL    HW232478   2.749   1.145   5.756 -1.1436 -1.5553  2.2141
 6949SOL     OW32479   1.386   0.634   3.864 -0.4480  0.2957 -0.7723
 6949SOL    HW132480   1.355   0.657   3.776 -1.8415 -0.5465 -0.4977
 6949SOL    HW232481   1.308   0.644   3.918 -0.3171 -1.2501 -0.3071
 6950SOL     OW32482   4.109   2.350   8.749 -0.1937 -0.6471  0.2236
 6950SOL    HW132483   4.033   2.372   8.695  0.6341 -0.6848 -0.9573
 6950SOL    HW232484   4.175   2.355   8.680 -1.3132  2.2947 -0.6229
 6951SOL     OW32485   3.706   3.421   4.175 -0.4899 -1.0297  0.0589
 6951SOL    HW132486   3.661   3.477   4.113  0.5332 -0.0321  0.2189
 6951SOL    HW232487   3.758   3.483   4.226  0.8079 -0.2740 -2.1980
 6952SOL     OW32488   2.010   2.645  13.638  0.3656  0.3529  0.1604
 6952SOL    HW132489   2.020   2.560  13.681  0.3065  0.7897  1.0388
 6952SOL    HW232490   1.994   2.609  13.551 -1.0160 -2.7930  1.7256
 6953SOL     OW32491   3.805   4.131  11.482 -0.0302  0.8976  0.1185
 6953SOL    HW132492   3.885   4.096  11.443 -0.2165 -0.1125  0.6484
 6953SOL    HW232493   3.740   4.064  11.461  0.8521 -0.2933  1.2027
 6954SOL     OW32494   2.213   2.879   5.828  0.6447 -0.0840  0.8492
 6954SOL    HW132495   2.193   2.788   5.848 -0.4526  0.5140  2.4447
 6954SOL    HW232496   2.129   2.926   5.827  0.5453 -0.2743 -0.0880
 6955SOL     OW32497   3.722   0.101   8.523  0.2936 -0.1267 -0.6924
 6955SOL    HW132498   3.789   0.088   8.590 -2.7852  0.3018  2.4142
 6955SOL    HW232499   3.716   0.197   8.528 -0.8861 -0.2735  0.4529
 6956SOL     OW32500   2.568   0.485   1.435  0.2244 -0.1167 -0.1665
 6956SOL    HW132501   2.559   0.547   1.363 -1.4853  0.4063  0.4929
 6956SOL    HW232502   2.479   0.463   1.461  0.1960  0.5753  0.3173
 6957SOL     OW32503   3.531   1.902   6.817  0.3633  0.3757  0.0382
 6957SOL    HW132504   3.582   1.874   6.893 -0.3935  0.5193  0.5888
 6957SOL    HW232505   3.492   1.985   6.843  3.3835  1.5463  0.8971
 6958SOL     OW32506   4.428   1.210   4.035 -0.1308 -0.1910  0.2541
 6958SOL    HW132507   4.452   1.257   4.115  1.4320 -2.6763  1.2322
 6958SOL    HW232508   4.423   1.125   4.078 -0.6233  0.4898  1.5617
 6959SOL     OW32509   1.176   2.250  11.114  0.6111  0.5138  0.2700
 6959SOL    HW132510   1.230   2.245  11.035  1.3531 -1.9270  0.9089
 6959SOL    HW232511   1.118   2.174  11.114 -0.0871  1.0448  0.7567
 6960SOL     OW32512   1.729   4.136   1.623  0.3968  0.3440  0.3251
 6960SOL    HW132513   1.716   4.214   1.677  0.1394  0.5023  0.0347
 6960SOL    HW232514   1.665   4.161   1.556 -1.3531 -1.1383  1.4426
 6961SOL     OW32515   0.822   1.698   0.027  0.3097  0.3107  0.4180
 6961SOL    HW132516   0.875   1.653  17.714 -0.0231  0.7212 -0.1251
 6961SOL    HW232517   0.854   1.648   0.102  1.9556 -1.8076 -1.6845
 6962SOL     OW32518   2.521   3.664   8.126 -0.0082  0.7366 -0.0253
 6962SOL    HW132519   2.612   3.677   8.097 -0.0123  0.5400 -0.1261
 6962SOL    HW232520   2.532   3.677   8.221  0.7286  0.9647 -0.1367
 6963SOL     OW32521   3.991   2.842   1.464 -0.1379 -0.7315 -0.3596
 6963SOL    HW132522   3.941   2.851   1.545 -0.8215  0.9337 -0.9824
 6963SOL    HW232523   4.075   2.885   1.484 -0.3378 -1.1873  1.4703
 6964SOL     OW32524   0.873   1.835   8.835 -0.0999  0.2205  0.2551
 6964SOL    HW132525   0.951   1.780   8.831  0.4561  1.1295 -1.3892
 6964SOL    HW232526   0.879   1.893   8.911  2.2138 -0.7399  0.8132
 6965SOL     OW32527   3.101   1.586  12.290  0.2109 -0.5064  0.3003
 6965SOL    HW132528   3.076   1.493  12.295 -3.1248  0.2940 -1.0176
 6965SOL    HW232529   3.137   1.603  12.377  0.9832 -0.1215 -0.1045
 6966SOL     OW32530   2.669   2.655  12.096  0.5357 -0.5145 -0.2332
 6966SOL    HW132531   2.596   2.681  12.040 -1.2075 -1.7709  1.4174
 6966SOL    HW232532   2.723   2.733  12.102  1.4486 -1.0263 -1.9652
 6967SOL     OW32533   1.177   2.754  14.958  0.1663  0.6065  0.4569
 6967SOL    HW132534   1.269   2.747  14.985  0.2296 -1.6478 -0.2858
 6967SOL    HW232535   1.132   2.745  15.042  0.1774  2.4917  0.6672
 6968SOL     OW32536   2.188   2.691   3.868  0.6201 -0.9792 -0.4633
 6968SOL    HW132537   2.234   2.621   3.914 -0.8832 -1.0949  0.8505
 6968SOL    HW232538   2.138   2.635   3.810 -1.6820  1.6436 -1.0513
 6969SOL     OW32539   3.047   0.286   1.678  0.7772 -0.3676  0.4761
 6969SOL    HW132540   3.072   0.214   1.620  2.5049  0.3985  0.2819
 6969SOL    HW232541   2.985   0.331   1.621 -0.8460  0.1794  2.6609
 6970SOL     OW32542   3.232   0.509   9.866 -0.0291 -0.6980  0.2561
 6970SOL    HW132543   3.236   0.505   9.962  0.8926 -2.0751  0.1584
 6970SOL    HW232544   3.260   0.422   9.840 -0.4379 -1.1047  1.1764
 6971SOL     OW32545   3.984   2.309  11.688  0.9848  0.1947 -0.3540
 6971SOL    HW132546   4.028   2.325  11.604  0.6199  0.3959 -0.5085
 6971SOL    HW232547   3.965   2.216  11.677 -2.5103  1.0388 -1.5346
 6972SOL     OW32548   1.740   1.474   0.804 -0.5596  0.0518 -0.1021
 6972SOL    HW132549   1.778   1.500   0.888  1.3435 -0.3182 -0.8357
 6972SOL    HW232550   1.806   1.418   0.761 -0.7074  1.2189 -1.8392
 6973SOL     OW32551   2.272   1.633   1.230 -0.2347  0.4400  0.3118
 6973SOL    HW132552   2.320   1.632   1.147  0.6496 -0.2402  0.8435
 6973SOL    HW232553   2.278   1.725   1.256  0.8633  0.0776  1.2924
 6974SOL     OW32554   4.064   1.817   4.242  0.3204 -0.6785  0.0217
 6974SOL    HW132555   4.109   1.868   4.310 -1.8871  1.0595  0.1528
 6974SOL    HW232556   4.139   1.797   4.185  0.3252  2.4755 -1.1069
 6975SOL     OW32557   1.033   4.395   3.167  0.1715  0.6071 -0.7912
 6975SOL    HW132558   0.997   4.377   3.254 -1.4023  0.4180 -1.4897
 6975SOL    HW232559   0.961   4.370   3.109 -0.3962 -0.1762  0.2640
 6976SOL     OW32560   0.618   3.841   8.041  0.7595  0.1927 -0.1581
 6976SOL    HW132561   0.536   3.892   8.038  0.4433 -0.3179 -0.1509
 6976SOL    HW232562   0.623   3.823   8.135  2.8522  1.6661  0.0102
 6977SOL     OW32563   0.391   1.042   4.984 -0.5249  0.2964  0.3537
 6977SOL    HW132564   0.447   1.117   4.964 -1.4196  1.4173  2.0488
 6977SOL    HW232565   0.312   1.077   4.942 -0.4606  1.1589  0.9379
 6978SOL     OW32566   3.911   4.536   4.701  0.4334 -0.0734 -0.4686
 6978SOL    HW132567   3.880   4.616   4.658  1.2645  0.6921  0.3424
 6978SOL    HW232568   3.999   4.564   4.729 -0.2677  1.2787  0.3977
 6979SOL     OW32569   1.375   1.193   0.029  0.2630 -0.0029 -0.0363
 6979SOL    HW132570   1.316   1.180   0.102  2.0729 -4.3808  0.6286
 6979SOL    HW232571   1.407   1.282   0.045  0.5895  0.1923 -1.7582
 6980SOL     OW32572   2.639   0.260   0.259  1.0826 -0.7659 -0.4202
 6980SOL    HW132573   2.708   0.194   0.255  1.5174 -0.3867  0.7112
 6980SOL    HW232574   2.617   0.266   0.352 -1.2089  0.6072 -1.0437
 6981SOL     OW32575   3.247   0.008   2.510 -0.3750  0.1728 -0.2287
 6981SOL    HW132576   3.308   0.082   2.515 -1.6140  1.1731 -0.1846
 6981SOL    HW232577   3.200   0.027   2.429 -0.4046 -1.2503 -0.5536
 6982SOL     OW32578   1.208   2.164   0.898 -0.3344 -0.5880 -0.5294
 6982SOL    HW132579   1.127   2.115   0.910 -0.1963 -0.5200  0.7609
 6982SOL    HW232580   1.175   2.253   0.914  0.8974 -0.4017  1.0450
 6983SOL     OW32581   0.943   1.803  12.938 -0.2027  0.1573 -0.2342
 6983SOL    HW132582   0.998   1.806  12.860  1.5800  1.0323  1.0766
 6983SOL    HW232583   0.961   1.887  12.980  0.9841  0.2322 -0.8857
 6984SOL     OW32584   4.721   4.678   3.721  0.2639 -0.4397 -0.4895
 6984SOL    HW132585   4.642   4.625   3.735  1.0105 -1.6801 -0.9420
 6984SOL    HW232586   0.028   4.686   3.805 -0.8790 -0.7400  0.1578
 6985SOL     OW32587   2.442   4.174  14.312 -0.1708  0.1008 -0.1281
 6985SOL    HW132588   2.375   4.231  14.274  0.3391 -0.0736 -1.2883
 6985SOL    HW232589   2.491   4.148  14.234 -0.4444 -0.1859 -0.2043
 6986SOL     OW32590   2.180   0.796  11.644  0.0820 -0.3383  0.0699
 6986SOL    HW132591   2.163   0.880  11.601 -1.8455 -0.8918 -0.2521
 6986SOL    HW232592   2.222   0.753  11.569  1.2333 -0.6424  0.9065
 6987SOL     OW32593   2.136   2.197   4.550 -0.4331 -0.5749 -0.4095
 6987SOL    HW132594   2.146   2.123   4.610  1.2685  0.3211  0.4116
 6987SOL    HW232595   2.065   2.244   4.593 -0.7847 -1.5298  0.0597
 6988SOL     OW32596   4.102   1.359   9.106 -0.2540  0.5478 -0.1667
 6988SOL    HW132597   4.047   1.370   9.030 -2.1154 -2.0068  0.8288
 6988SOL    HW232598   4.043   1.333   9.177  2.0122  1.1048  1.9669
 6989SOL     OW32599   3.860   1.691   6.143 -0.4111 -0.3311 -0.3321
 6989SOL    HW132600   3.859   1.675   6.049 -0.2491 -1.7379 -0.0962
 6989SOL    HW232601   3.955   1.698   6.157 -1.1327  2.3370  3.3151
 6990SOL     OW32602   2.382   0.332   9.427 -0.2292 -0.2780 -0.4115
 6990SOL    HW132603   2.319   0.396   9.461 -0.7505  0.3292 -2.4585
 6990SOL    HW232604   2.433   0.313   9.505  2.9017  1.3203 -2.0414
 6991SOL     OW32605   0.113   2.633   8.482 -0.3997 -0.2649 -0.2149
 6991SOL    HW132606   0.136   2.726   8.488 -1.5688  0.1012 -1.4776
 6991SOL    HW232607   0.159   2.620   8.399  0.9715  0.0385  0.5052
 6992SOL     OW32608   3.325   4.294   7.067 -0.3962  0.2115 -0.3206
 6992SOL    HW132609   3.378   4.223   7.030  0.3510  0.7202 -0.2066
 6992SOL    HW232610   3.262   4.243   7.118  0.6768 -0.2517  0.5463
 6993SOL     OW32611   1.301   4.467  10.815 -0.2182  0.0159 -0.1614
 6993SOL    HW132612   1.269   4.386  10.775  2.7834 -1.1808 -0.1509
 6993SOL    HW232613   1.231   4.531  10.801 -0.1446 -0.3415 -2.0384
 6994SOL     OW32614   0.236   3.478   9.939 -0.3319  0.4181  0.9830
 6994SOL    HW132615   0.147   3.457   9.967 -0.6222  0.0835 -0.1745
 6994SOL    HW232616   0.284   3.487  10.021 -0.6776  1.2108  1.0977
 6995SOL     OW32617   4.286   0.963   4.659  0.4857 -0.1572 -0.3112
 6995SOL    HW132618   4.227   0.989   4.729  1.3022  1.2897 -0.1683
 6995SOL    HW232619   4.371   0.995   4.689  0.3767  1.1709 -1.4345
 6996SOL     OW32620   4.404   4.086   8.098 -0.0046 -0.3127  0.1819
 6996SOL    HW132621   4.406   4.024   8.025 -0.1913  0.3274 -0.3651
 6996SOL    HW232622   4.337   4.149   8.072  1.5505  1.3881  0.2010
 6997SOL     OW32623   4.415   2.336   3.042  0.2104  0.0641  0.0165
 6997SOL    HW132624   4.389   2.356   2.952  0.6818  0.7859  0.0424
 6997SOL    HW232625   4.425   2.422   3.081  2.4889  0.1538 -0.7756
 6998SOL     OW32626   3.968   1.901   0.711  0.4234 -0.1114 -0.4932
 6998SOL    HW132627   4.050   1.949   0.728  0.2731 -0.2847  0.7559
 6998SOL    HW232628   3.912   1.979   0.704  2.1605  1.1366 -0.5113
 6999SOL     OW32629   1.179   0.637   5.808  0.3947 -0.3554 -0.1081
 6999SOL    HW132630   1.214   0.554   5.841 -0.1181 -0.6097 -0.2066
 6999SOL    HW232631   1.179   0.624   5.713  0.1651 -0.2263 -0.1236
 7000SOL     OW32632   0.589   4.475   9.217  0.1115  0.6292 -0.2138
 7000SOL    HW132633   0.678   4.473   9.250  1.0040  0.4899 -2.5911
 7000SOL    HW232634   0.598   4.535   9.143  1.7890 -1.1537 -1.4505
 7001SOL     OW32635   2.525   1.424   3.179 -0.2456  0.3838 -0.3904
 7001SOL    HW132636   2.606   1.420   3.231 -0.8856 -3.1762  0.3611
 7001SOL    HW232637   2.489   1.509   3.207 -1.4352  0.3088 -1.7226
 7002SOL     OW32638   0.162   4.088   5.644 -0.4202 -0.6364 -0.1524
 7002SOL    HW132639   0.112   4.042   5.576 -0.8585  0.0914 -0.3131
 7002SOL    HW232640   0.251   4.057   5.628 -0.6577 -1.4752  0.1349
 7003SOL     OW32641   0.991   3.699  15.861 -0.2487  0.1227  0.0102
 7003SOL    HW132642   1.041   3.733  15.936 -0.8926  0.1425  0.4294
 7003SOL    HW232643   0.957   3.782  15.829  0.6289  0.8996  1.0899
 7004SOL     OW32644   0.368   4.061   3.578  0.1582 -0.2413 -0.2044
 7004SOL    HW132645   0.354   4.114   3.656  1.5039 -2.5708  1.6342
 7004SOL    HW232646   0.409   3.980   3.609  2.1281  0.5795 -0.6430
 7005SOL     OW32647   1.095   2.324   3.768  0.4750 -0.1420  0.1684
 7005SOL    HW132648   1.050   2.393   3.719 -0.4911 -0.0196  1.2167
 7005SOL    HW232649   1.026   2.267   3.802 -1.0069  0.9537 -1.0147
 7006SOL     OW32650   2.854   1.166  11.138  0.3139 -0.1355  0.1182
 7006SOL    HW132651   2.833   1.192  11.227 -0.7062 -1.1967  0.1822
 7006SOL    HW232652   2.948   1.149  11.142 -0.0064 -2.0610 -0.4838
 7007SOL     OW32653   1.867   4.227   1.294 -0.2955 -0.3990  0.0827
 7007SOL    HW132654   1.939   4.288   1.283  1.1487 -1.9568  0.8660
 7007SOL    HW232655   1.796   4.254   1.235  0.5211 -2.3563 -1.8033
 7008SOL     OW32656   2.583   1.220   0.936 -0.1622 -0.0230  0.4656
 7008SOL    HW132657   2.491   1.196   0.928  1.0529 -4.0657 -1.5245
 7008SOL    HW232658   2.591   1.238   1.029 -1.0320  0.0704  0.5158
 7009SOL     OW32659   2.672   0.024   8.962  0.1648 -0.6571 -0.4333
 7009SOL    HW132660   2.751   4.709   8.955 -0.3236 -1.3246 -0.8045
 7009SOL    HW232661   2.609   4.705   8.918 -1.2480 -0.3790  1.2087
 7010SOL     OW32662   3.919   2.513   0.463 -0.1104  0.1760  0.2956
 7010SOL    HW132663   3.838   2.525   0.512  0.5470 -0.6530  1.5926
 7010SOL    HW232664   3.950   2.603   0.452  2.1463 -0.2247  3.1684
 7011SOL     OW32665   0.394   2.938   1.919 -0.1814  0.3751  0.1208
 7011SOL    HW132666   0.358   3.017   1.960 -0.5646 -0.6226  1.6980
 7011SOL    HW232667   0.339   2.876   1.967  0.7173 -0.7851 -0.3511
 7012SOL     OW32668   1.147   4.134   3.875  0.5159 -0.5470 -0.0429
 7012SOL    HW132669   1.079   4.157   3.812 -0.1103  1.7190  1.4705
 7012SOL    HW232670   1.092   4.084   3.935  0.2150  0.1490  0.2539
 7013SOL     OW32671   4.626   0.907   1.006  0.1333  0.1599 -0.2125
 7013SOL    HW132672   4.692   0.843   0.977 -1.8155 -1.2620 -1.4913
 7013SOL    HW232673   4.545   0.860   0.987 -1.3720  2.4802  0.4634
 7014SOL     OW32674   4.691   2.973  15.099 -0.3218  0.3880 -0.6551
 7014SOL    HW132675   4.682   2.977  15.003 -1.0955 -0.7704 -0.6289
 7014SOL    HW232676   0.042   2.993  15.124  0.0393 -0.5696 -1.1633
 7015SOL     OW32677   1.021   2.783  10.888  0.1830 -0.1213 -0.5813
 7015SOL    HW132678   0.936   2.814  10.919  0.5316 -0.4437  0.6932
 7015SOL    HW232679   1.045   2.720  10.956 -2.8083 -0.9427 -0.2758
 7016SOL     OW32680   0.942   2.806   0.413  0.2473  0.1996 -0.3879
 7016SOL    HW132681   0.908   2.847   0.492  0.6117  0.1792 -0.2219
 7016SOL    HW232682   1.032   2.792   0.442  0.1285 -0.4137 -0.3185
 7017SOL     OW32683   3.067   0.069   1.437  0.3215  0.0418  0.0319
 7017SOL    HW132684   2.973   0.077   1.449  0.2870 -0.2130 -0.0697
 7017SOL    HW232685   3.077   0.064   1.342  0.1978  1.1723 -0.0386
 7018SOL     OW32686   1.675   0.145  17.580  0.4318 -0.1992  0.1088
 7018SOL    HW132687   1.640   0.182  17.499  0.1671  1.2170  0.8790
 7018SOL    HW232688   1.598   0.108  17.623 -0.5531  1.8230  0.0862
 7019SOL     OW32689   4.608   0.773   4.441  0.0246 -0.1087 -0.1976
 7019SOL    HW132690   4.519   0.801   4.420 -0.5594 -1.5904  0.2678
 7019SOL    HW232691   4.655   0.856   4.431 -0.6969  0.5444  1.9003
 7020SOL     OW32692   1.805   0.186   4.236  0.4436 -0.1311 -0.6206
 7020SOL    HW132693   1.852   0.164   4.316 -0.7500  0.2367  0.1942
 7020SOL    HW232694   1.743   0.251   4.269  0.9313  0.4521 -0.8657
 7021SOL     OW32695   0.530   3.057   6.226  0.4615 -0.4684  0.1371
 7021SOL    HW132696   0.619   3.092   6.225 -0.0592  0.8488 -0.6071
 7021SOL    HW232697   0.544   2.970   6.189  1.6856 -0.5273  0.7348
 7022SOL     OW32698   0.292   3.024   9.050  0.0601  0.8104  0.6604
 7022SOL    HW132699   0.319   3.113   9.070 -0.1053  0.8481  0.7151
 7022SOL    HW232700   0.316   2.969   9.125 -1.6875  0.7478  1.1854
 7023SOL     OW32701   2.059   0.695   4.163 -0.2357  0.2411 -0.2721
 7023SOL    HW132702   2.013   0.612   4.175  1.9759 -0.9871 -0.1319
 7023SOL    HW232703   2.001   0.756   4.208  0.5549  1.5768 -1.0466
 7024SOL     OW32704   2.059   2.123   3.038 -0.1799  0.1786  0.7664
 7024SOL    HW132705   2.112   2.082   2.970 -2.5100  0.6202 -1.3073
 7024SOL    HW232706   2.120   2.117   3.111 -0.7470 -0.2811  1.2093
 7025SOL     OW32707   1.916   0.187   5.277 -0.3979 -0.4914  0.0019
 7025SOL    HW132708   1.939   0.237   5.355 -2.2314  2.3285 -1.2322
 7025SOL    HW232709   1.968   0.251   5.227 -0.9821 -0.9988 -1.2511
 7026SOL     OW32710   4.229   4.430   0.099  0.0862 -0.7077 -0.2476
 7026SOL    HW132711   4.169   4.474   0.161  0.0756  1.7695 -2.0002
 7026SOL    HW232712   4.242   4.504   0.039 -1.1839 -0.1902  0.1040
 7027SOL     OW32713   0.412   1.217   7.392 -0.3767  0.0280  0.3556
 7027SOL    HW132714   0.328   1.259   7.409 -0.0707  0.5716  0.5445
 7027SOL    HW232715   0.444   1.203   7.482  0.4308  2.1486  0.4166
 7028SOL     OW32716   0.952   1.171   3.075  0.5917 -0.3756 -0.0951
 7028SOL    HW132717   0.930   1.104   3.010 -2.0661  1.7578 -1.3983
 7028SOL    HW232718   0.872   1.171   3.127  0.6896  0.3567  0.0671
 7029SOL     OW32719   3.701   3.295   6.538  0.0026 -0.3584  0.0940
 7029SOL    HW132720   3.749   3.214   6.522  0.5391  0.4105 -2.2521
 7029SOL    HW232721   3.668   3.325   6.453  1.6355  0.9033 -0.0849
 7030SOL     OW32722   1.741   3.440   1.129 -0.2287 -0.2164  0.5374
 7030SOL    HW132723   1.811   3.401   1.077 -1.0334  1.8276 -2.0716
 7030SOL    HW232724   1.666   3.392   1.095  0.9144 -1.8545  0.3537
 7031SOL     OW32725   1.036   2.593   2.319  0.0322 -0.1284 -0.6187
 7031SOL    HW132726   1.107   2.638   2.363 -0.1654 -1.9674  1.5454
 7031SOL    HW232727   0.965   2.590   2.384  0.2901 -0.9043 -0.3742
 7032SOL     OW32728   0.259   2.409   4.304 -0.5625 -0.1850  0.1053
 7032SOL    HW132729   0.324   2.392   4.373  0.6831 -1.7811 -1.4536
 7032SOL    HW232730   0.224   2.323   4.281  0.2290  0.0067 -1.8256
 7033SOL     OW32731   3.370   1.917   3.576 -0.2942 -0.0739  0.7602
 7033SOL    HW132732   3.279   1.923   3.603 -0.1981  1.5394  0.7073
 7033SOL    HW232733   3.365   1.961   3.491 -1.0454  0.0439  0.8709
 7034SOL     OW32734   0.905   4.674   7.375  0.2312  0.1236  0.0407
 7034SOL    HW132735   0.829   4.635   7.419 -0.1321 -0.4828 -1.1353
 7034SOL    HW232736   0.861   4.720   7.304 -0.6732 -2.2207 -0.9242
 7035SOL     OW32737   1.415   1.595   4.414  0.0097  0.6353 -0.4697
 7035SOL    HW132738   1.510   1.610   4.415  0.1240 -0.1575  1.2802
 7035SOL    HW232739   1.412   1.502   4.437 -1.5510  0.5379 -1.0715
 7036SOL     OW32740   2.955   2.207   7.420  0.4617 -0.4145  0.2237
 7036SOL    HW132741   2.923   2.240   7.504  1.1214  1.4847 -0.2632
 7036SOL    HW232742   3.049   2.193   7.433  0.7302  0.5907 -0.5722
 7037SOL     OW32743   3.298   0.763   0.517 -0.0214  0.0172 -0.1135
 7037SOL    HW132744   3.227   0.703   0.541 -1.6150  1.7055 -0.5967
 7037SOL    HW232745   3.266   0.845   0.555  0.6122 -0.2142  0.9284
 7038SOL     OW32746   0.464   2.198   3.698 -0.2856  0.4488  1.2441
 7038SOL    HW132747   0.508   2.213   3.782 -0.3778 -1.8076  1.6730
 7038SOL    HW232748   0.510   2.262   3.642  1.9591 -0.9203  1.5305
 7039SOL     OW32749   0.069   0.750  16.563 -0.3310 -0.8614  0.0483
 7039SOL    HW132750   4.721   0.726  16.530 -0.8014  0.9687 -0.0403
 7039SOL    HW232751   0.048   0.738  16.656  1.3456  1.8723  0.7597
 7040SOL     OW32752   0.777   4.478   2.556  0.0372  0.2941  0.1132
 7040SOL    HW132753   0.796   4.424   2.632  2.1487 -2.0558 -2.0845
 7040SOL    HW232754   0.683   4.462   2.553 -0.3618  2.5179  0.6328
 7041SOL     OW32755   1.583   1.889   7.011 -0.6772  0.0873  0.1545
 7041SOL    HW132756   1.616   1.838   6.937  0.8260 -0.4427  1.1891
 7041SOL    HW232757   1.587   1.828   7.085  0.3566 -1.2949 -1.0240
 7042SOL     OW32758   3.928   4.670   2.325  0.6229 -0.1255  0.1563
 7042SOL    HW132759   4.014   4.657   2.366  0.8376 -0.2525 -0.3353
 7042SOL    HW232760   3.928   4.620   2.243 -1.4401 -1.1732  0.8014
 7043SOL     OW32761   3.036   2.812   8.194 -0.8300  0.7799 -0.0245
 7043SOL    HW132762   2.949   2.801   8.230 -1.4015 -0.9979 -1.9215
 7043SOL    HW232763   3.074   2.867   8.262 -1.7502  0.5999  0.6179
 7044SOL     OW32764   2.759   1.326   6.257 -0.0986  0.5230 -0.3443
 7044SOL    HW132765   2.851   1.325   6.283 -0.0277  1.4606 -0.5248
 7044SOL    HW232766   2.766   1.253   6.196  1.5488  0.7479 -0.4342
 7045SOL     OW32767   3.749   1.479   5.350 -0.5272 -0.2594  0.7309
 7045SOL    HW132768   3.707   1.495   5.265  0.8982  1.1495  0.3011
 7045SOL    HW232769   3.788   1.399   5.314 -0.3744 -0.4086  1.2246
 7046SOL     OW32770   1.914   3.083  14.182  0.4000 -0.6064 -0.5177
 7046SOL    HW132771   1.889   3.035  14.261 -0.5993 -0.2116 -0.5965
 7046SOL    HW232772   1.831   3.123  14.153 -0.4140 -1.5998  0.4674
 7047SOL     OW32773   4.377   2.962   2.428  0.0598  0.2749 -0.7112
 7047SOL    HW132774   4.291   2.992   2.456  0.0212  1.2505 -1.9011
 7047SOL    HW232775   4.383   2.999   2.340  0.3767  1.6955 -0.0886
 7048SOL     OW32776   2.300   4.736  12.224 -0.3590 -0.7616  0.4644
 7048SOL    HW132777   2.259   4.673  12.284 -0.3589  1.0469  2.3654
 7048SOL    HW232778   2.288   4.696  12.138 -1.0393 -1.1107  0.7257
 7049SOL     OW32779   1.827   1.106   5.617 -0.1561 -0.8332  0.4437
 7049SOL    HW132780   1.882   1.029   5.603  1.2295  0.2560 -0.1918
 7049SOL    HW232781   1.877   1.132   5.694  0.3865  1.1352 -0.5616
 7050SOL     OW32782   3.713   3.127   9.055 -0.1681  0.7831 -0.5722
 7050SOL    HW132783   3.677   3.048   9.096  1.7174  0.2932  0.1634
 7050SOL    HW232784   3.741   3.087   8.973  0.9093  0.4399 -0.0345
 7051SOL     OW32785   2.772   4.289   1.832 -0.0095 -0.3778 -0.1082
 7051SOL    HW132786   2.807   4.235   1.761 -2.6930 -2.2771  0.0493
 7051SOL    HW232787   2.854   4.336   1.848  0.2054 -0.4688 -0.9134
 7052SOL     OW32788   3.522   0.681  15.212 -0.1933 -0.1538 -0.0635
 7052SOL    HW132789   3.531   0.627  15.290  1.2938 -1.4497 -1.1481
 7052SOL    HW232790   3.536   0.771  15.241 -0.8587  0.6721 -2.3148
 7053SOL     OW32791   0.516   3.211  17.349 -0.1454  0.4705 -0.3047
 7053SOL    HW132792   0.423   3.199  17.368  0.0908  0.2193  0.7063
 7053SOL    HW232793   0.538   3.257  17.430  0.6234 -0.7661  0.1883
 7054SOL     OW32794   4.204   1.342   2.529 -0.2106  0.1403  0.6533
 7054SOL    HW132795   4.175   1.251   2.534  0.4328 -0.1185 -0.1514
 7054SOL    HW232796   4.138   1.381   2.472  0.2689 -1.2771 -0.8864
 7055SOL     OW32797   2.127   4.126  16.368  0.2626  0.6874 -0.4589
 7055SOL    HW132798   2.095   4.094  16.453  1.2273  1.5543  0.2270
 7055SOL    HW232799   2.100   4.218  16.372 -2.7127 -0.3129  2.3810
 7056SOL     OW32800   2.026   0.200   4.532  0.2735 -0.1562  0.2022
 7056SOL    HW132801   2.112   0.241   4.524  0.1561  0.2075  0.8067
 7056SOL    HW232802   2.047   0.109   4.510 -2.2386 -0.7452  0.2070
 7057SOL     OW32803   1.276   3.077   3.107  0.5654 -0.1530 -0.1694
 7057SOL    HW132804   1.254   3.088   3.015 -0.2346  3.8888  0.5178
 7057SOL    HW232805   1.352   3.134   3.121  0.9968 -1.0378  1.1008
 7058SOL     OW32806   0.839   4.227   9.059  0.3498  0.1897  0.0818
 7058SOL    HW132807   0.906   4.197   8.997 -0.3232  0.1167 -0.6139
 7058SOL    HW232808   0.832   4.155   9.121 -1.0975  0.7348  0.5578
 7059SOL     OW32809   3.640   0.851  15.460  0.2359 -0.0349 -0.3489
 7059SOL    HW132810   3.731   0.859  15.432  0.0919 -0.1537 -0.8516
 7059SOL    HW232811   3.606   0.893  15.381 -2.0610 -0.6346  0.3291
 7060SOL     OW32812   3.239   2.227  14.880 -0.5380 -0.3374  0.0174
 7060SOL    HW132813   3.172   2.291  14.854 -0.3104 -0.8821 -1.8946
 7060SOL    HW232814   3.192   2.195  14.957 -1.4115 -0.9713 -0.7846
 7061SOL     OW32815   3.434   2.621   5.818  0.1135 -0.3329 -0.4507
 7061SOL    HW132816   3.514   2.577   5.790  1.9168  2.3445  0.4513
 7061SOL    HW232817   3.411   2.584   5.903  2.6807  2.9636  1.7003
 7062SOL     OW32818   0.856   4.181   2.489  0.0927 -0.3934  0.3916
 7062SOL    HW132819   0.901   4.098   2.471 -0.7188 -0.7834  0.1364
 7062SOL    HW232820   0.932   4.237   2.505 -0.9973  2.0079 -2.8571
 7063SOL     OW32821   2.129   4.009   8.049 -0.1081  0.2313 -0.3712
 7063SOL    HW132822   2.106   4.071   7.980 -0.0702 -1.3383 -1.8021
 7063SOL    HW232823   2.041   3.997   8.085 -0.1640  3.5678  0.5791
 7064SOL     OW32824   0.494   3.380  14.207 -0.1540  0.1910  0.6854
 7064SOL    HW132825   0.428   3.323  14.168  0.6152 -0.0220 -0.3017
 7064SOL    HW232826   0.484   3.463  14.160  1.3736 -1.2639 -2.2107
 7065SOL     OW32827   4.514   0.464   7.454 -0.2307  0.3149 -0.0458
 7065SOL    HW132828   4.453   0.390   7.448 -1.7082  1.5353 -0.3059
 7065SOL    HW232829   4.461   0.541   7.477  1.5461  2.2229 -2.3417
 7066SOL     OW32830   0.952   4.301  12.737  0.8173  0.2161 -0.1415
 7066SOL    HW132831   0.916   4.388  12.721 -2.2513 -1.3263 -1.6301
 7066SOL    HW232832   0.991   4.275  12.654  1.3313 -0.1254  0.2132
 7067SOL     OW32833   1.502   1.976   4.184 -0.0859  0.0455  0.5469
 7067SOL    HW132834   1.436   1.907   4.190  0.1787 -0.3166 -0.7755
 7067SOL    HW232835   1.581   1.933   4.219  0.2865 -1.0025 -1.6050
 7068SOL     OW32836   0.334   1.552   5.803 -0.4007  0.7318  0.3329
 7068SOL    HW132837   0.344   1.561   5.708  1.5212 -1.5037  0.3460
 7068SOL    HW232838   0.417   1.594   5.825 -0.0753 -0.1480  0.7387
 7069SOL     OW32839   4.732   2.520   3.813  0.4980 -0.4055  0.3323
 7069SOL    HW132840   4.672   2.490   3.745  1.0600  1.0302 -0.8070
 7069SOL    HW232841   4.666   2.549   3.875  0.0558  0.5688 -0.5969
 7070SOL     OW32842   0.245   2.370   3.314  0.3254 -0.3205 -0.0276
 7070SOL    HW132843   0.181   2.336   3.377 -1.3492  0.4206 -1.3055
 7070SOL    HW232844   0.193   2.432   3.262  3.0070  1.2040 -0.8751
 7071SOL     OW32845   3.127   0.142   3.281 -0.0947 -0.4545  0.3641
 7071SOL    HW132846   3.085   0.211   3.229 -0.3654 -1.3499 -0.6015
 7071SOL    HW232847   3.086   0.062   3.250 -0.3113  0.3687 -1.4783
 7072SOL     OW32848   2.840   4.475  15.973 -0.4983 -0.2412 -0.2505
 7072SOL    HW132849   2.881   4.474  15.886 -0.2880 -0.7334 -0.1457
 7072SOL    HW232850   2.791   4.557  15.970 -1.8494 -1.1361 -2.6885
 7073SOL     OW32851   2.997   0.022   4.008  0.0326 -0.2413  0.1348
 7073SOL    HW132852   3.009   0.070   4.089 -0.3432  0.0774  0.0020
 7073SOL    HW232853   2.930   4.695   4.026  0.4698 -0.6712  0.1919
 7074SOL     OW32854   2.711   3.541   8.791 -0.0943  0.3057  0.0253
 7074SOL    HW132855   2.738   3.449   8.792  0.0924  0.3599 -1.5071
 7074SOL    HW232856   2.703   3.549   8.696  0.4179  0.2311 -0.0265
 7075SOL     OW32857   1.732   0.356   2.463 -0.1565  0.0502  0.1174
 7075SOL    HW132858   1.798   0.419   2.494  0.0992 -0.1001 -0.1252
 7075SOL    HW232859   1.721   0.371   2.369 -1.2335  0.1664  0.2633
 7076SOL     OW32860   3.651   3.106   2.992  0.3205 -0.1337 -0.9157
 7076SOL    HW132861   3.645   3.060   3.075 -2.6358  1.8517 -0.0566
 7076SOL    HW232862   3.575   3.065   2.951 -0.0876 -1.6057  1.2879
 7077SOL     OW32863   3.938   3.711   4.781 -0.1453  0.5288 -0.1442
 7077SOL    HW132864   4.000   3.760   4.836  0.4617  2.8723 -2.9380
 7077SOL    HW232865   3.963   3.620   4.798 -1.6015 -0.0620 -1.2142
 7078SOL     OW32866   3.279   4.202   0.247  0.3785 -0.3111  0.3208
 7078SOL    HW132867   3.203   4.194   0.305  0.3696  2.5756  0.6956
 7078SOL    HW232868   3.232   4.183   0.166 -0.2064  0.6475  0.4398
 7079SOL     OW32869   4.028   0.703   8.986 -0.1602  0.1378  0.9939
 7079SOL    HW132870   3.968   0.686   8.914 -1.0516  0.6552  1.6167
 7079SOL    HW232871   4.112   0.718   8.941  0.3892  1.0514  2.3325
 7080SOL     OW32872   1.828   3.188   1.896 -0.2888  0.0302  0.0765
 7080SOL    HW132873   1.816   3.157   1.806 -3.3443  2.9468 -0.5006
 7080SOL    HW232874   1.858   3.277   1.878 -0.5095  0.0144 -0.3655
 7081SOL     OW32875   1.994   1.093   7.863 -0.1255  0.5191 -0.4659
 7081SOL    HW132876   2.056   1.164   7.876  1.3740 -0.7115 -0.9451
 7081SOL    HW232877   1.933   1.116   7.793 -0.2777  1.4465 -0.0311
 7082SOL     OW32878   2.851   0.834  13.558 -0.2307 -0.2099  0.1759
 7082SOL    HW132879   2.774   0.867  13.604  0.7163 -0.0616  1.6496
 7082SOL    HW232880   2.821   0.857  13.470 -1.6607  1.2571  1.0288
 7083SOL     OW32881   3.802   4.607   2.573 -0.4364 -0.4470  0.1162
 7083SOL    HW132882   3.808   4.512   2.574 -1.1929 -0.4946  0.2446
 7083SOL    HW232883   3.856   4.631   2.497 -1.2822 -0.2314 -0.4157
 7084SOL     OW32884   0.630   3.590   8.599  0.6813  0.0851  0.3841
 7084SOL    HW132885   0.693   3.645   8.553 -1.0011  2.7233  1.2391
 7084SOL    HW232886   0.554   3.646   8.612  0.3105 -0.6772  1.4630
 7085SOL     OW32887   0.845   3.603   2.679 -0.1046  0.5873 -0.4729
 7085SOL    HW132888   0.843   3.667   2.608  1.2354  0.6274 -0.4739
 7085SOL    HW232889   0.800   3.528   2.640  0.9358 -0.0147 -0.5271
 7086SOL     OW32890   1.933   4.370   3.392 -0.0637  0.4298 -0.8161
 7086SOL    HW132891   1.984   4.363   3.311  2.7003 -2.2146  1.1498
 7086SOL    HW232892   1.997   4.410   3.451 -1.4204  2.1296 -0.4913
 7087SOL     OW32893   4.401   0.653   4.943  0.3990 -0.0993  0.4498
 7087SOL    HW132894   4.313   0.648   4.906  0.5923  1.9017 -0.3012
 7087SOL    HW232895   4.461   0.664   4.868 -0.8236  1.4155 -0.2988
 7088SOL     OW32896   1.909   4.034   7.116  0.0305 -0.1907  0.4427
 7088SOL    HW132897   1.927   4.034   7.022 -1.6454  0.8079  0.1222
 7088SOL    HW232898   1.946   4.119   7.141 -1.1175  0.3435  0.3197
 7089SOL     OW32899   4.021   0.427   7.828  0.0039 -0.2133 -0.2091
 7089SOL    HW132900   3.976   0.436   7.912  0.5203 -1.3018  0.1828
 7089SOL    HW232901   4.108   0.391   7.844  0.5958  1.4547  0.3258
 7090SOL     OW32902   1.090   3.491   8.201  0.0914 -0.2447 -0.0045
 7090SOL    HW132903   1.094   3.586   8.190 -1.0492 -0.1417  0.4772
 7090SOL    HW232904   1.027   3.466   8.133  0.7186 -1.3203 -0.2002
 7091SOL     OW32905   3.354   0.123   7.764 -0.5015 -0.6540 -0.3650
 7091SOL    HW132906   3.364   0.039   7.718 -0.4895  0.3714 -2.2156
 7091SOL    HW232907   3.259   0.131   7.775 -0.1423  2.2550  0.5979
 7092SOL     OW32908   0.478   3.251   1.856  0.1952  0.5142  0.3616
 7092SOL    HW132909   0.390   3.276   1.882  0.0399  1.5640 -1.1502
 7092SOL    HW232910   0.509   3.342   1.854  0.8129  0.3441  2.1245
 7093SOL     OW32911   1.814   2.857   6.866 -0.0972  0.2386  0.3681
 7093SOL    HW132912   1.910   2.854   6.864 -0.1675 -0.9133 -1.7028
 7093SOL    HW232913   1.790   2.778   6.817  0.2888  0.2087  0.2260
 7094SOL     OW32914   1.564   4.721   3.256  0.2579  0.2136 -0.7649
 7094SOL    HW132915   1.657   4.726   3.236 -0.0529  1.5447 -1.8527
 7094SOL    HW232916   1.557   4.644   3.314  1.8239  0.8004  0.1897
 7095SOL     OW32917   1.718   1.256  12.621  0.3236  0.1210 -0.1016
 7095SOL    HW132918   1.637   1.294  12.654  0.0179 -0.6675  0.0405
 7095SOL    HW232919   1.682   1.213  12.544  1.4597 -4.5285  1.9822
 7096SOL     OW32920   1.126   4.715   6.651  0.1203 -0.7062  0.5951
 7096SOL    HW132921   1.103   0.024   6.571 -0.1402 -1.8140 -0.0013
 7096SOL    HW232922   1.221   4.716   6.642  0.1238  0.4121  0.8159
 7097SOL     OW32923   2.953   3.661  12.390  0.0749 -0.0566 -0.0879
 7097SOL    HW132924   2.905   3.684  12.469  2.5740  0.8430  1.1830
 7097SOL    HW232925   3.008   3.739  12.379 -0.5230  0.3563 -0.1370
 7098SOL     OW32926   0.326   3.617  12.357 -0.2490  0.1343 -0.4486
 7098SOL    HW132927   0.371   3.702  12.360 -2.4759  1.2015  3.9386
 7098SOL    HW232928   0.239   3.631  12.395  0.7524 -0.2018  1.9323
 7099SOL     OW32929   2.940   2.033   9.105 -0.6038  0.3987 -0.1328
 7099SOL    HW132930   2.987   1.966   9.055  0.5073  0.7660  0.4053
 7099SOL    HW232931   2.848   2.030   9.079 -0.4231  0.4886 -0.7788
 7100SOL     OW32932   4.626   2.247   5.780  0.5853  0.3710  0.2952
 7100SOL    HW132933   4.642   2.303   5.856 -1.3630  2.2869 -0.7293
 7100SOL    HW232934   4.716   2.237   5.747  0.6281 -0.9026  0.7834
 7101SOL     OW32935   0.106   0.179   1.203 -0.2658  0.2596 -0.1333
 7101SOL    HW132936   0.011   0.176   1.213  0.0402 -0.9735  2.3708
 7101SOL    HW232937   0.126   0.272   1.208  1.2538  0.0398 -1.9996
 7102SOL     OW32938   1.677   3.869   7.521 -0.3698 -0.1528 -0.8521
 7102SOL    HW132939   1.759   3.885   7.474 -0.3761  0.2917 -0.7155
 7102SOL    HW232940   1.660   3.960   7.547  2.9562  0.2284  0.0004
 7103SOL     OW32941   1.086   3.367   3.120 -0.3142 -0.1609 -0.1419
 7103SOL    HW132942   1.144   3.399   3.051 -0.5188  0.6234  0.0487
 7103SOL    HW232943   1.155   3.353   3.185  2.2887  1.6373 -2.5321
 7104SOL     OW32944   3.373   2.317   5.758  0.3822 -0.2482  0.4786
 7104SOL    HW132945   3.399   2.396   5.710  0.7283 -1.5440 -1.4417
 7104SOL    HW232946   3.455   2.271   5.776  1.0280  0.7668  0.1736
 7105SOL     OW32947   2.731   1.486   7.565  0.2439  0.8657 -0.2036
 7105SOL    HW132948   2.683   1.473   7.647  0.5714 -1.1395 -0.3182
 7105SOL    HW232949   2.663   1.467   7.500  1.1254  1.0639 -1.1776
 7106SOL     OW32950   3.623   3.467   5.251 -0.3158  0.7378 -0.5007
 7106SOL    HW132951   3.663   3.387   5.220 -1.1329  0.6108 -1.2320
 7106SOL    HW232952   3.549   3.436   5.303 -1.7297  5.2254  0.1967
 7107SOL     OW32953   4.120   1.795   2.033 -0.3875 -0.0861 -0.4411
 7107SOL    HW132954   4.113   1.787   2.129 -3.6823  0.8450 -0.5998
 7107SOL    HW232955   4.050   1.855   2.009 -0.2684 -0.1899 -1.0389
 7108SOL     OW32956   1.523   1.666   1.848 -0.0259 -0.0877  0.7468
 7108SOL    HW132957   1.573   1.748   1.847  1.6525 -1.1086  0.1635
 7108SOL    HW232958   1.484   1.676   1.761 -1.7909 -2.3170  1.2787
 7109SOL     OW32959   3.540   0.567   2.173 -0.3219  1.0293  0.5890
 7109SOL    HW132960   3.500   0.619   2.103  1.7967 -1.7881 -2.7174
 7109SOL    HW232961   3.586   0.636   2.222 -1.5369  1.1933  1.4843
 7110SOL     OW32962   2.869   0.700   4.937 -0.2013  0.7743 -0.6613
 7110SOL    HW132963   2.788   0.714   4.888 -1.3335 -1.5858  0.5493
 7110SOL    HW232964   2.897   0.790   4.951 -0.8866  0.6449  1.5006
 7111SOL     OW32965   1.566   3.037  12.471  0.6992 -0.2829  0.1978
 7111SOL    HW132966   1.607   2.996  12.395  2.6660  1.7191  0.1998
 7111SOL    HW232967   1.565   2.971  12.541  0.7729 -0.0913  0.3776
 7112SOL     OW32968   0.763   3.615   4.603  0.5746 -0.6329  0.0834
 7112SOL    HW132969   0.804   3.650   4.682  3.0173  0.0952 -1.4733
 7112SOL    HW232970   0.814   3.657   4.533 -0.8722  0.0091 -0.5735
 7113SOL     OW32971   0.970   1.917   8.611 -0.1987  0.6381  0.0343
 7113SOL    HW132972   0.910   1.915   8.686  0.0668 -0.1061  0.2252
 7113SOL    HW232973   1.038   1.854   8.636  0.1559  1.3047  0.7310
 7114SOL     OW32974   4.543   0.384   7.010  0.3672  0.4798 -0.4208
 7114SOL    HW132975   4.515   0.416   6.924 -1.8268 -1.7479 -0.5328
 7114SOL    HW232976   4.502   0.448   7.069 -0.8214 -0.9947  0.3474
 7115SOL     OW32977   0.036   4.189  10.206  0.8096 -0.6016 -0.1122
 7115SOL    HW132978   0.109   4.129  10.191  1.8165  0.0236  2.1812
 7115SOL    HW232979   4.721   4.125  10.252  2.1556 -1.2958  0.4985
 7116SOL     OW32980   0.407   2.332  13.986 -0.6849 -0.2835  0.0195
 7116SOL    HW132981   0.330   2.384  14.010  0.5454  1.2629  0.5626
 7116SOL    HW232982   0.407   2.337  13.890  0.6529  1.8475  0.1408
 7117SOL     OW32983   1.005   0.860   8.328  0.5630 -0.3633 -0.8688
 7117SOL    HW132984   0.964   0.942   8.355  0.9068 -0.4968  0.0373
 7117SOL    HW232985   0.935   0.815   8.281  0.9532 -0.8182 -1.0097
 7118SOL     OW32986   3.688   4.652   0.173  0.3597  0.3775  0.6709
 7118SOL    HW132987   3.635   4.672   0.095  1.3221  0.8777  0.1409
 7118SOL    HW232988   3.696   0.007   0.190  1.3491  0.3055  0.5807
 7119SOL     OW32989   1.081   2.133   6.817 -0.1296 -0.2049 -0.0264
 7119SOL    HW132990   1.113   2.200   6.877  2.5586 -2.3854  0.9665
 7119SOL    HW232991   0.995   2.170   6.797 -0.4539 -1.2176 -0.5035
 7120SOL     OW32992   2.234   3.917  16.224 -0.4937 -0.6447  0.0357
 7120SOL    HW132993   2.217   3.998  16.274 -0.9825 -0.9403  0.3396
 7120SOL    HW232994   2.269   3.862  16.294  0.9354 -0.0837 -0.2341
 7121SOL     OW32995   4.111   2.892   7.620 -0.0062 -0.1410 -0.2585
 7121SOL    HW132996   4.193   2.889   7.571 -1.0342 -1.3042 -1.9058
 7121SOL    HW232997   4.130   2.830   7.690  0.6092 -0.3463 -0.6069
 7122SOL     OW32998   1.965   1.908  14.322  0.8690  0.7577 -0.3695
 7122SOL    HW132999   1.920   1.985  14.354 -0.3874 -0.3442  0.4929
 7122SOL    HW233000   2.007   1.947  14.245 -1.1390  2.5715 -0.5395
 7123SOL     OW33001   4.511   2.664   8.670  0.0734  0.2390  0.2158
 7123SOL    HW133002   4.544   2.741   8.716 -0.5005 -0.0903  1.1925
 7123SOL    HW233003   4.424   2.665   8.710  0.4323 -2.0872  1.0706
 7124SOL     OW33004   0.785   0.525   0.235 -0.8957  0.0366 -0.2935
 7124SOL    HW133005   0.809   0.546   0.325  1.0446 -0.4047 -0.7214
 7124SOL    HW233006   0.830   0.596   0.189 -2.1330  1.3229  0.4606
 7125SOL     OW33007   2.053   1.940   6.838 -0.3710 -0.3031 -0.4829
 7125SOL    HW133008   1.987   2.004   6.811 -0.1072  0.4737  0.6997
 7125SOL    HW233009   2.113   1.946   6.764  1.5621 -0.6106  1.0683
 7126SOL     OW33010   4.697   3.420   9.450 -0.4964 -0.0536 -0.1011
 7126SOL    HW133011   0.048   3.449   9.465 -0.3955  0.3778 -1.4859
 7126SOL    HW233012   4.657   3.415   9.536  2.0938  0.5403  1.1197
 7127SOL     OW33013   3.191   4.579   1.556  0.4217 -0.0138  0.0283
 7127SOL    HW133014   3.194   4.516   1.484 -1.1118  1.2027 -1.0816
 7127SOL    HW233015   3.140   4.650   1.517  1.0896 -1.2452 -3.0971
 7128SOL     OW33016   2.288   4.188  12.722  0.9807 -0.0980  0.0013
 7128SOL    HW133017   2.277   4.094  12.733 -0.0940 -0.2187 -2.0549
 7128SOL    HW233018   2.244   4.223  12.799 -1.5853 -1.5051 -0.8170
 7129SOL     OW33019   0.122   0.178   5.744 -0.3267  0.2540  0.6407
 7129SOL    HW133020   0.089   0.240   5.809 -1.0143 -0.0281  0.5600
 7129SOL    HW233021   0.043   0.170   5.690 -0.0753  2.3578 -0.0342
 7130SOL     OW33022   2.845   0.016   2.536  0.0212 -0.3635  0.2912
 7130SOL    HW133023   2.899   0.093   2.515 -1.2348  0.2090 -0.8051
 7130SOL    HW233024   2.904   4.679   2.537 -1.1279 -1.2718 -1.0188
 7131SOL     OW33025   4.492   2.745   5.932  0.3752  0.1315  0.3296
 7131SOL    HW133026   4.420   2.800   5.961 -1.3221 -1.3052 -1.2044
 7131SOL    HW233027   4.498   2.678   6.001 -0.1463 -0.1324  0.1095
 7132SOL     OW33028   2.863   3.607   3.737  0.3888 -0.7382 -0.1059
 7132SOL    HW133029   2.855   3.549   3.813 -0.5175  0.7068  0.8966
 7132SOL    HW233030   2.796   3.674   3.753 -0.8371 -1.9761 -0.0739
 7133SOL     OW33031   4.499   0.991   6.832  0.3339  0.2261  0.4684
 7133SOL    HW133032   4.479   1.083   6.813 -1.2137 -0.0080  0.9912
 7133SOL    HW233033   4.476   0.941   6.753 -2.3160 -1.4723  2.3313
 7134SOL     OW33034   0.122   2.819   2.324  0.1566  0.0911 -0.4563
 7134SOL    HW133035   0.043   2.839   2.273  0.8999  1.8349 -0.9183
 7134SOL    HW233036   0.180   2.784   2.257 -2.9564  0.6839 -3.4710
 7135SOL     OW33037   3.939   4.728   8.133 -0.7163 -0.3175  0.1208
 7135SOL    HW133038   4.027   4.739   8.097  0.1544 -1.3261  1.9454
 7135SOL    HW233039   3.922   4.653   8.075  0.2073 -0.7440  0.4099
 7136SOL     OW33040   3.894   3.047   5.886 -0.0142 -0.0932  0.6805
 7136SOL    HW133041   3.958   2.979   5.867 -0.2964  0.5797 -2.7641
 7136SOL    HW233042   3.924   3.129   5.848 -0.7199  0.3653  1.1088
 7137SOL     OW33043   2.237   0.180   2.295 -0.4878  0.3123  0.5245
 7137SOL    HW133044   2.208   0.090   2.277 -2.5892  1.1399 -0.2745
 7137SOL    HW233045   2.228   0.222   2.209  1.1147 -2.7267 -1.1698
 7138SOL     OW33046   3.523   0.552   9.829 -0.3107 -0.2108  0.4989
 7138SOL    HW133047   3.576   0.631   9.824  0.6940 -0.9595 -0.7906
 7138SOL    HW233048   3.438   0.588   9.853 -1.0690 -1.3964 -0.4173
 7139SOL     OW33049   0.107   1.932   4.618  0.0679 -0.3789 -0.0963
 7139SOL    HW133050   0.101   1.855   4.675  0.5977  0.4083  1.0171
 7139SOL    HW233051   0.012   1.932   4.603  0.2192 -1.2977 -1.0937
 7140SOL     OW33052   1.284   1.018   1.939 -0.0227 -0.2212  0.2121
 7140SOL    HW133053   1.307   0.949   2.001 -3.1323 -1.0151  0.4916
 7140SOL    HW233054   1.251   1.086   1.999  0.1377 -0.1457  0.2146
 7141SOL     OW33055   2.465   0.985  10.698 -0.3443 -0.1866 -0.2756
 7141SOL    HW133056   2.434   1.048  10.764  1.5798 -0.9338  1.3107
 7141SOL    HW233057   2.394   0.921  10.697  0.0394 -0.5923 -1.9588
 7142SOL     OW33058   2.365   2.190   6.206  0.2394  0.3326 -0.1449
 7142SOL    HW133059   2.337   2.261   6.264  0.7641  0.8360 -0.5010
 7142SOL    HW233060   2.303   2.121   6.229  1.0613 -0.2142  0.4239
 7143SOL     OW33061   2.148   2.860   8.909  0.4806  0.6682 -0.9623
 7143SOL    HW133062   2.175   2.872   9.000 -3.4465 -0.0514  0.3125
 7143SOL    HW233063   2.216   2.906   8.861  0.3920  1.0312 -0.7348
 7144SOL     OW33064   0.338   3.912  11.243 -0.4640 -0.4729  0.5973
 7144SOL    HW133065   0.303   3.959  11.318  1.1984 -1.1509  1.7961
 7144SOL    HW233066   0.413   3.871  11.286  0.2226  1.3506  1.0857
 7145SOL     OW33067   2.275   2.592   5.803 -0.2447 -0.0436  0.4595
 7145SOL    HW133068   2.331   2.570   5.877  2.5409 -1.7445 -2.1442
 7145SOL    HW233069   2.213   2.520   5.813  0.5189 -0.5561  1.6062
 7146SOL     OW33070   4.600   0.136   7.112  0.0488  0.3239 -0.1798
 7146SOL    HW133071   4.568   0.220   7.081 -0.9215  0.0346  0.0543
 7146SOL    HW233072   4.632   0.093   7.032 -1.0017 -0.3633 -0.2264
 7147SOL     OW33073   2.737   1.962   2.770 -0.2032 -0.3666 -0.3873
 7147SOL    HW133074   2.821   1.932   2.805 -0.2396  2.0246  1.8214
 7147SOL    HW233075   2.719   1.894   2.706 -1.1720  1.0058 -1.5910
 7148SOL     OW33076   1.961   4.705   3.807  0.0134  0.4307 -0.1875
 7148SOL    HW133077   1.970   0.008   3.893 -0.4641  0.8546 -0.3502
 7148SOL    HW233078   1.955   0.044   3.753  1.5246  0.4729 -0.3130
 7149SOL     OW33079   4.577   2.307  14.493 -1.0330  0.1999 -0.0177
 7149SOL    HW133080   4.668   2.287  14.516 -0.8680  2.1533  1.0148
 7149SOL    HW233081   4.561   2.244  14.423 -2.3262  0.2548  0.2278
 7150SOL     OW33082   3.700   0.735   7.590 -0.6969 -0.4009 -0.4548
 7150SOL    HW133083   3.791   0.718   7.615 -0.2485 -0.4791 -2.0950
 7150SOL    HW233084   3.704   0.799   7.519 -0.7512  1.3851  1.1522
 7151SOL     OW33085   1.631   3.521   7.092 -0.2636  0.1561 -0.1235
 7151SOL    HW133086   1.685   3.581   7.145  0.5237 -0.2312 -0.4876
 7151SOL    HW233087   1.670   3.436   7.112  0.1811  0.5087  0.5329
 7152SOL     OW33088   2.913   3.277   6.942  0.0485 -0.1144 -0.5613
 7152SOL    HW133089   2.950   3.222   6.872 -0.3518 -0.1382 -0.7525
 7152SOL    HW233090   2.902   3.354   6.887 -0.0312 -0.5430 -1.1463
 7153SOL     OW33091   0.150   0.826  10.267  0.3865 -0.4378  0.0619
 7153SOL    HW133092   0.216   0.884  10.231  1.9850 -2.5148 -0.3882
 7153SOL    HW233093   0.213   0.761  10.299 -0.4552 -0.7482  1.0976
 7154SOL     OW33094   2.142   4.392  10.456 -0.6939 -0.4802 -0.0575
 7154SOL    HW133095   2.068   4.451  10.442  1.3552  1.8504 -0.9627
 7154SOL    HW233096   2.120   4.358  10.543 -0.4485 -1.0860 -0.2351
 7155SOL     OW33097   3.856   2.979   6.153 -0.3021 -0.3123  0.1721
 7155SOL    HW133098   3.815   2.896   6.127  0.7578 -1.0453  0.8499
 7155SOL    HW233099   3.870   3.021   6.068 -0.5456  1.0974  0.8415
 7156SOL     OW33100   4.047   2.371   5.018 -0.1073 -0.0520 -0.5146
 7156SOL    HW133101   4.131   2.339   5.049 -0.1415 -0.2240 -0.6007
 7156SOL    HW233102   4.072   2.396   4.929 -0.8009 -0.3077 -0.7844
 7157SOL     OW33103   1.127   4.223   7.826 -0.5120  0.3078 -0.5215
 7157SOL    HW133104   1.090   4.227   7.737 -0.0093  0.6417 -0.7141
 7157SOL    HW233105   1.201   4.281   7.809 -0.3882 -0.4158 -2.5314
 7158SOL     OW33106   1.430   3.993   3.361  0.0423  0.3441  0.5431
 7158SOL    HW133107   1.353   3.995   3.419 -0.5192 -0.4943 -0.1717
 7158SOL    HW233108   1.462   3.903   3.361 -1.2596 -0.1165 -0.0673
 7159SOL     OW33109   1.949   1.713   3.774 -0.2344 -0.2014 -0.1378
 7159SOL    HW133110   2.014   1.696   3.842 -0.8384 -0.2283  0.4416
 7159SOL    HW233111   1.936   1.807   3.789  2.3253  0.1087  0.0637
 7160SOL     OW33112   4.162   0.811   9.380 -0.2694  0.2872 -0.2834
 7160SOL    HW133113   4.209   0.727   9.384  0.4158  0.6964  0.3520
 7160SOL    HW233114   4.203   0.860   9.309  1.9559 -0.6312  0.3429
 7161SOL     OW33115   3.824   2.789   6.424  0.1817 -0.1827 -0.7022
 7161SOL    HW133116   3.791   2.743   6.501 -1.7230 -0.2863 -1.5939
 7161SOL    HW233117   3.887   2.725   6.391 -0.0699 -0.7889 -0.0027
 7162SOL     OW33118   3.881   1.433   9.964 -0.3810 -0.5714  0.1732
 7162SOL    HW133119   3.827   1.508   9.938  0.5468  0.4225  1.0751
 7162SOL    HW233120   3.844   1.370   9.903  0.6191 -1.3871  0.4205
 7163SOL     OW33121   0.296   2.471  11.865 -0.0263  0.1155 -0.2781
 7163SOL    HW133122   0.359   2.400  11.858  0.9052  0.9878 -0.6673
 7163SOL    HW233123   0.286   2.456  11.959 -3.2351  1.4932 -0.3613
 7164SOL     OW33124   2.392   0.728   3.545  0.3530 -0.3483  0.2190
 7164SOL    HW133125   2.330   0.704   3.476  0.3850 -1.3790  0.5517
 7164SOL    HW233126   2.342   0.798   3.585  0.5556  0.3424 -0.7209
 7165SOL     OW33127   0.013   4.473   9.056 -0.3365  0.5796  0.2618
 7165SOL    HW133128   0.099   4.433   9.068 -0.8202  0.2808  2.7301
 7165SOL    HW233129   0.023   4.561   9.090  2.0081  0.8270 -1.0355
 7166SOL     OW33130   3.422   2.410   9.022  0.0474  0.2076 -0.4226
 7166SOL    HW133131   3.362   2.473   9.062  0.5751 -0.1459  0.9264
 7166SOL    HW233132   3.508   2.449   9.033 -0.8533  1.6767  1.4382
 7167SOL     OW33133   4.590   2.012   6.939  0.1111 -0.1379  0.3108
 7167SOL    HW133134   4.506   1.981   6.904  1.4105 -3.0664 -0.1834
 7167SOL    HW233135   4.650   1.999   6.866  0.2465  1.8555  0.0742
 7168SOL     OW33136   1.089   1.568  13.553 -0.5608 -0.3293 -0.3716
 7168SOL    HW133137   1.105   1.479  13.522  2.1154 -0.2403  0.7706
 7168SOL    HW233138   1.136   1.564  13.636  0.1465  2.3984 -0.6423
 7169SOL     OW33139   3.821   0.326   5.046 -0.1178  0.2909 -0.3456
 7169SOL    HW133140   3.871   0.395   5.090 -1.4555  1.0064  0.0709
 7169SOL    HW233141   3.883   0.255   5.030 -3.1532 -2.0446 -1.6867
 7170SOL     OW33142   1.998   3.316   0.128 -0.1001  0.2811  0.2842
 7170SOL    HW133143   2.072   3.369   0.098  0.6424  0.3923  2.2673
 7170SOL    HW233144   1.973   3.377   0.199  1.4660  0.4750  0.6623
 7171SOL     OW33145   1.516   1.149   9.602  0.3936  0.2518 -0.6374
 7171SOL    HW133146   1.542   1.068   9.559  1.5307  0.9652 -1.2991
 7171SOL    HW233147   1.424   1.130   9.621  0.3637  1.5969  0.6028
 7172SOL     OW33148   1.804   0.007   5.814  0.1771  0.0066 -0.3698
 7172SOL    HW133149   1.850   0.091   5.816  1.6300 -0.7754 -0.7685
 7172SOL    HW233150   1.750   0.028   5.890  1.1750  1.9128 -0.1936
 7173SOL     OW33151   3.074   0.511   7.150 -0.0006 -0.4521  0.6679
 7173SOL    HW133152   3.025   0.495   7.068  1.8030 -2.8803  0.0752
 7173SOL    HW233153   3.052   0.428   7.193  2.9802 -1.8316 -0.4984
 7174SOL     OW33154   0.115   4.032  12.565  0.4321 -0.1726  0.4367
 7174SOL    HW133155   0.145   4.115  12.602  0.7826  0.9850 -2.4019
 7174SOL    HW233156   0.199   4.002  12.530 -2.5581 -3.9886 -3.3351
 7175SOL     OW33157   4.264   0.481   2.870  0.4634  0.3838  0.0341
 7175SOL    HW133158   4.352   0.474   2.907 -0.2342 -1.3604  1.3609
 7175SOL    HW233159   4.230   0.419   2.934  1.5158  0.0964  0.3125
 7176SOL     OW33160   3.235   2.721   3.727 -0.0274 -0.0058 -0.3978
 7176SOL    HW133161   3.313   2.757   3.686  0.3204  1.5601  1.6066
 7176SOL    HW233162   3.203   2.799   3.772  0.0151  0.0870 -0.5306
 7177SOL     OW33163   4.295   2.914   6.022  0.1912 -0.2486  0.5414
 7177SOL    HW133164   4.213   2.944   5.983  1.8669 -0.3117 -3.0754
 7177SOL    HW233165   4.266   2.908   6.113 -1.8381  1.4550  0.0076
 7178SOL     OW33166   3.206   0.494   6.581  0.2667 -0.5782 -0.4551
 7178SOL    HW133167   3.299   0.476   6.592  0.3780  0.2691  0.0190
 7178SOL    HW233168   3.182   0.518   6.671  1.5906  0.7857 -0.4693
 7179SOL     OW33169   0.269   1.045   2.145  1.0049  0.5415 -0.1237
 7179SOL    HW133170   0.288   1.133   2.114 -0.2503  1.7146  2.4903
 7179SOL    HW233171   0.354   1.001   2.142  1.2269  1.0539 -1.6304
 7180SOL     OW33172   3.440   1.065   7.136  0.0814  0.3527  0.0296
 7180SOL    HW133173   3.445   1.143   7.192 -2.3349 -1.0396  2.1565
 7180SOL    HW233174   3.403   1.004   7.200  1.2580 -0.8970 -0.4659
 7181SOL     OW33175   4.716   3.131   4.887  0.1445 -0.1350 -0.6261
 7181SOL    HW133176   4.686   3.043   4.866 -1.4463  0.5088 -0.9976
 7181SOL    HW233177   4.704   3.133   4.982  0.2135  2.7252 -0.6903
 7182SOL     OW33178   3.453   4.714   7.220 -0.4122  0.2153  0.1056
 7182SOL    HW133179   3.491   0.045   7.166 -2.8861  2.4764  1.2561
 7182SOL    HW233180   3.394   0.031   7.271  2.0385  1.3906  1.6923
 7183SOL     OW33181   0.939   2.228  11.443  1.0972  0.3681 -0.1766
 7183SOL    HW133182   0.976   2.214  11.530  1.1896  0.1662 -0.2483
 7183SOL    HW233183   1.005   2.282  11.400  0.5129 -0.3245 -1.9507
 7184SOL     OW33184   0.998   2.728  12.107  0.0052  0.6197  0.5305
 7184SOL    HW133185   0.960   2.755  12.024  1.5749 -0.9999 -0.7314
 7184SOL    HW233186   1.037   2.810  12.137  0.9454  0.3290  0.1242
 7185SOL     OW33187   3.731   4.641   0.644  0.9103 -0.0803 -0.0028
 7185SOL    HW133188   3.649   4.658   0.598  2.0871  0.0157 -2.0858
 7185SOL    HW233189   3.755   4.732   0.662  2.1759 -0.3106 -0.4853
 7186SOL     OW33190   2.839   2.346   5.951  0.5954  0.8860  0.1070
 7186SOL    HW133191   2.808   2.436   5.956 -0.3104  0.6763 -1.6406
 7186SOL    HW233192   2.925   2.366   5.913 -0.0893 -0.0582 -1.9156
 7187SOL     OW33193   1.425   1.187  15.719 -0.1643  0.2811 -0.3717
 7187SOL    HW133194   1.404   1.226  15.634 -2.6644  2.5414  1.2724
 7187SOL    HW233195   1.393   1.257  15.775 -1.4484 -1.2624  0.8454
 7188SOL     OW33196   1.412   1.515   2.395 -0.1563 -0.1962 -0.4907
 7188SOL    HW133197   1.494   1.564   2.404 -1.7126  1.9604  1.8522
 7188SOL    HW233198   1.438   1.449   2.331 -1.8420 -0.1099 -1.2537
 7189SOL     OW33199   1.268   4.359  13.182  0.5508  0.0947  0.0591
 7189SOL    HW133200   1.307   4.446  13.184  1.8881 -0.5499  1.5179
 7189SOL    HW233201   1.260   4.357  13.087 -1.4253 -1.8528  0.2571
 7190SOL     OW33202   1.105   1.813   7.288 -0.2012 -0.1000 -0.2548
 7190SOL    HW133203   1.186   1.856   7.314 -0.5790 -0.3019  1.2767
 7190SOL    HW233204   1.102   1.834   7.195  0.5736 -0.0754 -0.2723
 7191SOL     OW33205   1.430   2.479  10.452 -0.1109  0.4645  0.0536
 7191SOL    HW133206   1.381   2.443  10.378  1.6141 -0.5913 -0.5701
 7191SOL    HW233207   1.409   2.571  10.440  0.8367  0.6285 -0.3204
 7192SOL     OW33208   0.656   1.588   6.127 -0.2130 -0.5685 -0.1112
 7192SOL    HW133209   0.636   1.652   6.058  0.3077  1.3648  1.5355
 7192SOL    HW233210   0.656   1.507   6.076 -1.0470  1.6716 -3.6360
 7193SOL     OW33211   3.297   1.009   8.218  0.0898 -0.0117  0.2022
 7193SOL    HW133212   3.224   0.947   8.224  2.1504 -2.6269 -1.3806
 7193SOL    HW233213   3.257   1.092   8.243 -1.9016 -0.7347 -0.5973
 7194SOL     OW33214   0.362   3.581   4.435  0.0949  0.5486  0.4321
 7194SOL    HW133215   0.272   3.550   4.440 -0.2835  1.6482  0.4389
 7194SOL    HW233216   0.363   3.629   4.518 -1.5703  0.7211  0.3516
 7195SOL     OW33217   2.136   1.800   9.530  0.4426  0.6885  0.0567
 7195SOL    HW133218   2.051   1.814   9.489 -0.2236 -0.3903  1.0610
 7195SOL    HW233219   2.112   1.811   9.623  0.9365 -0.6686  0.3369
 7196SOL     OW33220   3.239   3.550   5.052  0.1408  0.0816  0.1595
 7196SOL    HW133221   3.174   3.607   5.010 -1.1214 -3.7317 -3.0229
 7196SOL    HW233222   3.224   3.459   5.027  0.5501 -0.3511  1.4656
 7197SOL     OW33223   0.768   3.721   5.761  0.1722 -0.0894 -0.5494
 7197SOL    HW133224   0.681   3.758   5.750  0.3749  0.5786  0.0894
 7197SOL    HW233225   0.801   3.766   5.839 -1.3242 -0.4579  0.2862
 7198SOL     OW33226   2.463   1.569   9.117 -0.3048  0.5014 -0.7139
 7198SOL    HW133227   2.506   1.654   9.115 -0.9904  0.8977  1.4693
 7198SOL    HW233228   2.526   1.525   9.059 -0.3823  1.7566 -1.7497
 7199SOL     OW33229   3.512   4.556   8.865  0.2451  0.2199 -0.2466
 7199SOL    HW133230   3.522   4.651   8.852 -0.6473  0.2369 -0.8666
 7199SOL    HW233231   3.418   4.563   8.884 -0.0954  0.5798 -2.0309
 7200SOL     OW33232   3.344   1.018  13.495 -0.1349  0.0649 -0.3626
 7200SOL    HW133233   3.327   1.104  13.533 -1.4895 -0.0815 -0.6345
 7200SOL    HW233234   3.262   0.970  13.507  0.4154 -0.3885  1.5260
 7201SOL     OW33235   0.817   1.877   3.035  0.4201 -0.5308  0.1104
 7201SOL    HW133236   0.782   1.895   2.948  1.5058  1.1728  0.0345
 7201SOL    HW233237   0.847   1.963   3.064 -0.7022 -0.0440 -0.1449
 7202SOL     OW33238   3.775   4.037   1.667  0.1169 -0.2841 -0.5318
 7202SOL    HW133239   3.821   3.955   1.683 -0.7458 -0.8286 -0.8331
 7202SOL    HW233240   3.833   4.098   1.620  1.2502  0.5300  1.8995
 7203SOL     OW33241   1.419   1.142   2.613  0.7438 -0.5407 -0.2506
 7203SOL    HW133242   1.392   1.174   2.699 -1.0653 -0.7513 -0.7533
 7203SOL    HW233243   1.474   1.214   2.581  0.4354 -0.0412  0.3482
 7204SOL     OW33244   3.662   4.637  10.854  0.2705  0.3148 -0.0640
 7204SOL    HW133245   3.745   4.643  10.900 -1.1295  2.4392  2.1705
 7204SOL    HW233246   3.603   4.651  10.928  1.0612 -1.2510  0.8708
 7205SOL     OW33247   0.752   1.341  15.780 -0.1810 -0.2546  0.4762
 7205SOL    HW133248   0.719   1.429  15.795  2.8190  0.9904 -0.1487
 7205SOL    HW233249   0.709   1.323  15.697  0.9480  0.0461 -0.1683
 7206SOL     OW33250   1.662   3.873   2.010 -0.1830 -0.0158 -0.5162
 7206SOL    HW133251   1.713   3.877   2.091  0.3300 -0.4702 -0.8176
 7206SOL    HW233252   1.725   3.914   1.951 -0.2191 -0.1229 -0.6290
 7207SOL     OW33253   2.828   0.737   8.663  0.4776 -0.1196 -0.0719
 7207SOL    HW133254   2.814   0.824   8.626 -2.2418 -1.0323 -1.1109
 7207SOL    HW233255   2.769   0.743   8.738  1.9617  1.2079  1.0120
 7208SOL     OW33256   2.834   1.562   4.650  0.1325  0.7455 -0.2091
 7208SOL    HW133257   2.851   1.648   4.690 -0.9790  0.8702  0.0077
 7208SOL    HW233258   2.746   1.573   4.614  1.0009  2.6754 -1.7765
 7209SOL     OW33259   3.909   1.154  15.276 -0.1125  0.1302 -0.2588
 7209SOL    HW133260   3.916   1.103  15.195 -3.6496 -2.6450  1.1905
 7209SOL    HW233261   3.839   1.214  15.251 -0.0512  0.1564 -0.3673
 7210SOL     OW33262   2.119   2.908   0.478 -0.1853  0.3938 -0.0182
 7210SOL    HW133263   2.053   2.977   0.481 -0.0087  0.6250 -1.4417
 7210SOL    HW233264   2.189   2.952   0.430 -1.1395  2.3918  0.4486
 7211SOL     OW33265   2.714   2.415   5.433 -0.4087  0.6404 -0.1551
 7211SOL    HW133266   2.634   2.458   5.464  0.5367  1.6707  0.8615
 7211SOL    HW233267   2.780   2.475   5.466  0.9778 -0.7934 -0.3107
 7212SOL     OW33268   4.138   2.724   1.225  0.0894 -0.1285 -0.2998
 7212SOL    HW133269   4.148   2.738   1.319  1.0801  0.7897 -0.5404
 7212SOL    HW233270   4.146   2.630   1.212  0.8830  0.0897 -1.4632
 7213SOL     OW33271   1.121   2.012   7.948  1.0528 -0.2158 -0.5672
 7213SOL    HW133272   1.115   2.018   7.852  0.3346 -3.0255 -0.6969
 7213SOL    HW233273   1.202   2.059   7.966  0.8521  0.2796 -0.9440
 7214SOL     OW33274   0.552   1.120   8.130  0.2220 -0.5935  0.3002
 7214SOL    HW133275   0.516   1.072   8.204 -1.0579 -0.9692 -0.5711
 7214SOL    HW233276   0.568   1.207   8.167 -3.0846  0.9238 -1.8673
 7215SOL     OW33277   1.733   1.840  15.461 -0.4906 -0.1736  0.2586
 7215SOL    HW133278   1.787   1.914  15.432 -0.8210 -0.2037 -0.4216
 7215SOL    HW233279   1.719   1.780  15.389 -0.3725  0.8180 -0.5936
 7216SOL     OW33280   2.742   2.911   3.258  0.2231  0.1032 -0.6981
 7216SOL    HW133281   2.815   2.854   3.236 -0.8309 -1.4050 -0.3213
 7216SOL    HW233282   2.668   2.850   3.257 -0.8296  1.3794 -2.1938
 7217SOL     OW33283   2.651   1.634  12.396 -0.0722 -0.4432  0.1420
 7217SOL    HW133284   2.684   1.564  12.453  0.5723 -0.1787  0.0939
 7217SOL    HW233285   2.600   1.694  12.451  0.8413 -0.3690  0.9028
 7218SOL     OW33286   3.844   0.496  11.851 -0.2658 -0.3272 -0.2914
 7218SOL    HW133287   3.862   0.548  11.773 -2.4209  0.6600 -0.0998
 7218SOL    HW233288   3.932   0.484  11.889 -0.3475 -0.2357 -0.0726
 7219SOL     OW33289   2.468   4.389   7.927  0.2477  0.1745 -0.1024
 7219SOL    HW133290   2.549   4.423   7.888  0.4883 -1.3983 -0.9404
 7219SOL    HW233291   2.407   4.386   7.853 -2.3347 -1.2142  2.0921
 7220SOL     OW33292   0.733   3.991   3.059 -0.1721 -0.5264  0.0140
 7220SOL    HW133293   0.755   4.028   2.974 -1.2916  0.6563  0.2444
 7220SOL    HW233294   0.824   3.976   3.085  0.1541  1.1006 -0.1692
 7221SOL     OW33295   0.229   3.382  16.446  0.0498  0.7953  0.0176
 7221SOL    HW133296   0.193   3.427  16.370  0.6331 -0.2139 -0.8626
 7221SOL    HW233297   0.258   3.455  16.500  1.1331 -0.2401  0.8260
 7222SOL     OW33298   4.638   4.400   3.210 -0.1385 -0.3933  0.3141
 7222SOL    HW133299   4.590   4.471   3.251  0.7733 -0.3564  1.3058
 7222SOL    HW233300   4.732   4.414   3.221  0.0889 -0.9989 -0.7935
 7223SOL     OW33301   4.071   3.524  17.038  0.0543  0.4554  0.3647
 7223SOL    HW133302   4.005   3.507  16.970 -1.0837  1.5265  1.1899
 7223SOL    HW233303   4.079   3.443  17.089  2.0138  1.1798  1.2094
 7224SOL     OW33304   2.821   1.797   4.830  0.1806 -0.0511 -0.0404
 7224SOL    HW133305   2.849   1.887   4.811  1.4460  0.0611  2.4293
 7224SOL    HW233306   2.815   1.789   4.925 -0.9636  0.9817 -0.0269
 7225SOL     OW33307   3.696   0.267  11.833 -0.1866 -0.3843  0.0254
 7225SOL    HW133308   3.670   0.252  11.924  0.1421 -3.3093 -0.3689
 7225SOL    HW233309   3.737   0.353  11.841 -1.2291  0.0567  0.5909
 7226SOL     OW33310   2.655   3.670   1.958 -0.7313  0.3835 -0.0756
 7226SOL    HW133311   2.731   3.728   1.957 -1.4293  1.2666 -1.7836
 7226SOL    HW233312   2.625   3.675   1.868 -0.6525 -0.4152 -0.1463
 7227SOL     OW33313   3.450   4.225   5.490  0.9027  0.4118  0.5418
 7227SOL    HW133314   3.373   4.199   5.440  1.5847  0.4610 -0.5388
 7227SOL    HW233315   3.461   4.308   5.444 -1.4580 -0.7117 -2.0517
 7228SOL     OW33316   0.519   1.961   0.937 -0.1696 -0.2518  0.0560
 7228SOL    HW133317   0.501   2.035   0.995  0.5232 -2.5858  3.2087
 7228SOL    HW233318   0.450   1.902   0.965 -0.4654  0.2086  0.2929
 7229SOL     OW33319   2.398   1.370   8.659 -0.6232 -0.0608 -0.0475
 7229SOL    HW133320   2.417   1.422   8.737  2.7053  1.1802 -1.6816
 7229SOL    HW233321   2.388   1.439   8.594 -3.3388 -0.4588 -0.0385
 7230SOL     OW33322   3.417   4.263   1.586 -0.2155  0.0654 -0.4237
 7230SOL    HW133323   3.361   4.319   1.640  0.6529  2.8838 -2.4666
 7230SOL    HW233324   3.497   4.314   1.600 -0.1622  0.0197 -0.5598
 7231SOL     OW33325   2.070   2.857   2.560 -0.1570 -0.1097 -0.4373
 7231SOL    HW133326   2.096   2.784   2.504  0.4718 -0.0126 -0.2743
 7231SOL    HW233327   1.980   2.829   2.576 -0.4618  1.3745  0.4391
 7232SOL     OW33328   3.087   0.138   7.555 -0.3909 -0.0461  0.8513
 7232SOL    HW133329   3.096   0.054   7.599  1.3307  0.7974  2.1142
 7232SOL    HW233330   3.136   0.196   7.614  0.0704  1.0676 -0.6323
 7233SOL     OW33331   2.926   3.241   8.080  0.5492  0.0944  0.3488
 7233SOL    HW133332   2.983   3.171   8.049 -2.3444 -1.8045 -0.7044
 7233SOL    HW233333   2.897   3.209   8.166  2.7098  0.4096  1.1843
 7234SOL     OW33334   3.156   1.088   5.785 -0.3240 -0.2023 -0.3167
 7234SOL    HW133335   3.204   1.016   5.746  0.7165  0.4491 -0.2277
 7234SOL    HW233336   3.172   1.068   5.877 -1.2087 -0.0507 -0.1281
 7235SOL     OW33337   0.795   0.870   9.522  0.3464  0.1784 -0.0793
 7235SOL    HW133338   0.711   0.902   9.490  0.3535  0.9181  0.6434
 7235SOL    HW233339   0.770   0.860   9.614  0.5059 -3.5238 -0.4228
 7236SOL     OW33340   1.169   2.768   5.282  0.7111  0.0761 -0.2018
 7236SOL    HW133341   1.124   2.832   5.337  0.1818 -1.4858  1.1871
 7236SOL    HW233342   1.239   2.826   5.251  0.5223  0.8196  0.7578
 7237SOL     OW33343   1.415   3.866  10.999  0.0382 -1.1318 -0.3321
 7237SOL    HW133344   1.442   3.950  11.036  0.2943 -1.0683 -0.6609
 7237SOL    HW233345   1.373   3.895  10.918  0.5084  1.3396  0.3127
 7238SOL     OW33346   3.804   2.507   8.856  0.3123 -0.1332 -0.3419
 7238SOL    HW133347   3.843   2.463   8.780  0.6512 -1.4414  0.5828
 7238SOL    HW233348   3.828   2.596   8.830 -0.2091 -0.6733 -2.7091
 7239SOL     OW33349   2.773   2.832   4.495 -0.5816 -0.1412  0.1066
 7239SOL    HW133350   2.813   2.912   4.529 -1.6001  0.1368  0.6647
 7239SOL    HW233351   2.680   2.853   4.504 -0.5918  0.6515 -1.7988
 7240SOL     OW33352   2.247   2.855   2.782  0.1080 -0.3576 -0.5394
 7240SOL    HW133353   2.195   2.886   2.857  0.6605  1.5557 -0.9428
 7240SOL    HW233354   2.189   2.872   2.709  0.2456 -0.5396 -0.6902
 7241SOL     OW33355   0.490   3.294  16.646 -0.0314 -0.3407  0.6063
 7241SOL    HW133356   0.400   3.326  16.647 -0.2067 -0.7833 -1.6469
 7241SOL    HW233357   0.529   3.332  16.725 -0.6208 -1.2923  1.3525
 7242SOL     OW33358   4.076   1.470   6.174  0.1926  0.1637 -0.2295
 7242SOL    HW133359   4.021   1.473   6.095 -1.7932 -0.7497  1.1086
 7242SOL    HW233360   4.126   1.548   6.151  0.9888 -0.0350  0.8141
 7243SOL     OW33361   2.663   2.557   1.933  0.1659  0.2050  0.1917
 7243SOL    HW133362   2.587   2.514   1.895  0.1933  0.0420  0.3212
 7243SOL    HW233363   2.647   2.647   1.905  0.0057 -0.2966 -1.3162
 7244SOL     OW33364   4.393   3.191   3.547  0.0402 -0.1848  0.2248
 7244SOL    HW133365   4.336   3.118   3.522  0.8298 -1.2325  1.4556
 7244SOL    HW233366   4.391   3.236   3.463  0.2197  0.9685  0.8331
 7245SOL     OW33367   1.902   3.336  14.780 -0.1679  0.1375  0.0793
 7245SOL    HW133368   1.833   3.274  14.803 -1.5740  0.2807 -3.6193
 7245SOL    HW233369   1.962   3.275  14.737 -1.0818 -0.4377 -0.3839
 7246SOL     OW33370   2.281   3.178  17.203 -0.4974 -0.6947 -0.1742
 7246SOL    HW133371   2.319   3.158  17.117  0.4586  3.4734 -0.7095
 7246SOL    HW233372   2.236   3.097  17.226 -0.3558 -0.3894  1.1886
 7247SOL     OW33373   4.334   2.049   9.647  0.6707  1.0013 -0.7256
 7247SOL    HW133374   4.324   2.106   9.570  1.0511 -1.3681 -2.5265
 7247SOL    HW233375   4.308   1.965   9.610 -1.8765  1.8438 -0.8424
 7248SOL     OW33376   0.430   1.287  15.279  0.1220 -0.6292 -0.5621
 7248SOL    HW133377   0.469   1.217  15.226  0.6488  0.5606 -1.7757
 7248SOL    HW233378   0.342   1.250  15.277 -1.6389  3.5778 -1.6606
 7249SOL     OW33379   1.097   4.003   6.787  0.0489 -0.3203 -0.7984
 7249SOL    HW133380   1.001   4.000   6.793  0.0873 -0.4917 -0.2667
 7249SOL    HW233381   1.105   4.098   6.795  1.7688 -0.5590  0.1450
 7250SOL     OW33382   4.434   3.660  10.023  0.1911  0.2897  0.6839
 7250SOL    HW133383   4.481   3.743  10.033 -2.2343  1.7356  0.1013
 7250SOL    HW233384   4.417   3.658   9.928 -3.3464  0.2829  1.3168
 7251SOL     OW33385   2.681   0.964   0.989  0.1156 -0.2437  0.0720
 7251SOL    HW133386   2.683   0.987   1.081  3.1582  1.9204 -0.5239
 7251SOL    HW233387   2.685   1.048   0.944 -3.2913  0.4313  1.0061
 7252SOL     OW33388   4.621   2.249   4.485 -0.1333 -0.3719  0.2278
 7252SOL    HW133389   4.643   2.311   4.415  0.0662  0.6823  1.2373
 7252SOL    HW233390   4.650   2.307   4.554 -0.1621  0.4385 -0.4406
 7253SOL     OW33391   0.952   3.314   2.061 -0.1654  0.0902 -0.2612
 7253SOL    HW133392   0.990   3.392   2.021  1.9120 -0.1689  1.2448
 7253SOL    HW233393   0.945   3.249   1.991  0.9406 -2.0950  1.6415
 7254SOL     OW33394   2.907   1.668   2.471 -0.1269 -0.2407 -0.4399
 7254SOL    HW133395   2.840   1.657   2.403 -0.1489  0.0080 -0.4571
 7254SOL    HW233396   2.928   1.761   2.467 -0.7449 -0.0398  1.0840
 7255SOL     OW33397   2.582   1.085   3.739 -0.4040 -0.2207  0.3834
 7255SOL    HW133398   2.588   0.990   3.725  0.7076 -0.3020  1.3906
 7255SOL    HW233399   2.663   1.092   3.789 -0.1186 -0.0310 -0.1056
 7256SOL     OW33400   2.629   4.345   3.510  0.0715  0.3079 -0.5952
 7256SOL    HW133401   2.587   4.394   3.581  1.5036 -1.7130  1.6658
 7256SOL    HW233402   2.692   4.411   3.483 -0.1081  0.2835 -1.0687
 7257SOL     OW33403   3.540   4.228   0.307  0.2897  0.6865 -0.3525
 7257SOL    HW133404   3.583   4.239   0.222  1.5174  1.6616  0.3936
 7257SOL    HW233405   3.449   4.237   0.280 -0.1589  0.6257  1.1731
 7258SOL     OW33406   2.282   0.436  11.004 -0.2652 -0.0090  0.2289
 7258SOL    HW133407   2.294   0.344  11.027 -0.7555  0.1747  1.1990
 7258SOL    HW233408   2.282   0.480  11.089 -0.2872 -0.6651  0.5706
 7259SOL     OW33409   0.548   0.528   6.235 -0.4002 -0.6648  0.0262
 7259SOL    HW133410   0.639   0.503   6.255  0.1122  0.7256 -0.5490
 7259SOL    HW233411   0.537   0.614   6.275 -0.1850 -1.4979  1.8686
 7260SOL     OW33412   2.507   0.549  17.509 -0.1957 -0.6716 -0.3641
 7260SOL    HW133413   2.485   0.590  17.593 -0.8019 -0.8596 -0.4324
 7260SOL    HW233414   2.453   0.470  17.510 -1.5041  0.2393  0.8678
 7261SOL     OW33415   1.737   1.978  17.287  0.2191 -0.1579  0.4961
 7261SOL    HW133416   1.646   1.988  17.258 -0.2060  0.4034  2.0229
 7261SOL    HW233417   1.729   1.900  17.342 -3.3996 -1.0882 -1.3692
 7262SOL     OW33418   4.350   2.969   7.491  0.6081  0.0802 -0.1657
 7262SOL    HW133419   4.427   2.914   7.506  0.3787  0.1158  1.1840
 7262SOL    HW233420   4.365   3.008   7.405 -0.7966  1.8618  0.4136
 7263SOL     OW33421   2.165   0.795   3.063  0.1071 -0.1007  0.0866
 7263SOL    HW133422   2.169   0.703   3.036 -1.9102 -0.7149  1.8736
 7263SOL    HW233423   2.070   0.803   3.064  0.1732  0.7213 -0.1588
 7264SOL     OW33424   2.983   1.396   2.180  0.6359 -0.2353  0.4560
 7264SOL    HW133425   2.930   1.332   2.228 -1.1060  1.8053  1.2391
 7264SOL    HW233426   3.056   1.407   2.241  1.6506  4.2204 -1.5330
 7265SOL     OW33427   1.950   0.552   3.888  0.0466  0.3312 -0.0830
 7265SOL    HW133428   1.945   0.573   3.794 -2.6286  0.4893  0.0729
 7265SOL    HW233429   2.030   0.594   3.919  0.4715 -0.4152 -0.1929
 7266SOL     OW33430   0.301   4.150  11.617  1.0726 -0.0984 -0.3335
 7266SOL    HW133431   0.234   4.112  11.560  2.4189  2.8010 -3.8768
 7266SOL    HW233432   0.325   4.233  11.575  2.4276  0.4157  1.4493
 7267SOL     OW33433   1.950   1.565   7.592  0.3754  0.5747 -0.1414
 7267SOL    HW133434   1.931   1.528   7.506  1.3414  1.2668 -0.6592
 7267SOL    HW233435   1.884   1.632   7.607  0.0952 -0.2365  2.3211
 7268SOL     OW33436   1.714   0.275  13.203 -0.5689  0.3811  0.4752
 7268SOL    HW133437   1.808   0.258  13.193 -0.7200 -0.8918  1.2591
 7268SOL    HW233438   1.710   0.309  13.292  2.0953  0.8200  0.4323
 7269SOL     OW33439   0.232   2.551   3.557  0.0428 -0.0471 -0.4660
 7269SOL    HW133440   0.177   2.473   3.547 -1.9213  1.4123 -1.2220
 7269SOL    HW233441   0.220   2.585   3.468  1.7849 -0.6369 -0.9201
 7270SOL     OW33442   0.515   3.534  10.909 -0.5855 -0.0307  0.0887
 7270SOL    HW133443   0.571   3.457  10.900 -0.0666  0.3329  0.2514
 7270SOL    HW233444   0.544   3.578  10.989  2.7044  1.6421 -2.0701
 7271SOL     OW33445   3.883   3.452   6.674  0.4394 -0.1219  0.1835
 7271SOL    HW133446   3.922   3.487   6.593 -0.5427  0.3200 -0.1021
 7271SOL    HW233447   3.823   3.385   6.642  0.4770 -0.7355  1.4285
 7272SOL     OW33448   3.878   4.531   6.769 -0.0576  0.3087  0.1369
 7272SOL    HW133449   3.815   4.572   6.827  0.6837  0.5341  0.7797
 7272SOL    HW233450   3.928   4.479   6.832 -0.4829 -0.3483 -0.0724
 7273SOL     OW33451   4.281   4.043   6.064 -0.1415 -0.1009 -0.0805
 7273SOL    HW133452   4.364   4.043   6.111 -1.5543 -0.6169  2.3751
 7273SOL    HW233453   4.260   4.136   6.075  0.9157  0.1538 -0.1877
 7274SOL     OW33454   2.112   0.555   7.800  0.5898 -0.7416  0.4550
 7274SOL    HW133455   2.152   0.538   7.885 -2.2832  1.9390  2.3717
 7274SOL    HW233456   2.106   0.650   7.811 -1.2813 -0.5524 -2.1571
 7275SOL     OW33457   0.174   4.257  14.793  0.0025 -0.0647  0.3539
 7275SOL    HW133458   0.260   4.223  14.766  0.8051  3.1713 -1.1526
 7275SOL    HW233459   0.166   4.254  14.888 -0.4951 -2.1928  0.2559
 7276SOL     OW33460   1.557   2.006  12.139  0.2736 -0.5248  0.0871
 7276SOL    HW133461   1.522   2.054  12.064 -0.7155 -1.7499 -0.2349
 7276SOL    HW233462   1.601   1.936  12.091 -0.4278  0.2141 -1.6175
 7277SOL     OW33463   0.783   0.046   2.243  0.0459 -0.6187 -0.1828
 7277SOL    HW133464   0.794   0.031   2.337  1.1108  2.2627  0.1510
 7277SOL    HW233465   0.733   4.703   2.236  1.2312 -1.3763  0.1827
 7278SOL     OW33466   4.156   0.051   2.837  0.3937 -0.1013 -0.3301
 7278SOL    HW133467   4.086   0.105   2.802 -0.1502 -1.2567 -1.0322
 7278SOL    HW233468   4.229   0.084   2.784  0.6484 -4.1635 -2.5384
 7279SOL     OW33469   3.202   0.490   5.840 -0.4370  0.2927  0.3771
 7279SOL    HW133470   3.190   0.518   5.931 -0.1981 -2.7647  1.3369
 7279SOL    HW233471   3.108   0.479   5.823 -0.1690 -1.4153 -0.0133
 7280SOL     OW33472   4.728   1.588  11.238 -0.3562 -0.1335  0.2667
 7280SOL    HW133473   4.644   1.574  11.282 -0.3816 -0.3779  0.1405
 7280SOL    HW233474   4.708   1.602  11.146 -0.8950  1.3195  0.6059
 7281SOL     OW33475   1.207   2.851  13.000  0.1613  0.1562  0.2207
 7281SOL    HW133476   1.148   2.871  13.073  0.8421  1.5535  0.3937
 7281SOL    HW233477   1.264   2.780  13.028 -0.8432 -1.7669 -2.6506
 7282SOL     OW33478   3.008   2.750   6.484 -0.3982  0.0998 -0.2884
 7282SOL    HW133479   3.081   2.726   6.541 -1.5124 -0.7286  0.7883
 7282SOL    HW233480   2.996   2.670   6.431  0.7225  0.9400 -1.8300
 7283SOL     OW33481   4.148   3.961   7.894 -0.4744 -0.4726 -0.1816
 7283SOL    HW133482   4.082   3.936   7.958 -0.5432 -1.0761 -0.4880
 7283SOL    HW233483   4.194   3.879   7.879 -1.3538 -1.5000  2.8217
 7284SOL     OW33484   0.263   1.511   5.527  0.0654 -0.5006 -0.0362
 7284SOL    HW133485   0.182   1.460   5.532 -0.3472  0.1523 -0.1953
 7284SOL    HW233486   0.289   1.511   5.435 -0.5430 -0.7904 -0.2098
 7285SOL     OW33487   2.980   0.693   2.125 -0.0464  0.5687  0.0732
 7285SOL    HW133488   3.075   0.689   2.130 -0.1851 -0.5566  1.6405
 7285SOL    HW233489   2.954   0.633   2.195  0.2631 -1.9108 -1.9127
 7286SOL     OW33490   1.174   2.042   3.069  0.5427 -0.2484  0.6870
 7286SOL    HW133491   1.209   2.131   3.065 -0.6027  0.1659 -0.5112
 7286SOL    HW233492   1.155   2.036   2.975 -0.3978 -0.9890  0.9171
 7287SOL     OW33493   3.905   1.200   9.222 -0.0889 -0.0253 -0.0274
 7287SOL    HW133494   3.863   1.147   9.289  0.3600 -1.9204 -1.2545
 7287SOL    HW233495   3.966   1.139   9.182 -1.0592 -1.4257  0.6498
 7288SOL     OW33496   3.849   2.984  11.685 -0.8756  0.2341  0.2742
 7288SOL    HW133497   3.871   2.936  11.765 -2.4411 -0.7326  0.1306
 7288SOL    HW233498   3.931   2.991  11.636  0.5448  1.2920  2.8210
 7289SOL     OW33499   4.680   3.163   7.522  0.4956 -0.8836 -0.1324
 7289SOL    HW133500   4.689   3.182   7.616 -2.0415 -0.1486 -0.0516
 7289SOL    HW233501   4.623   3.226   7.477  0.3759 -0.9089 -0.0163
 7290SOL     OW33502   4.531   2.411   8.726 -0.0033  0.4686  0.4325
 7290SOL    HW133503   4.520   2.499   8.690  3.7041  1.0691  0.7626
 7290SOL    HW233504   4.482   2.428   8.806  1.7752  2.3165  1.1295
 7291SOL     OW33505   1.827   2.400  13.576 -0.3865  0.3290 -0.3270
 7291SOL    HW133506   1.879   2.444  13.508 -1.1926 -0.1301 -1.2463
 7291SOL    HW233507   1.898   2.367  13.631 -1.1961  0.1176  0.5868
 7292SOL     OW33508   0.294   1.369  14.138 -0.4244 -0.1988  0.0536
 7292SOL    HW133509   0.355   1.314  14.188  1.7451  0.4889 -1.8093
 7292SOL    HW233510   0.305   1.327  14.053  4.3673 -1.0975  1.1093
 7293SOL     OW33511   4.276   1.354  15.212 -0.1115  0.4068 -0.0814
 7293SOL    HW133512   4.210   1.310  15.267  0.9752 -1.3824 -0.1950
 7293SOL    HW233513   4.316   1.286  15.157  1.1973 -0.4630  1.9516
 7294SOL     OW33514   2.306   2.292   3.553 -0.0788 -0.2232  0.1897
 7294SOL    HW133515   2.355   2.347   3.614  0.4411  0.6434 -0.9836
 7294SOL    HW233516   2.266   2.352   3.489 -0.7114 -0.6994  0.1396
 7295SOL     OW33517   3.734   2.036   1.747  0.1661  0.0104  0.0857
 7295SOL    HW133518   3.741   2.108   1.685  2.9477 -0.6032 -0.3067
 7295SOL    HW233519   3.640   2.019   1.743  0.5269 -1.6945 -1.3627
 7296SOL     OW33520   4.499   0.207   5.321  0.2825 -0.4938  0.0608
 7296SOL    HW133521   4.404   0.211   5.332  0.4061  0.0872  0.9081
 7296SOL    HW233522   4.511   0.271   5.251 -0.4478 -1.6058 -1.1005
 7297SOL     OW33523   1.698   2.484   1.229  0.8009  0.0572 -0.3569
 7297SOL    HW133524   1.661   2.414   1.283 -2.1792  2.2335  0.4452
 7297SOL    HW233525   1.634   2.500   1.160  0.9525  0.6260 -0.3622
 7298SOL     OW33526   3.302   1.011   8.916  0.2934 -0.5944  0.2128
 7298SOL    HW133527   3.289   0.933   8.863 -0.8084 -0.4875  0.3266
 7298SOL    HW233528   3.225   1.064   8.895 -0.5402 -2.6253 -1.7606
 7299SOL     OW33529   2.519   4.692  10.626  0.0196 -0.0917  0.5621
 7299SOL    HW133530   2.457   0.009  10.580  2.3246  0.3682 -2.0116
 7299SOL    HW233531   2.568   4.677  10.545 -0.1867 -0.5815  0.5254
 7300SOL     OW33532   0.493   0.089   8.251  0.3153 -0.0642  0.8565
 7300SOL    HW133533   0.458   0.127   8.331 -3.5919 -2.1936  0.1254
 7300SOL    HW233534   0.485   0.159   8.185  1.6455 -0.6973  0.0188
 7301SOL     OW33535   1.175   1.523   2.558  0.0682  0.0194  0.1493
 7301SOL    HW133536   1.221   1.473   2.625 -0.4788  0.9645  1.2282
 7301SOL    HW233537   1.244   1.519   2.492 -2.6807  0.8112 -2.7956
 7302SOL     OW33538   0.480   0.814   4.841  0.0199 -0.0812 -0.0815
 7302SOL    HW133539   0.518   0.890   4.797 -0.0477  0.5637  0.9848
 7302SOL    HW233540   0.387   0.818   4.819 -0.1187 -0.1985  0.4931
 7303SOL     OW33541   1.298   2.155   0.022 -0.2692 -0.1648 -0.0014
 7303SOL    HW133542   1.236   2.163  17.702  0.5063  0.2702 -0.6220
 7303SOL    HW233543   1.243   2.157   0.100 -0.6193 -0.3272 -0.2473
 7304SOL     OW33544   0.974   2.805   7.395 -0.6621 -0.2271  0.1409
 7304SOL    HW133545   0.932   2.866   7.334  0.4266  0.2986 -0.0869
 7304SOL    HW233546   0.967   2.853   7.478 -0.2103  0.4402 -0.2104
 7305SOL     OW33547   0.965   0.638   2.297 -0.1231 -0.0587  0.0351
 7305SOL    HW133548   0.995   0.565   2.352 -2.0502 -0.9137 -0.0359
 7305SOL    HW233549   1.029   0.698   2.335 -0.2182  1.7549 -2.7274
 7306SOL     OW33550   3.983   1.678  15.991  0.5023  0.0497 -0.2725
 7306SOL    HW133551   3.979   1.644  15.901 -0.8805  1.8558 -0.8954
 7306SOL    HW233552   3.940   1.761  15.970  0.6245  0.0809 -0.4095
 7307SOL     OW33553   0.734   0.735   7.849  0.0197  0.2426  0.1965
 7307SOL    HW133554   0.766   0.651   7.817 -0.9755  0.6449 -1.8669
 7307SOL    HW233555   0.754   0.733   7.943 -0.7602  0.4358  0.3724
 7308SOL     OW33556   1.906   3.660   6.242 -0.7641  0.1771  0.1950
 7308SOL    HW133557   1.950   3.721   6.184  1.4246  0.6418  2.3430
 7308SOL    HW233558   1.974   3.596   6.265 -1.1309 -1.0066 -2.0055
 7309SOL     OW33559   0.124   2.215   9.729 -0.7376  0.1729 -0.2131
 7309SOL    HW133560   0.168   2.185   9.808 -0.2731  2.6597  0.4609
 7309SOL    HW233561   0.061   2.146   9.709  0.5650 -1.3260  0.8960
 7310SOL     OW33562   2.231   0.519   9.536  0.4063 -0.9737  0.0443
 7310SOL    HW133563   2.230   0.611   9.565  0.8118 -0.0467 -2.8729
 7310SOL    HW233564   2.187   0.473   9.608  1.6241 -1.8412  0.2238
 7311SOL     OW33565   0.530   4.229  10.633  0.2806 -0.0850  0.0368
 7311SOL    HW133566   0.576   4.223  10.717 -0.2187  0.4760  0.3498
 7311SOL    HW233567   0.553   4.320  10.616  0.0929 -0.4964 -2.3172
 7312SOL     OW33568   2.733   2.152   8.284  0.4780  0.2533  0.3639
 7312SOL    HW133569   2.724   2.116   8.372 -0.0688 -2.0429 -0.6290
 7312SOL    HW233570   2.658   2.114   8.238 -0.5829  0.8231  1.6455
 7313SOL     OW33571   2.351   2.815   2.172 -0.2869  0.2390  0.3628
 7313SOL    HW133572   2.304   2.891   2.207 -0.3448  0.5744 -0.4438
 7313SOL    HW233573   2.292   2.789   2.102  0.9528  0.7709 -0.8716
 7314SOL     OW33574   2.013   1.961   8.274  0.3872  0.2539  0.3289
 7314SOL    HW133575   2.019   1.866   8.273 -0.4296  0.2252 -1.5232
 7314SOL    HW233576   2.090   1.983   8.327 -0.7689  1.2207  1.6245
 7315SOL     OW33577   2.903   2.864   4.247 -0.1924  0.4265  0.1777
 7315SOL    HW133578   2.907   2.959   4.257  0.8319  0.6430 -2.3761
 7315SOL    HW233579   2.854   2.837   4.325  1.4523 -1.8568  0.4054
 7316SOL     OW33580   4.721   4.010   2.251 -0.0576 -0.1024 -0.4025
 7316SOL    HW133581   0.064   4.041   2.210 -0.6558 -2.1826 -3.1497
 7316SOL    HW233582   4.731   3.920   2.219  1.2123  0.8844 -2.8280
 7317SOL     OW33583   0.062   2.122   3.978  0.0471  0.1496  0.2903
 7317SOL    HW133584   4.715   2.130   3.937  1.1764 -1.8455 -2.4852
 7317SOL    HW233585   0.109   2.178   3.915 -1.0593  2.1641  1.2720
 7318SOL     OW33586   2.197   2.692  16.169  0.4035  0.1655 -0.8021
 7318SOL    HW133587   2.114   2.650  16.146  0.2344 -0.3929  0.7706
 7318SOL    HW233588   2.193   2.698  16.265 -1.3086  1.2181 -0.9313
 7319SOL     OW33589   4.393   0.217  14.344 -0.5751  0.0296 -0.1491
 7319SOL    HW133590   4.409   0.136  14.393 -1.3855  0.5250  0.9343
 7319SOL    HW233591   4.465   0.215  14.281  2.0635 -0.5261  2.8955
 7320SOL     OW33592   2.916   0.585   7.447 -0.1870  0.2670 -0.0452
 7320SOL    HW133593   2.882   0.674   7.448 -0.6507  0.0975 -0.5369
 7320SOL    HW233594   3.009   0.590   7.469 -0.0024 -0.8000 -0.5553
 7321SOL     OW33595   4.503   2.431   5.091 -0.9187 -0.3226  0.5871
 7321SOL    HW133596   4.503   2.527   5.092 -1.3368 -0.3334  1.6383
 7321SOL    HW233597   4.592   2.398   5.085 -0.3373  1.2231  0.8726
 7322SOL     OW33598   0.126   4.061   9.370  0.3851 -0.6211  0.0550
 7322SOL    HW133599   0.203   4.045   9.426  0.3581 -0.7344  0.0597
 7322SOL    HW233600   0.162   4.074   9.282 -0.4490  0.1987 -0.1664
 7323SOL     OW33601   1.304   0.630  10.156 -0.5858  0.0312  0.3688
 7323SOL    HW133602   1.289   0.722  10.176 -1.2027 -0.1522  0.7563
 7323SOL    HW233603   1.255   0.627  10.073 -0.8420 -2.1419  0.6033
 7324SOL     OW33604   2.008   0.155   6.149 -0.0847  0.4408 -0.6646
 7324SOL    HW133605   1.934   0.209   6.120  0.8990  2.3000  0.2793
 7324SOL    HW233606   2.031   0.193   6.234  0.6618  0.2233 -0.7702
 7325SOL     OW33607   2.579   1.105   4.226  0.4418  0.0721 -0.2344
 7325SOL    HW133608   2.568   1.032   4.165  1.9964  0.1856 -0.6445
 7325SOL    HW233609   2.557   1.179   4.169  2.0649  0.0181 -0.9426
 7326SOL     OW33610   0.616   1.144   7.196  0.6964 -0.2781 -0.1309
 7326SOL    HW133611   0.626   1.087   7.273  0.4409  0.9386  0.8029
 7326SOL    HW233612   0.567   1.217   7.234  2.4237  1.1993 -0.7365
 7327SOL     OW33613   2.578   2.515   0.380 -0.2145 -0.2441  0.0862
 7327SOL    HW133614   2.529   2.532   0.300 -0.6802 -0.5504  0.3038
 7327SOL    HW233615   2.607   2.424   0.370 -0.6943 -0.3416 -0.3995
 7328SOL     OW33616   4.140   1.327   9.953  0.0621 -0.8537  0.4928
 7328SOL    HW133617   4.050   1.359   9.941  0.1577 -0.9776 -0.5234
 7328SOL    HW233618   4.163   1.302   9.864 -1.4212 -1.0757  0.1722
 7329SOL     OW33619   1.972   1.412   3.951 -0.0183  0.0482  0.1435
 7329SOL    HW133620   2.005   1.401   3.861  2.1148  0.4728  0.8755
 7329SOL    HW233621   2.015   1.492   3.981  1.4441 -0.5232 -0.4130
 7330SOL     OW33622   0.672   3.815  10.213 -0.1534  0.8249  0.1623
 7330SOL    HW133623   0.761   3.803  10.248 -0.0341 -0.3782 -0.5563
 7330SOL    HW233624   0.688   3.809  10.118  0.8048  0.9051  0.3141
 7331SOL     OW33625   3.169   0.544   7.506 -0.1859 -0.1385 -0.0598
 7331SOL    HW133626   3.196   0.605   7.438  2.9889 -1.7223 -0.2680
 7331SOL    HW233627   3.244   0.558   7.564  0.0256 -1.1903 -0.0780
 7332SOL     OW33628   4.363   3.386  10.040 -0.4484  0.2957 -0.1429
 7332SOL    HW133629   4.407   3.471  10.048  0.9857 -0.4803  0.1993
 7332SOL    HW233630   4.429   3.337  10.089 -0.9945  1.1506  1.4774
 7333SOL     OW33631   2.566   1.117  10.109 -0.2373  0.6799  0.0898
 7333SOL    HW133632   2.492   1.162  10.149 -1.3906 -0.2645 -1.0077
 7333SOL    HW233633   2.628   1.116  10.182 -1.6866  0.0101  1.3173
 7334SOL     OW33634   2.309   0.577   8.557 -0.1294 -0.0775  0.0211
 7334SOL    HW133635   2.373   0.525   8.607  0.6832  0.6465 -0.2741
 7334SOL    HW233636   2.307   0.654   8.614  2.4896 -1.1225  1.5292
 7335SOL     OW33637   1.299   3.961  10.791  0.5130  0.1654  0.0311
 7335SOL    HW133638   1.213   3.931  10.761 -0.7774  2.7221  1.1127
 7335SOL    HW233639   1.338   3.996  10.711  0.1214 -0.2819 -0.3528
 7336SOL     OW33640   1.134   4.173   1.883  0.5503 -0.0373 -0.0833
 7336SOL    HW133641   1.076   4.242   1.915  1.2077  0.0173  1.0032
 7336SOL    HW233642   1.156   4.123   1.962  1.2560  0.0966 -0.1983
 7337SOL     OW33643   0.496   0.423  16.515  0.0254 -0.1987 -0.1976
 7337SOL    HW133644   0.456   0.435  16.601 -0.0471 -1.5338 -0.0529
 7337SOL    HW233645   0.537   0.510  16.509  0.4667 -0.5328 -1.9836
 7338SOL     OW33646   2.452   0.058   5.455  0.0733  0.2864  0.1251
 7338SOL    HW133647   2.421   0.072   5.366 -0.4856 -1.7486 -0.0017
 7338SOL    HW233648   2.460   4.701   5.463  1.5189  0.4783  0.9521
 7339SOL     OW33649   4.711   4.556  15.548  0.1714  0.0770  0.1872
 7339SOL    HW133650   0.005   4.646  15.543  1.7292 -0.5391 -0.4839
 7339SOL    HW233651   0.022   4.513  15.479  0.1994  1.1387 -0.4571
 7340SOL     OW33652   3.086   3.150   1.936  0.2911 -0.8625 -0.5174
 7340SOL    HW133653   3.152   3.217   1.954  0.5431 -1.5331  1.0925
 7340SOL    HW233654   3.044   3.198   1.864  1.3243  1.7781  0.6093
 7341SOL     OW33655   0.591   1.598  15.417 -0.1167  0.4101 -0.0776
 7341SOL    HW133656   0.602   1.656  15.342  0.5410  0.8680  0.3764
 7341SOL    HW233657   0.496   1.593  15.421  0.0066 -2.4029 -0.4333
 7342SOL     OW33658   0.420   1.667   1.442  0.3545  0.2434  0.1614
 7342SOL    HW133659   0.347   1.611   1.470 -0.4230 -0.3409 -3.0951
 7342SOL    HW233660   0.426   1.737   1.507  0.0540  0.0401  0.4142
 7343SOL     OW33661   4.060   1.793   5.668 -0.7969 -0.6218  0.5052
 7343SOL    HW133662   4.011   1.778   5.587  0.4391  0.8732 -0.5144
 7343SOL    HW233663   4.115   1.715   5.669 -0.3143 -0.2767  1.6989
 7344SOL     OW33664   3.546   4.707  11.902  0.1248  0.5833 -0.8615
 7344SOL    HW133665   3.629   4.680  11.941  0.9920  3.4842 -0.7192
 7344SOL    HW233666   3.577   0.020  11.828  0.8561  1.7372  0.2550
 7345SOL     OW33667   2.041   0.781  11.891 -0.1111 -0.6369  0.4900
 7345SOL    HW133668   2.094   0.734  11.956  0.9799 -0.1809 -0.0583
 7345SOL    HW233669   2.088   0.774  11.807 -0.4793 -1.0960  0.3235
 7346SOL     OW33670   2.844   2.444   4.878 -0.3292  0.3191 -0.4287
 7346SOL    HW133671   2.838   2.433   4.973  1.7273  1.8624 -0.1324
 7346SOL    HW233672   2.900   2.370   4.856 -0.8963 -0.6250  1.3110
 7347SOL     OW33673   1.760   2.343   5.162 -0.2297 -0.1309 -0.1046
 7347SOL    HW133674   1.693   2.397   5.204  1.1321  1.5949 -0.1628
 7347SOL    HW233675   1.763   2.276   5.230 -0.8556 -0.6180 -0.5582
 7348SOL     OW33676   3.042   2.171   3.721 -0.0366 -1.0943 -0.3954
 7348SOL    HW133677   3.068   2.125   3.800 -0.3500  0.7759  0.8130
 7348SOL    HW233678   2.953   2.198   3.745 -0.4475 -1.4220 -1.5745
 7349SOL     OW33679   1.223   2.503   2.958 -0.0685  0.3004 -0.5299
 7349SOL    HW133680   1.298   2.558   2.980 -1.1749  0.5341  2.6277
 7349SOL    HW233681   1.151   2.564   2.972 -1.3835 -1.0349 -1.4140
 7350SOL     OW33682   1.896   1.781   6.543 -0.0225  0.0425  0.2178
 7350SOL    HW133683   1.921   1.825   6.462  1.4815  0.8434  1.1365
 7350SOL    HW233684   1.959   1.709   6.546 -0.2634 -0.1301  1.1643
 7351SOL     OW33685   2.771   2.650   8.128 -0.4629 -0.4420  0.2844
 7351SOL    HW133686   2.772   2.668   8.222 -0.4275  1.2985 -0.0369
 7351SOL    HW233687   2.739   2.733   8.092 -0.8269 -1.1098 -0.9226
 7352SOL     OW33688   2.500   0.157   1.439  0.3870 -0.5501  0.0386
 7352SOL    HW133689   2.435   0.149   1.508  1.1811  0.2377  0.8934
 7352SOL    HW233690   2.444   0.193   1.370  1.2154 -0.6947 -0.7146
 7353SOL     OW33691   2.605   1.854  14.821  0.3835  0.5974 -0.1003
 7353SOL    HW133692   2.528   1.798  14.821  0.3933  0.5641 -1.5125
 7353SOL    HW233693   2.658   1.789  14.774 -2.7063 -2.3284  0.4843
 7354SOL     OW33694   3.636   4.370   7.718  0.2204  0.1246  0.8641
 7354SOL    HW133695   3.634   4.352   7.624  1.6706 -0.2120  0.8863
 7354SOL    HW233696   3.637   4.283   7.759  2.0462  0.0966  0.7678
 7355SOL     OW33697   1.718   0.990   7.458  0.3659 -0.0436 -0.3852
 7355SOL    HW133698   1.766   1.070   7.433  0.0997 -0.0100 -0.7868
 7355SOL    HW233699   1.784   0.930   7.423  0.3851  0.1656 -0.7063
 7356SOL     OW33700   1.282   2.225   7.624 -0.2394  0.3967  0.3807
 7356SOL    HW133701   1.351   2.196   7.564 -0.7578 -1.4510  0.6761
 7356SOL    HW233702   1.278   2.319   7.612 -0.2900  0.4976  1.2181
 7357SOL     OW33703   0.274   1.637   2.066  0.1516 -0.1584 -0.1339
 7357SOL    HW133704   0.369   1.637   2.079  0.0802  0.5839  0.3624
 7357SOL    HW233705   0.266   1.568   2.000 -1.6839  0.1351 -0.2244
 7358SOL     OW33706   4.534   3.104   9.224 -0.4334 -0.1246 -0.5697
 7358SOL    HW133707   4.502   3.041   9.159  0.7493 -0.4437 -0.8419
 7358SOL    HW233708   4.613   3.142   9.186  0.0069  0.9952  1.4652
 7359SOL     OW33709   0.628   4.514   7.250 -0.4097 -0.2566  0.2929
 7359SOL    HW133710   0.577   4.592   7.233  1.5755  0.9399 -0.1770
 7359SOL    HW233711   0.658   4.487   7.163 -2.8173 -1.2144 -0.2370
 7360SOL     OW33712   1.705   0.726   8.753 -0.9828  0.5653 -0.3592
 7360SOL    HW133713   1.687   0.679   8.672 -1.1123  0.1605 -0.0927
 7360SOL    HW233714   1.797   0.743   8.735 -1.0509  2.3241  0.9148
 7361SOL     OW33715   1.432   2.589   3.088 -0.1992  0.2048 -0.4440
 7361SOL    HW133716   1.509   2.544   3.052 -0.8313 -0.8853 -0.4197
 7361SOL    HW233717   1.483   2.661   3.126  1.2060  0.4544 -2.7551
 7362SOL     OW33718   4.291   0.693  12.329  0.2964  0.3106 -0.0690
 7362SOL    HW133719   4.202   0.728  12.337  0.1959 -0.2364  1.2878
 7362SOL    HW233720   4.338   0.754  12.386  1.9519 -0.9665 -0.0507
 7363SOL     OW33721   2.233   4.076   5.114 -0.1701 -0.2753 -0.4894
 7363SOL    HW133722   2.159   4.130   5.088 -1.6380 -1.0339  2.0883
 7363SOL    HW233723   2.212   3.990   5.077  0.3983  0.1033 -1.6815
 7364SOL     OW33724   1.654   0.655  16.686 -0.2860 -0.1311  0.1936
 7364SOL    HW133725   1.632   0.731  16.739  1.7523  1.3677 -1.1079
 7364SOL    HW233726   1.747   0.656  16.708 -0.4786  0.7364  0.9780
 7365SOL     OW33727   3.535   4.319  15.803 -0.4307  0.3343  0.1936
 7365SOL    HW133728   3.585   4.302  15.723 -0.6142 -2.3483  0.6400
 7365SOL    HW233729   3.451   4.355  15.773 -0.8759 -1.8698 -1.1716
 7366SOL     OW33730   1.313   1.111   1.688  0.0199  0.1215 -0.4453
 7366SOL    HW133731   1.285   1.074   1.772 -1.4324  4.8518  1.1512
 7366SOL    HW233732   1.401   1.078   1.675 -0.6817 -1.8718 -0.0985
 7367SOL     OW33733   2.784   1.842   1.764  0.1008 -0.2943  0.8444
 7367SOL    HW133734   2.816   1.921   1.721 -0.1491  0.1319  1.4358
 7367SOL    HW233735   2.696   1.875   1.783  0.9464  3.1984 -1.3445
 7368SOL     OW33736   4.297   2.253   7.127 -0.4288 -0.1349 -0.3750
 7368SOL    HW133737   4.268   2.342   7.149  1.3320 -0.0861  1.8198
 7368SOL    HW233738   4.301   2.217   7.216 -1.3260 -3.9968 -1.8877
 7369SOL     OW33739   3.335   1.943  16.829  0.3840 -0.0775 -0.9105
 7369SOL    HW133740   3.244   1.965  16.850  0.8790 -1.3813  2.6263
 7369SOL    HW233741   3.370   2.000  16.897 -0.5483 -0.6027  0.0141
 7370SOL     OW33742   4.526   4.464   5.986  0.1959 -0.2467  0.1178
 7370SOL    HW133743   4.613   4.437   6.014 -0.4630 -0.5214  1.8544
 7370SOL    HW233744   4.494   4.527   6.051  1.5728  0.9410 -0.3702
 7371SOL     OW33745   1.776   4.106  16.964  0.2406  0.9678  0.4800
 7371SOL    HW133746   1.824   4.147  17.036 -0.2037  0.3472  1.1369
 7371SOL    HW233747   1.832   4.029  16.959  0.3245  0.9672  1.5071
 7372SOL     OW33748   1.608   4.338   6.579  0.2020  0.3257 -0.6567
 7372SOL    HW133749   1.528   4.287   6.562 -0.8778  1.8966 -0.3066
 7372SOL    HW233750   1.585   4.408   6.518 -3.7701 -2.2979 -2.1938
 7373SOL     OW33751   4.736   0.472  17.352  0.2823  0.3905 -0.1855
 7373SOL    HW133752   4.695   0.541  17.404 -0.9499 -1.1933  0.9545
 7373SOL    HW233753   0.067   0.445  17.412  0.8554 -0.6525 -1.3202
 7374SOL     OW33754   3.043   2.121  11.241  0.1759 -0.1841 -0.3434
 7374SOL    HW133755   2.980   2.060  11.279 -1.9162  0.6309 -2.5639
 7374SOL    HW233756   2.984   2.195  11.255 -0.0162 -0.2269 -0.9165
 7375SOL     OW33757   3.427   2.406   4.792 -0.2675  1.1309 -0.1399
 7375SOL    HW133758   3.335   2.430   4.806 -0.3974  1.4835 -1.5527
 7375SOL    HW233759   3.423   2.385   4.698  0.2985  0.3226  0.0183
 7376SOL     OW33760   3.894   3.854  14.686 -0.2981 -0.3100  0.5920
 7376SOL    HW133761   3.904   3.808  14.769  1.8543 -1.4854 -0.3305
 7376SOL    HW233762   3.977   3.855  14.639 -0.4295 -1.0440  0.3438
 7377SOL     OW33763   0.016   4.631   1.443  0.2577 -0.0839 -0.4734
 7377SOL    HW133764   4.674   4.680   1.452  0.3872  0.3416 -1.7084
 7377SOL    HW233765   4.719   4.548   1.412 -1.0924  1.6341 -3.4017
 7378SOL     OW33766   2.058   2.893   2.199 -0.0021  0.3539 -0.3858
 7378SOL    HW133767   2.052   2.812   2.249  1.8683  0.6574  0.2969
 7378SOL    HW233768   1.967   2.920   2.189 -0.3450 -0.4920  0.4020
 7379SOL     OW33769   2.722   1.122  10.341 -0.2377 -0.3110 -0.5303
 7379SOL    HW133770   2.805   1.160  10.311  0.0822 -0.5651  0.0212
 7379SOL    HW233771   2.718   1.126  10.437  0.1429  0.3926 -0.5420
 7380SOL     OW33772   4.349   0.687   7.452  0.4048  0.5655 -0.0786
 7380SOL    HW133773   4.336   0.721   7.363  1.7165  2.1447  0.3323
 7380SOL    HW233774   4.256   0.664   7.459  0.9973 -2.0925 -1.0152
 7381SOL     OW33775   1.293   1.800   4.121  0.3884  0.6592  0.4505
 7381SOL    HW133776   1.249   1.854   4.055  0.4269 -1.6352 -1.4294
 7381SOL    HW233777   1.226   1.763   4.179 -0.7152  1.6675 -0.1889
 7382SOL     OW33778   1.058   2.561  14.736  0.6044 -0.0342  0.2274
 7382SOL    HW133779   1.068   2.629  14.669 -3.4130  0.6407  0.3517
 7382SOL    HW233780   1.114   2.591  14.807  0.4997 -0.5117  0.5078
 7383SOL     OW33781   2.749   1.402   5.220 -0.4135  0.4093 -0.1943
 7383SOL    HW133782   2.738   1.309   5.240  0.0728  0.6911  1.3265
 7383SOL    HW233783   2.811   1.405   5.147  0.9309  0.0615  0.9355
 7384SOL     OW33784   0.729   1.884   0.193  0.4498 -0.4265  0.0702
 7384SOL    HW133785   0.792   1.955   0.187 -0.5235  0.4683  0.3313
 7384SOL    HW233786   0.778   1.826   0.135  1.3111  0.4538 -0.0811
 7385SOL     OW33787   1.736   4.145   8.108  0.6241 -0.0482  0.1657
 7385SOL    HW133788   1.718   4.232   8.072  0.6267  0.6027  1.7181
 7385SOL    HW233789   1.792   4.176   8.179  1.0837 -0.1413 -0.1606
 7386SOL     OW33790   3.662   3.955   9.533 -0.0431 -0.3271 -0.2083
 7386SOL    HW133791   3.674   4.043   9.570 -3.2414  0.3953 -0.9185
 7386SOL    HW233792   3.566   3.954   9.536 -0.0171  0.4596  1.0220
 7387SOL     OW33793   3.512   4.017   8.538 -0.2631 -0.4090  0.3105
 7387SOL    HW133794   3.432   3.966   8.538 -0.2225 -0.4761  0.5714
 7387SOL    HW233795   3.514   4.024   8.443  1.4466  0.3991  0.4023
 7388SOL     OW33796   3.688   0.815   5.206  0.0538 -0.4413 -0.0417
 7388SOL    HW133797   3.670   0.741   5.264 -1.9224  0.9386  1.0959
 7388SOL    HW233798   3.756   0.778   5.149  1.9621 -0.0458  1.9949
 7389SOL     OW33799   1.348   1.401  15.897  0.2506  0.3055 -0.5497
 7389SOL    HW133800   1.303   1.461  15.838  0.4212  2.0258  1.1073
 7389SOL    HW233801   1.289   1.397  15.972 -0.8229  3.9107 -1.2196
 7390SOL     OW33802   0.378   1.580   4.472 -0.1795  0.2212  0.1174
 7390SOL    HW133803   0.341   1.564   4.385 -0.1143  0.5195  0.0339
 7390SOL    HW233804   0.381   1.675   4.479 -0.5289  0.4410 -2.7494
 7391SOL     OW33805   0.607   0.176   3.128 -0.4293  0.0618 -0.3314
 7391SOL    HW133806   0.514   0.157   3.142  0.6676 -1.2191  5.1653
 7391SOL    HW233807   0.654   0.104   3.169  1.6803  0.6686 -1.6683
 7392SOL     OW33808   3.183   4.330   6.207  0.1605  0.2456  0.4360
 7392SOL    HW133809   3.208   4.275   6.132 -1.5590  0.8938 -0.5934
 7392SOL    HW233810   3.252   4.307   6.269  0.6418  0.7887  0.1076
 7393SOL     OW33811   1.741   3.369   2.714 -0.5879  0.0013  0.3256
 7393SOL    HW133812   1.836   3.374   2.708 -0.6274 -0.0782 -0.2838
 7393SOL    HW233813   1.710   3.376   2.624  0.8903  2.6222  0.0113
 7394SOL     OW33814   2.783   4.041   2.816  0.3792 -0.0596 -0.6321
 7394SOL    HW133815   2.751   4.051   2.726 -0.8176 -1.3702 -0.3664
 7394SOL    HW233816   2.876   4.024   2.803  0.2887 -0.6214 -0.5605
 7395SOL     OW33817   0.508   1.465   6.800  0.4806 -0.1420  0.2813
 7395SOL    HW133818   0.563   1.542   6.818 -2.0277  1.7187 -0.0106
 7395SOL    HW233819   0.556   1.418   6.732  1.8322 -0.2582  1.3123
 7396SOL     OW33820   1.651   2.097   2.302  0.1542  0.5269  0.3300
 7396SOL    HW133821   1.601   2.087   2.221 -0.5561 -2.0860  1.0857
 7396SOL    HW233822   1.623   2.035   2.370  2.6190  1.6472  2.3658
 7397SOL     OW33823   3.477   0.929  17.439 -0.3437 -0.0331  0.2601
 7397SOL    HW133824   3.573   0.925  17.446 -0.3567 -0.0396  0.4499
 7397SOL    HW233825   3.455   0.864  17.506  2.5162 -0.1896  1.0625
 7398SOL     OW33826   3.586   3.405  14.945  0.2219  0.2513  0.4739
 7398SOL    HW133827   3.561   3.443  14.861 -0.3244  0.3195  0.6710
 7398SOL    HW233828   3.643   3.474  14.980 -0.2854 -0.0872  1.9707
 7399SOL     OW33829   2.731   2.260  10.623  0.0604 -0.1719  0.8471
 7399SOL    HW133830   2.688   2.232  10.704  1.1472 -1.1284  1.0853
 7399SOL    HW233831   2.658   2.310  10.586  0.9175  0.1945 -0.3347
 7400SOL     OW33832   3.910   3.841  14.349  0.7450  0.2238  0.5104
 7400SOL    HW133833   3.847   3.777  14.383  1.1458 -0.6661 -0.4044
 7400SOL    HW233834   3.993   3.800  14.372  0.1097  0.1777  2.7575
 7401SOL     OW33835   1.704   2.018  15.730 -0.1374  0.0105 -0.0556
 7401SOL    HW133836   1.694   1.943  15.671  2.4648 -0.7379  0.4796
 7401SOL    HW233837   1.728   1.980  15.814 -0.8582  0.8897  0.5555
 7402SOL     OW33838   4.643   1.293  11.931 -0.1889 -0.4094  0.2387
 7402SOL    HW133839   4.553   1.268  11.912 -0.5200  0.2734  0.8897
 7402SOL    HW233840   4.659   1.355  11.860 -0.3920 -0.7816 -0.1335
 7403SOL     OW33841   1.982   2.541  16.156  0.6672 -0.1879  0.0208
 7403SOL    HW133842   1.969   2.495  16.073 -0.6844 -0.6775  0.5035
 7403SOL    HW233843   2.011   2.460  16.199 -0.0291 -0.3943  0.1009
 7404SOL     OW33844   0.014   1.266  12.156  0.3656  0.3196 -0.0828
 7404SOL    HW133845   4.698   1.295  12.083  1.2516  1.6442 -0.2063
 7404SOL    HW233846   0.085   1.236  12.099 -1.3551 -2.4425 -0.8005
 7405SOL     OW33847   2.291   3.068   6.662 -0.6832  0.0472 -0.0089
 7405SOL    HW133848   2.304   3.107   6.575 -2.2083 -0.2107 -0.3459
 7405SOL    HW233849   2.361   3.004   6.663 -1.0146 -0.3931 -2.8529
 7406SOL     OW33850   0.497   2.225  10.736  0.1577  0.0174  0.1083
 7406SOL    HW133851   0.553   2.299  10.714 -0.5832  0.8862  1.2053
 7406SOL    HW233852   0.486   2.169  10.659 -1.0543 -2.8790  2.3818
 7407SOL     OW33853   3.573   3.538   2.579 -0.0869  0.3446  0.0093
 7407SOL    HW133854   3.608   3.618   2.617  1.4062  0.3090 -1.2814
 7407SOL    HW233855   3.626   3.465   2.611 -0.8886  0.5875  1.8748
 7408SOL     OW33856   4.138   3.546   4.163 -0.3729 -0.5346  0.0987
 7408SOL    HW133857   4.093   3.579   4.240  0.3558  0.6392  0.0195
 7408SOL    HW233858   4.147   3.629   4.117  1.1948 -1.2406 -0.8748
 7409SOL     OW33859   4.680   2.534   7.185 -0.3163 -0.2231 -0.0668
 7409SOL    HW133860   4.603   2.485   7.216  0.3341  0.5370  2.8127
 7409SOL    HW233861   0.010   2.497   7.241 -1.4097 -2.0593  0.0605
 7410SOL     OW33862   4.051   2.887  11.924  0.6053 -0.3585  0.5604
 7410SOL    HW133863   4.065   2.982  11.926 -1.1838 -0.0938  0.3532
 7410SOL    HW233864   4.021   2.860  12.010 -0.5275 -2.0470 -0.3834
 7411SOL     OW33865   4.736   2.849   7.902 -0.3525 -0.0330  0.1226
 7411SOL    HW133866   4.663   2.903   7.871 -0.6088  0.0830  0.9347
 7411SOL    HW233867   4.727   2.775   7.842  1.0616  1.0489 -1.4404
 7412SOL     OW33868   4.601   2.149   9.417 -0.3895 -0.1361 -0.2551
 7412SOL    HW133869   4.505   2.157   9.412 -0.4402 -1.8919 -2.0077
 7412SOL    HW233870   4.626   2.157   9.325  2.9569  0.6113  0.7141
 7413SOL     OW33871   0.315   1.289   0.256  0.3103  0.5268 -0.4825
 7413SOL    HW133872   0.295   1.283   0.350 -0.5213  2.2831 -0.5595
 7413SOL    HW233873   0.341   1.381   0.253 -2.5661  1.3484 -0.7139
 7414SOL     OW33874   3.094   1.542   1.886  0.0155 -0.0519 -0.7974
 7414SOL    HW133875   3.026   1.578   1.943  0.1923  1.2024 -1.3988
 7414SOL    HW233876   3.097   1.613   1.822 -2.5369  0.5901 -0.2134
 7415SOL     OW33877   3.669   2.716   6.039 -1.0010 -0.2815 -0.0633
 7415SOL    HW133878   3.698   2.655   6.107  0.3792  0.0173 -0.3664
 7415SOL    HW233879   3.615   2.774   6.091 -2.9300 -0.6431 -1.6686
 7416SOL     OW33880   4.640   3.601   4.160 -0.0717 -0.0739 -0.3173
 7416SOL    HW133881   4.569   3.540   4.181  0.0880 -0.2728 -0.3519
 7416SOL    HW233882   4.649   3.577   4.068  2.4289  0.8244 -0.3101
 7417SOL     OW33883   4.593   2.606   0.181 -0.0058 -0.1610 -0.4211
 7417SOL    HW133884   4.629   2.691   0.155 -2.6040  1.6633  1.9659
 7417SOL    HW233885   4.613   2.539   0.115 -1.3601  0.6883 -1.6991
 7418SOL     OW33886   3.690   3.162  16.704 -0.2238 -0.6044 -0.4139
 7418SOL    HW133887   3.634   3.088  16.728  0.7444 -0.8691  1.0277
 7418SOL    HW233888   3.630   3.233  16.682  0.7954  0.8461  1.5479
 7419SOL     OW33889   1.710   3.040  13.012  0.5806 -0.1118 -0.2691
 7419SOL    HW133890   1.628   2.991  13.001  0.7227 -0.6410  1.0271
 7419SOL    HW233891   1.679   3.125  12.979  1.1316 -1.0165 -3.0850
 7420SOL     OW33892   4.396   3.314   6.377  0.1151 -0.4346  0.4178
 7420SOL    HW133893   4.331   3.323   6.446 -1.8785 -0.7256 -1.4069
 7420SOL    HW233894   4.456   3.388   6.387 -2.1780  1.5468 -0.4205
 7421SOL     OW33895   2.845   3.847  11.952 -0.2304  0.4467 -0.1585
 7421SOL    HW133896   2.935   3.863  11.981 -0.7393  1.2357  0.9553
 7421SOL    HW233897   2.828   3.757  11.982  2.8979 -0.5408 -1.3012
 7422SOL     OW33898   1.763   0.694   1.669  0.0518  0.4271 -0.8648
 7422SOL    HW133899   1.726   0.606   1.665 -0.0611  0.4050  0.5227
 7422SOL    HW233900   1.730   0.728   1.752 -0.0451  0.0000 -0.7288
 7423SOL     OW33901   3.781   4.556   1.459  0.4424  0.1157 -0.3533
 7423SOL    HW133902   3.832   4.637   1.455 -2.2080  1.8469  0.8745
 7423SOL    HW233903   3.823   4.521   1.381  1.8537 -1.2436  1.0044
 7424SOL     OW33904   0.517   0.986  12.899  0.1645  0.5392 -0.2420
 7424SOL    HW133905   0.462   0.915  12.865  3.5252 -0.7253 -2.9997
 7424SOL    HW233906   0.576   0.995  12.824  0.8942 -1.7871  0.0558
 7425SOL     OW33907   3.589   4.301  11.880 -0.0250 -0.0361 -0.4162
 7425SOL    HW133908   3.580   4.388  11.917 -1.2434 -0.2611 -0.1637
 7425SOL    HW233909   3.684   4.289  11.881  0.0702  0.7750  0.2988
 7426SOL     OW33910   1.706   0.831   6.815 -0.3650  0.0515 -0.3252
 7426SOL    HW133911   1.769   0.899   6.792  1.8902 -0.9327  2.9152
 7426SOL    HW233912   1.639   0.882   6.861  0.5869  0.8544  0.1734
 7427SOL     OW33913   3.045   4.192   3.231 -0.1976  0.0957  0.2159
 7427SOL    HW133914   2.990   4.173   3.156 -3.0056  0.5735  2.1543
 7427SOL    HW233915   3.087   4.107   3.227 -0.3094  0.0848 -0.7216
 7428SOL     OW33916   2.593   3.383   6.135 -0.0138 -0.0504  0.7117
 7428SOL    HW133917   2.597   3.330   6.055  0.1840  1.7870 -0.4936
 7428SOL    HW233918   2.687   3.395   6.145  0.8665 -4.3052 -2.3997
 7429SOL     OW33919   1.270   2.452   8.342 -0.0788  0.2062 -0.2780
 7429SOL    HW133920   1.364   2.464   8.356 -0.4693  2.1150  0.7972
 7429SOL    HW233921   1.239   2.528   8.391 -2.6165  0.9840 -3.1566
 7430SOL     OW33922   0.513   2.147   2.558  0.2728  0.0890 -0.0319
 7430SOL    HW133923   0.571   2.096   2.500  1.6207  0.8685  0.6217
 7430SOL    HW233924   0.538   2.234   2.527 -0.4648  0.1684 -0.3899
 7431SOL     OW33925   2.771   1.816   6.980 -0.0219  0.1052  0.0160
 7431SOL    HW133926   2.745   1.822   6.888  1.4209 -1.7222 -0.5119
 7431SOL    HW233927   2.772   1.910   7.000  2.6552  0.4163 -1.5170
 7432SOL     OW33928   3.246   2.748   8.656  0.5978 -0.7465 -0.3149
 7432SOL    HW133929   3.318   2.688   8.636  0.6606  0.0254 -2.3735
 7432SOL    HW233930   3.224   2.726   8.747 -0.1514 -0.8221 -0.5208
 7433SOL     OW33931   2.052   3.442   6.576 -0.2040 -0.0305 -0.3791
 7433SOL    HW133932   2.058   3.538   6.572  1.4943 -0.2266 -2.4482
 7433SOL    HW233933   2.083   3.423   6.665  3.9081 -0.2395 -1.8471
 7434SOL     OW33934   2.162   3.877   0.090  0.1118 -0.1259  0.7910
 7434SOL    HW133935   2.131   3.968   0.099  1.1587  0.0908  2.1759
 7434SOL    HW233936   2.166   3.859   0.184  1.5193 -4.3297 -0.1124
 7435SOL     OW33937   1.075   4.627   3.029  0.5002  0.4293  0.1300
 7435SOL    HW133938   1.050   4.547   3.076 -0.1289  1.2724  1.2295
 7435SOL    HW233939   1.022   4.638   2.950 -0.8709  0.8674  1.1018
 7436SOL     OW33940   3.195   4.592   2.908  0.0159  0.5450 -0.4429
 7436SOL    HW133941   3.160   4.533   2.975  1.5779 -1.2968 -1.2580
 7436SOL    HW233942   3.261   4.533   2.872 -1.8553 -1.0243 -1.2993
 7437SOL     OW33943   3.701   2.298  11.793  0.2757  0.5608  0.1574
 7437SOL    HW133944   3.775   2.267  11.741 -1.1001 -1.8422 -0.3410
 7437SOL    HW233945   3.714   2.238  11.866  0.0974 -0.3366 -0.5452
 7438SOL     OW33946   3.490   3.914   6.484 -0.2551  0.3588  0.0207
 7438SOL    HW133947   3.545   3.855   6.535 -0.4161 -0.4589 -0.7574
 7438SOL    HW233948   3.497   3.992   6.540  0.8694 -1.1232  1.9685
 7439SOL     OW33949   1.237   1.268   1.232  0.6219 -0.3288 -0.9003
 7439SOL    HW133950   1.148   1.267   1.199  0.8148 -3.1343 -1.3487
 7439SOL    HW233951   1.269   1.353   1.202  0.2037 -0.8476 -2.7624
 7440SOL     OW33952   2.515   0.367   3.797  0.9528 -0.7002  0.4780
 7440SOL    HW133953   2.479   0.378   3.709  2.5568  1.5236  0.0857
 7440SOL    HW233954   2.594   0.323   3.766  0.2733 -1.9072  0.4558
 7441SOL     OW33955   1.585   2.970   7.454  0.4262  0.7386  0.4828
 7441SOL    HW133956   1.548   2.942   7.371  2.5162  0.3945 -0.3335
 7441SOL    HW233957   1.514   3.017   7.497  0.1131  0.8604 -0.1667
 7442SOL     OW33958   4.125   3.040   0.206 -0.0174  0.3917 -0.2496
 7442SOL    HW133959   4.063   2.968   0.221 -1.5677  1.2426 -2.5769
 7442SOL    HW233960   4.185   3.016   0.277 -0.2353 -1.3218 -0.6358
 7443SOL     OW33961   0.010   1.951   6.713  0.3073 -0.4377 -0.3711
 7443SOL    HW133962   4.734   1.965   6.619 -1.1774 -1.9425 -0.3689
 7443SOL    HW233963   0.033   1.858   6.717  1.4971 -0.2300 -2.3023
 7444SOL     OW33964   4.619   0.959   7.884  0.8820  0.7035 -0.0674
 7444SOL    HW133965   4.619   1.047   7.921 -0.6032  0.5965  0.1962
 7444SOL    HW233966   4.527   0.939   7.869  1.2926 -0.9400 -0.4505
 7445SOL     OW33967   1.793   0.176   1.048  0.4363 -0.0178  0.1319
 7445SOL    HW133968   1.780   0.157   1.140  1.0172 -1.0804 -0.0112
 7445SOL    HW233969   1.858   0.247   1.054  0.6071  0.1438 -3.7182
 7446SOL     OW33970   3.535   2.769   8.930  0.2781 -0.1824 -0.1233
 7446SOL    HW133971   3.562   2.718   9.006 -0.3748 -1.7457 -0.9342
 7446SOL    HW233972   3.443   2.744   8.918 -0.7401  3.2214  0.6302
 7447SOL     OW33973   3.051   3.400  16.682 -0.2364 -0.9692  0.5083
 7447SOL    HW133974   3.049   3.369  16.591 -0.5670 -0.5829  0.3860
 7447SOL    HW233975   3.116   3.471  16.687  0.5723 -1.8040  1.7976
 7448SOL     OW33976   0.127   2.639   4.928  0.4784 -1.1265 -0.8230
 7448SOL    HW133977   0.121   2.663   4.835  1.3690  1.7179 -0.1243
 7448SOL    HW233978   0.149   2.546   4.917  1.4422 -0.7586 -1.9953
 7449SOL     OW33979   2.417   3.565   7.022  0.0262 -0.0476  0.7571
 7449SOL    HW133980   2.494   3.599   6.977 -0.8209 -0.2443 -0.8447
 7449SOL    HW233981   2.399   3.476   6.990  0.8952  0.0424  0.0196
 7450SOL     OW33982   3.074   0.074   6.818 -0.1002  0.6452 -0.5658
 7450SOL    HW133983   2.988   0.114   6.821 -0.2426  0.2639  0.5733
 7450SOL    HW233984   3.117   0.115   6.893  1.2718  0.8625 -1.4735
 7451SOL     OW33985   2.504   2.711   3.500  0.8543 -0.0789 -0.7019
 7451SOL    HW133986   2.568   2.771   3.539  2.0038 -1.7868  0.0268
 7451SOL    HW233987   2.423   2.762   3.509  1.7011  0.8516  1.6073
 7452SOL     OW33988   3.136   1.811   5.530  0.1896  0.2140  0.1061
 7452SOL    HW133989   3.100   1.840   5.614 -2.0516  0.6790 -1.0188
 7452SOL    HW233990   3.109   1.885   5.474  2.1981  0.2406 -0.8382
 7453SOL     OW33991   0.594   1.403   8.256 -0.1724 -0.2910 -0.4785
 7453SOL    HW133992   0.542   1.420   8.178 -0.0275  1.1820 -0.2476
 7453SOL    HW233993   0.675   1.443   8.227 -1.3290  0.5964 -2.4983
 7454SOL     OW33994   4.534   2.708  17.657  0.1192  0.2390 -0.2987
 7454SOL    HW133995   4.448   2.700  17.700  0.3667 -2.9016 -0.4073
 7454SOL    HW233996   4.588   2.752  17.723 -0.3392 -0.8245  0.7841
 7455SOL     OW33997   1.806   3.661  12.993 -0.2408  0.5050  0.2267
 7455SOL    HW133998   1.782   3.750  13.018  3.6705  1.3868  0.8862
 7455SOL    HW233999   1.821   3.612  13.074 -1.2596  0.3400  0.3102
 7456SOL     OW34000   3.107   3.904   4.932 -0.5465  0.0930  0.1887
 7456SOL    HW134001   3.154   3.925   5.013 -2.9808  0.8094  1.4221
 7456SOL    HW234002   3.021   3.937   4.958 -1.4717 -1.7643 -0.5215
 7457SOL     OW34003   2.708   0.263   9.612  0.1416 -0.1300 -0.4809
 7457SOL    HW134004   2.796   0.300   9.618 -0.4110  0.8005  2.0209
 7457SOL    HW234005   2.709   0.242   9.519 -1.0973 -0.1643 -0.4900
 7458SOL     OW34006   0.302   3.604   3.490  0.1510  0.2652  0.2174
 7458SOL    HW134007   0.269   3.521   3.456  1.0556 -0.0006 -0.0090
 7458SOL    HW234008   0.224   3.647   3.527 -0.7973 -0.6750 -0.6888
 7459SOL     OW34009   3.106   2.205   1.118  0.5081  0.0684 -0.0254
 7459SOL    HW134010   3.140   2.246   1.039 -1.8607 -1.9407 -2.0814
 7459SOL    HW234011   3.037   2.149   1.083  0.4872 -0.3118  0.6237
 7460SOL     OW34012   2.011   0.400   1.722  0.1168 -0.7366 -0.1875
 7460SOL    HW134013   2.093   0.428   1.761  0.6181  0.4227 -2.0766
 7460SOL    HW234014   1.957   0.390   1.801  0.6312 -0.4747  0.1917
 7461SOL     OW34015   3.050   3.498   7.477 -0.1406  0.5679  0.2429
 7461SOL    HW134016   3.024   3.410   7.451  1.6010  0.7928 -2.2953
 7461SOL    HW234017   3.144   3.486   7.463 -0.3373  0.3314 -0.9040
 7462SOL     OW34018   2.539   1.103   6.101  0.5898  0.6748  0.1000
 7462SOL    HW134019   2.479   1.175   6.082  0.2922 -0.3308 -2.8453
 7462SOL    HW234020   2.509   1.057   6.023  0.2415  0.0079  0.6252
 7463SOL     OW34021   1.393   4.642   1.231  0.4462  0.4006  0.1271
 7463SOL    HW134022   1.351   4.678   1.153 -0.3066  0.4891  0.5754
 7463SOL    HW234023   1.320   4.600   1.278  0.6504 -1.1784 -0.9746
 7464SOL     OW34024   1.107   1.914   6.036 -0.0988  0.8583 -0.9905
 7464SOL    HW134025   1.151   1.988   6.078  0.8575  0.2803 -0.9821
 7464SOL    HW234026   1.063   1.950   5.959 -0.3608  3.6656  0.4730
 7465SOL     OW34027   0.027   4.725   9.159  0.2782  0.0161  0.1556
 7465SOL    HW134028   0.020   0.082   9.159 -1.5936 -0.1237 -0.8770
 7465SOL    HW234029   0.120   4.713   9.177  0.3129  0.1650  0.0747
 7466SOL     OW34030   3.276   1.650   8.421 -0.1445  0.0448  0.0193
 7466SOL    HW134031   3.240   1.671   8.507  1.8729 -0.2791  0.9409
 7466SOL    HW234032   3.302   1.738   8.396 -1.0808  0.3964  0.2705
 7467SOL     OW34033   3.462   3.164   2.630  0.2699  0.4697  0.1966
 7467SOL    HW134034   3.402   3.150   2.557  0.2998  2.0058 -0.1191
 7467SOL    HW234035   3.410   3.119   2.697 -0.7235 -2.5253 -2.5901
 7468SOL     OW34036   3.559   3.910  17.551 -0.4517 -0.3119  0.2075
 7468SOL    HW134037   3.559   3.949  17.639  0.6304  1.7943 -0.7250
 7468SOL    HW234038   3.651   3.882  17.559 -0.2949  0.0846 -0.2224
 7469SOL     OW34039   2.330   4.600   7.107 -0.5378 -0.0004 -0.2119
 7469SOL    HW134040   2.330   4.634   7.197  1.0562  0.1116 -0.2443
 7469SOL    HW234041   2.425   4.590   7.096 -0.6685 -1.7363  0.2252
 7470SOL     OW34042   3.231   1.107  11.517  0.2363 -0.0381 -0.4262
 7470SOL    HW134043   3.198   1.185  11.472 -2.3130 -1.3581 -0.8698
 7470SOL    HW234044   3.227   1.118  11.612 -1.1287  0.7793 -0.5765
 7471SOL     OW34045   1.317   1.116   5.542  0.4782 -0.6020  0.3619
 7471SOL    HW134046   1.366   1.156   5.614  1.6565 -1.3492 -0.0290
 7471SOL    HW234047   1.315   1.198   5.493  0.3348 -2.1442 -2.1955
 7472SOL     OW34048   4.690   2.333   6.127  0.1207 -0.3655 -0.3705
 7472SOL    HW134049   4.710   2.246   6.092  0.1907  0.2966 -2.0041
 7472SOL    HW234050   0.018   2.349   6.193  0.4340 -0.0779 -0.7565
 7473SOL     OW34051   3.987   3.300   4.340  0.2452 -0.0024 -0.4557
 7473SOL    HW134052   3.949   3.376   4.384  1.2863  0.6428 -0.6726
 7473SOL    HW234053   3.929   3.232   4.372  1.4051 -1.9817 -2.5905
 7474SOL     OW34054   3.345   1.890   8.534  0.1660 -0.1945  0.1123
 7474SOL    HW134055   3.285   1.847   8.595  2.4695 -1.3000  1.6052
 7474SOL    HW234056   3.425   1.839   8.549  0.1879 -0.2574 -0.2160
 7475SOL     OW34057   0.731   0.881   1.050 -0.3753 -0.2260  0.2426
 7475SOL    HW134058   0.747   0.952   0.988 -3.3456  0.2648  0.0133
 7475SOL    HW234059   0.803   0.823   1.026 -2.7235 -2.9862 -0.2250
 7476SOL     OW34060   4.599   1.167   0.788  0.0146 -0.0047  0.1382
 7476SOL    HW134061   4.575   1.121   0.708 -2.3666 -0.0734  0.8904
 7476SOL    HW234062   4.598   1.105   0.861 -0.3941 -3.2423 -2.6333
 7477SOL     OW34063   1.145   0.014   6.356  0.3241 -0.0054  0.2238
 7477SOL    HW134064   1.127   4.676   6.411  1.9804  0.0411  0.8351
 7477SOL    HW234065   1.062   0.027   6.311 -1.6535 -1.4517  3.4794
 7478SOL     OW34066   3.504   3.949   9.279 -0.2019 -0.1123 -0.2002
 7478SOL    HW134067   3.535   3.976   9.192 -0.4275 -0.9043 -0.5256
 7478SOL    HW234068   3.585   3.976   9.322  0.4632 -0.8332 -0.9820
 7479SOL     OW34069   4.506   2.566   3.277 -0.0525  0.2912 -0.8875
 7479SOL    HW134070   4.517   2.644   3.330  1.6361 -0.7065  0.2368
 7479SOL    HW234071   4.412   2.551   3.293  0.1323  0.5485  0.4447
 7480SOL     OW34072   0.788   4.623  15.465 -0.1051  0.8429 -0.1341
 7480SOL    HW134073   0.709   4.676  15.454  0.7222  2.5767  2.1941
 7480SOL    HW234074   0.753   4.551  15.518 -0.2948  1.7958  1.0318
 7481SOL     OW34075   3.905   0.653  11.622  0.3615 -0.7777  0.0463
 7481SOL    HW134076   3.868   0.724  11.570 -1.2824 -2.5957 -1.2862
 7481SOL    HW234077   3.987   0.695  11.646 -0.5741  0.8816  0.3054
 7482SOL     OW34078   3.166   1.023   8.619  0.0293  0.5970 -0.7109
 7482SOL    HW134079   3.104   1.049   8.687  0.7920  0.6002 -0.0227
 7482SOL    HW234080   3.232   0.970   8.664 -0.3575  0.8740  0.1736
 7483SOL     OW34081   2.857   3.954   6.270  0.2484 -0.3123  0.3772
 7483SOL    HW134082   2.863   4.019   6.340 -2.2208  1.0627 -0.7121
 7483SOL    HW234083   2.915   3.991   6.203 -1.1246  1.3150  0.0965
 7484SOL     OW34084   1.607   2.388   2.996 -0.3555  0.1518  0.4946
 7484SOL    HW134085   1.587   2.302   3.032  2.5377  0.8347  3.6668
 7484SOL    HW234086   1.590   2.370   2.903 -2.6941  0.5628  0.8326
 7485SOL     OW34087   4.616   2.436  14.912  0.0908  0.5591 -0.0397
 7485SOL    HW134088   4.686   2.379  14.882  0.8049 -0.6529  3.9699
 7485SOL    HW234089   4.669   2.471  14.984 -1.6908 -1.2408  2.1546
 7486SOL     OW34090   0.230   1.875   6.081 -0.3676  0.4345  0.2384
 7486SOL    HW134091   0.231   1.866   5.986 -0.0473  3.0905 -0.0066
 7486SOL    HW234092   0.294   1.944   6.099  2.8022 -2.6506  0.6861
 7487SOL     OW34093   0.093   0.369   9.678 -0.7252 -0.3232 -0.7429
 7487SOL    HW134094   0.103   0.344   9.770 -1.3982  1.6954 -0.1322
 7487SOL    HW234095   0.049   0.452   9.695  0.0742  0.2925 -1.6761
 7488SOL     OW34096   3.741   1.971  17.493  0.2091 -0.0100  0.3489
 7488SOL    HW134097   3.803   1.945  17.425  0.1211 -0.1177  0.3105
 7488SOL    HW234098   3.663   1.980  17.439  1.0188  1.7842 -0.5424
 7489SOL     OW34099   3.716   0.348   7.759  0.8132 -0.3461  0.5167
 7489SOL    HW134100   3.691   0.257   7.777  1.0463 -0.0040  2.5920
 7489SOL    HW234101   3.806   0.348   7.725  1.4376  0.2293  2.1351
 7490SOL     OW34102   2.769   2.124   1.366  0.5477 -0.3798  0.3818
 7490SOL    HW134103   2.726   2.159   1.288  2.6330  0.3791 -0.4262
 7490SOL    HW234104   2.776   2.199   1.425  0.5042 -0.3438  0.3410
 7491SOL     OW34105   4.214   3.683   1.777 -0.1039 -0.4450 -0.0129
 7491SOL    HW134106   4.301   3.704   1.813  0.5213 -3.0812 -0.0197
 7491SOL    HW234107   4.238   3.628   1.703  0.0080  1.5245 -1.4212
 7492SOL     OW34108   3.628   3.402   6.847 -0.2102  0.7603  0.6987
 7492SOL    HW134109   3.658   3.364   6.764 -2.1825  0.1614  0.2635
 7492SOL    HW234110   3.678   3.484   6.844 -1.4402  1.4756  0.0172
 7493SOL     OW34111   4.717   0.132   3.004 -0.2428 -0.0571 -0.4342
 7493SOL    HW134112   4.634   0.087   3.015  0.4484 -1.3452 -0.4398
 7493SOL    HW234113   4.732   0.098   2.915 -0.9133  0.0148 -0.5715
 7494SOL     OW34114   2.787   1.159   2.271 -0.0058 -0.6959  0.0215
 7494SOL    HW134115   2.706   1.143   2.320 -1.5710 -0.4178 -2.4266
 7494SOL    HW234116   2.799   1.075   2.227  1.1822 -0.1513 -0.6926
 7495SOL     OW34117   0.242   1.591   7.892  0.0981  0.8303  0.3342
 7495SOL    HW134118   0.261   1.523   7.827 -1.1663  1.6374 -0.8903
 7495SOL    HW234119   0.147   1.594   7.896  0.1580  1.6180  1.1324
 7496SOL     OW34120   3.081   2.829   2.679 -0.5318  0.2564 -0.3837
 7496SOL    HW134121   3.095   2.792   2.766  0.7449  0.5209 -0.4806
 7496SOL    HW234122   3.024   2.902   2.702  0.4182 -0.0623  3.0042
 7497SOL     OW34123   3.965   2.821   0.168 -0.4152  0.2687 -0.1703
 7497SOL    HW134124   3.932   2.786   0.251 -0.3749  0.1381 -0.2095
 7497SOL    HW234125   3.893   2.789   0.114 -0.9347 -0.5780  1.0270
 7498SOL     OW34126   2.038   3.721  16.277  0.5775  0.3043  0.1171
 7498SOL    HW134127   2.078   3.807  16.268  0.5870 -0.0844 -3.4789
 7498SOL    HW234128   2.045   3.704  16.371 -1.6561  2.6456  0.7078
 7499SOL     OW34129   1.953   3.698  17.496 -0.4321  0.0936 -0.1306
 7499SOL    HW134130   1.898   3.770  17.530 -0.9868 -0.7919  0.8735
 7499SOL    HW234131   2.043   3.727  17.487 -0.5171  1.1785  2.4044
 7500SOL     OW34132   0.326   0.169   8.877  0.2329 -0.5379 -0.3924
 7500SOL    HW134133   0.372   0.191   8.958  2.2363  0.1017 -1.7334
 7500SOL    HW234134   0.279   0.250   8.859  0.0046 -0.2587  1.3921
 7501SOL     OW34135   3.251   2.248   9.231 -0.0027 -0.0345 -0.1473
 7501SOL    HW134136   3.320   2.189   9.201 -0.4401  0.6787 -2.5317
 7501SOL    HW234137   3.206   2.189   9.293 -1.4352  0.8329 -0.3510
 7502SOL     OW34138   2.824   1.415   3.298 -0.3657 -0.5354  0.5803
 7502SOL    HW134139   2.869   1.498   3.279 -1.4627 -0.8223 -3.3411
 7502SOL    HW234140   2.828   1.375   3.211 -0.7110  0.9970 -0.1445
 7503SOL     OW34141   1.446   2.748   6.585  0.2882 -0.1855 -0.2558
 7503SOL    HW134142   1.446   2.829   6.636 -2.7319 -0.2392 -0.1730
 7503SOL    HW234143   1.355   2.728   6.562  0.9718 -2.4189 -1.0220
 7504SOL     OW34144   1.787   3.577  14.741  0.4332  0.2120 -0.1983
 7504SOL    HW134145   1.825   3.490  14.753  2.4192  1.1328  0.2028
 7504SOL    HW234146   1.870   3.623  14.726 -0.3202  2.4943  2.6058
 7505SOL     OW34147   1.120   3.681   8.521 -0.5725 -0.3206 -0.6855
 7505SOL    HW134148   1.129   3.712   8.611 -2.8187  2.1281 -1.2837
 7505SOL    HW234149   1.030   3.657   8.502 -1.0319  0.5109  0.4403
 7506SOL     OW34150   3.110   4.016   7.446 -0.2354 -0.5187  0.1255
 7506SOL    HW134151   3.137   3.950   7.509 -1.1970 -0.4103  0.6517
 7506SOL    HW234152   3.055   4.081   7.489  1.8824  0.0534  1.9528
 7507SOL     OW34153   4.433   3.087   6.520 -0.3628 -0.3950  0.3436
 7507SOL    HW134154   4.452   3.147   6.448  2.4162  0.0536  1.4243
 7507SOL    HW234155   4.393   3.155   6.575  0.2138  0.0752  0.1902
 7508SOL     OW34156   4.297   3.441   5.693 -0.6625  0.5293  0.5141
 7508SOL    HW134157   4.260   3.486   5.769 -2.4679 -1.1945  0.6409
 7508SOL    HW234158   4.388   3.466   5.706  0.0633 -1.3616 -0.9656
 7509SOL     OW34159   2.659   1.325  15.254  0.7263  0.0626 -0.2762
 7509SOL    HW134160   2.713   1.247  15.269  0.8614  0.3008  0.4988
 7509SOL    HW234161   2.669   1.365  15.341  0.7228  0.3396 -0.4041
 7510SOL     OW34162   4.114   0.333   1.650  0.1520 -0.0760 -0.1775
 7510SOL    HW134163   4.171   0.383   1.593  0.3957  0.0424  0.1670
 7510SOL    HW234164   4.167   0.331   1.730 -0.0595 -0.2275 -0.0390
 7511SOL     OW34165   3.950   3.256   5.657  0.3001 -0.0976 -0.4580
 7511SOL    HW134166   3.916   3.254   5.568 -1.1305  0.2436  0.0883
 7511SOL    HW234167   4.021   3.192   5.654 -2.6103 -3.3670  0.2509
 7512SOL     OW34168   0.688   0.816   6.303 -0.0313  0.3586  0.1484
 7512SOL    HW134169   0.706   0.755   6.375  0.2046 -1.5106 -1.4826
 7512SOL    HW234170   0.629   0.887   6.329  0.3280  1.8079 -3.0287
 7513SOL     OW34171   0.929   2.014   0.985  0.0684  0.2414 -0.6287
 7513SOL    HW134172   0.856   1.961   1.017  0.2876  1.1338  1.3782
 7513SOL    HW234173   0.943   1.980   0.897 -0.7597  1.3506 -1.1980
 7514SOL     OW34174   4.612   3.549  14.353  0.6301 -0.0719  0.1425
 7514SOL    HW134175   4.619   3.607  14.277  0.1278  0.5301  0.5553
 7514SOL    HW234176   4.706   3.534  14.368  0.4312 -0.6091  0.8363
 7515SOL     OW34177   1.292   4.662   7.036 -0.1146 -0.2865  0.1597
 7515SOL    HW134178   1.286   4.726   7.107  1.2952  1.8587 -1.6571
 7515SOL    HW234179   1.387   4.655   7.028 -0.0535  0.0768  0.6023
 7516SOL     OW34180   4.131   1.936   8.166 -0.0626  0.0071  0.0704
 7516SOL    HW134181   4.215   1.963   8.204  0.3468 -1.9231  0.5571
 7516SOL    HW234182   4.077   1.956   8.242 -2.4785 -0.1336 -1.6161
 7517SOL     OW34183   2.817   3.876   1.912  0.4848 -0.3653  0.2113
 7517SOL    HW134184   2.907   3.868   1.881  0.8803  1.0788  0.9903
 7517SOL    HW234185   2.797   3.968   1.892 -1.0676 -1.2681 -2.3156
 7518SOL     OW34186   0.968   1.348   2.571 -0.1902 -0.2649  0.3575
 7518SOL    HW134187   1.034   1.417   2.582 -0.5521 -0.1550  1.8127
 7518SOL    HW234188   0.968   1.316   2.661 -0.7800 -2.5391 -0.4518
 7519SOL     OW34189   0.072   0.296   5.296 -0.5127  0.2096 -0.0156
 7519SOL    HW134190   0.047   0.367   5.355  1.3266 -0.3677  1.4628
 7519SOL    HW234191   0.027   0.326   5.218 -0.3022 -1.4973 -0.7955
 7520SOL     OW34192   3.388   1.753   9.728 -0.4906 -0.0700  0.1951
 7520SOL    HW134193   3.435   1.696   9.667 -0.4066  0.2202 -0.0142
 7520SOL    HW234194   3.418   1.717   9.812 -1.0953 -0.2897  0.3180
 7521SOL     OW34195   0.561   1.195  14.956 -0.0972  0.1191  0.6468
 7521SOL    HW134196   0.600   1.243  15.029 -0.8055  0.2047  0.9713
 7521SOL    HW234197   0.637   1.188  14.898 -1.7067  0.5757 -1.5124
 7522SOL     OW34198   0.318   2.002   7.327 -0.2275  0.5736  0.6782
 7522SOL    HW134199   0.325   2.060   7.403  0.6067 -1.8813  2.4733
 7522SOL    HW234200   0.411   2.006   7.303 -0.5462  0.9885 -0.5014
 7523SOL     OW34201   1.225   0.510   2.444 -0.1668  0.2123  0.0261
 7523SOL    HW134202   1.156   0.520   2.510  1.6033  0.7261  1.7693
 7523SOL    HW234203   1.285   0.446   2.483 -1.0034  0.5274  1.8173
 7524SOL     OW34204   1.975   2.517   4.484 -0.2048  0.3441 -0.0538
 7524SOL    HW134205   1.958   2.453   4.553 -0.1502  0.5914  0.1883
 7524SOL    HW234206   1.954   2.603   4.520 -0.1948 -0.5096  1.9725
 7525SOL     OW34207   0.199   1.135   1.298  0.5912 -0.5633  0.1735
 7525SOL    HW134208   0.219   1.048   1.265 -1.3755 -0.7472 -0.5591
 7525SOL    HW234209   0.104   1.121   1.304  0.3141  0.7040 -1.1030
 7526SOL     OW34210   1.941   0.504   2.100 -0.2226 -0.3219  0.6104
 7526SOL    HW134211   1.903   0.421   2.129  0.0914 -0.8590 -0.5095
 7526SOL    HW234212   2.022   0.499   2.151 -0.2427  1.3854  0.8105
 7527SOL     OW34213   2.265   0.660   5.369  0.1409  0.5646 -0.3567
 7527SOL    HW134214   2.224   0.604   5.436 -2.7664  3.8184  0.5931
 7527SOL    HW234215   2.314   0.605   5.307 -1.4986 -0.6793 -0.5554
 7528SOL     OW34216   3.936   0.354   7.082 -0.5167 -0.1493 -0.3809
 7528SOL    HW134217   3.914   0.262   7.098  2.7617 -0.9227 -0.4534
 7528SOL    HW234218   3.991   0.387   7.153 -0.2307 -0.4135 -0.4831
 7529SOL     OW34219   0.980   2.147   3.431  0.1338 -0.0279  0.2904
 7529SOL    HW134220   1.061   2.199   3.434 -0.9306  1.7546 -2.2718
 7529SOL    HW234221   0.982   2.098   3.513 -2.5163  2.7532  2.0173
 7530SOL     OW34222   0.777   1.783   0.510  0.3149  0.0180 -0.4007
 7530SOL    HW134223   0.747   1.853   0.568  1.0330  0.7178 -0.8706
 7530SOL    HW234224   0.865   1.759   0.540  0.0317 -0.5552 -0.0137
 7531SOL     OW34225   1.842   1.757   8.731  0.6404  0.0431  0.3932
 7531SOL    HW134226   1.860   1.693   8.662  2.6143  0.2780  0.6815
 7531SOL    HW234227   1.761   1.800   8.702 -0.0549 -0.6231  1.3538
 7532SOL     OW34228   2.849   2.150  15.761 -0.4263 -0.3209  0.5072
 7532SOL    HW134229   2.838   2.071  15.814 -0.7900 -0.8026 -0.2969
 7532SOL    HW234230   2.916   2.120  15.700 -2.6805 -0.9723 -1.6426
 7533SOL     OW34231   4.013   3.839  13.105 -0.1818  0.0894 -0.0677
 7533SOL    HW134232   3.963   3.801  13.177  0.6661 -1.5135 -0.3218
 7533SOL    HW234233   3.966   3.922  13.096 -2.3986 -0.8769  2.5849
 7534SOL     OW34234   1.712   3.224  14.054  0.6334  0.6157 -0.0103
 7534SOL    HW134235   1.710   3.319  14.059  1.2990  0.7023 -1.3131
 7534SOL    HW234236   1.660   3.209  13.975 -1.2519  2.2704  0.9076
 7535SOL     OW34237   2.702   0.702   2.304  0.0209  0.5264 -0.6542
 7535SOL    HW134238   2.700   0.639   2.232 -1.8771  1.2716 -1.2326
 7535SOL    HW234239   2.732   0.648   2.377 -1.4504  2.2839  1.2245
 7536SOL     OW34240   3.691   1.292  15.175  0.1850 -0.4078  0.1530
 7536SOL    HW134241   3.645   1.314  15.093  0.1147 -0.2138  0.2437
 7536SOL    HW234242   3.636   1.323  15.246 -1.5262 -1.0301 -0.8862
 7537SOL     OW34243   0.119   2.999  12.338  0.1629  0.0047 -0.1260
 7537SOL    HW134244   0.161   2.936  12.280  0.4055  0.5485 -0.5437
 7537SOL    HW234245   0.138   3.078  12.288 -1.2747  0.0737 -0.5540
 7538SOL     OW34246   3.365   1.832   8.045 -0.3319 -0.0468  0.1089
 7538SOL    HW134247   3.447   1.865   8.007 -1.1289 -0.0527 -1.6201
 7538SOL    HW234248   3.305   1.907   8.053 -0.7385 -0.3309 -0.3240
 7539SOL     OW34249   3.606   4.104  13.322  0.1487 -0.4216 -0.4057
 7539SOL    HW134250   3.608   4.018  13.364 -0.5011 -0.0471  0.3960
 7539SOL    HW234251   3.565   4.151  13.395 -0.0575  2.1224 -2.1411
 7540SOL     OW34252   3.521   4.084   9.028  0.2705 -0.6194 -0.0721
 7540SOL    HW134253   3.610   4.066   9.000  0.4030 -0.4840  0.2671
 7540SOL    HW234254   3.515   4.178   9.041 -0.2310 -0.7432  0.6158
 7541SOL     OW34255   1.657   4.646   4.841  0.0487 -0.6188 -0.4463
 7541SOL    HW134256   1.702   4.639   4.757  0.9873  2.9042 -0.2546
 7541SOL    HW234257   1.654   0.002   4.853 -0.9052 -0.7160  0.0591
 7542SOL     OW34258   0.099   1.011   7.650  0.0741  0.1233 -0.5669
 7542SOL    HW134259   0.175   0.981   7.699  0.7116  0.4845 -1.3202
 7542SOL    HW234260   0.089   1.103   7.676 -1.4428 -0.1412 -0.2495
 7543SOL     OW34261   1.725   3.054   8.718 -0.3084 -0.0316  0.2262
 7543SOL    HW134262   1.657   3.090   8.774 -0.8727 -1.8281  0.7043
 7543SOL    HW234263   1.804   3.081   8.765  2.2362 -3.5216 -2.0426
 7544SOL     OW34264   3.641   1.586   3.844 -0.4696  0.1490 -0.3527
 7544SOL    HW134265   3.602   1.583   3.757 -0.9873 -2.2277 -0.0294
 7544SOL    HW234266   3.621   1.497   3.871 -0.2149 -0.2610 -1.5354
 7545SOL     OW34267   0.610   3.696   7.801  0.6328  0.4079  0.2840
 7545SOL    HW134268   0.614   3.744   7.883 -0.5030 -0.5277  0.8853
 7545SOL    HW234269   0.697   3.657   7.798 -0.1077 -1.3855  1.9939
 7546SOL     OW34270   0.845   4.054   1.923 -0.1833 -0.9504 -0.3847
 7546SOL    HW134271   0.896   4.077   2.001 -0.0034 -0.9949 -0.4877
 7546SOL    HW234272   0.759   4.067   1.963 -1.3680 -3.0612 -2.2557
 7547SOL     OW34273   1.447   2.220   9.349 -0.1552  0.1382 -0.4895
 7547SOL    HW134274   1.541   2.228   9.336  0.0948 -1.3520  0.4216
 7547SOL    HW234275   1.431   2.296   9.405 -0.2922 -0.7561  0.6814
 7548SOL     OW34276   1.231   1.490   1.001 -0.0646  0.1336 -0.1111
 7548SOL    HW134277   1.306   1.540   1.034  1.7574 -1.0034 -2.5419
 7548SOL    HW234278   1.163   1.551   1.028 -0.6726 -1.2132  1.3557
 7549SOL     OW34279   2.133   2.143   7.021  0.2134 -0.2689  0.1071
 7549SOL    HW134280   2.095   2.082   6.957  2.1773 -0.3541 -0.9746
 7549SOL    HW234281   2.134   2.094   7.103  1.5962 -1.4295 -0.5974
 7550SOL     OW34282   1.298   2.809  17.184  0.5249  0.6476 -0.1783
 7550SOL    HW134283   1.377   2.816  17.131  0.2674  2.5412 -0.3073
 7550SOL    HW234284   1.237   2.863  17.135 -1.3770 -1.4616 -0.1397
 7551SOL     OW34285   1.832   4.404   9.181 -0.3748  0.1625 -0.2208
 7551SOL    HW134286   1.894   4.422   9.252 -3.0638  0.6297  1.9810
 7551SOL    HW234287   1.869   4.337   9.123  0.8047 -1.4471  2.4119
 7552SOL     OW34288   1.377   3.365   3.605 -0.0146  0.4813 -0.6728
 7552SOL    HW134289   1.407   3.305   3.674  0.5699 -1.2605 -2.4250
 7552SOL    HW234290   1.286   3.341   3.590  0.0665  0.2065 -0.7371
 7553SOL     OW34291   1.681   2.186   3.458  0.6088 -0.0853 -0.4138
 7553SOL    HW134292   1.670   2.166   3.550  3.4736 -0.9551 -0.2677
 7553SOL    HW234293   1.591   2.200   3.430  0.1870 -1.1439  0.4320
 7554SOL     OW34294   3.790   1.478   9.233  0.1002 -0.5324  0.2808
 7554SOL    HW134295   3.801   1.387   9.261 -1.0240 -0.6526  0.3033
 7554SOL    HW234296   3.786   1.460   9.139 -0.8458 -0.2897  0.2841
 7555SOL     OW34297   2.700   3.146   0.114 -0.1511  0.5728 -0.1285
 7555SOL    HW134298   2.712   3.053   0.096 -0.2024  1.1449 -3.1335
 7555SOL    HW234299   2.679   3.146   0.207 -0.6033  0.7587 -0.2329
 7556SOL     OW34300   0.918   1.713   4.219  0.2430 -0.2587 -0.7457
 7556SOL    HW134301   1.004   1.726   4.259 -0.2058 -0.2814  0.2281
 7556SOL    HW234302   0.905   1.622   4.243  1.3344 -0.7191 -1.9030
 7557SOL     OW34303   1.263   0.828   8.638  0.0240 -0.3847 -0.2123
 7557SOL    HW134304   1.322   0.861   8.571  2.0587 -1.4160  1.0589
 7557SOL    HW234305   1.328   0.831   8.709  0.1181 -0.8777 -0.2746
 7558SOL     OW34306   1.330   1.430   1.791  0.3949 -0.1462 -0.3236
 7558SOL    HW134307   1.341   1.335   1.790  1.6223 -0.0146  0.6406
 7558SOL    HW234308   1.418   1.461   1.813  0.1536  1.0452 -1.0390
 7559SOL     OW34309   0.355   4.411  11.486 -0.3181  0.2619  0.2614
 7559SOL    HW134310   0.374   4.425  11.578  1.9948 -1.3097  0.0403
 7559SOL    HW234311   0.340   4.503  11.466  0.0703  0.2109 -0.3038
 7560SOL     OW34312   2.033   0.174   8.887  0.5341 -0.1612 -0.2152
 7560SOL    HW134313   1.977   0.096   8.891 -0.2777  0.4031 -0.5692
 7560SOL    HW234314   2.026   0.203   8.978  0.4870  0.2991 -0.3664
 7561SOL     OW34315   0.344   2.716   9.512 -0.6001 -0.1013 -1.2427
 7561SOL    HW134316   0.292   2.728   9.591  0.1775  1.3699 -0.9520
 7561SOL    HW234317   0.296   2.644   9.470  0.8259 -1.1235 -1.1344
 7562SOL     OW34318   4.016   2.248   7.751 -0.3468  0.1302 -0.1212
 7562SOL    HW134319   3.986   2.284   7.667  0.4435 -0.4481 -0.6641
 7562SOL    HW234320   4.060   2.174   7.709 -0.5424 -0.3995  0.6101
 7563SOL     OW34321   4.632   3.471   7.732 -0.0962  0.5043  0.0224
 7563SOL    HW134322   4.615   3.384   7.768  0.5912 -0.0614 -1.0186
 7563SOL    HW234323   4.539   3.492   7.735 -0.2945 -0.4078  0.4446
 7564SOL     OW34324   4.296   0.286   7.545 -0.4130  1.1800 -0.1219
 7564SOL    HW134325   4.360   0.265   7.613  0.9892 -1.0379 -2.1164
 7564SOL    HW234326   4.306   0.210   7.488  2.0761  0.5480  1.1606
 7565SOL     OW34327   4.589   0.344   4.837 -0.2963  0.0684 -0.3707
 7565SOL    HW134328   4.660   0.294   4.797  0.5199  0.8924  0.0544
 7565SOL    HW234329   4.542   0.270   4.876 -0.2570  0.0919 -0.2782
 7566SOL     OW34330   1.488   2.187   5.288 -0.2183 -0.7867 -0.2185
 7566SOL    HW134331   1.449   2.106   5.318 -1.3007  1.1120  3.5414
 7566SOL    HW234332   1.521   2.222   5.370 -0.6685  1.1706 -0.8669
 7567SOL     OW34333   4.030   2.759   8.919  0.1175  0.4502  0.3993
 7567SOL    HW134334   4.091   2.832   8.930  1.2673 -0.7951  2.3161
 7567SOL    HW234335   4.085   2.697   8.871 -1.1331 -0.4023  0.0522
 7568SOL     OW34336   3.346   1.048   2.661  0.0757 -0.1083  0.6068
 7568SOL    HW134337   3.382   0.965   2.629 -0.9316 -0.6351  0.8238
 7568SOL    HW234338   3.353   1.104   2.584 -1.3906  0.1983  0.6842
 7569SOL     OW34339   3.239   2.738   4.635 -0.0164 -0.4457  0.1565
 7569SOL    HW134340   3.144   2.735   4.649 -0.1507  2.4312 -0.1329
 7569SOL    HW234341   3.268   2.772   4.719  2.1163 -1.0515 -0.3318
 7570SOL     OW34342   1.282   3.469   2.962  0.2379  0.0392 -0.1650
 7570SOL    HW134343   1.283   3.563   2.979 -0.9590 -0.1027  0.7062
 7570SOL    HW234344   1.322   3.454   2.877 -0.2844  0.6236 -0.5133
 7571SOL     OW34345   2.616   2.299   8.903  0.1709  0.5429 -0.6826
 7571SOL    HW134346   2.599   2.389   8.930 -0.3860  0.2218  0.0600
 7571SOL    HW234347   2.573   2.290   8.819 -0.1424  0.9523 -0.5678
 7572SOL     OW34348   3.769   1.850   9.707 -0.2058 -0.1986  0.0888
 7572SOL    HW134349   3.701   1.893   9.656 -1.5846 -1.9342  0.4659
 7572SOL    HW234350   3.822   1.929   9.721 -2.8279  1.6734 -0.5433
 7573SOL     OW34351   0.193   3.366   2.628  0.2658 -0.0517 -0.0926
 7573SOL    HW134352   0.206   3.318   2.710 -0.5933  1.4822  0.9493
 7573SOL    HW234353   0.205   3.457   2.653 -0.2289 -0.3899  1.3911
 7574SOL     OW34354   0.125   3.097   4.074  0.0734  0.1943  0.6245
 7574SOL    HW134355   0.133   3.097   3.978 -0.7023  0.1082  0.5544
 7574SOL    HW234356   0.041   3.055   4.091  0.0155  0.0437 -0.0132
 7575SOL     OW34357   2.671   2.101   9.071  0.2470  0.7721 -0.7011
 7575SOL    HW134358   2.660   2.176   9.013 -0.8282  2.0264  1.1273
 7575SOL    HW234359   2.666   2.136   9.160  1.4750  0.5482 -0.5451
 7576SOL     OW34360   2.971   3.397   1.401 -0.3360  0.9867 -0.1869
 7576SOL    HW134361   3.031   3.420   1.330  0.7637 -1.1016  0.0609
 7576SOL    HW234362   3.031   3.356   1.464 -1.7945 -0.5942  0.2016
 7577SOL     OW34363   1.995   1.836   5.177 -0.0869 -0.7189  0.1722
 7577SOL    HW134364   2.003   1.900   5.107  2.3134 -1.3604 -0.1465
 7577SOL    HW234365   1.927   1.780   5.139  0.6518 -2.1983  1.0445
 7578SOL     OW34366   2.771   1.789   8.630  0.1129 -0.2834 -0.0759
 7578SOL    HW134367   2.723   1.784   8.547  1.2822 -0.0283 -0.7663
 7578SOL    HW234368   2.750   1.702   8.664 -0.5928 -0.4386 -0.8936
 7579SOL     OW34369   2.209   3.182   3.200  0.2934 -1.1490  0.7574
 7579SOL    HW134370   2.244   3.266   3.232 -0.2109 -0.0793 -1.4911
 7579SOL    HW234371   2.258   3.125   3.258  1.9427  0.5522  1.0525
 7580SOL     OW34372   4.317   1.395  17.015  0.2879  0.1903  0.5934
 7580SOL    HW134373   4.257   1.404  16.941 -0.5453  0.7027  1.3517
 7580SOL    HW234374   4.269   1.434  17.088  0.8012 -1.9566  2.0719
 7581SOL     OW34375   3.786   4.033  12.405  0.1467 -0.0640  0.3538
 7581SOL    HW134376   3.822   3.960  12.453  0.2846 -0.0150  0.3241
 7581SOL    HW234377   3.783   4.106  12.467 -1.8634  0.0559  0.1287
 7582SOL     OW34378   0.752   0.704   6.531 -0.5179 -0.0031 -0.4737
 7582SOL    HW134379   0.825   0.645   6.512  0.4303  1.5687 -1.6320
 7582SOL    HW234380   0.703   0.664   6.603 -2.2026  1.7438 -0.6421
 7583SOL     OW34381   0.962   4.262  11.814 -0.5216  0.0352 -0.1142
 7583SOL    HW134382   1.055   4.243  11.829 -0.4239  0.2574 -0.4386
 7583SOL    HW234383   0.963   4.357  11.817 -1.3531 -0.0090  1.3560
 7584SOL     OW34384   4.607   1.545   6.622  0.3515 -0.3384  0.3055
 7584SOL    HW134385   4.595   1.454   6.595  0.9478 -0.4534  0.4242
 7584SOL    HW234386   4.612   1.544   6.717  1.4305  0.2988  0.2531
 7585SOL     OW34387   3.704   0.612   7.243 -0.5541 -0.1368  0.0323
 7585SOL    HW134388   3.610   0.602   7.229 -0.2790  0.4813 -2.2213
 7585SOL    HW234389   3.711   0.687   7.303 -1.3717 -1.1226  1.3626
 7586SOL     OW34390   0.649   2.644   1.624  0.1342 -0.0451  0.5249
 7586SOL    HW134391   0.570   2.691   1.649  0.7125  0.7643  0.8111
 7586SOL    HW234392   0.716   2.712   1.620 -0.4178  0.6390  2.8806
 7587SOL     OW34393   0.935   4.296   7.068 -0.0533 -0.5208 -0.2979
 7587SOL    HW134394   0.868   4.351   7.027 -1.8808 -1.2769  1.6865
 7587SOL    HW234395   1.002   4.332   7.009 -0.8294  1.0367 -0.2340
 7588SOL     OW34396   1.489   1.715   7.448 -0.5175 -0.0755  0.0090
 7588SOL    HW134397   1.450   1.800   7.428 -0.5211 -0.2445 -0.6941
 7588SOL    HW234398   1.545   1.691   7.374 -1.8614  0.7670 -1.2641
 7589SOL     OW34399   2.945   3.775   1.448  0.1279 -0.0059  0.0684
 7589SOL    HW134400   3.031   3.817   1.451 -0.6812  1.4890  1.9719
 7589SOL    HW234401   2.901   3.858   1.428  0.8272  0.1709 -0.7546
 7590SOL     OW34402   2.521   1.242   7.162  0.3234  0.2350  0.2485
 7590SOL    HW134403   2.536   1.298   7.085 -2.3832  0.6387  0.0274
 7590SOL    HW234404   2.578   1.166   7.156 -0.1062 -0.1529  1.2458
 7591SOL     OW34405   1.263   0.853   0.061 -0.1001 -0.1330 -0.3537
 7591SOL    HW134406   1.261   0.775   0.116 -0.4168  0.4574  0.4602
 7591SOL    HW234407   1.354   0.843   0.033 -0.3991  2.0100 -2.0913
 7592SOL     OW34408   4.170   4.055   4.395  0.4390  0.1233  0.0949
 7592SOL    HW134409   4.113   4.098   4.458 -0.1639 -0.6163  0.0641
 7592SOL    HW234410   4.250   4.056   4.446 -0.5200  0.4343  1.5932
 7593SOL     OW34411   2.234   4.696   1.390 -0.5450 -0.3830 -0.0244
 7593SOL    HW134412   2.296   4.639   1.435  0.8344  1.9703  1.0371
 7593SOL    HW234413   2.203   0.006   1.466  0.8260 -1.2202  1.0739
 7594SOL     OW34414   4.590   2.865   6.471 -0.2538  0.3235  0.4376
 7594SOL    HW134415   4.540   2.784   6.478 -0.7377  0.3218 -3.6051
 7594SOL    HW234416   4.520   2.929   6.485  1.4475  2.6366 -1.6219
 7595SOL     OW34417   4.348   0.455   0.383  0.3744 -0.4494 -0.1851
 7595SOL    HW134418   4.444   0.450   0.379  0.3522 -0.0165 -1.3489
 7595SOL    HW234419   4.342   0.523   0.450 -0.1844 -1.2158  0.5387
 7596SOL     OW34420   3.074   4.044   4.252 -0.5637 -0.0260  0.4568
 7596SOL    HW134421   3.004   3.989   4.287  0.0809 -1.0450  0.1469
 7596SOL    HW234422   3.047   4.132   4.277 -2.1047 -0.3350 -0.0941
 7597SOL     OW34423   1.752   3.542   1.609  0.1570 -0.0685 -0.3067
 7597SOL    HW134424   1.708   3.625   1.590 -1.3523 -1.3819 -2.7116
 7597SOL    HW234425   1.757   3.502   1.522 -0.9178 -0.7203 -0.0787
 7598SOL     OW34426   2.282   2.870   3.602 -0.2000 -0.3293  0.0999
 7598SOL    HW134427   2.192   2.883   3.630  0.5397  0.1121  2.2433
 7598SOL    HW234428   2.339   2.862   3.678 -1.1331  0.5332  0.8823
 7599SOL     OW34429   2.715   4.689   8.631  0.3883  0.3920 -0.0297
 7599SOL    HW134430   2.807   4.661   8.636  1.0640  2.6911  0.4096
 7599SOL    HW234431   2.717   4.716   8.539 -3.3119 -1.7847 -0.7367
 7600SOL     OW34432   2.046   2.089   8.913  0.1162  0.3127 -0.5068
 7600SOL    HW134433   2.113   2.021   8.903 -0.6695 -0.4639 -0.4485
 7600SOL    HW234434   2.095   2.170   8.896  1.7395 -0.5620  0.0071
 7601SOL     OW34435   4.424   2.763  14.275  0.3234  0.3862 -0.3264
 7601SOL    HW134436   4.366   2.803  14.339  1.0786  2.2663 -0.8342
 7601SOL    HW234437   4.442   2.685  14.328 -1.0638  0.8485  0.8455
 7602SOL     OW34438   0.609   3.079  10.543  0.1235 -0.1127  0.5584
 7602SOL    HW134439   0.547   3.085  10.470  1.0490 -3.5916 -0.5454
 7602SOL    HW234440   0.690   3.073  10.493 -0.0857  2.0497  0.0057
 7603SOL     OW34441   0.001   3.237   4.433 -0.2027 -0.3154 -0.2079
 7603SOL    HW134442   4.667   3.175   4.431  0.4426 -1.0634 -0.5499
 7603SOL    HW234443   0.005   3.260   4.340  4.8418 -1.0764 -0.1795
 7604SOL     OW34444   1.428   0.584  13.262  0.2245  0.4439 -0.1082
 7604SOL    HW134445   1.490   0.599  13.333  0.6030 -2.6927  0.2087
 7604SOL    HW234446   1.407   0.676  13.243  2.0116  0.5206 -1.6611
 7605SOL     OW34447   1.167   0.037   3.759 -0.4577  0.1249  0.1381
 7605SOL    HW134448   1.165   0.091   3.838 -1.7741 -0.7354  0.6973
 7605SOL    HW234449   1.262   0.023   3.761 -0.7792 -2.0502  0.7098
 7606SOL     OW34450   0.016   2.447   5.418  0.0611  0.2866  0.3841
 7606SOL    HW134451   4.665   2.457   5.448  0.3155  3.8940 -0.1244
 7606SOL    HW234452   0.070   2.487   5.486 -0.9977 -1.7414  2.4381
 7607SOL     OW34453   2.090   1.256   2.498 -0.2244  1.0077 -0.3213
 7607SOL    HW134454   2.154   1.325   2.519  0.1532  0.8723 -1.0408
 7607SOL    HW234455   2.123   1.180   2.546  1.1317  1.5588 -0.3779
 7608SOL     OW34456   1.486   4.612  12.533  0.3286 -0.1885 -0.4314
 7608SOL    HW134457   1.423   4.613  12.604  0.1432  0.2651 -0.5997
 7608SOL    HW234458   1.505   4.706  12.524  3.0414 -1.0375 -3.4838
 7609SOL     OW34459   1.496   1.710  15.931 -0.2219 -0.3445  0.2687
 7609SOL    HW134460   1.448   1.717  16.014 -1.0312  0.9941 -0.3153
 7609SOL    HW234461   1.438   1.757  15.871  0.9315  1.6611  0.7253
 7610SOL     OW34462   2.383   3.891   6.863 -0.2011  0.3598 -0.3588
 7610SOL    HW134463   2.360   3.798   6.855  0.9959  0.0563 -0.2654
 7610SOL    HW234464   2.394   3.911   6.771 -1.0744  1.3845 -0.2383
 7611SOL     OW34465   2.666   0.233   7.706 -0.0410 -0.7288  0.0476
 7611SOL    HW134466   2.682   0.300   7.773  0.6183 -1.0908  0.2526
 7611SOL    HW234467   2.702   0.156   7.752 -0.2945 -0.4397  0.7317
 7612SOL     OW34468   2.427   1.976   9.058 -0.6133 -0.1132  0.4330
 7612SOL    HW134469   2.506   2.026   9.040 -2.0420  2.0680  0.1917
 7612SOL    HW234470   2.389   2.016   9.137 -1.3366 -1.7922  0.9436
 7613SOL     OW34471   3.685   2.397   7.563  0.2997 -0.1938 -0.3897
 7613SOL    HW134472   3.710   2.306   7.577  1.8089  0.4197  0.9599
 7613SOL    HW234473   3.767   2.433   7.599 -1.0310  1.8732  0.5764
 7614SOL     OW34474   2.429   0.015  17.362  0.2721 -0.4861  0.2172
 7614SOL    HW134475   2.352   0.059  17.397  0.7133  0.2592  0.2476
 7614SOL    HW234476   2.444   4.676  17.415  2.2183  0.4340  1.0228
 7615SOL     OW34477   4.175   2.216   8.294  0.0467 -0.4213 -0.3057
 7615SOL    HW134478   4.240   2.146   8.300 -0.2364 -0.5151  1.6860
 7615SOL    HW234479   4.223   2.293   8.324 -0.5416 -0.0418 -0.3494
 7616SOL     OW34480   2.439   4.222   5.550 -0.3720  0.8838 -0.0585
 7616SOL    HW134481   2.348   4.204   5.527 -0.7797 -0.5820  2.7330
 7616SOL    HW234482   2.442   4.197   5.642 -0.0383  1.2887  0.0434
 7617SOL     OW34483   4.403   2.342  15.884 -0.0930 -0.8211 -0.1837
 7617SOL    HW134484   4.312   2.324  15.863 -0.8384  0.9747  1.5129
 7617SOL    HW234485   4.408   2.340  15.980  0.7578  0.1902 -0.2044
 7618SOL     OW34486   4.104   2.104   2.906 -0.3582  0.3569  0.0114
 7618SOL    HW134487   4.081   2.122   2.997  1.5448 -1.2441  0.8264
 7618SOL    HW234488   4.073   2.182   2.860  0.7692  0.0526 -1.2905
 7619SOL     OW34489   4.329   2.409  17.403  0.2698 -0.0819 -0.0849
 7619SOL    HW134490   4.327   2.487  17.349 -0.7463 -0.1686 -0.1762
 7619SOL    HW234491   4.303   2.451  17.485 -0.9128  1.3618 -1.2092
 7620SOL     OW34492   0.232   2.235   8.204 -0.1592  0.1751 -0.0427
 7620SOL    HW134493   0.225   2.206   8.114  0.1766 -1.9008  0.6014
 7620SOL    HW234494   0.321   2.269   8.210 -0.4249  0.7826  0.5191
 7621SOL     OW34495   3.174   1.734   9.371  0.1114 -0.9136  0.1264
 7621SOL    HW134496   3.182   1.651   9.419  1.0567 -0.3867  0.8655
 7621SOL    HW234497   3.119   1.713   9.296 -0.7611  0.2009  0.4471
 7622SOL     OW34498   1.545   0.391   6.624 -0.4487  0.2646 -0.0259
 7622SOL    HW134499   1.548   0.479   6.585  0.9861  0.0498 -0.3872
 7622SOL    HW234500   1.541   0.412   6.717  2.0170  0.2909  0.0571
 7623SOL     OW34501   2.077   4.545   5.655  0.0440 -0.7003 -0.2525
 7623SOL    HW134502   2.078   4.580   5.566  1.1112 -1.9088 -0.7214
 7623SOL    HW234503   2.161   4.579   5.685  0.0205 -1.9609  1.2291
 7624SOL     OW34504   1.795   3.576   6.860  0.0971  0.3420 -0.4022
 7624SOL    HW134505   1.723   3.552   6.919 -0.3782 -1.2897 -1.6427
 7624SOL    HW234506   1.767   3.664   6.838  0.9044  1.8839  4.8366
 7625SOL     OW34507   4.473   3.509   1.791  0.0748  0.0127  0.6104
 7625SOL    HW134508   4.435   3.520   1.704  2.8613  1.4905 -0.4146
 7625SOL    HW234509   4.561   3.543   1.775  0.9826 -3.4623 -2.0621
 7626SOL     OW34510   1.333   2.985  17.587 -0.5234  0.4735 -0.0085
 7626SOL    HW134511   1.337   3.004  17.681 -1.5465  1.0032 -0.0696
 7626SOL    HW234512   1.420   3.016  17.562 -0.5425  1.8083  1.5840
 7627SOL     OW34513   2.105   2.414  16.948 -0.0292  0.2127  0.0748
 7627SOL    HW134514   2.035   2.384  17.006  0.1763 -2.2114 -0.9441
 7627SOL    HW234515   2.154   2.466  17.012 -1.1034 -0.6603  1.6031
 7628SOL     OW34516   2.571   4.453  13.095  0.2303 -0.4180 -0.0294
 7628SOL    HW134517   2.577   4.451  13.000 -0.8202 -1.8240 -0.0690
 7628SOL    HW234518   2.506   4.523  13.106  0.9776 -0.0490  2.0625
 7629SOL     OW34519   0.798   2.626   7.653 -0.1943  0.2310  0.1914
 7629SOL    HW134520   0.777   2.714   7.684  1.7245 -0.0875  2.3762
 7629SOL    HW234521   0.722   2.598   7.603  0.5959 -0.5726 -0.5573
 7630SOL     OW34522   2.580   1.527   6.218 -0.4546  0.2801 -0.1562
 7630SOL    HW134523   2.641   1.588   6.260  1.0166 -0.3723 -1.3132
 7630SOL    HW234524   2.645   1.461   6.191  1.4009  1.8720  0.4432
 7631SOL     OW34525   0.578   1.439   1.196 -0.0098 -0.0185 -0.7458
 7631SOL    HW134526   0.507   1.502   1.187  0.4430  0.5059 -0.6269
 7631SOL    HW234527   0.535   1.355   1.180  0.4903 -0.5332  0.5967
 7632SOL     OW34528   4.678   1.834   3.843 -0.0778  0.2668 -0.0306
 7632SOL    HW134529   4.697   1.831   3.937 -0.5472  1.9734  0.1244
 7632SOL    HW234530   4.630   1.752   3.834  0.9914 -0.4068  0.4758
 7633SOL     OW34531   0.577   4.689   5.752  0.5319  0.0650  0.1046
 7633SOL    HW134532   0.561   4.735   5.835  1.5880  0.9999 -0.2125
 7633SOL    HW234533   0.489   4.655   5.735  1.5503 -1.5658 -1.9100
 7634SOL     OW34534   3.441   3.766   6.804  0.3213 -0.1296 -0.3842
 7634SOL    HW134535   3.409   3.836   6.861 -0.0826  0.4931 -1.3736
 7634SOL    HW234536   3.361   3.758   6.751  0.5477  3.1088 -1.2246
 7635SOL     OW34537   0.450   4.630  11.176  0.1682 -0.4292 -0.3672
 7635SOL    HW134538   0.495   4.602  11.256 -0.8407 -1.1619 -0.0565
 7635SOL    HW234539   0.494   4.570  11.116 -1.2499 -2.8417  0.9797
 7636SOL     OW34540   4.549   0.317   8.791 -0.3806 -0.3560  0.3577
 7636SOL    HW134541   4.540   0.350   8.702  0.7612 -1.9997 -0.3699
 7636SOL    HW234542   4.521   0.227   8.772  0.8292 -0.5715 -0.4084
 7637SOL     OW34543   3.854   2.335   8.623 -0.2034  0.3195 -0.4724
 7637SOL    HW134544   3.844   2.240   8.622 -1.2800  0.4248  0.5732
 7637SOL    HW234545   3.801   2.345   8.544 -1.0535  3.7658  0.5110
 7638SOL     OW34546   3.945   1.572   7.282 -0.9891  0.4462  0.1286
 7638SOL    HW134547   4.031   1.615   7.289 -1.1747  0.9490 -0.7491
 7638SOL    HW234548   3.934   1.591   7.189  2.4391  1.1530 -0.1274
 7639SOL     OW34549   1.766   4.218   3.122  0.2346 -0.0458  0.0741
 7639SOL    HW134550   1.838   4.182   3.174 -0.1470  2.1684  2.1154
 7639SOL    HW234551   1.691   4.220   3.183  0.1436  2.3621 -0.1222
 7640SOL     OW34552   0.125   4.728   2.207  0.0952  1.1231 -0.4248
 7640SOL    HW134553   0.057   4.734   2.139 -1.1066  0.2097  0.6719
 7640SOL    HW234554   0.114   0.077   2.241 -1.3692  1.5254 -1.9279
 7641SOL     OW34555   1.882   1.824   1.878 -0.0543  0.0060  0.4789
 7641SOL    HW134556   1.934   1.809   1.957  1.1710  1.2316 -0.0821
 7641SOL    HW234557   1.822   1.750   1.881 -1.2678  0.8579 -2.1842
 7642SOL     OW34558   3.653   3.838   2.458  0.2979  0.1618  0.4035
 7642SOL    HW134559   3.625   3.834   2.549  1.3150  1.1653  0.7654
 7642SOL    HW234560   3.733   3.888   2.475  0.1873  0.3126  0.4860
 7643SOL     OW34561   3.723   4.622  15.916 -0.0937 -0.5530 -0.1778
 7643SOL    HW134562   3.631   4.607  15.894  0.0533 -0.7976 -0.6384
 7643SOL    HW234563   3.730   4.717  15.913 -1.9843 -0.3794  1.1355
 7644SOL     OW34564   4.161   3.984   3.744 -0.8009  0.5395  0.0297
 7644SOL    HW134565   4.095   3.991   3.675  0.2369 -1.5856 -1.1877
 7644SOL    HW234566   4.238   4.023   3.702  0.1468  1.1825  2.3595
 7645SOL     OW34567   2.749   1.793   9.414  0.1563  0.1930 -0.3905
 7645SOL    HW134568   2.744   1.874   9.465  0.8130  0.3594 -0.5891
 7645SOL    HW234569   2.713   1.730   9.476  0.5232 -0.2594 -0.6396
 7646SOL     OW34570   4.471   2.566   0.742  0.2235  0.2253 -0.1793
 7646SOL    HW134571   4.540   2.618   0.783  1.5995 -1.5201 -0.2721
 7646SOL    HW234572   4.527   2.506   0.693 -2.2050 -1.5216 -0.8487
 7647SOL     OW34573   2.195   4.440   6.753  0.4348 -0.2812 -0.6804
 7647SOL    HW134574   2.214   4.377   6.684 -1.9413  0.0300 -1.6068
 7647SOL    HW234575   2.273   4.445   6.809 -0.0514 -0.0837 -0.0228
 7648SOL     OW34576   0.432   3.412   8.101 -0.6554 -0.1428  0.1198
 7648SOL    HW134577   0.405   3.385   8.013 -0.2394  1.5863 -0.5338
 7648SOL    HW234578   0.360   3.458   8.142  0.0383 -1.2325  2.5517
 7649SOL     OW34579   3.382   4.599   7.661 -0.8972  0.9201 -0.0938
 7649SOL    HW134580   3.352   4.522   7.614  0.2085 -0.3370  1.2781
 7649SOL    HW234581   3.454   4.624   7.603 -1.0979  1.3064 -0.1803
 7650SOL     OW34582   4.487   2.575   5.417 -0.4268  0.3353  0.6203
 7650SOL    HW134583   4.468   2.567   5.511 -1.1799  0.0601  0.4424
 7650SOL    HW234584   4.444   2.658   5.394  0.5226  0.7341  0.2845
 7651SOL     OW34585   0.825   4.036   6.263 -0.0088 -0.1552 -0.0358
 7651SOL    HW134586   0.880   4.097   6.214  1.6454 -1.9867 -0.4705
 7651SOL    HW234587   0.873   4.017   6.344 -2.7176 -1.1490  1.3242
 7652SOL     OW34588   3.448   0.481   2.442  0.4046 -0.6026  0.2289
 7652SOL    HW134589   3.463   0.515   2.353  0.5259 -2.0805 -0.3122
 7652SOL    HW234590   3.516   0.532   2.486  1.4832 -1.8081 -0.0534
 7653SOL     OW34591   2.619   3.092   2.231  0.5793 -0.3589  0.2906
 7653SOL    HW134592   2.527   3.115   2.217  0.7242  0.6972  1.0607
 7653SOL    HW234593   2.659   3.179   2.234  1.7957 -0.9040 -0.2511
 7654SOL     OW34594   2.929   1.966  14.911  0.3973 -0.5725  0.4527
 7654SOL    HW134595   2.991   1.942  14.843 -1.3783 -0.3992 -1.2175
 7654SOL    HW234596   2.855   1.912  14.886  0.0323 -0.4198  1.1802
 7655SOL     OW34597   1.736   2.420   6.911  0.6413 -0.4601 -0.6572
 7655SOL    HW134598   1.709   2.331   6.937  0.6582 -0.3606 -0.2955
 7655SOL    HW234599   1.813   2.438   6.964  1.2528  1.8453 -2.3475
 7656SOL     OW34600   0.443   0.278  12.515 -0.3873 -0.5164  0.4487
 7656SOL    HW134601   0.403   0.365  12.518  1.8145  0.3835  3.1434
 7656SOL    HW234602   0.533   0.301  12.535 -1.1178  1.5548  1.3804
 7657SOL     OW34603   2.735   4.207   8.596  0.0340 -0.5728 -0.1583
 7657SOL    HW134604   2.761   4.286   8.642  1.3562 -1.5472  0.7540
 7657SOL    HW234605   2.815   4.162   8.569 -1.8984 -2.8731 -2.0415
 7658SOL     OW34606   2.384   0.139   4.242 -0.3885  0.3560  0.5462
 7658SOL    HW134607   2.378   0.203   4.171  3.3088 -0.2491 -0.3248
 7658SOL    HW234608   2.332   0.181   4.310  0.3299  1.9966  0.0735
 7659SOL     OW34609   1.130   3.412   4.735  0.6448  0.3031 -0.6657
 7659SOL    HW134610   1.167   3.414   4.646  0.2630  2.0432 -0.7955
 7659SOL    HW234611   1.035   3.407   4.726  0.1534  1.3274  4.3110
 7660SOL     OW34612   0.818   1.515   8.152 -0.2018 -0.3086  0.0520
 7660SOL    HW134613   0.824   1.524   8.057 -0.7237  0.1699  0.0637
 7660SOL    HW234614   0.854   1.599   8.179  1.5700 -1.3098  0.7911
 7661SOL     OW34615   1.644   0.256   0.350  0.1768  0.2450  0.4364
 7661SOL    HW134616   1.727   0.225   0.384  1.1210  1.3518 -0.8507
 7661SOL    HW234617   1.666   0.292   0.264  1.9624 -1.6975  0.0946
 7662SOL     OW34618   0.559   1.232  13.004 -0.4297 -0.9429  0.2226
 7662SOL    HW134619   0.549   1.148  12.960  0.1930 -1.1526  0.4738
 7662SOL    HW234620   0.639   1.261  12.961 -1.7546 -1.3860 -2.5248
 7663SOL     OW34621   4.693   0.962  15.084  0.6216 -0.6610 -0.6491
 7663SOL    HW134622   4.642   0.883  15.106  1.5174 -1.1229 -0.2414
 7663SOL    HW234623   0.046   0.939  15.070  0.9533 -0.2851  0.9168
 7664SOL     OW34624   4.619   0.873   8.226  0.7763 -0.6689  0.3714
 7664SOL    HW134625   4.695   0.929   8.239  0.7523 -0.2856 -1.2315
 7664SOL    HW234626   4.613   0.831   8.312  1.4294  0.5310  0.9979
 7665SOL     OW34627   2.974   3.251   7.665 -0.2198 -0.0920 -0.4590
 7665SOL    HW134628   2.901   3.190   7.651 -1.5394  1.3103  0.2516
 7665SOL    HW234629   2.933   3.337   7.650  1.8038  1.0581  0.7010
 7666SOL     OW34630   2.094   1.673  14.690 -0.4138 -0.3320 -0.3392
 7666SOL    HW134631   2.035   1.672  14.615 -1.3764  2.2392  0.3858
 7666SOL    HW234632   2.047   1.615  14.750 -0.2099 -1.4936 -1.3183
 7667SOL     OW34633   3.051   4.590   2.649 -0.5277  0.3164  0.5913
 7667SOL    HW134634   3.089   4.588   2.737  0.5813 -0.4540  0.0953
 7667SOL    HW234635   3.108   4.656   2.609  0.6147 -0.1359  1.4872
 7668SOL     OW34636   3.555   0.978  15.248  0.4843 -0.2086  0.3986
 7668SOL    HW134637   3.617   1.052  15.243 -2.1200  1.8983 -0.5379
 7668SOL    HW234638   3.507   0.995  15.166  2.1584  2.9109  0.0454
 7669SOL     OW34639   4.509   1.049   5.416 -0.1716 -0.1083  0.2809
 7669SOL    HW134640   4.592   1.037   5.371  0.2932  1.3672  0.7673
 7669SOL    HW234641   4.518   1.138   5.449 -1.9095  0.8289 -1.7647
 7670SOL     OW34642   3.155   0.597   9.347 -0.2389 -0.6366 -0.5212
 7670SOL    HW134643   3.215   0.553   9.407  1.1179  0.1665 -1.3096
 7670SOL    HW234644   3.156   0.686   9.383 -0.7243 -0.6499 -0.4713
 7671SOL     OW34645   2.221   4.056   9.990 -0.9537 -0.0638  0.4110
 7671SOL    HW134646   2.137   4.098   9.973 -0.9612  0.1721  1.0000
 7671SOL    HW234647   2.281   4.131   9.986  0.8056 -1.6229 -2.0926
 7672SOL     OW34648   0.655   1.627  14.163  0.0904 -0.0216  0.1234
 7672SOL    HW134649   0.707   1.556  14.125 -0.4369 -0.1817 -0.2931
 7672SOL    HW234650   0.722   1.684  14.202  0.1789 -0.2996  0.3738
 7673SOL     OW34651   3.676   0.077   1.737  0.2536  0.4439 -0.2687
 7673SOL    HW134652   3.585   0.055   1.760  0.1403 -0.3637 -1.5105
 7673SOL    HW234653   3.693   0.019   1.663  0.3442  0.4111 -0.2224
 7674SOL     OW34654   2.810   1.113   1.599 -0.5145 -0.1505 -0.1371
 7674SOL    HW134655   2.829   1.027   1.636  1.7592 -0.2382 -1.4975
 7674SOL    HW234656   2.895   1.156   1.603 -1.5409  1.9612 -0.6393
 7675SOL     OW34657   4.359   3.126   2.193 -0.0993  0.6956 -0.2858
 7675SOL    HW134658   4.342   3.069   2.118 -0.0676  0.9523 -0.4883
 7675SOL    HW234659   4.284   3.186   2.185 -0.2315  0.4239 -1.0244
 7676SOL     OW34660   2.122   3.551   5.662 -0.1792 -0.4332  0.5000
 7676SOL    HW134661   2.087   3.469   5.626 -0.1726  0.0907 -0.6715
 7676SOL    HW234662   2.197   3.582   5.612 -1.4568 -0.2068 -1.2660
 7677SOL     OW34663   4.351   0.565   6.819 -0.5064 -0.5431 -0.4821
 7677SOL    HW134664   4.273   0.520   6.854 -0.6163  0.9544  1.1724
 7677SOL    HW234665   4.321   0.653   6.796  2.4900  0.9346  1.2442
 7678SOL     OW34666   0.367   4.045   9.522  0.1359 -0.1746 -0.3921
 7678SOL    HW134667   0.439   3.998   9.564 -0.1667 -0.2538  0.0410
 7678SOL    HW234668   0.409   4.128   9.500  1.6407 -0.6085  0.8427
 7679SOL     OW34669   1.954   2.853   7.689 -0.2105  0.2307 -0.3332
 7679SOL    HW134670   1.932   2.891   7.774 -0.3055  0.6752 -0.5599
 7679SOL    HW234671   1.948   2.761   7.717 -3.9588  0.7080  0.4638
 7680SOL     OW34672   3.209   3.956  17.459 -0.1423 -0.3472  0.4650
 7680SOL    HW134673   3.298   3.920  17.461  0.7732  1.8383 -0.5762
 7680SOL    HW234674   3.226   4.049  17.472 -0.0908 -0.1660 -0.9594
 7681SOL     OW34675   2.312   0.884   6.897 -0.1423 -0.3048  0.4543
 7681SOL    HW134676   2.335   0.849   6.811 -2.6112  5.1956 -2.4441
 7681SOL    HW234677   2.243   0.821   6.921 -0.8654  1.3672  2.7664
 7682SOL     OW34678   1.527   1.930   0.001 -0.7625  0.5693 -0.0294
 7682SOL    HW134679   1.612   1.971   0.015 -1.5150  2.7291 -1.8879
 7682SOL    HW234680   1.482   2.001  17.708 -3.1548 -0.1421  1.2002
 7683SOL     OW34681   0.885   3.878   7.727 -0.0483 -0.6530  0.0754
 7683SOL    HW134682   0.891   3.787   7.756 -1.9342  0.3840  3.6092
 7683SOL    HW234683   0.904   3.926   7.807  1.8077  1.9514 -1.9295
 7684SOL     OW34684   4.342   3.418   2.826 -1.3266  0.0858  0.3920
 7684SOL    HW134685   4.424   3.381   2.857  0.4333  3.3899 -0.3707
 7684SOL    HW234686   4.366   3.509   2.841  0.8496 -0.1303 -1.7192
 7685SOL     OW34687   2.459   0.897  16.304 -0.4610  0.1315  0.0494
 7685SOL    HW134688   2.461   0.837  16.379  1.1519  2.4128  1.8684
 7685SOL    HW234689   2.418   0.857  16.228 -0.5360  0.8618 -0.2953
 7686SOL     OW34690   4.131   3.244   8.379  1.0444  0.0795 -0.0904
 7686SOL    HW134691   4.143   3.167   8.324 -1.7398 -0.0198 -0.5518
 7686SOL    HW234692   4.222   3.275   8.382  0.9370  0.6621 -2.4124
 7687SOL     OW34693   0.964   0.736   8.712  0.6040 -0.1572  0.2267
 7687SOL    HW134694   0.970   0.822   8.671 -0.3173  0.0228  0.4584
 7687SOL    HW234695   1.032   0.739   8.779  0.2795  0.4564  0.5285
 7688SOL     OW34696   2.948   4.480  15.736 -0.0350 -0.1398  0.2877
 7688SOL    HW134697   2.911   4.398  15.702 -0.4275  0.6297 -1.1346
 7688SOL    HW234698   2.949   4.528  15.654  0.9546  2.2741  1.7194
 7689SOL     OW34699   1.211   2.782  17.453 -0.6632  0.5446 -0.0330
 7689SOL    HW134700   1.241   2.868  17.483  1.3825 -1.0139  2.3609
 7689SOL    HW234701   1.237   2.794  17.361  2.1435 -1.8487  0.4609
 7690SOL     OW34702   3.736   2.912  12.922 -0.2674 -0.1767  0.2799
 7690SOL    HW134703   3.825   2.879  12.932 -0.5548 -0.7930  0.7510
 7690SOL    HW234704   3.761   3.003  12.934  2.4714 -1.0114  0.8903
 7691SOL     OW34705   2.053   4.452  11.718 -0.1618  0.6312  0.0181
 7691SOL    HW134706   1.965   4.444  11.756 -0.0391  0.1276  0.1954
 7691SOL    HW234707   2.101   4.375  11.749  1.7415  1.9035  0.1686
 7692SOL     OW34708   4.366   0.719  13.641 -0.3130 -0.0679 -0.3255
 7692SOL    HW134709   4.293   0.714  13.579 -0.8191 -0.1607  0.2737
 7692SOL    HW234710   4.323   0.710  13.727 -1.7072  0.9313 -0.9145
 7693SOL     OW34711   0.190   1.813  14.331  0.5695  0.1531 -0.6717
 7693SOL    HW134712   0.244   1.753  14.280 -0.9672 -0.1964 -1.8803
 7693SOL    HW234713   0.125   1.830  14.264  0.8008  2.3796 -0.3351
 7694SOL     OW34714   2.146   0.186  16.333  0.1084  0.3152  0.5525
 7694SOL    HW134715   2.122   0.124  16.401 -1.5275  1.2443  0.8242
 7694SOL    HW234716   2.113   0.143  16.254 -0.0971  0.3148  0.6396
 7695SOL     OW34717   3.438   1.674  16.757 -0.0806 -0.8664 -0.2329
 7695SOL    HW134718   3.422   1.761  16.795  2.7113 -0.1750 -0.6495
 7695SOL    HW234719   3.514   1.690  16.701 -0.6920 -0.2616 -0.9032
 7696SOL     OW34720   1.736   0.192   8.307 -0.3463  0.4126 -0.3399
 7696SOL    HW134721   1.762   0.250   8.235 -0.3586 -0.1328 -0.7931
 7696SOL    HW234722   1.809   0.133   8.329  0.0806  0.6872 -1.0079
 7697SOL     OW34723   1.143   0.892   2.352  0.0436  0.7225  0.1703
 7697SOL    HW134724   1.104   0.978   2.363 -1.2572  0.3699 -1.7437
 7697SOL    HW234725   1.234   0.920   2.352  0.5350 -0.7990  2.4644
 7698SOL     OW34726   4.263   0.349  16.564  0.0316  1.3945 -0.0891
 7698SOL    HW134727   4.231   0.331  16.653 -1.2301 -1.4406 -1.1184
 7698SOL    HW234728   4.356   0.342  16.587 -0.1076  0.0392  0.0727
 7699SOL     OW34729   3.485   2.572   8.630  0.5448  0.1670 -0.0637
 7699SOL    HW134730   3.548   2.583   8.701  0.9548 -2.0735 -0.0706
 7699SOL    HW234731   3.522   2.627   8.561 -0.4492  1.1582  0.1943
 7700SOL     OW34732   4.567   2.959   8.494 -0.1865  0.3080  0.2270
 7700SOL    HW134733   4.553   2.897   8.423  2.0411 -0.5738  0.5780
 7700SOL    HW234734   4.653   2.989   8.467 -0.4488  0.0510 -0.8948
 7701SOL     OW34735   3.781   0.357   8.527  0.2176  0.0368  0.2916
 7701SOL    HW134736   3.813   0.356   8.617  0.7648  0.6112  0.1049
 7701SOL    HW234737   3.741   0.443   8.514 -1.4384 -0.5645  1.4193
 7702SOL     OW34738   3.562   0.859  11.400 -0.4494  0.1771  0.4112
 7702SOL    HW134739   3.644   0.855  11.449 -0.8373 -2.2033  0.8539
 7702SOL    HW234740   3.516   0.779  11.424 -0.4697 -0.6033 -2.2114
 7703SOL     OW34741   3.665   1.765   8.290 -0.1840  0.0747 -0.1918
 7703SOL    HW134742   3.647   1.797   8.201 -1.4952 -2.1254 -0.7223
 7703SOL    HW234743   3.693   1.847   8.330  1.5991 -0.4720 -0.2863
 7704SOL     OW34744   2.067   2.311  16.286 -0.1786  0.2268  0.2123
 7704SOL    HW134745   2.037   2.277  16.371  1.2143  1.0911  1.0375
 7704SOL    HW234746   2.162   2.299  16.283 -0.2737 -0.7088  0.9685
 7705SOL     OW34747   1.162   2.111   6.539 -0.0621 -0.1540 -0.0461
 7705SOL    HW134748   1.229   2.178   6.553 -2.3263  2.5481 -2.2155
 7705SOL    HW234749   1.131   2.084   6.625  0.4328  1.9057  0.7933
 7706SOL     OW34750   2.442   2.707  15.076 -0.0856  0.0630 -0.4624
 7706SOL    HW134751   2.511   2.677  15.017 -0.8573 -0.5068 -1.0789
 7706SOL    HW234752   2.493   2.786  15.092 -1.1035  0.8958 -1.3129
 7707SOL     OW34753   1.639   2.842  12.303 -0.4538  0.0671 -0.7990
 7707SOL    HW134754   1.729   2.857  12.275  0.3033  0.9676  2.1461
 7707SOL    HW234755   1.649   2.772  12.367  0.9014  0.0000 -1.0836
 7708SOL     OW34756   3.402   4.719   4.986 -0.2863 -0.3296 -0.0946
 7708SOL    HW134757   3.474   0.036   5.016 -1.4034  1.5249 -0.9461
 7708SOL    HW234758   3.350   0.037   4.930 -0.0028 -0.0753 -0.1003
 7709SOL     OW34759   1.717   1.041   2.088  0.1177 -0.1166  0.3841
 7709SOL    HW134760   1.691   0.968   2.032 -1.0768 -0.6809  1.6593
 7709SOL    HW234761   1.753   0.999   2.166 -2.9801  0.4589  2.1207
 7710SOL     OW34762   1.552   0.379   8.900  0.0639  0.0482 -0.2781
 7710SOL    HW134763   1.532   0.289   8.875 -0.4292 -0.5141  2.0966
 7710SOL    HW234764   1.611   0.415   8.833 -0.7806 -0.2845 -1.1897
 7711SOL     OW34765   0.787   0.360  16.353 -0.1241 -0.3847 -0.3102
 7711SOL    HW134766   0.826   0.343  16.268 -2.9793 -2.6718 -1.1614
 7711SOL    HW234767   0.848   0.425  16.388  0.9517 -1.6795  0.2124
 7712SOL     OW34768   4.622   0.870   1.762  0.1233  0.5363  0.3425
 7712SOL    HW134769   4.580   0.784   1.760  0.0113  0.5690  0.9900
 7712SOL    HW234770   4.589   0.904   1.845 -0.6539  0.8666 -0.1063
 7713SOL     OW34771   1.330   1.232   2.916  0.6463 -0.1314 -0.4136
 7713SOL    HW134772   1.397   1.221   2.984  1.5014  0.2927 -1.1830
 7713SOL    HW234773   1.334   1.326   2.901 -1.1016 -0.0172 -0.1316
 7714SOL     OW34774   0.575   3.725   2.601 -0.0896 -0.4636  0.8505
 7714SOL    HW134775   0.499   3.708   2.545  0.5710  0.8627 -0.4637
 7714SOL    HW234776   0.639   3.675   2.550 -0.2744 -0.4479  0.6039
 7715SOL     OW34777   0.038   0.690   0.958  0.2602  0.5032 -0.1821
 7715SOL    HW134778   0.040   0.627   0.886  1.4887  1.1096 -0.6715
 7715SOL    HW234779   4.734   0.629   1.018  0.9702  0.7135  0.5288
 7716SOL     OW34780   0.704   2.162   3.310  0.6469  0.7759  0.2260
 7716SOL    HW134781   0.692   2.214   3.230 -2.9234 -0.0431  0.2551
 7716SOL    HW234782   0.797   2.142   3.295  0.8155  2.1520 -0.5410
 7717SOL     OW34783   0.199   0.469  17.560  0.1758 -1.0027 -0.1341
 7717SOL    HW134784   0.180   0.533  17.629 -0.1017 -0.6710 -0.5192
 7717SOL    HW234785   0.290   0.444  17.578  1.0338 -0.1355 -3.2781
 7718SOL     OW34786   3.483   4.344   8.366 -0.1564 -0.1518  0.1927
 7718SOL    HW134787   3.568   4.342   8.412  0.4679  0.9531 -0.9135
 7718SOL    HW234788   3.475   4.263   8.317  2.1357  0.9488 -2.0373
 7719SOL     OW34789   2.065   1.588   1.418 -0.8731 -0.3993 -0.0497
 7719SOL    HW134790   2.144   1.602   1.366 -0.7119 -3.1485 -0.5538
 7719SOL    HW234791   2.015   1.528   1.362 -0.2195  0.5606 -1.6384
 7720SOL     OW34792   0.814   3.926  17.451  0.2913  0.0086 -0.0794
 7720SOL    HW134793   0.868   3.917  17.372 -1.3416  0.2299 -1.2411
 7720SOL    HW234794   0.881   3.919  17.518  1.0988 -0.4812 -0.9279
 7721SOL     OW34795   0.541   3.946   5.326  0.1278  0.4627  0.3745
 7721SOL    HW134796   0.487   3.952   5.247  0.1420 -0.2719  0.3123
 7721SOL    HW234797   0.548   3.853   5.349  0.1258  0.1828 -0.7474
 7722SOL     OW34798   1.164   1.907  16.108  0.5811 -0.5527  0.0731
 7722SOL    HW134799   1.082   1.880  16.067 -0.4200  0.8564  1.1766
 7722SOL    HW234800   1.204   1.822  16.128  1.2885 -0.1647  0.3343
 7723SOL     OW34801   0.248   1.933  12.940  1.2024 -0.8851  0.2736
 7723SOL    HW134802   0.318   1.895  12.993  1.2492  0.3187  1.0599
 7723SOL    HW234803   0.180   1.865  12.938 -0.1571  0.5691 -2.4413
 7724SOL     OW34804   3.458   0.202   9.374 -0.7808  0.2123 -0.5768
 7724SOL    HW134805   3.421   0.260   9.308 -0.9065 -1.2396 -1.7907
 7724SOL    HW234806   3.548   0.232   9.389 -0.4435 -0.2369 -1.7232
 7725SOL     OW34807   1.375   3.513  12.473 -0.1177 -0.4434 -0.1141
 7725SOL    HW134808   1.444   3.579  12.484  0.3433 -1.2583  1.8557
 7725SOL    HW234809   1.430   3.444  12.436  1.3609  1.0433 -0.7418
 7726SOL     OW34810   0.284   0.471   5.031  0.7771 -0.2438  0.6383
 7726SOL    HW134811   0.345   0.544   5.026  1.0346 -0.5131 -0.2031
 7726SOL    HW234812   0.211   0.512   4.985  1.7095 -0.5969 -1.2103
 7727SOL     OW34813   2.196   4.134   6.360 -0.0086 -0.3579 -0.2860
 7727SOL    HW134814   2.129   4.114   6.294  0.9251 -3.3858 -0.3370
 7727SOL    HW234815   2.263   4.183   6.312 -2.4139  1.4367 -1.8017
 7728SOL     OW34816   3.035   0.402   1.028 -0.3336  0.3958  0.4567
 7728SOL    HW134817   2.976   0.336   0.990  1.5078  0.7704 -3.0336
 7728SOL    HW234818   3.122   0.368   1.009 -0.8116 -0.8012  0.4106
 7729SOL     OW34819   1.964   0.144  13.177  0.2705 -0.0299  0.0971
 7729SOL    HW134820   1.951   0.091  13.256  2.2880 -1.1470 -0.3346
 7729SOL    HW234821   2.057   0.136  13.161  0.2225  0.4567 -0.4071
 7730SOL     OW34822   1.702   2.681   6.670 -0.9870 -1.0989  0.2597
 7730SOL    HW134823   1.611   2.671   6.645 -1.4286 -0.7401  1.7537
 7730SOL    HW234824   1.754   2.626   6.610  1.6137  1.1043  0.4852
 7731SOL     OW34825   4.606   2.888   2.224 -0.5706  0.1077 -0.1373
 7731SOL    HW134826   4.575   2.909   2.136  0.3297  0.3436 -0.3999
 7731SOL    HW234827   4.615   2.977   2.259  0.1715 -0.0831  0.1780
 7732SOL     OW34828   0.134   2.964   2.949  0.2072  0.0496 -0.3898
 7732SOL    HW134829   0.053   3.011   2.929  0.4289  1.6418  2.4391
 7732SOL    HW234830   0.126   2.947   3.043 -0.5500  0.8679 -0.3053
 7733SOL     OW34831   1.449   2.324  10.659  0.0350 -0.0328  0.4590
 7733SOL    HW134832   1.458   2.236  10.622  0.1735  0.7348 -1.3019
 7733SOL    HW234833   1.423   2.376  10.583 -1.0606  2.6873  2.7001
 7734SOL     OW34834   0.559   4.403  11.079 -0.5370  0.1433  0.3991
 7734SOL    HW134835   0.645   4.366  11.061 -0.9921 -1.7971  2.1115
 7734SOL    HW234836   0.537   4.350  11.156  0.6710  0.1192  0.7347
 7735SOL     OW34837   0.354   2.152   5.237 -0.3143  0.0434 -0.1434
 7735SOL    HW134838   0.410   2.161   5.159 -0.8153  0.9517 -0.4069
 7735SOL    HW234839   0.315   2.239   5.241 -0.7783 -0.2471  1.4051
 7736SOL     OW34840   3.753   2.628   2.059 -0.4844  0.0868  0.0698
 7736SOL    HW134841   3.780   2.552   2.110  1.3117  0.0941 -0.8604
 7736SOL    HW234842   3.833   2.681   2.059 -0.7503  0.4867  1.7122
 7737SOL     OW34843   4.530   3.915  10.075  0.0787  0.5042 -0.2907
 7737SOL    HW134844   4.623   3.933  10.081  0.1644 -1.0382  2.9664
 7737SOL    HW234845   4.493   4.003  10.076 -3.9586 -1.1673 -2.0609
 7738SOL     OW34846   2.059   4.352   8.029  0.1761  0.1992  0.3593
 7738SOL    HW134847   2.034   4.444   8.038  1.0753  0.1725  3.2628
 7738SOL    HW234848   2.061   4.342   7.934 -0.7645 -0.6798  0.4375
 7739SOL     OW34849   2.089   1.640   3.538 -0.1357  0.0096 -0.1252
 7739SOL    HW134850   2.020   1.674   3.595  0.3180  0.4255  0.1739
 7739SOL    HW234851   2.079   1.547   3.558  0.7107 -0.8891 -3.9067
 7740SOL     OW34852   0.983   0.315   9.636 -0.1890 -0.0054  0.2798
 7740SOL    HW134853   0.951   0.401   9.607  1.6599  1.3649  2.3539
 7740SOL    HW234854   1.002   0.269   9.554  1.3536 -0.7554  1.0631
 7741SOL     OW34855   1.026   4.365  11.529 -0.2490 -0.4050 -0.4114
 7741SOL    HW134856   1.111   4.353  11.486 -0.1979 -1.4404 -0.0243
 7741SOL    HW234857   1.047   4.411  11.610 -2.3281 -1.0908  0.5022
 7742SOL     OW34858   0.569   1.747   8.466  0.5836 -0.3791  0.2984
 7742SOL    HW134859   0.590   1.741   8.559 -2.3554  1.1102  1.0708
 7742SOL    HW234860   0.641   1.797   8.429  0.3309  0.1884  0.5546
 7743SOL     OW34861   0.565   1.996   5.029  0.3027  0.0879  0.1585
 7743SOL    HW134862   0.657   2.023   5.030 -0.0679  1.5061 -3.4962
 7743SOL    HW234863   0.520   2.069   4.987  0.5547  0.0701 -0.1476
 7744SOL     OW34864   0.834   0.759   4.863  0.0037 -0.2433 -0.3327
 7744SOL    HW134865   0.924   0.778   4.892 -0.0648 -2.4643  1.3739
 7744SOL    HW234866   0.855   0.758   4.770  1.5070 -0.0782  0.0012
 7745SOL     OW34867   3.087   2.935   2.086 -0.1259 -0.3779 -0.0137
 7745SOL    HW134868   3.036   2.873   2.034 -0.2018 -0.3849  0.0690
 7745SOL    HW234869   3.074   3.016   2.037 -1.2601 -0.6910 -0.2334
 7746SOL     OW34870   0.508   1.023   1.860  0.0564  0.3007 -0.3182
 7746SOL    HW134871   0.529   1.115   1.879 -0.0639  0.6993 -2.1197
 7746SOL    HW234872   0.590   0.983   1.833 -0.9786 -2.4754  0.6292
 7747SOL     OW34873   3.175   0.694   6.281  0.1984 -0.1726  0.0815
 7747SOL    HW134874   3.261   0.665   6.310  2.3699  1.3821 -4.8095
 7747SOL    HW234875   3.139   0.727   6.363 -2.4360 -2.5623 -0.0969
 7748SOL     OW34876   4.342   1.218  11.093 -0.4158  0.3792 -1.0002
 7748SOL    HW134877   4.328   1.131  11.056  0.3372 -0.9484  1.9105
 7748SOL    HW234878   4.436   1.235  11.082 -0.6925  0.5359 -3.2924
 7749SOL     OW34879   3.698   1.496   7.355 -0.3417 -0.4016 -0.5699
 7749SOL    HW134880   3.668   1.585   7.338 -1.9204 -0.1283  3.6959
 7749SOL    HW234881   3.791   1.509   7.337 -0.8919  1.0932 -2.3731
 7750SOL     OW34882   4.451   2.687   6.969 -0.3499  0.5958 -0.0327
 7750SOL    HW134883   4.419   2.653   7.052 -0.2810 -1.9059 -1.0356
 7750SOL    HW234884   4.524   2.738   7.005 -0.9496 -0.6092  2.8242
 7751SOL     OW34885   3.570   1.983   3.972 -0.7140  0.2004  0.1578
 7751SOL    HW134886   3.496   2.045   3.970  0.3405  1.4672  0.1502
 7751SOL    HW234887   3.608   2.001   3.886 -0.7480 -1.5968 -0.2241
 7752SOL     OW34888   2.311   1.323   0.842  0.1091  0.0748 -0.2987
 7752SOL    HW134889   2.265   1.406   0.850  0.8040  0.6076 -1.7930
 7752SOL    HW234890   2.274   1.285   0.921  0.4756  0.2795 -0.0317
 7753SOL     OW34891   3.717   2.756   4.910 -0.4029 -0.2256  1.1274
 7753SOL    HW134892   3.698   2.756   4.816 -0.0754  3.6480  1.0421
 7753SOL    HW234893   3.682   2.670   4.932 -2.2151  1.2149  3.9074
 7754SOL     OW34894   0.159   0.117  11.938 -0.0818  0.1275 -0.0380
 7754SOL    HW134895   0.104   0.120  11.860 -0.8895 -0.1899  0.5147
 7754SOL    HW234896   0.095   0.106  12.008  0.3067  0.6012  0.3850
 7755SOL     OW34897   1.221   1.883   2.691 -0.4718  0.4757 -0.5225
 7755SOL    HW134898   1.261   1.849   2.772 -1.2638  0.7825  0.0029
 7755SOL    HW234899   1.182   1.961   2.730 -1.6506  1.2458 -3.2799
 7756SOL     OW34900   2.851   3.287   2.720  1.1750  0.5272  0.0899
 7756SOL    HW134901   2.853   3.219   2.653 -0.2495  0.1647  0.4152
 7756SOL    HW234902   2.923   3.342   2.689  2.4270 -2.5365 -2.4198
 7757SOL     OW34903   0.900   1.685   6.204 -0.2496  0.2340  0.0795
 7757SOL    HW134904   0.914   1.693   6.298  0.0576  1.8214 -0.1091
 7757SOL    HW234905   0.807   1.664   6.194  0.1345 -0.9675 -0.8903
 7758SOL     OW34906   3.583   3.897   8.771 -0.6672 -0.3096  0.4214
 7758SOL    HW134907   3.531   3.970   8.804 -0.8829  0.2303 -1.0978
 7758SOL    HW234908   3.578   3.912   8.676 -2.0518  1.3692  0.7583
 7759SOL     OW34909   1.977   3.741  16.752 -0.1786  0.3894  0.3599
 7759SOL    HW134910   2.030   3.821  16.756 -0.9836  0.8300  2.0466
 7759SOL    HW234911   1.918   3.755  16.825  0.1373  3.8525 -0.0671
 7760SOL     OW34912   3.964   3.684  13.571  0.3188 -0.4395  0.5233
 7760SOL    HW134913   4.030   3.747  13.598  2.1925 -1.6499 -1.2492
 7760SOL    HW234914   3.937   3.717  13.485 -0.0579 -0.3579  0.6727
 7761SOL     OW34915   2.505   1.879  13.630  0.7442  0.0402  0.5463
 7761SOL    HW134916   2.410   1.887  13.633  0.8931  1.5741  1.6321
 7761SOL    HW234917   2.507   1.809  13.695 -1.6166  0.4000  0.9799
 7762SOL     OW34918   3.296   3.947   4.732  0.0553 -0.5556  0.2193
 7762SOL    HW134919   3.299   3.887   4.657  0.6028  0.7164 -0.7741
 7762SOL    HW234920   3.221   3.916   4.783 -0.4861 -1.2832 -1.0071
 7763SOL     OW34921   2.549   1.472   3.747  0.2091 -0.0541  0.1540
 7763SOL    HW134922   2.508   1.502   3.666  0.5441  2.9080  1.1015
 7763SOL    HW234923   2.642   1.464   3.723 -0.1662  1.0729 -1.6632
 7764SOL     OW34924   4.665   1.156   1.654  0.0540  0.5010 -0.0003
 7764SOL    HW134925   4.673   1.075   1.603 -0.4548  0.4212  0.0453
 7764SOL    HW234926   4.702   1.227   1.602 -0.3584 -0.1254 -1.1459
 7765SOL     OW34927   0.743   0.996   6.580 -0.1096  0.5920  0.0556
 7765SOL    HW134928   0.665   1.015   6.528 -0.1895 -1.0075 -0.3911
 7765SOL    HW234929   0.744   0.903   6.560 -0.6294  0.8581 -1.1739
 7766SOL     OW34930   0.271   1.502   7.185 -0.3656  0.6208 -0.2516
 7766SOL    HW134931   0.178   1.480   7.185 -0.4240  0.8659 -1.0887
 7766SOL    HW234932   0.278   1.552   7.266 -1.7540  1.9060 -0.9241
 7767SOL     OW34933   1.544   3.842   8.109  0.3522 -0.2274 -0.4652
 7767SOL    HW134934   1.487   3.906   8.152  1.5317  0.3057  0.2989
 7767SOL    HW234935   1.617   3.844   8.170 -0.8665  0.4310  0.9844
 7768SOL     OW34936   2.865   0.850   7.434 -0.2600  0.1341 -0.5921
 7768SOL    HW134937   2.790   0.868   7.491  0.4526 -0.8710  0.6558
 7768SOL    HW234938   2.903   0.938   7.437 -2.6468  1.1964 -1.1532
 7769SOL     OW34939   0.210   4.725   1.630  0.4828 -0.5331 -0.0496
 7769SOL    HW134940   0.162   0.042   1.691 -0.4943 -0.6891 -0.6703
 7769SOL    HW234941   0.141   4.702   1.567  1.2870 -1.5354 -0.5746
 7770SOL     OW34942   0.217   3.171   4.759  0.2310  0.6176  0.3351
 7770SOL    HW134943   0.132   3.174   4.803  0.1387 -3.3852  0.4664
 7770SOL    HW234944   0.215   3.264   4.738 -0.2964  0.2113 -1.3718
 7771SOL     OW34945   0.380   4.336   3.454  0.0629 -0.4127  0.0996
 7771SOL    HW134946   0.320   4.372   3.519 -0.4021 -3.0188  1.1153
 7771SOL    HW234947   0.397   4.250   3.494 -1.5533 -0.6264  0.3301
 7772SOL     OW34948   4.245   1.783   6.419  0.0472  0.4280  0.0553
 7772SOL    HW134949   4.297   1.852   6.460 -1.2902  0.0675  2.3474
 7772SOL    HW234950   4.295   1.703   6.435  0.4391  1.0938  2.1842
 7773SOL     OW34951   1.059   1.543  11.430  0.2666 -0.2351 -0.5253
 7773SOL    HW134952   1.002   1.620  11.436 -1.2244 -1.4670  1.1309
 7773SOL    HW234953   1.062   1.507  11.518 -1.7801  1.9193  0.4240
 7774SOL     OW34954   2.293   1.304   2.770 -0.5018  0.6696 -0.2602
 7774SOL    HW134955   2.341   1.385   2.756 -0.5767  0.3704 -2.2379
 7774SOL    HW234956   2.217   1.336   2.819 -1.0375  2.2449 -2.1198
 7775SOL     OW34957   1.237   1.808  13.141  0.1511  0.3861 -0.0716
 7775SOL    HW134958   1.259   1.843  13.054  2.9837  0.9712  0.8995
 7775SOL    HW234959   1.210   1.879  13.200  2.1878  0.8072  0.3411
 7776SOL     OW34960   0.789   2.981  11.259  0.4418  0.1638  0.0161
 7776SOL    HW134961   0.701   2.961  11.225 -0.1262  2.4290  0.1538
 7776SOL    HW234962   0.769   3.061  11.309 -1.1326 -0.3093  0.1580
 7777SOL     OW34963   1.394   4.246   5.598  0.1433 -0.5101  0.1001
 7777SOL    HW134964   1.388   4.223   5.691 -0.0602  1.3644  0.5599
 7777SOL    HW234965   1.433   4.165   5.567  2.9615  0.8880  0.0017
 7778SOL     OW34966   0.427   0.971  13.665 -0.4559 -0.3037  0.0492
 7778SOL    HW134967   0.383   1.027  13.602 -0.4364 -1.2856 -0.8279
 7778SOL    HW234968   0.375   0.892  13.649  1.2448 -1.6349  0.9859
 7779SOL     OW34969   3.693   4.042   6.801  0.0743 -0.1850  0.2847
 7779SOL    HW134970   3.778   4.011   6.769 -0.3396 -0.0594 -0.9139
 7779SOL    HW234971   3.719   4.105   6.869 -0.4129 -1.4970  1.7073
 7780SOL     OW34972   3.248   1.057  17.527 -0.1341  0.4460 -0.3555
 7780SOL    HW134973   3.325   1.012  17.492 -0.1751 -1.3470  1.8898
 7780SOL    HW234974   3.182   1.022  17.467  0.1724 -0.3342 -0.2286
 7781SOL     OW34975   1.111   3.665   9.363 -0.6545 -0.2757  0.6351
 7781SOL    HW134976   1.079   3.639   9.276 -0.8479 -1.2984  1.0054
 7781SOL    HW234977   1.197   3.699   9.338 -0.6641 -0.5235  0.2586
 7782SOL     OW34978   0.301   2.504   7.210  0.1955  0.4474  0.1454
 7782SOL    HW134979   0.251   2.423   7.223 -0.3408  0.6653 -0.5530
 7782SOL    HW234980   0.257   2.560   7.275  0.4783  1.3531 -0.4436
 7783SOL     OW34981   2.233   0.549  11.243  0.0784 -0.0452 -0.1471
 7783SOL    HW134982   2.291   0.616  11.278  0.8405 -1.0663  0.5225
 7783SOL    HW234983   2.147   0.591  11.244 -0.5776 -1.4407  1.0466
 7784SOL     OW34984   3.731   0.320   1.826  0.3475 -0.8086 -0.1217
 7784SOL    HW134985   3.644   0.351   1.851 -0.9481 -0.8156 -4.6330
 7784SOL    HW234986   3.705   0.237   1.786 -1.3882 -0.6472  0.6424
 7785SOL     OW34987   0.434   0.214   3.668  0.3279 -0.2379 -0.2939
 7785SOL    HW134988   0.500   0.210   3.598 -0.6846 -0.8698 -1.2194
 7785SOL    HW234989   0.359   0.223   3.610  2.0882 -0.5762 -2.6264
 7786SOL     OW34990   4.702   2.658  16.603 -0.8291  0.3302  0.3833
 7786SOL    HW134991   0.030   2.690  16.542  0.9621  0.1186  2.2348
 7786SOL    HW234992   4.628   2.717  16.592 -1.5907 -0.4293  1.4188
 7787SOL     OW34993   1.953   1.850   2.149  0.6532 -0.0282  1.0052
 7787SOL    HW134994   2.031   1.823   2.199  0.6469  0.1564  1.1163
 7787SOL    HW234995   1.944   1.933   2.195  1.1074  0.5154  0.1263
 7788SOL     OW34996   1.119   3.101   3.323  0.1993  0.9819 -0.2616
 7788SOL    HW134997   1.166   3.040   3.380  0.1106  0.0218 -1.2243
 7788SOL    HW234998   1.173   3.102   3.245 -0.8041  2.7656 -0.9267
 7789SOL     OW34999   2.806   1.276  11.386  0.5736  0.3333  0.2535
 7789SOL    HW135000   2.875   1.263  11.451  0.6720  4.0974  0.8575
 7789SOL    HW235001   2.725   1.290  11.436 -0.1766  0.3434 -0.9377
 7790SOL     OW35002   4.415   4.105  13.259 -0.6390  0.0952  0.0755
 7790SOL    HW135003   4.426   4.012  13.242  0.8628  0.7319 -2.5316
 7790SOL    HW235004   4.495   4.146  13.225 -0.9691  0.3130 -0.4578
 7791SOL     OW35005   1.760   3.582   5.042  0.2714  0.0160 -0.1926
 7791SOL    HW135006   1.804   3.586   5.127  0.7063 -1.7495 -0.3368
 7791SOL    HW235007   1.687   3.643   5.054 -0.8142 -0.9913 -1.7264
 7792SOL     OW35008   0.088   1.800   5.039  0.1328 -0.5934 -0.5780
 7792SOL    HW135009   0.180   1.813   5.064 -0.0336 -1.4956  0.5101
 7792SOL    HW235010   0.056   1.822   5.126  0.7639 -0.3029 -0.4210
 7793SOL     OW35011   0.077   0.854   9.271 -0.1243  0.1625 -0.0097
 7793SOL    HW135012   0.103   0.945   9.252  0.9969  0.2395  1.8548
 7793SOL    HW235013   4.731   0.867   9.312 -0.0585  0.6105 -0.0076
 7794SOL     OW35014   0.200   1.640  12.393  0.7173  0.5616  0.2169
 7794SOL    HW135015   0.141   1.695  12.341 -1.6466 -0.1406  2.1353
 7794SOL    HW235016   0.141   1.565  12.406 -1.2941  1.7340 -2.1419
 7795SOL     OW35017   3.637   3.673   2.240 -0.3908  0.2089  0.5932
 7795SOL    HW135018   3.672   3.743   2.295  0.0735 -0.0369  0.6136
 7795SOL    HW235019   3.665   3.593   2.285 -0.7394  1.8365  3.7105
 7796SOL     OW35020   3.561   2.943   7.497  0.0697  0.2716 -0.3250
 7796SOL    HW135021   3.582   2.944   7.404 -0.3205  2.2371 -0.3778
 7796SOL    HW235022   3.645   2.912   7.532 -0.0855  0.7098  0.4262
 7797SOL     OW35023   1.724   2.368   8.633 -0.4747 -0.2558 -0.2784
 7797SOL    HW135024   1.697   2.458   8.650 -3.7439 -0.8251 -2.2373
 7797SOL    HW235025   1.811   2.385   8.669  0.6403 -1.8884 -2.1858
 7798SOL     OW35026   2.586   0.933   4.448 -0.1971  0.4846 -0.2585
 7798SOL    HW135027   2.653   0.887   4.398  0.4278  0.3339  0.7225
 7798SOL    HW235028   2.581   1.009   4.391 -1.8747  0.9533  0.5098
 7799SOL     OW35029   1.263   4.198  17.671  0.2549  0.2562  0.3515
 7799SOL    HW135030   1.307   4.282  17.664 -1.1109  0.7968 -1.5643
 7799SOL    HW235031   1.269   4.189   0.014  1.2927 -0.2948  0.2348
 7800SOL     OW35032   0.345   2.531   8.646 -0.2547 -0.6678 -0.0674
 7800SOL    HW135033   0.374   2.609   8.693  0.8527 -1.6478  0.8788
 7800SOL    HW235034   0.267   2.563   8.601 -0.3601  0.9557  1.2521
 7801SOL     OW35035   1.734   2.832  17.333 -0.4335 -0.1533 -0.0805
 7801SOL    HW135036   1.771   2.780  17.262 -2.3503 -0.3927 -0.8882
 7801SOL    HW235037   1.782   2.806  17.412  1.1741  2.4812 -0.1705
 7802SOL     OW35038   0.598   3.508   8.872 -0.0082  0.5012 -0.3420
 7802SOL    HW135039   0.662   3.514   8.801 -0.0812  0.9567 -0.3719
 7802SOL    HW235040   0.624   3.428   8.918 -1.1693  0.0561 -0.4625
 7803SOL     OW35041   1.538   2.137   7.461  0.0191 -0.2693  0.3935
 7803SOL    HW135042   1.566   2.065   7.518  0.4959 -1.4458 -1.3393
 7803SOL    HW235043   1.610   2.145   7.398 -0.1543  0.8557  0.3452
 7804SOL     OW35044   1.027   0.012  11.571 -0.4371  0.5035 -0.5635
 7804SOL    HW135045   1.065   0.100  11.577 -2.8728  1.5733 -0.6365
 7804SOL    HW235046   1.035   4.721  11.481  1.2972 -0.3896 -0.1165
 7805SOL     OW35047   2.953   1.764   1.461 -0.4479  0.0269 -0.5302
 7805SOL    HW135048   2.961   1.679   1.418 -0.1208 -0.1038 -0.2097
 7805SOL    HW235049   2.864   1.796   1.445  0.4334  1.6901 -2.0382
 7806SOL     OW35050   4.654   0.383   5.104 -0.0028  0.1020 -0.5506
 7806SOL    HW135051   4.592   0.452   5.130 -1.0001 -2.1771  3.0044
 7806SOL    HW235052   4.649   0.386   5.008  1.3574  0.6706 -0.6026
 7807SOL     OW35053   3.405   2.123   8.965  0.4539  0.1293 -0.1568
 7807SOL    HW135054   3.417   2.217   8.984  2.7125 -0.3016  0.5452
 7807SOL    HW235055   3.439   2.093   9.049 -2.1425  0.9137  1.1828
 7808SOL     OW35056   1.222   2.492   4.324 -0.4467  0.0087  0.1116
 7808SOL    HW135057   1.210   2.508   4.231  1.7623 -0.2375 -0.2045
 7808SOL    HW235058   1.175   2.410   4.340 -2.5668  1.0084 -0.9802
 7809SOL     OW35059   1.188   3.451   1.906  0.0189  0.2795 -0.5077
 7809SOL    HW135060   1.222   3.369   1.942  0.0396  1.1626  1.5076
 7809SOL    HW235061   1.269   3.490   1.872  0.4036  0.8577  1.0581
 7810SOL     OW35062   4.655   0.464   1.077 -0.2667 -0.8626  0.7094
 7810SOL    HW135063   4.655   0.404   1.151  0.2399 -2.7704 -0.8480
 7810SOL    HW235064   4.614   0.414   1.006 -0.4061 -0.0695  0.2293
 7811SOL     OW35065   0.632   4.478  10.605 -0.1252  0.0294 -0.4144
 7811SOL    HW135066   0.686   4.546  10.646 -1.6830  0.5759  0.7458
 7811SOL    HW235067   0.662   4.485  10.514  3.2901  1.4264  0.8035
 7812SOL     OW35068   0.145   3.280  10.199  0.0353 -0.5432  0.0197
 7812SOL    HW135069   0.190   3.363  10.215 -0.5023 -0.1047 -0.7441
 7812SOL    HW235070   0.215   3.222  10.230  0.2645  0.0771  0.6623
 7813SOL     OW35071   4.138   2.731   7.851  0.0059  0.1345 -0.1015
 7813SOL    HW135072   4.180   2.651   7.820 -1.4579 -1.2541  1.4752
 7813SOL    HW235073   4.143   2.715   7.945  0.3285  4.2760  0.5793
 7814SOL     OW35074   2.927   4.048  12.284  0.3463  0.7517  0.0251
 7814SOL    HW135075   3.015   4.078  12.306  0.9160  0.7521 -2.1831
 7814SOL    HW235076   2.929   3.955  12.307 -4.5651  0.5441 -0.3512
 7815SOL     OW35077   4.104   1.379   4.221  0.1671  0.2788 -0.0476
 7815SOL    HW135078   4.193   1.413   4.210  0.4651 -0.4702  0.0457
 7815SOL    HW235079   4.070   1.455   4.269 -1.3810 -0.3856 -0.0959
 7816SOL     OW35080   2.401   1.955   7.174  0.2490  0.7396 -1.1178
 7816SOL    HW135081   2.440   2.042   7.173 -0.8917  1.2512 -0.5658
 7816SOL    HW235082   2.480   1.905   7.196 -1.4348 -1.8004 -0.8362
 7817SOL     OW35083   3.912   1.022  10.826 -0.0452 -0.6913  0.6573
 7817SOL    HW135084   3.987   1.045  10.771 -0.6442 -1.1510 -0.3412
 7817SOL    HW235085   3.840   1.062  10.777  1.8245  0.8992 -0.8145
 7818SOL     OW35086   3.706   3.718   3.347  0.0187 -0.4473 -0.1298
 7818SOL    HW135087   3.634   3.720   3.285  0.5668  0.0014 -0.7513
 7818SOL    HW235088   3.667   3.688   3.429  1.1018  0.2377  0.6426
 7819SOL     OW35089   1.397   4.634   2.620  0.8739  0.0244 -0.2285
 7819SOL    HW135090   1.347   4.688   2.681 -0.4969  0.1418 -1.4467
 7819SOL    HW235091   1.478   4.681   2.602  0.2574  1.2152  0.1289
 7820SOL     OW35092   4.339   3.710   4.476  0.2392  0.1995  0.1111
 7820SOL    HW135093   4.249   3.725   4.447  0.7241  1.2920 -0.8236
 7820SOL    HW235094   4.399   3.745   4.411 -0.4527  1.5441  0.1985
 7821SOL     OW35095   0.336   4.500   9.341  0.4954  0.0479  0.1881
 7821SOL    HW135096   0.431   4.506   9.329  0.6511  0.6936  1.8028
 7821SOL    HW235097   0.307   4.563   9.275 -4.1327 -2.6175 -0.3461
 7822SOL     OW35098   4.468   3.630  11.199 -0.6391  0.2458  0.2621
 7822SOL    HW135099   4.485   3.638  11.105 -1.0976 -0.3714  0.1184
 7822SOL    HW235100   4.553   3.637  11.241  0.4218 -2.9509 -1.3204
 7823SOL     OW35101   2.047   1.667   9.218 -0.2235 -0.1811  0.7228
 7823SOL    HW135102   1.956   1.671   9.245 -0.4849  0.3654 -0.2294
 7823SOL    HW235103   2.056   1.574   9.198  0.8340 -0.4193  2.3076
 7824SOL     OW35104   3.119   3.044   3.119 -0.2351 -0.1919 -0.0694
 7824SOL    HW135105   3.093   2.952   3.111  0.8606 -0.5727  0.7302
 7824SOL    HW235106   3.076   3.077   3.040  0.5311 -0.3999 -0.5807
 7825SOL     OW35107   0.428   3.397   5.160 -0.4900 -0.0128  0.4509
 7825SOL    HW135108   0.376   3.317   5.172  0.0344 -0.6231 -1.3198
 7825SOL    HW235109   0.449   3.395   5.067  1.1294  1.1817  0.8099
 7826SOL     OW35110   1.738   1.678   4.027 -0.4187  0.0600  0.7000
 7826SOL    HW135111   1.669   1.658   3.964 -0.8050  0.2065  1.0718
 7826SOL    HW235112   1.718   1.769   4.050 -2.5412  0.2910 -2.0420
 7827SOL     OW35113   0.687   3.835   6.552  0.3631  0.2574 -0.1387
 7827SOL    HW135114   0.654   3.762   6.500  1.8558  0.3863 -1.2346
 7827SOL    HW235115   0.759   3.793   6.600  1.1861 -0.0578 -1.6615
 7828SOL     OW35116   3.532   3.203   4.960  0.6237 -0.1162  0.3340
 7828SOL    HW135117   3.558   3.294   4.975  0.5373  0.4123 -2.6899
 7828SOL    HW235118   3.437   3.214   4.965  0.7841  0.4888  2.0998
 7829SOL     OW35119   4.386   0.936   5.816 -0.0132  0.3666  0.1998
 7829SOL    HW135120   4.469   0.941   5.768 -1.6311  0.4146 -2.5610
 7829SOL    HW235121   4.324   0.974   5.754 -0.9203 -0.2338  0.7380
 7830SOL     OW35122   2.126   4.088  17.226  0.3738  0.6465 -0.2075
 7830SOL    HW135123   2.051   4.148  17.223  1.4087  1.8465 -1.9007
 7830SOL    HW235124   2.127   4.070  17.320 -0.0401  1.5494 -0.0198
 7831SOL     OW35125   0.057   2.600   3.296  0.0649 -0.0652  0.0841
 7831SOL    HW135126   4.711   2.556   3.287 -0.5525  0.9333  1.0155
 7831SOL    HW235127   0.097   2.576   3.212 -2.2289 -1.2838 -0.6738
 7832SOL     OW35128   3.671   3.564   5.841 -0.0917  0.4445 -0.1349
 7832SOL    HW135129   3.622   3.482   5.839 -0.9857  0.9226  2.2363
 7832SOL    HW235130   3.762   3.536   5.844 -0.1959 -0.1718 -2.3118
 7833SOL     OW35131   2.606   4.735  14.233 -0.1961  0.2647 -0.1716
 7833SOL    HW135132   2.688   0.046  14.229  0.1134 -0.3945 -1.9894
 7833SOL    HW235133   2.561   0.041  14.304 -0.5370 -1.7209  0.8646
 7834SOL     OW35134   0.800   1.890   7.033  0.2312  0.2607 -0.0434
 7834SOL    HW135135   0.781   1.861   6.944  0.6491 -1.2678  0.3561
 7834SOL    HW235136   0.891   1.916   7.017  0.9991 -0.4353  3.2046
 7835SOL     OW35137   2.946   4.449   4.726 -0.2461 -0.0866  0.0024
 7835SOL    HW135138   3.003   4.399   4.785  1.7022  1.4829 -0.5782
 7835SOL    HW235139   3.019   4.495   4.685 -1.0796  1.1079 -0.1385
 7836SOL     OW35140   2.359   3.793   4.025 -0.6736 -0.1682  0.2434
 7836SOL    HW135141   2.343   3.746   3.943  2.1920  1.3627 -1.1976
 7836SOL    HW235142   2.370   3.882   3.990 -0.7023 -0.0061  0.6567
 7837SOL     OW35143   0.849   3.519  15.729 -0.0590 -0.0633 -0.6063
 7837SOL    HW135144   0.896   3.585  15.781  0.1677 -0.3604 -0.4338
 7837SOL    HW235145   0.862   3.549  15.639 -0.1148 -0.1362 -0.6377
 7838SOL     OW35146   2.966   1.304   7.071 -0.5967 -0.3424 -0.6812
 7838SOL    HW135147   3.044   1.357   7.086 -2.9239  3.1249 -0.7477
 7838SOL    HW235148   2.900   1.372   7.082 -0.3388 -0.5672  2.3257
 7839SOL     OW35149   1.898   3.473   2.181 -0.3958 -0.0343  0.1501
 7839SOL    HW135150   1.914   3.404   2.245 -2.2521  0.0541  0.6995
 7839SOL    HW235151   1.942   3.545   2.227  1.1303 -1.2628  0.6562
 7840SOL     OW35152   1.589   1.616   7.826 -0.1321 -0.0218  0.3003
 7840SOL    HW135153   1.517   1.672   7.854  1.1631  1.2622  1.0841
 7840SOL    HW235154   1.645   1.686   7.792  0.2862 -1.2459 -1.5416
 7841SOL     OW35155   4.256   2.058   4.100 -0.1530 -0.5279 -0.3532
 7841SOL    HW135156   4.274   2.036   4.192  2.2698  0.5333 -0.5777
 7841SOL    HW235157   4.178   2.007   4.078  0.5670 -2.0132  0.5139
 7842SOL     OW35158   4.670   0.139  12.110  0.5126  0.3831  0.2895
 7842SOL    HW135159   4.587   0.175  12.142 -0.2610  0.8677 -2.2409
 7842SOL    HW235160   4.684   0.077  12.182 -0.8344  0.7662  0.8826
 7843SOL     OW35161   2.602   2.731   5.153  0.2164  0.4359  0.5229
 7843SOL    HW135162   2.694   2.723   5.180 -0.3818  0.9481  2.6976
 7843SOL    HW235163   2.567   2.748   5.240 -5.0270 -3.0904 -0.8743
 7844SOL     OW35164   2.271   2.990   5.040 -0.5993  0.3358 -0.3300
 7844SOL    HW135165   2.217   2.965   5.115  0.9662 -1.5557  0.1955
 7844SOL    HW235166   2.321   3.066   5.071 -0.9585 -0.5841  2.5030
 7845SOL     OW35167   0.025   4.233  13.346 -0.3066 -0.4850 -0.4228
 7845SOL    HW135168   4.708   4.238  13.269  0.9283  1.3139 -1.1908
 7845SOL    HW235169   0.083   4.157  13.340  3.0036  2.1073 -1.1703
 7846SOL     OW35170   1.526   2.587   9.750  0.4282  0.1375 -0.2694
 7846SOL    HW135171   1.449   2.642   9.733  1.9297  1.6221 -2.2212
 7846SOL    HW235172   1.492   2.523   9.813 -0.3675  2.1573  1.3703
 7847SOL     OW35173   0.273   3.081   9.951  0.1185  0.1709 -0.1073
 7847SOL    HW135174   0.339   3.045  10.010 -0.9178  2.0218  2.1701
 7847SOL    HW235175   0.307   3.166   9.924 -0.7642  1.5082  2.9596
 7848SOL     OW35176   3.574   4.522  10.543  0.5051 -0.2641  0.0101
 7848SOL    HW135177   3.496   4.469  10.525  0.0594 -0.0107  1.2162
 7848SOL    HW235178   3.622   4.518  10.460  1.1134  3.4491  0.1939
 7849SOL     OW35179   3.642   4.290   7.439  0.0169 -0.1253 -0.4241
 7849SOL    HW135180   3.574   4.226   7.421  1.6546 -1.6582 -1.1322
 7849SOL    HW235181   3.614   4.348   7.368 -1.6888  0.2772  0.5688
 7850SOL     OW35182   4.395   3.527   5.056  0.7170  0.1370 -0.9070
 7850SOL    HW135183   4.442   3.589   5.113  0.0422  0.8230 -1.0897
 7850SOL    HW235184   4.320   3.506   5.111  1.0507  2.0254  0.2932
 7851SOL     OW35185   2.966   1.177   2.600 -0.4068 -0.2701 -0.0264
 7851SOL    HW135186   2.875   1.147   2.595 -0.5562  0.4534 -1.7329
 7851SOL    HW235187   3.008   1.169   2.514 -0.5130  0.0424 -0.1079
 7852SOL     OW35188   2.073   4.261   6.101 -0.0600 -0.1492 -0.3940
 7852SOL    HW135189   2.053   4.350   6.130 -2.3808 -1.2088  1.2389
 7852SOL    HW235190   2.157   4.279   6.058 -0.5842 -0.0457 -1.3741
 7853SOL     OW35191   3.729   3.605  15.047 -0.3443 -0.1134 -0.1398
 7853SOL    HW135192   3.766   3.653  15.120  0.9785 -0.5704 -0.5111
 7853SOL    HW235193   3.735   3.667  14.975  1.5465 -0.2827 -0.1187
 7854SOL     OW35194   3.109   3.385   6.260 -0.2142 -0.0953 -0.3182
 7854SOL    HW135195   3.090   3.466   6.213 -0.2544 -0.0098 -0.1526
 7854SOL    HW235196   3.203   3.391   6.246 -0.3463  1.5457 -0.5067
 7855SOL     OW35197   2.192   4.433   4.407 -0.4113  0.4402 -0.1821
 7855SOL    HW135198   2.163   4.441   4.316 -0.7702 -0.2935 -0.1308
 7855SOL    HW235199   2.280   4.397   4.399 -1.4286 -1.8699 -0.8405
 7856SOL     OW35200   3.003   2.174   9.616 -0.0305  0.2134  0.4223
 7856SOL    HW135201   3.082   2.216   9.583  0.4939 -0.1373  1.2450
 7856SOL    HW235202   3.029   2.126   9.694 -0.6010  0.0341  0.5065
 7857SOL     OW35203   2.817   3.843  14.866 -0.0332 -0.0340 -0.8241
 7857SOL    HW135204   2.785   3.760  14.831 -0.4970 -0.7786  1.3900
 7857SOL    HW235205   2.907   3.841  14.836 -0.2074 -2.0612 -1.1769
 7858SOL     OW35206   4.433   0.459   4.619 -0.4103  0.3899 -0.4117
 7858SOL    HW135207   4.463   0.416   4.699  0.8130  0.7198 -0.6934
 7858SOL    HW235208   4.338   0.448   4.618 -0.3158 -0.5092  1.7889
 7859SOL     OW35209   3.056   1.946   8.482  0.2746 -0.6361 -0.4983
 7859SOL    HW135210   3.081   1.863   8.441 -0.1872 -0.8260 -0.3957
 7859SOL    HW235211   3.018   1.981   8.401 -0.9898 -1.0098 -0.0682
 7860SOL     OW35212   1.985   3.592   7.718 -0.1146  0.3211  0.1968
 7860SOL    HW135213   1.992   3.515   7.662 -1.8446  1.4829 -1.5908
 7860SOL    HW235214   1.989   3.669   7.661 -2.3181 -1.0259 -1.7396
 7861SOL     OW35215   1.507   4.101   1.424 -0.1506 -0.0986  0.5640
 7861SOL    HW135216   1.460   4.061   1.498 -0.6324  1.4301  1.0828
 7861SOL    HW235217   1.488   4.033   1.358  0.6319 -0.6323  0.8905
 7862SOL     OW35218   2.692   3.888   5.854 -0.0379  0.1467 -0.4234
 7862SOL    HW135219   2.678   3.817   5.917  2.6743 -1.0556 -1.1593
 7862SOL    HW235220   2.773   3.850   5.821 -0.3218  0.5234 -1.5659
 7863SOL     OW35221   3.843   2.223   5.096 -0.3271  0.1702 -0.6215
 7863SOL    HW135222   3.777   2.291   5.105  2.0272  2.0697  2.3814
 7863SOL    HW235223   3.923   2.267   5.065 -0.4236  0.8187  0.0540
 7864SOL     OW35224   1.069   0.676   1.508  0.7991  0.1904  0.0004
 7864SOL    HW135225   0.980   0.658   1.538  1.2522 -3.1551 -0.7200
 7864SOL    HW235226   1.125   0.656   1.583  0.3001  2.9030  1.0973
 7865SOL     OW35227   1.495   4.562   7.992 -0.3108  0.3415 -0.4843
 7865SOL    HW135228   1.510   4.656   7.988  2.3356 -0.0006  0.9556
 7865SOL    HW235229   1.400   4.565   8.000 -0.2890  0.9629 -0.4484
 7866SOL     OW35230   4.489   4.317   9.108 -0.2518 -0.1152  0.2267
 7866SOL    HW135231   4.570   4.367   9.101  1.4214 -2.7283  1.2360
 7866SOL    HW235232   4.512   4.258   9.179 -0.4163 -0.1994  0.2105
 7867SOL     OW35233   2.042   1.418   2.832 -0.3673  0.3019 -0.5470
 7867SOL    HW135234   2.027   1.366   2.753 -2.0968  1.8446 -1.2461
 7867SOL    HW235235   1.957   1.404   2.874 -0.0014 -3.3674 -1.0910
 7868SOL     OW35236   1.348   3.760   6.115  0.5257 -0.3125  0.6315
 7868SOL    HW135237   1.436   3.793   6.095 -0.0890 -0.1532 -1.6872
 7868SOL    HW235238   1.382   3.672   6.134  0.7966 -0.4399 -0.4314
 7869SOL     OW35239   1.663   3.902  12.399  0.1571  0.1867 -0.6557
 7869SOL    HW135240   1.597   3.833  12.407  0.4644 -0.1775 -1.2607
 7869SOL    HW235241   1.640   3.963  12.468  2.2517  1.3458 -0.9869
 7870SOL     OW35242   3.737   1.473  13.402 -0.3113 -0.3853  0.2061
 7870SOL    HW135243   3.775   1.537  13.462 -0.4375 -1.2359  1.1917
 7870SOL    HW235244   3.810   1.411  13.394 -1.2918 -1.5130  0.1144
 7871SOL     OW35245   0.333   4.731   7.226  0.3530  0.1933 -0.8073
 7871SOL    HW135246   0.286   4.730   7.142 -0.1562  0.8523 -0.5305
 7871SOL    HW235247   0.364   0.082   7.239 -2.0622  0.8821 -0.0223
 7872SOL     OW35248   0.753   4.120   4.291 -0.2151  0.1504 -0.0505
 7872SOL    HW135249   0.671   4.073   4.303 -0.0751  0.2104  1.0834
 7872SOL    HW235250   0.804   4.057   4.342 -1.8244 -0.8615  0.2986
 7873SOL     OW35251   2.355   2.070   2.473 -0.0741 -0.0555  0.1035
 7873SOL    HW135252   2.288   2.028   2.528 -2.3255  3.6465  0.2154
 7873SOL    HW235253   2.310   2.090   2.391 -0.5018 -0.4265  0.2477
 7874SOL     OW35254   4.588   3.979  12.551  0.2112  0.3585  0.0554
 7874SOL    HW135255   4.683   3.988  12.558  0.2601 -1.0140  1.1706
 7874SOL    HW235256   4.559   4.067  12.526  0.3457 -0.3913 -2.7289
 7875SOL     OW35257   1.692   3.438   8.127  0.7869  0.5365  0.2874
 7875SOL    HW135258   1.753   3.498   8.084  0.2396 -0.4103 -1.8075
 7875SOL    HW235259   1.635   3.503   8.168 -0.5936 -0.3734 -0.1866
 7876SOL     OW35260   4.369   2.692   5.653 -0.2467  1.2800  0.2212
 7876SOL    HW135261   4.389   2.657   5.740  1.6593  1.3602 -0.1993
 7876SOL    HW235262   4.397   2.783   5.660 -0.7294  1.2854  1.9501
 7877SOL     OW35263   3.282   0.066   4.720 -0.0687 -0.3220  0.2132
 7877SOL    HW135264   3.344   0.037   4.654  1.4263  0.6589  1.1713
 7877SOL    HW235265   3.288   0.160   4.705 -2.4970 -0.4628 -1.5193
 7878SOL     OW35266   1.747   3.698  10.343 -0.0289  0.2670 -0.1183
 7878SOL    HW135267   1.808   3.699  10.417  1.4153  2.5647 -1.3723
 7878SOL    HW235268   1.667   3.719  10.392  0.7339 -0.6735  1.5210
 7879SOL     OW35269   0.119   2.544   9.099 -0.2563 -0.0317 -0.0698
 7879SOL    HW135270   0.188   2.591   9.053 -2.2676  2.1215 -0.8714
 7879SOL    HW235271   0.099   2.480   9.032 -1.1016 -1.4928  1.5783
 7880SOL     OW35272   3.281   1.975   1.139 -0.3243  0.2298 -0.2627
 7880SOL    HW135273   3.237   2.060   1.139  0.7294  0.7414  3.9144
 7880SOL    HW235274   3.236   1.944   1.218  0.8883 -1.8091 -0.3504
 7881SOL     OW35275   2.853   2.061   4.296  0.3737 -0.1559  0.2649
 7881SOL    HW135276   2.786   2.051   4.229 -0.8707  0.2557  1.4477
 7881SOL    HW235277   2.893   2.144   4.268  1.5534 -1.1712 -1.0398
 7882SOL     OW35278   0.662   3.162   3.862 -0.5069 -0.6119 -0.2216
 7882SOL    HW135279   0.623   3.136   3.778 -1.0085  3.4533 -1.2480
 7882SOL    HW235280   0.746   3.194   3.829  0.2526 -2.0043  0.3877
 7883SOL     OW35281   3.443   1.446   2.069 -0.2407  0.2751 -0.2751
 7883SOL    HW135282   3.388   1.506   2.120 -0.8031  0.2438 -0.8483
 7883SOL    HW235283   3.377   1.399   2.017 -0.7151 -0.3305  0.8741
 7884SOL     OW35284   3.509   1.630   3.625  0.3848  0.2916  0.7564
 7884SOL    HW135285   3.486   1.720   3.647 -0.7063  0.0544  0.5905
 7884SOL    HW235286   3.544   1.643   3.536  0.8073  0.3917  0.9366
 7885SOL     OW35287   3.568   1.826   4.195 -0.0117 -0.2944 -0.9262
 7885SOL    HW135288   3.563   1.876   4.114 -0.2948 -0.0525 -0.7606
 7885SOL    HW235289   3.661   1.805   4.197  0.0198 -0.1197 -0.5756
 7886SOL     OW35290   2.233   0.329   1.423 -0.2470 -0.7242 -0.0307
 7886SOL    HW135291   2.185   0.259   1.467 -1.2306 -0.3772 -0.5546
 7886SOL    HW235292   2.170   0.345   1.352 -0.5283  0.7947  0.5627
 7887SOL     OW35293   3.636   2.556   5.621 -0.2017  0.5276  0.0385
 7887SOL    HW135294   3.657   2.528   5.532 -1.4909 -1.4203  0.3398
 7887SOL    HW235295   3.716   2.545   5.673  0.7917  1.2719 -1.3376
 7888SOL     OW35296   1.939   2.453   3.294  0.1185 -0.0240 -0.2969
 7888SOL    HW135297   1.931   2.358   3.282  1.6366 -0.1002 -0.6289
 7888SOL    HW235298   1.980   2.474   3.210 -0.1955 -0.8117 -0.6571
 7889SOL     OW35299   0.520   2.450   5.605 -0.1182 -0.1572  0.2539
 7889SOL    HW135300   0.612   2.478   5.598 -0.2241 -0.1063 -0.8935
 7889SOL    HW235301   0.511   2.432   5.699 -1.2894 -1.7810 -0.1834
 7890SOL     OW35302   3.472   3.593   7.142  0.0968  0.0137 -0.7782
 7890SOL    HW135303   3.415   3.516   7.140  1.2620 -0.8935  0.4020
 7890SOL    HW235304   3.424   3.660   7.191  2.2083  2.9643 -2.7389
 7891SOL     OW35305   3.001   3.800   1.047  0.4096 -0.2543 -0.5711
 7891SOL    HW135306   3.093   3.804   1.074 -0.4794  4.6726  1.8166
 7891SOL    HW235307   2.969   3.871   1.103 -2.2345 -1.7265 -0.2268
 7892SOL     OW35308   3.660   0.557   3.041 -1.0018  0.1346 -0.4015
 7892SOL    HW135309   3.741   0.605   3.056  0.5379 -2.0157 -1.8766
 7892SOL    HW235310   3.684   0.469   3.070 -2.8629 -0.4256 -0.5312
 7893SOL     OW35311   0.985   0.308   3.011  0.0069 -0.6212  0.2366
 7893SOL    HW135312   1.058   0.370   3.015 -0.0006 -0.7296  2.0240
 7893SOL    HW235313   0.958   0.310   3.102 -0.8266  0.5249 -0.0320
 7894SOL     OW35314   3.873   3.665   1.960  0.3804 -0.4792  0.0451
 7894SOL    HW135315   3.846   3.754   1.982 -0.7727 -1.1010  1.1435
 7894SOL    HW235316   3.895   3.681   1.869 -0.0609 -1.0856 -0.1645
 7895SOL     OW35317   0.840   0.953   2.902 -0.1473  0.3537 -0.1847
 7895SOL    HW135318   0.929   0.919   2.913  0.2195  0.8788 -1.5317
 7895SOL    HW235319   0.791   0.876   2.875  0.4000 -0.7478  1.9902
 7896SOL     OW35320   0.900   2.904  16.911 -0.2293  1.1250  0.2776
 7896SOL    HW135321   0.836   2.975  16.904 -2.8927 -1.0763  2.3817
 7896SOL    HW235322   0.978   2.950  16.942  0.4071 -0.2369  0.6978
 7897SOL     OW35323   1.418   2.581  15.906  1.0307  0.4916 -0.1943
 7897SOL    HW135324   1.390   2.554  15.818  2.6458 -1.5918 -0.0739
 7897SOL    HW235325   1.511   2.559  15.917  1.2949  2.3063  1.2000
 7898SOL     OW35326   1.518   2.706   8.576  0.1075 -0.6157  0.1204
 7898SOL    HW135327   1.558   2.674   8.656  1.0835 -2.6496 -1.1824
 7898SOL    HW235328   1.568   2.778   8.537  0.0734 -1.0043 -0.6515
 7899SOL     OW35329   3.484   3.665   5.100  0.4119 -0.6361 -0.8501
 7899SOL    HW135330   3.535   3.622   5.031 -2.7681 -2.6547 -1.9237
 7899SOL    HW235331   3.407   3.609   5.093  0.4002 -0.6849 -0.3727
 7900SOL     OW35332   0.700   1.538   3.229  0.2088 -0.8057  0.1472
 7900SOL    HW135333   0.618   1.489   3.219 -1.2907  1.6935  0.1431
 7900SOL    HW235334   0.660   1.625   3.231  1.5468 -0.1628 -0.6184
 7901SOL     OW35335   2.523   2.199   7.492 -0.1728 -0.3641 -0.0915
 7901SOL    HW135336   2.451   2.224   7.549 -0.1603  0.1810 -0.3196
 7901SOL    HW235337   2.575   2.142   7.549 -1.4680 -1.4770 -0.0227
 7902SOL     OW35338   3.150   4.522  15.912 -0.3600  0.3665 -0.7543
 7902SOL    HW135339   3.085   4.498  15.846  0.3883  2.4876 -2.2790
 7902SOL    HW235340   3.223   4.528  15.850  1.0669 -1.5767  0.7429
 7903SOL     OW35341   3.015   3.297   6.504  0.0002 -0.0933 -0.0408
 7903SOL    HW135342   3.081   3.363   6.526 -0.8539  0.3043  1.2829
 7903SOL    HW235343   3.018   3.304   6.408  0.8894  0.9366  0.0623
 7904SOL     OW35344   1.784   1.101   5.101  0.0043 -0.0844  0.3599
 7904SOL    HW135345   1.832   1.078   5.181  0.4483  0.4469  0.2512
 7904SOL    HW235346   1.756   1.016   5.070 -0.1657 -0.2872  1.0684
 7905SOL     OW35347   2.236   4.173  14.748 -0.3235 -0.0140  0.7158
 7905SOL    HW135348   2.298   4.127  14.690  1.0075  2.5386  0.1103
 7905SOL    HW235349   2.291   4.190  14.824 -1.1007  2.3142  0.7584
 7906SOL     OW35350   2.674   0.120  12.915 -0.1277  0.4506 -0.3312
 7906SOL    HW135351   2.689   0.048  12.854 -0.2211  1.1960 -1.2509
 7906SOL    HW235352   2.759   0.165  12.914 -0.9903  2.0710 -1.7208
 7907SOL     OW35353   4.289   0.488   5.845  0.3780 -0.6611 -0.2110
 7907SOL    HW135354   4.211   0.540   5.862  0.8038  0.6045 -2.1247
 7907SOL    HW235355   4.276   0.436   5.924 -0.1632 -1.4878 -0.8442
 7908SOL     OW35356   1.919   1.439   9.172  0.3431 -0.5089 -0.2785
 7908SOL    HW135357   1.826   1.453   9.188  0.2407  0.8387 -2.0365
 7908SOL    HW235358   1.921   1.343   9.175 -1.1186 -0.5510 -0.6656
 7909SOL     OW35359   2.322   2.094   7.976  0.1116 -0.3947  0.2889
 7909SOL    HW135360   2.337   2.188   7.976 -1.2114 -0.1866 -0.2814
 7909SOL    HW235361   2.226   2.093   7.977  0.1538 -2.3604  2.5300
 7910SOL     OW35362   4.099   2.684   4.526 -0.6702  0.1294  0.0243
 7910SOL    HW135363   4.071   2.698   4.616 -1.0337 -0.7715  0.0497
 7910SOL    HW235364   4.037   2.619   4.496 -1.1801 -0.4854  2.4359
 7911SOL     OW35365   1.310   3.230   1.974 -0.1976  0.4045  0.1212
 7911SOL    HW135366   1.247   3.158   1.982  1.9844 -1.6114 -0.9098
 7911SOL    HW235367   1.360   3.211   1.895  2.2097  0.8420  1.5398
 7912SOL     OW35368   1.086   0.873   2.941  0.3984 -0.4143 -0.4137
 7912SOL    HW135369   1.142   0.799   2.963  1.6523  0.7120  0.1290
 7912SOL    HW235370   1.141   0.921   2.879  0.4616  1.3693  1.0491
 7913SOL     OW35371   4.316   4.589   2.594 -0.2420 -0.1246 -0.5564
 7913SOL    HW135372   4.319   4.685   2.593 -0.2358 -0.1130  0.6240
 7913SOL    HW235373   4.390   4.570   2.652 -0.3131  0.2347 -0.3424
 7914SOL     OW35374   0.474   3.562  16.403 -0.4503  0.4971  0.7671
 7914SOL    HW135375   0.563   3.535  16.425 -0.3512 -0.1689 -0.4214
 7914SOL    HW235376   0.430   3.572  16.487 -0.0296 -1.1740  1.2005
 7915SOL     OW35377   0.712   1.388   4.009  0.1057 -0.5504  0.1936
 7915SOL    HW135378   0.649   1.417   3.942  0.1206 -2.1685 -0.5095
 7915SOL    HW235379   0.729   1.304   3.966 -0.0038 -1.3464  1.7374
 7916SOL     OW35380   1.342   0.609   0.159 -0.0115  0.3589  0.0557
 7916SOL    HW135381   1.365   0.626   0.250  0.8133 -0.3356 -0.0211
 7916SOL    HW235382   1.384   0.524   0.146  0.1478  0.6232 -1.1877
 7917SOL     OW35383   2.470   4.414   2.462 -0.2829  0.5696 -0.2304
 7917SOL    HW135384   2.512   4.493   2.497 -0.5698  1.1857 -1.2929
 7917SOL    HW235385   2.405   4.398   2.530  0.6566 -0.0943  0.5198
 7918SOL     OW35386   1.572   1.347   7.798 -0.0381 -0.5733 -0.5993
 7918SOL    HW135387   1.573   1.442   7.806 -0.2563 -0.9007  3.3511
 7918SOL    HW235388   1.516   1.345   7.720  0.2262 -3.4826 -0.7355
 7919SOL     OW35389   0.057   2.047   2.411  0.0544 -0.0166  0.2960
 7919SOL    HW135390   4.707   2.082   2.415  0.4208  0.9331 -0.0635
 7919SOL    HW235391   0.057   1.963   2.458  3.3240 -0.8631 -1.2407
 7920SOL     OW35392   1.452   4.321   4.987 -0.2366 -0.1392  0.3037
 7920SOL    HW135393   1.440   4.399   4.932  0.4005 -0.6813 -0.5975
 7920SOL    HW235394   1.366   4.281   4.995 -0.4905  0.0270 -1.6678
 7921SOL     OW35395   3.331   0.484  15.129  0.1648 -0.1867 -0.4083
 7921SOL    HW135396   3.411   0.535  15.139 -0.4209  1.1215 -2.5105
 7921SOL    HW235397   3.316   0.446  15.216 -0.4465  0.4135 -0.2530
 7922SOL     OW35398   0.220   3.620   2.703  0.4157  0.4999  0.5761
 7922SOL    HW135399   0.279   3.657   2.636  0.0296  0.3242  0.1386
 7922SOL    HW235400   0.198   3.702   2.748 -0.7674  1.0749 -1.0588
 7923SOL     OW35401   1.021   1.629  14.598 -0.1751  0.7288  0.6679
 7923SOL    HW135402   1.095   1.599  14.546 -0.8948  3.0780 -1.6659
 7923SOL    HW235403   1.019   1.557  14.662  0.8231  1.0371  1.0342
 7924SOL     OW35404   2.830   0.698   2.830  0.7496 -0.0253 -0.3774
 7924SOL    HW135405   2.778   0.749   2.892  1.9872 -0.5158  1.0524
 7924SOL    HW235406   2.914   0.740   2.845  1.4422 -1.1460 -1.0497
 7925SOL     OW35407   3.304   1.718   7.669 -0.3368  0.3738  0.2895
 7925SOL    HW135408   3.398   1.726   7.654 -0.8751  3.1504 -1.6174
 7925SOL    HW235409   3.260   1.791   7.625 -0.8856 -1.1426 -1.6454
 7926SOL     OW35410   2.995   1.675  15.193  0.9952 -0.5653 -0.1541
 7926SOL    HW135411   3.041   1.597  15.226 -1.3117  0.4077  5.4250
 7926SOL    HW235412   2.905   1.644  15.187  0.5391  0.6131  0.5439
 7927SOL     OW35413   3.322   3.160   4.499 -0.5096  0.4721 -0.4748
 7927SOL    HW135414   3.349   3.207   4.420  0.2062  0.7480 -0.0684
 7927SOL    HW235415   3.335   3.070   4.471 -1.1207  0.3231 -0.2805
 7928SOL     OW35416   0.326   4.383   6.809 -0.4147 -0.2038  0.0843
 7928SOL    HW135417   0.311   4.460   6.864  0.7291  0.4811 -0.5593
 7928SOL    HW235418   0.262   4.327   6.853 -0.5863  0.7659  1.0462
 7929SOL     OW35419   1.010   0.232   9.353 -0.1385  0.6140 -0.0181
 7929SOL    HW135420   1.076   0.163   9.360 -1.5742 -0.8940 -1.4940
 7929SOL    HW235421   1.046   0.284   9.281 -0.0040  0.1433 -0.2865
 7930SOL     OW35422   0.005   4.318   8.409 -0.0896  0.2302 -0.5506
 7930SOL    HW135423   4.658   4.275   8.406 -1.1926  2.3910 -0.0488
 7930SOL    HW235424   4.727   4.410   8.388  0.7034  0.6803  0.7685
 7931SOL     OW35425   3.642   1.223  16.675  0.4724  0.3659 -0.5527
 7931SOL    HW135426   3.577   1.170  16.627  0.9152 -0.0910 -0.6482
 7931SOL    HW235427   3.599   1.307  16.688 -0.2893 -0.2931  1.2491
 7932SOL     OW35428   3.270   4.197   4.828 -0.2371  0.2240  0.0879
 7932SOL    HW135429   3.219   4.222   4.751 -1.2635 -2.3487 -0.0542
 7932SOL    HW235430   3.293   4.105   4.813  1.5097  0.5951  0.4651
 7933SOL     OW35431   0.042   2.637   1.885  0.2373  0.7400 -0.7088
 7933SOL    HW135432   4.691   2.642   1.852 -0.1671  0.1737  0.2946
 7933SOL    HW235433   0.043   2.559   1.941 -0.1752 -0.6827 -2.6748
 7934SOL     OW35434   3.920   3.569   6.218 -0.1917  0.0559 -0.1989
 7934SOL    HW135435   3.845   3.625   6.199 -0.3732 -0.3703 -0.7420
 7934SOL    HW235436   3.896   3.489   6.170  2.8625 -1.0430  0.0553
 7935SOL     OW35437   4.685   4.267   3.696  0.3870  0.4454  0.1304
 7935SOL    HW135438   4.700   4.200   3.630  1.2064 -0.7997  1.5914
 7935SOL    HW235439   4.597   4.301   3.679  0.3202  0.2513  0.0969
 7936SOL     OW35440   1.666   2.059   6.645 -0.5506 -0.0452  0.7592
 7936SOL    HW135441   1.756   2.073   6.674  0.1090 -1.0348 -0.7976
 7936SOL    HW235442   1.642   1.968   6.659  0.1663 -0.4495 -0.6241
 7937SOL     OW35443   1.332   4.409   4.639 -0.1380  0.1794  0.4200
 7937SOL    HW135444   1.318   4.402   4.545  1.2056  3.4332 -0.0089
 7937SOL    HW235445   1.426   4.421   4.649  0.5073 -1.9669 -3.1389
 7938SOL     OW35446   4.220   3.186   1.525  0.1376  0.3939  0.2724
 7938SOL    HW135447   4.141   3.232   1.552  0.9729  1.3650  1.0408
 7938SOL    HW235448   4.266   3.243   1.462 -0.1672  1.1460  0.7339
 7939SOL     OW35449   3.109   2.015   9.319 -0.0135 -0.8529 -0.0808
 7939SOL    HW135450   3.106   1.920   9.311 -0.9672 -0.7983 -0.3904
 7939SOL    HW235451   3.036   2.046   9.265 -1.1726 -1.1072  1.3310
 7940SOL     OW35452   2.301   3.306  17.430  0.0400 -0.1045  0.3284
 7940SOL    HW135453   2.267   3.394  17.413  0.4215  0.1045  0.6322
 7940SOL    HW235454   2.289   3.266  17.344  1.5091  3.0280 -1.3370
 7941SOL     OW35455   1.541   1.613  16.528  0.1082  0.4312 -0.0412
 7941SOL    HW135456   1.479   1.684  16.513  1.0185  1.3709  0.7011
 7941SOL    HW235457   1.628   1.651  16.536 -0.0203  0.9265 -0.9764
 7942SOL     OW35458   1.055   3.589   2.102  0.2111  0.2073  0.1091
 7942SOL    HW135459   1.114   3.561   2.032 -0.3877  1.8952 -1.0827
 7942SOL    HW235460   0.991   3.646   2.060  0.6532 -0.2983 -1.2433
 7943SOL     OW35461   4.071   4.417   5.552 -0.5316  0.1656 -0.4220
 7943SOL    HW135462   3.979   4.411   5.577 -0.4279 -1.6777 -0.4381
 7943SOL    HW235463   4.108   4.349   5.609  1.9140  1.3239 -0.6352
 7944SOL     OW35464   0.177   3.357   8.869  0.2895 -0.0172  0.2468
 7944SOL    HW135465   0.230   3.435   8.855 -0.7769  0.3581 -1.7108
 7944SOL    HW235466   0.208   3.337   8.958 -0.5233  0.1037  0.5578
 7945SOL     OW35467   4.368   2.492   5.872  0.2028  0.9056  0.4809
 7945SOL    HW135468   4.390   2.494   5.965  0.5422 -0.2551  0.4187
 7945SOL    HW235469   4.449   2.457   5.837 -1.1354  0.2280 -1.9304
 7946SOL     OW35470   4.181   3.208  13.160  0.2197  0.3633  0.2182
 7946SOL    HW135471   4.165   3.140  13.225 -0.6619  1.8525  1.5426
 7946SOL    HW235472   4.227   3.278  13.205  0.3017 -0.3644  1.2641
 7947SOL     OW35473   2.063   4.600  10.231 -0.2672  0.0083  0.1286
 7947SOL    HW135474   2.022   4.684  10.252 -0.4898 -0.2320  0.6566
 7947SOL    HW235475   2.137   4.618  10.173  1.2547 -2.9327  1.1765
 7948SOL     OW35476   3.134   1.863   9.682  0.2880  0.4332  0.1432
 7948SOL    HW135477   3.131   1.895   9.592 -0.2567  0.5384  0.2005
 7948SOL    HW235478   3.225   1.833   9.688 -0.0664 -0.5063  0.8568
 7949SOL     OW35479   0.454   1.849  12.249 -0.1524 -0.1879  0.2205
 7949SOL    HW135480   0.410   1.934  12.255  2.0069  1.0929 -2.0684
 7949SOL    HW235481   0.444   1.818  12.339  0.3244 -2.4156 -0.4867
 7950SOL     OW35482   0.865   2.691   4.550 -0.8744  0.7051  0.1747
 7950SOL    HW135483   0.903   2.744   4.620  0.6868  1.5283 -1.3101
 7950SOL    HW235484   0.799   2.751   4.515  2.3145  3.2361 -1.4545
 7951SOL     OW35485   1.373   1.295   1.502  0.4169 -0.7842  0.7477
 7951SOL    HW135486   1.328   1.274   1.584 -0.3430  1.0698  0.8059
 7951SOL    HW235487   1.326   1.232   1.448 -0.2274  1.3218 -1.1499
 7952SOL     OW35488   1.693   3.549   6.374 -0.2919 -0.4876  0.3005
 7952SOL    HW135489   1.714   3.508   6.458 -0.7394 -0.5359  0.3913
 7952SOL    HW235490   1.774   3.589   6.345 -0.6383 -1.1933 -1.7055
 7953SOL     OW35491   2.357   4.179   6.143  0.1407  0.1048 -0.5966
 7953SOL    HW135492   2.426   4.116   6.120 -0.5603 -1.6555  2.2055
 7953SOL    HW235493   2.343   4.226   6.061 -0.1704  0.4354 -0.3547
 7954SOL     OW35494   0.736   0.234  16.814 -0.1003 -0.4158  0.2179
 7954SOL    HW135495   0.736   0.276  16.728 -1.7098  0.2938  0.5686
 7954SOL    HW235496   0.831   0.222  16.826 -0.1158 -1.0736 -0.3489
 7955SOL     OW35497   3.977   4.571   0.802 -0.3157  0.5726  0.2923
 7955SOL    HW135498   3.974   4.586   0.707 -1.4213 -0.3231  0.1866
 7955SOL    HW235499   3.938   4.653   0.833  1.3550  1.0325  1.1474
 7956SOL     OW35500   0.263   0.290   7.943  0.1791 -0.1006 -0.0847
 7956SOL    HW135501   0.222   0.228   8.003 -2.4097  1.4893 -0.2008
 7956SOL    HW235502   0.194   0.354   7.927 -2.1743 -2.2042  1.6998
 7957SOL     OW35503   1.643   4.713   7.632 -0.3554  0.0220  0.0874
 7957SOL    HW135504   1.623   4.620   7.639  3.9084 -0.9798 -0.5772
 7957SOL    HW235505   1.567   0.007   7.680  0.7416 -0.9767  2.5354
 7958SOL     OW35506   2.055   4.007   6.163 -0.1222  0.1261  0.0023
 7958SOL    HW135507   2.028   3.944   6.096 -0.0225 -1.4402  1.4437
 7958SOL    HW235508   2.058   4.089   6.114 -2.2852 -1.8670 -3.4884
 7959SOL     OW35509   1.156   4.328  12.547  0.1430 -0.8499  0.3879
 7959SOL    HW135510   1.153   4.401  12.485 -0.1769 -1.4504 -0.3128
 7959SOL    HW235511   1.210   4.264  12.500  1.3238  0.3137  0.1612
 7960SOL     OW35512   3.485   3.420   7.698  0.5878 -0.1100  0.1855
 7960SOL    HW135513   3.452   3.434   7.609 -1.2864 -0.0834  0.8856
 7960SOL    HW235514   3.414   3.454   7.752 -0.4577 -0.6486 -0.8376
 7961SOL     OW35515   3.200   2.556   3.517 -0.1540  0.2792 -0.2095
 7961SOL    HW135516   3.229   2.479   3.567 -0.2913 -0.1766 -0.8249
 7961SOL    HW235517   3.213   2.624   3.582  1.4175  0.5236 -0.7815
 7962SOL     OW35518   0.101   0.510   6.612 -0.2110 -0.4063 -0.2876
 7962SOL    HW135519   0.104   0.424   6.653 -0.2717  0.7823  2.1942
 7962SOL    HW235520   0.007   0.532   6.614  0.4034  2.2693 -0.3589
 7963SOL     OW35521   4.617   1.780   9.103 -0.2642  0.6942  0.7134
 7963SOL    HW135522   4.550   1.801   9.168 -0.9662  2.1538 -0.4983
 7963SOL    HW235523   4.609   1.851   9.040 -0.8433 -0.0642 -0.0617
 7964SOL     OW35524   1.729   0.969   2.778 -0.1586  0.7381 -0.6767
 7964SOL    HW135525   1.671   0.956   2.853  2.1999  0.0325  1.0259
 7964SOL    HW235526   1.722   0.890   2.725 -0.7905 -0.7831  1.6903
 7965SOL     OW35527   2.865   2.370   4.338  0.7312  0.2310  0.1312
 7965SOL    HW135528   2.941   2.329   4.297  0.8214  0.0160  0.5130
 7965SOL    HW235529   2.820   2.401   4.259 -2.2258 -4.2944  0.0591
 7966SOL     OW35530   3.137   1.608  13.503 -0.2755  0.1738  0.7177
 7966SOL    HW135531   3.080   1.645  13.436  0.2573 -0.2165  0.0442
 7966SOL    HW235532   3.189   1.551  13.445 -0.3967  1.0078 -0.2073
 7967SOL     OW35533   2.231   4.376   8.470 -0.4393  0.1698 -0.0238
 7967SOL    HW135534   2.239   4.352   8.562 -0.4986  0.4261  0.0501
 7967SOL    HW235535   2.233   4.290   8.429  4.3370 -0.4201  1.5058
 7968SOL     OW35536   1.602   3.190  10.795 -0.5749  0.3312  0.1061
 7968SOL    HW135537   1.533   3.130  10.823 -0.4592  0.8774  1.5709
 7968SOL    HW235538   1.666   3.124  10.770 -0.5147 -0.0293  1.2306
 7969SOL     OW35539   1.674   1.316   1.592  0.1129  0.1410 -0.5538
 7969SOL    HW135540   1.586   1.320   1.553  0.5172  0.6315 -1.4007
 7969SOL    HW235541   1.700   1.225   1.605  0.0164  0.5025  2.1872
 7970SOL     OW35542   4.377   2.026   9.176  0.6138 -0.1605  0.6909
 7970SOL    HW135543   4.435   2.019   9.100  1.7717  0.4742  1.5243
 7970SOL    HW235544   4.338   2.109   9.149  0.6580  0.0027  1.1339
 7971SOL     OW35545   3.778   2.198   3.370 -0.3954  0.6197 -0.3084
 7971SOL    HW135546   3.702   2.141   3.384  1.7396 -2.3136 -0.7242
 7971SOL    HW235547   3.842   2.162   3.432 -0.2127 -1.7285 -1.8852
 7972SOL     OW35548   3.386   0.008  13.432  0.0670 -0.1212  0.3832
 7972SOL    HW135549   3.363   0.086  13.380 -0.6285  0.9665  2.3161
 7972SOL    HW235550   3.450   4.708  13.373 -1.2533 -1.6961 -0.0083
 7973SOL     OW35551   0.866   3.570   5.320 -0.9984  0.0480  1.0503
 7973SOL    HW135552   0.872   3.614   5.405  0.2406 -0.7834  1.3953
 7973SOL    HW235553   0.901   3.489   5.356  1.2410  0.7462  0.4380
 7974SOL     OW35554   4.526   0.449   2.296  0.0446  0.0865 -0.2009
 7974SOL    HW135555   4.524   0.465   2.390  0.2555  0.4275 -0.2515
 7974SOL    HW235556   4.600   0.503   2.267 -1.5677  1.0664 -2.4914
 7975SOL     OW35557   1.565   3.244   4.596 -0.2870  0.1659  0.1661
 7975SOL    HW135558   1.529   3.202   4.517  0.7751 -1.9181  0.7921
 7975SOL    HW235559   1.543   3.186   4.669 -0.7070 -1.1639 -1.0143
 7976SOL     OW35560   0.898   1.432   3.348 -0.2509  0.4886 -0.0804
 7976SOL    HW135561   0.834   1.493   3.310 -0.8396  1.4994  2.5337
 7976SOL    HW235562   0.964   1.436   3.279  0.3405  1.9429  0.5590
 7977SOL     OW35563   2.704   2.281   4.561 -0.2195  0.5546  0.1768
 7977SOL    HW135564   2.667   2.354   4.611 -1.7276 -0.7908  1.0076
 7977SOL    HW235565   2.749   2.321   4.486  0.2506 -0.7442 -0.2415
 7978SOL     OW35566   0.349   0.579   7.814  0.3126  0.1414  0.0081
 7978SOL    HW135567   0.254   0.579   7.830  0.1201 -0.5811 -1.1390
 7978SOL    HW235568   0.380   0.586   7.904 -1.0792 -0.2753  0.5319
 7979SOL     OW35569   0.194   3.135   8.689  0.4597  0.1724  0.5023
 7979SOL    HW135570   0.114   3.135   8.636 -0.2847 -2.2215  1.6132
 7979SOL    HW235571   0.168   3.194   8.760 -1.2991  0.6481 -0.5374
 7980SOL     OW35572   1.560   0.931  16.784  0.1395 -0.3100  0.4369
 7980SOL    HW135573   1.489   0.905  16.843  0.2021  0.0667  0.6759
 7980SOL    HW235574   1.530   1.021  16.799 -0.5573 -0.6370  0.9995
 7981SOL     OW35575   1.654   1.692   7.217  0.3250  0.0068  0.1057
 7981SOL    HW135576   1.737   1.739   7.221  0.5139 -0.4475  1.4338
 7981SOL    HW235577   1.677   1.604   7.187 -1.5589 -0.4356 -0.0668
 7982SOL     OW35578   0.633   1.400   5.923  0.1565  0.1581 -0.0514
 7982SOL    HW135579   0.702   1.334   5.921  0.9512  0.9952 -0.1347
 7982SOL    HW235580   0.592   1.380   5.839  1.5027 -0.2091 -0.6120
 7983SOL     OW35581   3.250   3.617   4.739 -0.5834  0.5975  0.1473
 7983SOL    HW135582   3.237   3.524   4.722  1.5933  0.1973  0.6848
 7983SOL    HW235583   3.232   3.655   4.653  2.2706 -1.3711 -1.3274
 7984SOL     OW35584   3.739   4.499   8.663 -0.8898  0.0935 -0.0275
 7984SOL    HW135585   3.647   4.509   8.687 -0.3494 -0.3716  2.2218
 7984SOL    HW235586   3.773   4.417   8.699 -1.8586 -0.5566 -0.5872
 7985SOL     OW35587   0.105   0.619   2.591  0.2400 -0.3346 -0.1845
 7985SOL    HW135588   0.197   0.615   2.565 -0.0607 -0.2734 -1.2425
 7985SOL    HW235589   0.058   0.603   2.509 -0.8771 -0.8865  0.5757
 7986SOL     OW35590   3.478   1.468   6.697 -0.5208  0.5002  0.4066
 7986SOL    HW135591   3.565   1.434   6.675 -0.7865 -0.4991  0.8904
 7986SOL    HW235592   3.417   1.395   6.687 -0.9214  0.7300  1.1747
 7987SOL     OW35593   4.467   2.484   6.133  0.4064  0.2339  0.1596
 7987SOL    HW135594   4.424   2.441   6.207 -0.3933 -1.7204 -1.4298
 7987SOL    HW235595   4.543   2.426   6.129  1.5790  1.7908 -0.1511
 7988SOL     OW35596   3.021   4.705  14.518  0.5060 -0.0363 -0.4707
 7988SOL    HW135597   3.023   4.728  14.611  0.0505 -1.0638 -0.2006
 7988SOL    HW235598   3.020   4.611  14.535  2.1437 -0.3412 -2.0137
 7989SOL     OW35599   4.067   2.069   7.111 -0.1599  0.0789 -0.3990
 7989SOL    HW135600   4.066   2.048   7.018  2.1859 -1.0971 -0.1544
 7989SOL    HW235601   4.153   2.109   7.115  0.4070 -1.4240  2.3631
 7990SOL     OW35602   1.421   1.345   0.881  0.3142 -0.0348  0.4946
 7990SOL    HW135603   1.471   1.376   0.956  0.6606  0.6246 -0.0066
 7990SOL    HW235604   1.337   1.386   0.901  0.2636 -0.1349  0.4848
 7991SOL     OW35605   3.755   2.101   7.549  0.3483 -0.5182  0.3528
 7991SOL    HW135606   3.801   2.024   7.580 -0.4673 -0.8560  0.7354
 7991SOL    HW235607   3.787   2.110   7.460 -1.3689  0.0623 -0.2091
 7992SOL     OW35608   1.843   2.569   3.867 -0.3315  0.0995 -0.1990
 7992SOL    HW135609   1.918   2.539   3.815  0.4097  0.0293  0.9062
 7992SOL    HW235610   1.866   2.527   3.950  0.0286  0.3084 -0.1941
 7993SOL     OW35611   0.418   3.418   5.529 -0.2063 -0.0486  0.5436
 7993SOL    HW135612   0.485   3.438   5.465  0.0744 -0.0651  0.8296
 7993SOL    HW235613   0.393   3.331   5.500  1.6307 -1.5310  3.3523
 7994SOL     OW35614   4.362   1.423   5.810  0.1854  0.2469 -0.0768
 7994SOL    HW135615   4.302   1.497   5.817  0.1500  0.4178 -2.2372
 7994SOL    HW235616   4.301   1.353   5.834  0.7312 -0.2165 -0.0463
 7995SOL     OW35617   3.392   3.206  11.375  0.5316 -0.3095  0.0287
 7995SOL    HW135618   3.487   3.197  11.386  0.6769 -1.5751 -2.2639
 7995SOL    HW235619   3.382   3.207  11.280 -0.3343  2.0212  0.1481
 7996SOL     OW35620   4.531   1.256   5.645  0.3640  0.3775  0.1837
 7996SOL    HW135621   4.475   1.323   5.684  1.2281  1.6624 -0.7862
 7996SOL    HW235622   4.579   1.236   5.725  1.8344 -1.8323 -1.2470
 7997SOL     OW35623   2.692   0.062   8.109 -0.4784 -0.2384 -0.1579
 7997SOL    HW135624   2.673   4.708   8.112 -1.1398 -0.0497  1.5548
 7997SOL    HW235625   2.782   0.068   8.075  0.0883 -1.7275  1.0987
 7998SOL     OW35626   1.714   1.455   8.848  0.3166 -0.0773 -0.0754
 7998SOL    HW135627   1.716   1.398   8.771  2.2900 -1.3895  0.9548
 7998SOL    HW235628   1.807   1.456   8.869  0.4331 -0.0671 -0.5951
 7999SOL     OW35629   3.687   0.668  12.688 -0.0478 -0.4506 -0.4557
 7999SOL    HW135630   3.619   0.615  12.729  0.3950  1.1975  2.4359
 7999SOL    HW235631   3.764   0.610  12.691 -0.7573 -1.3879 -0.5445
 8000SOL     OW35632   2.135   3.361   4.887  0.1379  0.1454 -0.2415
 8000SOL    HW135633   2.224   3.396   4.892 -0.0736  0.5681  0.4592
 8000SOL    HW235634   2.094   3.425   4.829 -1.7923 -1.5222 -0.7480
 8001SOL     OW35635   3.194   4.709   5.720 -0.6378  0.3718  0.8211
 8001SOL    HW135636   3.237   4.685   5.638 -0.9462 -0.4320  0.8957
 8001SOL    HW235637   3.224   0.061   5.721  1.7640 -0.4115 -0.1643
 8002SOL     OW35638   4.467   4.137   2.273 -0.2082 -0.1636 -0.7991
 8002SOL    HW135639   4.407   4.065   2.293 -0.1138 -0.1075 -0.3104
 8002SOL    HW235640   4.556   4.102   2.275 -0.5533 -1.0349 -0.6480
 8003SOL     OW35641   0.577   4.571   6.574 -0.0621  0.6778 -0.0614
 8003SOL    HW135642   0.612   4.499   6.523 -1.5620  0.4143 -0.7181
 8003SOL    HW235643   0.516   4.614   6.514 -0.2914  0.0592 -0.2686
 8004SOL     OW35644   0.281   1.718   4.044  1.6563  0.0582  0.2292
 8004SOL    HW135645   0.226   1.740   4.119  0.4110 -2.0235 -0.0807
 8004SOL    HW235646   0.325   1.802   4.029  1.1181  0.5848  1.5574
 8005SOL     OW35647   3.858   1.371   6.299  0.2627  0.3745  0.0537
 8005SOL    HW135648   3.796   1.440   6.323 -0.8999 -0.3916 -0.7521
 8005SOL    HW235649   3.931   1.421   6.263 -0.0906  0.5768 -0.3686
 8006SOL     OW35650   2.133   1.875   3.186 -0.1554 -0.4402 -0.2545
 8006SOL    HW135651   2.214   1.848   3.143  1.0593  0.3102  1.5938
 8006SOL    HW235652   2.167   1.942   3.244  0.4421 -0.5834 -0.4406
 8007SOL     OW35653   4.104   0.263   4.124 -0.0507 -0.0257 -0.6853
 8007SOL    HW135654   4.099   0.356   4.104 -2.9300  0.6753  3.3594
 8007SOL    HW235655   4.176   0.229   4.070  0.8789  2.3434 -0.9120
 8008SOL     OW35656   0.023   4.287   9.603  0.2599  0.6185 -0.1889
 8008SOL    HW135657   0.014   4.380   9.582 -0.6173 -0.0420 -2.7733
 8008SOL    HW235658   0.091   4.277   9.669  1.1940  1.3838 -1.0294
 8009SOL     OW35659   3.639   1.299   8.991 -0.7242  0.5747 -0.1360
 8009SOL    HW135660   3.591   1.370   9.034  1.8247  2.4866 -0.4252
 8009SOL    HW235661   3.605   1.222   9.037 -0.1546 -0.0641 -0.7743
 8010SOL     OW35662   4.689   1.383   7.496 -0.3881 -0.1391  1.0367
 8010SOL    HW135663   4.601   1.346   7.495  0.2965 -1.7099 -1.1421
 8010SOL    HW235664   4.738   1.339   7.565  1.8599  0.4791 -0.1751
 8011SOL     OW35665   3.299   1.261  14.056  0.0123 -0.5365  0.1000
 8011SOL    HW135666   3.361   1.209  14.004 -1.3589  2.5057 -4.5990
 8011SOL    HW235667   3.307   1.344  14.010 -0.7425 -0.4331  0.1698
 8012SOL     OW35668   3.472   4.073   4.361  0.2577  0.0001 -0.2150
 8012SOL    HW135669   3.439   4.163   4.373  2.1026  0.8219 -1.2991
 8012SOL    HW235670   3.508   4.057   4.448 -0.3709 -3.2317 -0.5473
 8013SOL     OW35671   0.554   4.181  12.119 -0.0308  0.2783  0.0750
 8013SOL    HW135672   0.649   4.180  12.110  0.2060 -0.2989  2.6039
 8013SOL    HW235673   0.523   4.195  12.030  1.6391  0.0210 -0.5333
 8014SOL     OW35674   2.374   4.443  10.322 -0.5050 -0.1787 -0.3348
 8014SOL    HW135675   2.423   4.375  10.369 -0.4395  0.4149  0.4666
 8014SOL    HW235676   2.294   4.446  10.375 -0.2428  1.6080 -0.0653
 8015SOL     OW35677   2.551   1.108   1.708 -0.1216 -0.2542  0.4666
 8015SOL    HW135678   2.629   1.079   1.660  0.7241  1.6013  0.7252
 8015SOL    HW235679   2.515   1.023   1.733 -1.4146 -0.5334 -2.2935
 8016SOL     OW35680   3.921   1.109   8.045 -0.1224  0.9177  0.3843
 8016SOL    HW135681   3.951   1.189   8.002  1.4341  0.5776  0.8503
 8016SOL    HW235682   3.836   1.100   8.002  0.1861 -1.5244  0.3015
 8017SOL     OW35683   4.264   4.698   9.803 -0.0205 -0.2322 -0.0451
 8017SOL    HW135684   4.253   4.605   9.784 -0.2019 -0.4206  0.9922
 8017SOL    HW235685   4.358   4.703   9.786 -0.1529  1.3407 -0.3910
 8018SOL     OW35686   2.131   2.101   7.637 -0.0743 -0.0411 -0.0452
 8018SOL    HW135687   2.165   2.189   7.622 -0.8072  0.2724  0.1472
 8018SOL    HW235688   2.211   2.050   7.622  0.1886 -0.3287  2.3434
 8019SOL     OW35689   2.980   2.700   8.644 -0.1315 -0.0911 -0.0717
 8019SOL    HW135690   2.947   2.765   8.707  2.5643 -1.1524  2.4198
 8019SOL    HW235691   3.075   2.708   8.644  0.0072 -1.7559 -2.8183
 8020SOL     OW35692   2.681   1.736   3.378  0.5497 -0.2063  0.0743
 8020SOL    HW135693   2.744   1.703   3.313 -0.9597  0.3645 -1.6903
 8020SOL    HW235694   2.653   1.817   3.336 -1.3867 -1.2510 -0.6317
 8021SOL     OW35695   1.251   4.630   5.659  0.2755  0.5616 -1.0270
 8021SOL    HW135696   1.196   4.567   5.613 -0.2386 -0.0092  0.3732
 8021SOL    HW235697   1.222   4.613   5.748 -0.4063  1.2241 -1.1227
 8022SOL     OW35698   1.359   2.382   9.972  0.5006 -0.1065  0.1514
 8022SOL    HW135699   1.305   2.318   9.925  0.7698 -0.5976  0.5123
 8022SOL    HW235700   1.306   2.460   9.958 -1.0572 -1.7164 -2.9310
 8023SOL     OW35701   0.727   0.396   4.121 -0.2789 -0.2985  0.3918
 8023SOL    HW135702   0.761   0.311   4.148  2.1409  1.2516  2.2537
 8023SOL    HW235703   0.727   0.386   4.026  0.8004  0.8626  0.2770
 8024SOL     OW35704   3.306   4.576  16.120 -0.0768 -0.3425 -0.4244
 8024SOL    HW135705   3.251   4.579  16.199 -0.3108 -1.9816 -0.5350
 8024SOL    HW235706   3.248   4.538  16.054 -0.3146 -0.6161 -0.0647
 8025SOL     OW35707   1.120   1.153   0.866 -0.0438  0.5433 -0.1114
 8025SOL    HW135708   1.128   1.172   0.772 -0.8249  0.5693 -0.1718
 8025SOL    HW235709   1.181   1.080   0.875 -0.7027 -0.0562 -0.4298
 8026SOL     OW35710   4.375   2.153   5.790  0.0693 -0.0930 -0.2501
 8026SOL    HW135711   4.379   2.121   5.700 -1.0992  0.1369 -0.3828
 8026SOL    HW235712   4.462   2.192   5.792  0.1152 -0.2723  1.0498
 8027SOL     OW35713   0.147   2.407   6.341 -0.3668 -0.4891 -0.4079
 8027SOL    HW135714   0.235   2.409   6.377 -0.2599 -0.5895 -0.6662
 8027SOL    HW235715   0.093   2.436   6.415 -0.7838  1.7154 -1.5710
 8028SOL     OW35716   1.779   2.092   7.316 -0.4074 -0.1214 -0.1579
 8028SOL    HW135717   1.835   2.164   7.286  0.1206  0.0750  1.3154
 8028SOL    HW235718   1.804   2.098   7.408  0.5555  1.2013 -0.5186
 8029SOL     OW35719   0.482   0.621   4.639 -0.3180  0.6032  0.5949
 8029SOL    HW135720   0.395   0.660   4.648 -0.5261  0.5441 -1.1058
 8029SOL    HW235721   0.497   0.589   4.728  1.1279 -2.4724 -0.7432
 8030SOL     OW35722   3.007   1.579  15.668 -0.2930 -0.0519 -0.0892
 8030SOL    HW135723   2.998   1.514  15.599  0.7969  0.8459 -1.0746
 8030SOL    HW235724   2.914   1.596  15.686 -0.6407 -2.1497  0.0747
 8031SOL     OW35725   0.276   0.732  16.394  0.0087  0.3847 -0.1069
 8031SOL    HW135726   0.339   0.691  16.453 -1.2503 -0.9432  0.3134
 8031SOL    HW235727   0.200   0.738  16.452 -0.3394  0.3367 -0.5500
 8032SOL     OW35728   4.338   2.089   2.754  0.5820  0.0354 -0.3799
 8032SOL    HW135729   4.274   2.091   2.826 -1.0974  3.9928 -2.0057
 8032SOL    HW235730   4.359   2.181   2.738  0.3646  0.3103  0.9178
 8033SOL     OW35731   1.577   0.589   4.661 -0.0599  0.0769 -0.2389
 8033SOL    HW135732   1.493   0.623   4.691  0.2976  0.3899  0.4010
 8033SOL    HW235733   1.640   0.643   4.708 -0.7137  0.1298  0.5805
 8034SOL     OW35734   0.264   1.061   7.184 -0.0695  0.1263 -0.0969
 8034SOL    HW135735   0.305   1.135   7.229  0.1706 -0.1483  0.1394
 8034SOL    HW235736   0.212   1.024   7.256 -1.8739  1.5873 -0.6550
 8035SOL     OW35737   0.153   4.716   8.758  0.4619 -0.4730 -0.3677
 8035SOL    HW135738   0.233   0.031   8.764  0.3956 -0.7880  3.3975
 8035SOL    HW235739   0.130   4.705   8.850  0.1273 -2.3806 -0.6869
 8036SOL     OW35740   3.416   4.239   2.431  0.8717 -0.6694 -0.0139
 8036SOL    HW135741   3.330   4.227   2.473  1.6494 -2.1010  1.1949
 8036SOL    HW235742   3.399   4.330   2.407 -1.2355 -1.2478 -0.7891
 8037SOL     OW35743   4.330   4.225   8.811 -0.1533  0.3357 -0.3551
 8037SOL    HW135744   4.374   4.255   8.732 -1.6388  2.2026 -0.4789
 8037SOL    HW235745   4.378   4.275   8.877 -0.8136 -0.5446  0.8058
 8038SOL     OW35746   2.140   1.685   2.598 -0.2039 -0.0770  0.4289
 8038SOL    HW135747   2.132   1.685   2.694 -0.5342 -3.5847  0.4247
 8038SOL    HW235748   2.063   1.631   2.578 -0.3612  0.1310  0.4665
 8039SOL     OW35749   3.036   3.382   5.518 -0.3004 -0.1656  0.0245
 8039SOL    HW135750   3.081   3.428   5.447 -4.4840  2.3762 -0.9845
 8039SOL    HW235751   3.091   3.305   5.530  1.1518  0.4023 -2.9115
 8040SOL     OW35752   3.561   2.062  10.409 -0.3925 -0.0571  0.3436
 8040SOL    HW135753   3.542   1.990  10.470  1.2532 -0.1377  0.7495
 8040SOL    HW235754   3.651   2.077  10.436 -0.2142 -0.2298 -0.1519
 8041SOL     OW35755   0.832   2.287   2.456  1.0849  0.2389 -0.1985
 8041SOL    HW135756   0.853   2.380   2.458 -2.2706  1.0389 -1.2941
 8041SOL    HW235757   0.807   2.275   2.365 -0.9541 -3.2678  0.7939
 8042SOL     OW35758   2.561   1.592  10.868 -0.0140  0.4655  1.2942
 8042SOL    HW135759   2.509   1.526  10.821 -2.1115  2.9060  0.1461
 8042SOL    HW235760   2.495   1.646  10.913 -0.3525  1.3407 -0.2503
 8043SOL     OW35761   1.480   0.644   5.953  0.2679 -0.1063 -1.0749
 8043SOL    HW135762   1.418   0.598   6.010 -2.6664  1.6066 -2.8535
 8043SOL    HW235763   1.428   0.720   5.927 -1.7651 -0.3521  2.2428
 8044SOL     OW35764   3.874   1.629   2.188  0.2698 -1.1908 -0.1243
 8044SOL    HW135765   3.795   1.675   2.215  1.5332  1.2120 -0.5373
 8044SOL    HW235766   3.861   1.626   2.093  1.2506 -1.0326 -0.2672
 8045SOL     OW35767   2.087   3.456   6.309  0.3800 -0.5362 -0.1477
 8045SOL    HW135768   2.061   3.433   6.398  2.7638 -1.4555  0.3084
 8045SOL    HW235769   2.182   3.453   6.317  0.0794  0.3270  3.6678
 8046SOL     OW35770   4.017   1.571   9.408  0.1889 -0.2105 -0.5575
 8046SOL    HW135771   4.064   1.614   9.337  2.0283 -0.7288  0.3455
 8046SOL    HW235772   3.933   1.561   9.362 -0.4278 -0.5572  0.6512
 8047SOL     OW35773   3.106   0.082  17.135  0.1016 -0.4671  0.3045
 8047SOL    HW135774   3.044   0.038  17.193 -2.0113 -1.0438 -2.3903
 8047SOL    HW235775   3.062   0.092  17.051 -0.5282  1.2680  0.8172
 8048SOL     OW35776   4.042   4.264   9.131 -0.1788  0.1434 -0.8195
 8048SOL    HW135777   4.092   4.340   9.100  3.8368 -1.8307  0.8428
 8048SOL    HW235778   4.108   4.204   9.165 -1.5545 -0.3510  0.9954
 8049SOL     OW35779   3.979   3.337  10.412  0.2391  0.0356 -0.0614
 8049SOL    HW135780   3.952   3.420  10.450 -0.3079  0.1204 -0.6294
 8049SOL    HW235781   3.896   3.290  10.413  0.9509 -1.2539 -1.4180
 8050SOL     OW35782   0.339   1.052  14.972  0.1436 -0.5490 -0.0107
 8050SOL    HW135783   0.420   1.103  14.966  0.4219 -0.9313  0.4957
 8050SOL    HW235784   0.337   1.014  15.060  1.0968 -0.1933  0.1642
 8051SOL     OW35785   0.792   0.459   3.729  0.3962 -0.0016 -0.4191
 8051SOL    HW135786   0.710   0.456   3.680 -0.0146  2.0485  0.1394
 8051SOL    HW235787   0.836   0.522   3.671 -0.2739 -1.3344 -2.3805
 8052SOL     OW35788   2.090   2.391   4.983  0.3037 -0.2126 -0.0719
 8052SOL    HW135789   2.071   2.414   5.074 -0.5885 -1.7693  0.1341
 8052SOL    HW235790   2.133   2.468   4.946  0.3147  0.0416  0.4755
 8053SOL     OW35791   3.280   2.953  11.465  0.2308  0.2932 -0.1801
 8053SOL    HW135792   3.324   3.039  11.463  1.0765 -0.1938 -2.9876
 8053SOL    HW235793   3.350   2.895  11.434  1.7057  0.7021  2.3465
 8054SOL     OW35794   3.465   4.637  15.830 -0.3430 -0.3423  0.3670
 8054SOL    HW135795   3.468   4.690  15.751 -1.2214  0.7631  1.0614
 8054SOL    HW235796   3.398   4.685  15.880 -1.5139 -0.7043 -0.8605
 8055SOL     OW35797   2.617   0.077   4.023 -0.1359  0.0031 -0.3659
 8055SOL    HW135798   2.684   0.019   4.059 -0.7501 -0.3866  0.1450
 8055SOL    HW235799   2.605   0.145   4.089  2.3004  0.0945 -0.0097
 8056SOL     OW35800   4.583   1.352   5.984 -0.5876 -0.4193 -0.5565
 8056SOL    HW135801   4.654   1.403   5.945  0.3504 -0.5349  1.0028
 8056SOL    HW235802   4.510   1.392   5.938  1.6929  1.9973 -2.0473
 8057SOL     OW35803   2.814   3.433   1.995 -0.2914  1.0843  0.2107
 8057SOL    HW135804   2.747   3.489   1.955 -0.6316  0.8009  0.3787
 8057SOL    HW235805   2.848   3.384   1.920  0.7041 -0.1065  1.4389
 8058SOL     OW35806   4.403   4.252   5.519  0.3904  0.6232 -0.4739
 8058SOL    HW135807   4.464   4.304   5.466 -0.3843  1.2573 -0.7532
 8058SOL    HW235808   4.424   4.298   5.600 -0.8104  0.3446 -0.0102
 8059SOL     OW35809   0.742   3.280  15.851 -0.0496 -0.4464 -0.1599
 8059SOL    HW135810   0.648   3.297  15.844  0.4104  2.6052  1.0191
 8059SOL    HW235811   0.765   3.357  15.800 -1.0518 -0.6669 -0.9468
 8060SOL     OW35812   2.980   4.392   9.639 -0.2235 -0.1860 -0.3288
 8060SOL    HW135813   2.890   4.368   9.615 -0.8100  2.8832 -1.2216
 8060SOL    HW235814   3.003   4.309   9.682 -0.6353 -0.5168 -0.7471
 8061SOL     OW35815   0.385   4.065   8.736  0.4610 -0.4530 -1.0225
 8061SOL    HW135816   0.423   4.151   8.723 -1.9997  1.1582  2.4791
 8061SOL    HW235817   0.305   4.077   8.686  1.3341  1.4114 -1.9356
 8062SOL     OW35818   1.516   4.591  10.978 -0.2786 -0.1692  0.1871
 8062SOL    HW135819   1.604   4.566  10.950 -0.0572  0.0994  0.6464
 8062SOL    HW235820   1.457   4.570  10.905  0.2463  1.1595 -0.6047
 8063SOL     OW35821   4.659   1.054   4.489 -0.1480  0.0169 -0.4414
 8063SOL    HW135822   4.729   1.115   4.511 -0.3106 -0.3314  1.0260
 8063SOL    HW235823   4.636   1.097   4.406  2.1037 -0.0388 -1.1139
 8064SOL     OW35824   3.755   1.948   2.624 -0.4645 -0.2242 -0.1629
 8064SOL    HW135825   3.841   1.988   2.614 -0.6496 -0.2733 -1.9731
 8064SOL    HW235826   3.723   1.939   2.535 -1.7365 -1.7421  0.4455
 8065SOL     OW35827   3.198   0.976   0.693  0.0014 -0.3257 -0.5334
 8065SOL    HW135828   3.215   1.066   0.667  0.1248 -0.4909 -1.0116
 8065SOL    HW235829   3.241   0.976   0.779 -2.4845  2.3878  0.7117
 8066SOL     OW35830   2.487   3.980   1.981  0.1716  0.1624  0.6205
 8066SOL    HW135831   2.538   3.921   2.035  0.5801  2.3246  2.5908
 8066SOL    HW235832   2.469   3.924   1.905  0.9517  1.9159 -0.8798
 8067SOL     OW35833   1.689   0.243  10.034  0.0110 -0.1322  0.2880
 8067SOL    HW135834   1.693   0.338  10.038  0.2019 -0.1189 -0.2240
 8067SOL    HW235835   1.603   0.238   9.991  0.1311 -1.5255  0.1950
 8068SOL     OW35836   2.443   0.470   8.195  0.2868  0.1841 -0.0046
 8068SOL    HW135837   2.422   0.511   8.111  0.3623  3.0340  1.3895
 8068SOL    HW235838   2.386   0.393   8.190  0.8375 -0.1211 -1.5933
 8069SOL     OW35839   1.252   0.080   5.392  0.7342 -0.2810  0.2150
 8069SOL    HW135840   1.268   0.015   5.323  2.6219 -0.7568  1.0816
 8069SOL    HW235841   1.203   0.019   5.446 -1.0231  1.2192  0.3003
 8070SOL     OW35842   0.455   4.457   7.999 -0.3069 -0.4724  0.5093
 8070SOL    HW135843   0.419   4.370   8.016 -2.1358  0.0783 -0.5558
 8070SOL    HW235844   0.381   4.500   7.955  1.1257 -1.2457 -2.6459
 8071SOL     OW35845   2.144   4.143  13.851 -0.4844  0.0196 -0.0879
 8071SOL    HW135846   2.092   4.155  13.771  2.6771 -0.1253 -2.1230
 8071SOL    HW235847   2.214   4.088  13.817 -0.5437  0.0549 -0.2669
 8072SOL     OW35848   2.481   1.875  16.726 -0.6505 -0.2920  0.3651
 8072SOL    HW135849   2.431   1.817  16.669 -1.2577  0.5911 -0.0058
 8072SOL    HW235850   2.547   1.896  16.659 -3.0420  0.7974 -1.6437
 8073SOL     OW35851   2.258   0.816   2.552 -0.2332 -0.5022  0.3124
 8073SOL    HW135852   2.297   0.770   2.627  0.6291  2.3380  1.5828
 8073SOL    HW235853   2.237   0.904   2.584 -2.5013 -0.1033 -2.2512
 8074SOL     OW35854   2.201   4.657   3.213 -0.7447  0.3737 -0.3443
 8074SOL    HW135855   2.205   4.636   3.120 -1.9592 -2.3160  0.1992
 8074SOL    HW235856   2.290   4.643   3.243 -1.6450  0.8172  2.5118
 8075SOL     OW35857   3.603   0.059   5.308 -0.5309 -0.2798 -0.5177
 8075SOL    HW135858   3.657   4.738   5.360 -1.2920  0.0765  0.7027
 8075SOL    HW235859   3.651   0.055   5.225 -0.6292 -1.8114 -0.5004
 8076SOL     OW35860   0.854   2.745  13.562 -0.1722 -0.0332 -0.1738
 8076SOL    HW135861   0.879   2.684  13.630 -1.1831 -2.1111 -1.6862
 8076SOL    HW235862   0.883   2.833  13.588  0.8165  0.8714 -4.2925
 8077SOL     OW35863   2.529   1.218   8.484  0.3357 -0.6936 -0.0861
 8077SOL    HW135864   2.618   1.198   8.514  0.0913 -0.7578  0.5888
 8077SOL    HW235865   2.496   1.279   8.550 -1.1710 -2.4038  0.7337
 8078SOL     OW35866   0.841   0.559   7.675 -0.4018 -0.8978  0.6581
 8078SOL    HW135867   0.919   0.563   7.620 -1.9035  0.6761 -1.3395
 8078SOL    HW235868   0.773   0.564   7.608  1.4525 -1.2643 -1.2644
 8079SOL     OW35869   2.574   4.366   8.459  0.0310 -0.4581 -0.1691
 8079SOL    HW135870   2.609   4.294   8.512  1.9862  1.3179  0.9818
 8079SOL    HW235871   2.657   4.415   8.464 -0.0748 -0.4379  1.6243
 8080SOL     OW35872   0.058   3.696   3.672 -0.1532 -0.1886 -0.1742
 8080SOL    HW135873   0.065   3.661   3.761 -1.8286 -1.5794 -0.6034
 8080SOL    HW235874   4.709   3.665   3.650 -0.0160  0.4149 -1.5860
 8081SOL     OW35875   1.269   0.355  13.169  0.2634 -0.0769  0.1839
 8081SOL    HW135876   1.315   0.437  13.190  1.9847 -0.7590 -0.8873
 8081SOL    HW235877   1.283   0.301  13.247 -0.2942  0.0438  0.3648
 8082SOL     OW35878   0.246   0.908   1.216 -0.5630  0.3223 -0.2168
 8082SOL    HW135879   0.290   0.831   1.253  2.1021  1.9626  0.0117
 8082SOL    HW235880   0.261   0.887   1.124  3.8409 -2.1743  1.0636
 8083SOL     OW35881   3.932   2.257   1.978  0.3920  0.4956 -0.1834
 8083SOL    HW135882   3.953   2.321   1.910  2.3998 -0.6299 -0.6171
 8083SOL    HW235883   3.839   2.238   1.962  0.8863 -2.4638  0.4896
 8084SOL     OW35884   1.143   0.983  13.666 -0.1175 -0.2496  0.5768
 8084SOL    HW135885   1.103   1.070  13.662 -2.5804 -1.3883  0.4974
 8084SOL    HW235886   1.098   0.962  13.748  1.9767 -2.5209  1.1495
 8085SOL     OW35887   4.239   4.616   1.733 -0.3778  0.1826 -0.1574
 8085SOL    HW135888   4.167   4.659   1.780  1.2248  0.9531  1.5561
 8085SOL    HW235889   4.311   4.670   1.765 -2.2386  2.3693  0.3159
 8086SOL     OW35890   3.080   2.298   6.180 -0.1639 -0.6050 -0.4661
 8086SOL    HW135891   3.016   2.307   6.109  0.2794 -1.1080 -0.9316
 8086SOL    HW235892   3.129   2.220   6.153 -1.1493 -1.5175  0.3660
 8087SOL     OW35893   2.208   2.561   7.613  0.1187  0.6164  0.1196
 8087SOL    HW135894   2.243   2.646   7.642  0.9027 -0.0530  1.1438
 8087SOL    HW235895   2.116   2.563   7.638  0.5550  1.1909  1.7077
 8088SOL     OW35896   1.618   3.293   1.647 -0.0594 -0.0918 -0.0763
 8088SOL    HW135897   1.690   3.235   1.623 -1.0508 -0.4215 -2.3128
 8088SOL    HW235898   1.663   3.378   1.647 -2.1028  1.0108 -2.6287
 8089SOL     OW35899   3.897   1.905   0.355 -0.9495  0.3098 -0.0192
 8089SOL    HW135900   3.867   1.968   0.289 -0.0328  2.0556  1.2079
 8089SOL    HW235901   3.914   1.958   0.433  0.6960  1.1292 -0.9444
 8090SOL     OW35902   3.168   3.404   0.128 -0.4629  0.4498 -0.3395
 8090SOL    HW135903   3.103   3.373   0.190 -0.8698  0.1776 -0.8978
 8090SOL    HW235904   3.170   3.497   0.151 -0.4729  0.2311  0.5401
 8091SOL     OW35905   4.703   1.840   4.141 -0.1102 -0.2871 -0.0105
 8091SOL    HW135906   4.678   1.917   4.193  0.4597  0.7295 -1.2344
 8091SOL    HW235907   0.055   1.837   4.172 -0.2538 -0.9023  0.3437
 8092SOL     OW35908   0.682   0.866  13.396  0.3011  0.6305 -0.0207
 8092SOL    HW135909   0.741   0.791  13.387  3.2639  2.9302  0.3789
 8092SOL    HW235910   0.732   0.914  13.331 -1.6343 -0.6814 -2.4913
 8093SOL     OW35911   0.286   3.071   2.747  0.2018 -0.8668 -0.5603
 8093SOL    HW135912   0.216   3.056   2.811 -0.6792  1.2265 -1.0065
 8093SOL    HW235913   0.238   3.056   2.666 -0.1186 -0.8060 -0.3826
 8094SOL     OW35914   2.122   1.948   2.616 -0.1762  0.0229 -0.4277
 8094SOL    HW135915   2.142   1.858   2.591  2.0490  0.4153 -0.0409
 8094SOL    HW235916   2.027   1.942   2.605 -0.0194 -1.6368 -0.8013
 8095SOL     OW35917   1.588   2.416   7.223 -0.3288 -0.6991 -0.4106
 8095SOL    HW135918   1.505   2.375   7.197  0.0288 -1.0114 -1.0496
 8095SOL    HW235919   1.558   2.505   7.244 -3.1080 -1.0762 -2.7213
 8096SOL     OW35920   2.882   3.069  11.748  0.2466 -0.1212 -0.4444
 8096SOL    HW135921   2.910   3.078  11.839 -0.5047 -2.6954  0.0172
 8096SOL    HW235922   2.791   3.041  11.756 -0.0937  1.2699  0.6994
 8097SOL     OW35923   2.972   0.669   1.470  0.5031  0.0653  0.6923
 8097SOL    HW135924   2.931   0.582   1.466 -0.3818  0.5533 -0.9566
 8097SOL    HW235925   2.965   0.699   1.379  2.9574 -0.3779  0.3641
 8098SOL     OW35926   3.591   1.326   3.887 -0.0896  0.2218 -0.4472
 8098SOL    HW135927   3.541   1.369   3.957  0.4714 -0.6448  0.4950
 8098SOL    HW235928   3.534   1.251   3.869 -1.1843  0.8904  0.2464
 8099SOL     OW35929   1.262   3.759   1.205  0.2529  0.5989  0.0694
 8099SOL    HW135930   1.256   3.799   1.291  1.0314 -0.4619  0.6202
 8099SOL    HW235931   1.344   3.800   1.176 -0.1116  1.0412 -0.3495
 8100SOL     OW35932   1.934   0.613   8.348  0.6791  0.0824  0.3608
 8100SOL    HW135933   2.028   0.606   8.334  0.2619 -0.1841 -2.2957
 8100SOL    HW235934   1.905   0.668   8.276 -4.2824 -0.8058  1.6654
 8101SOL     OW35935   4.352   3.572  14.931 -0.3195 -0.6290 -0.2424
 8101SOL    HW135936   4.276   3.514  14.935 -1.2696  0.6470  0.0342
 8101SOL    HW235937   4.406   3.524  14.868  1.2704 -0.4433  0.9783
 8102SOL     OW35938   1.919   1.793   5.907 -0.0848 -0.2266  0.2006
 8102SOL    HW135939   2.008   1.828   5.913 -0.2895  0.7110 -2.1990
 8102SOL    HW235940   1.925   1.701   5.883 -1.4682 -0.3004  0.1609
 8103SOL     OW35941   3.397   3.311   5.368  0.3879 -0.3074  0.6384
 8103SOL    HW135942   3.431   3.230   5.332  2.1471  1.0314 -0.6964
 8103SOL    HW235943   3.337   3.272   5.432 -0.8523  1.1366  0.3565
 8104SOL     OW35944   2.253   3.019   7.456  0.1602  0.5898 -0.3812
 8104SOL    HW135945   2.342   3.053   7.465 -0.3429  1.7905  0.0284
 8104SOL    HW235946   2.239   2.971   7.538 -0.8314  0.9848 -0.3247
 8105SOL     OW35947   2.987   4.039   1.429 -0.0347 -0.3720 -0.3105
 8105SOL    HW135948   2.936   4.043   1.348  1.0163 -0.1242 -0.9565
 8105SOL    HW235949   3.066   4.086   1.400  0.4253 -1.8422 -1.4415
 8106SOL     OW35950   2.896   2.366   0.813 -0.2071 -0.3955 -0.4452
 8106SOL    HW135951   2.888   2.461   0.820 -2.0441 -0.5833 -0.0294
 8106SOL    HW235952   2.872   2.350   0.721  0.3352 -2.5240 -0.2275
 8107SOL     OW35953   3.484   3.999  14.491 -0.0574 -0.3893 -0.1690
 8107SOL    HW135954   3.457   4.080  14.447 -1.7788  0.2524  2.0906
 8107SOL    HW235955   3.579   4.003  14.477 -0.0433 -0.7205 -0.1550
 8108SOL     OW35956   3.406   2.449   1.678 -0.2808 -0.4212 -0.5167
 8108SOL    HW135957   3.433   2.397   1.602 -1.0034 -0.7937 -0.5196
 8108SOL    HW235958   3.334   2.500   1.641  0.9725  2.0939  0.5591
 8109SOL     OW35959   3.474   1.262   8.326  0.5561 -0.1200  0.1518
 8109SOL    HW135960   3.565   1.264   8.358  0.2768  0.3879  0.9291
 8109SOL    HW235961   3.436   1.199   8.387 -2.2080  2.2939  0.9391
 8110SOL     OW35962   4.498   2.931   1.956 -0.0743  0.0601 -0.3843
 8110SOL    HW135963   4.497   2.845   1.914  0.0804 -0.0321 -0.1961
 8110SOL    HW235964   4.426   2.977   1.911  0.4079  0.0024 -1.2194
 8111SOL     OW35965   2.042   2.518   3.695  0.0964  0.1960 -0.3103
 8111SOL    HW135966   2.088   2.552   3.618  1.8396 -1.9253 -0.1773
 8111SOL    HW235967   2.009   2.433   3.668 -0.2942  0.2345  0.0325
 8112SOL     OW35968   0.176   1.824  13.521  0.5236 -0.5091  0.7635
 8112SOL    HW135969   0.194   1.821  13.615  0.5871  0.9796  0.7973
 8112SOL    HW235970   0.262   1.824  13.480 -0.1919 -2.1807 -0.7355
 8113SOL     OW35971   4.180   0.760   6.666  0.4641  0.1100 -0.0158
 8113SOL    HW135972   4.193   0.678   6.619  0.5195  0.8150 -1.2425
 8113SOL    HW235973   4.104   0.796   6.621  0.4863 -2.7093 -2.3125
 8114SOL     OW35974   1.419   1.270   6.687  0.1670  0.4063 -0.2876
 8114SOL    HW135975   1.384   1.333   6.624 -0.1839  0.5366  0.0364
 8114SOL    HW235976   1.425   1.193   6.630 -3.3129  0.0187 -0.1501
 8115SOL     OW35977   3.302   4.113   0.834 -0.3068 -0.2172  0.4984
 8115SOL    HW135978   3.384   4.131   0.787 -0.7099 -0.1947 -0.1939
 8115SOL    HW235979   3.311   4.018   0.836  2.0910  0.0106  0.8930
 8116SOL     OW35980   4.687   3.880   9.494 -0.0158  0.0665 -0.0828
 8116SOL    HW135981   4.738   3.951   9.455  1.7881  1.9404  5.6337
 8116SOL    HW235982   4.736   3.875   9.576  0.4577  0.4865 -0.3350
 8117SOL     OW35983   2.034   3.965   2.422 -0.5441  0.3110  0.4227
 8117SOL    HW135984   2.045   3.919   2.505 -2.6138 -0.4919  0.2408
 8117SOL    HW235985   1.960   4.024   2.439 -0.8550  0.4332 -1.3869
 8118SOL     OW35986   2.966   4.712   3.139 -0.5325 -0.0178 -0.4634
 8118SOL    HW135987   2.961   4.617   3.139 -0.7201 -0.0079 -0.4378
 8118SOL    HW235988   3.012   4.724   3.056  1.6603 -0.7310  0.6444
 8119SOL     OW35989   0.378   1.668  14.193 -0.2994  0.0571 -0.2548
 8119SOL    HW135990   0.471   1.670  14.217 -0.3885 -1.4808  0.2160
 8119SOL    HW235991   0.375   1.585  14.146  2.3608  0.6558 -1.5259
 8120SOL     OW35992   3.373   4.353   9.644 -0.1682  0.0649 -0.1047
 8120SOL    HW135993   3.396   4.444   9.665  0.9564  0.0781 -1.3901
 8120SOL    HW235994   3.335   4.326   9.728 -2.1040  0.7458 -0.7520
 8121SOL     OW35995   2.409   1.619   9.779 -0.6849  0.6807 -0.1733
 8121SOL    HW135996   2.414   1.534   9.824  0.6540 -0.2750 -2.1592
 8121SOL    HW235997   2.471   1.599   9.709 -0.0741 -0.0494  0.5682
 8122SOL     OW35998   4.608   2.178   1.720  0.0362  0.3731  0.0894
 8122SOL    HW135999   4.637   2.099   1.674 -1.0298 -0.5553  1.0064
 8122SOL    HW236000   4.635   2.155   1.810 -0.9207  0.0542  0.2931
 8123SOL     OW36001   1.328   4.421  11.122  0.6722 -0.3815  0.2041
 8123SOL    HW136002   1.386   4.477  11.069  0.1094 -1.7129 -1.8168
 8123SOL    HW236003   1.322   4.490  11.188 -0.1153 -0.1635 -0.0916
 8124SOL     OW36004   3.691   0.248  15.911 -0.1227  0.1214  0.2512
 8124SOL    HW136005   3.701   0.315  15.979 -0.6576 -1.1144  1.5371
 8124SOL    HW236006   3.772   0.267  15.863 -0.3054 -1.8157 -0.8396
 8125SOL     OW36007   3.751   3.468   7.177  0.0663 -0.0904  0.2521
 8125SOL    HW136008   3.725   3.447   7.267  0.5531 -0.0682  0.4001
 8125SOL    HW236009   3.667   3.504   7.149 -0.4644 -1.1488  0.4713
 8126SOL     OW36010   0.252   0.822   6.359  0.3222  0.1429 -0.0341
 8126SOL    HW136011   0.301   0.829   6.277 -1.6910 -0.7465 -1.3057
 8126SOL    HW236012   0.312   0.849   6.428  1.4690 -0.5220 -0.7777
 8127SOL     OW36013   1.134   3.202   7.236 -0.1455 -0.0862  0.1949
 8127SOL    HW136014   1.143   3.280   7.290 -1.3357  1.2297 -1.4967
 8127SOL    HW236015   1.228   3.189   7.229 -0.3439 -1.9340  1.0828
 8128SOL     OW36016   1.244   1.918   5.688 -0.0862 -0.2335 -0.0808
 8128SOL    HW136017   1.213   1.829   5.702  0.6000 -0.6574 -1.2994
 8128SOL    HW236018   1.194   1.945   5.612 -1.7071  0.9330  1.3869
 8129SOL     OW36019   4.061   0.471   8.428  0.5655  0.3005  0.1650
 8129SOL    HW136020   3.984   0.529   8.432 -1.4451 -2.4749  1.3768
 8129SOL    HW236021   4.031   0.390   8.469  2.6869 -1.0851 -1.0449
 8130SOL     OW36022   0.943   3.772   1.941  0.1635 -0.5062  0.2735
 8130SOL    HW136023   1.030   3.809   1.957 -0.0144  0.9142 -2.1195
 8130SOL    HW236024   0.897   3.850   1.912 -0.4009 -0.5584  1.0175
 8131SOL     OW36025   2.775   0.095   6.484 -0.0177 -0.1596  0.1310
 8131SOL    HW136026   2.823   0.019   6.450 -1.0951 -0.5284 -0.5715
 8131SOL    HW236027   2.825   0.164   6.441 -2.5978  2.4204  1.2749
 8132SOL     OW36028   1.201   0.280   5.146 -0.1666  0.0269 -0.1428
 8132SOL    HW136029   1.156   0.244   5.069  1.6056 -0.0313 -1.1569
 8132SOL    HW236030   1.281   0.229   5.140  0.4412  1.1120 -1.3317
 8133SOL     OW36031   0.401   0.245   7.247 -0.2390 -0.5600 -0.0036
 8133SOL    HW136032   0.476   0.298   7.218 -0.7382  0.3524  0.4008
 8133SOL    HW236033   0.360   0.305   7.308  1.5580  0.5817  0.1021
 8134SOL     OW36034   4.691   2.615   1.102  0.1752  0.5939 -0.6159
 8134SOL    HW136035   0.007   2.672   1.155 -0.6520  0.5681  0.2764
 8134SOL    HW236036   0.019   2.548   1.087  0.2917  1.3517 -3.4228
 8135SOL     OW36037   2.431   4.594   3.335 -0.0449  0.3405 -0.3523
 8135SOL    HW136038   2.512   4.614   3.289 -0.7813 -0.6484 -2.0716
 8135SOL    HW236039   2.458   4.603   3.427  1.1809  0.6613 -0.7516
 8136SOL     OW36040   1.659   2.635   6.304  0.2131 -0.0147 -0.1891
 8136SOL    HW136041   1.631   2.544   6.308  1.3903 -0.4346 -1.5883
 8136SOL    HW236042   1.572   2.675   6.303 -0.2807 -1.0544  2.0939
 8137SOL     OW36043   1.852   1.317   2.408 -0.3125  0.2671 -0.1009
 8137SOL    HW136044   1.939   1.289   2.439 -0.2257  0.3924 -0.2285
 8137SOL    HW236045   1.869   1.408   2.435  0.9892 -0.1915  0.6579
 8138SOL     OW36046   0.880   0.608   8.217  0.4678  0.4939  0.3429
 8138SOL    HW136047   0.867   0.515   8.234  0.6155  0.3056 -0.5602
 8138SOL    HW236048   0.936   0.603   8.139 -2.6002  0.8549 -1.8707
 8139SOL     OW36049   3.691   1.832   5.196 -0.1200 -0.2381  0.0398
 8139SOL    HW136050   3.665   1.744   5.168 -2.1869  1.0277 -1.9669
 8139SOL    HW236051   3.622   1.886   5.159  0.0110  0.1630  0.3909
 8140SOL     OW36052   3.121   3.008   8.356  0.3405  0.0355  0.2941
 8140SOL    HW136053   3.178   3.029   8.282  0.4384  1.6229  0.8247
 8140SOL    HW236054   3.186   3.004   8.426 -0.2505  0.5681  0.8777
 8141SOL     OW36055   0.358   2.060   2.300  0.1302 -0.1898 -0.2166
 8141SOL    HW136056   0.448   2.045   2.329 -0.4561  0.9975  2.2869
 8141SOL    HW236057   0.325   2.123   2.365 -1.6074 -1.0852 -0.2256
 8142SOL     OW36058   2.030   0.983   9.083 -0.4774 -0.1918 -0.0104
 8142SOL    HW136059   1.998   0.908   9.033  2.1215 -0.9495 -0.5130
 8142SOL    HW236060   2.007   1.058   9.029  2.8364  0.4911 -0.4723
 8143SOL     OW36061   4.169   3.615  10.500 -0.0738  0.0098 -0.2722
 8143SOL    HW136062   4.083   3.620  10.459  0.5841  0.1667 -1.6314
 8143SOL    HW236063   4.156   3.548  10.567  2.2764 -0.8675 -0.6881
 8144SOL     OW36064   2.222   1.780  13.844 -0.0230  0.2220 -0.0786
 8144SOL    HW136065   2.246   1.834  13.769 -1.7038  1.9574  0.6270
 8144SOL    HW236066   2.301   1.728  13.850  0.3715  0.5063 -2.6137
 8145SOL     OW36067   0.123   3.327   5.433 -0.7212  0.1484  0.5430
 8145SOL    HW136068   0.102   3.240   5.401 -0.8644  1.3745 -2.7157
 8145SOL    HW236069   0.072   3.387   5.377  1.5484  0.2794 -1.4125
 8146SOL     OW36070   3.495   3.905   4.923 -0.0686 -0.2447 -0.3820
 8146SOL    HW136071   3.434   3.879   4.855  1.6048 -1.2399 -1.5012
 8146SOL    HW236072   3.571   3.848   4.912  0.3805 -0.0268  1.4729
 8147SOL     OW36073   1.577   0.701  13.462  0.0880  0.4392 -0.2910
 8147SOL    HW136074   1.619   0.787  13.459  0.3131  0.3473  0.3932
 8147SOL    HW236075   1.502   0.721  13.517  1.1362 -1.1612  1.7370
 8148SOL     OW36076   2.925   4.165   7.598  0.1291  0.7088  0.0023
 8148SOL    HW136077   2.845   4.112   7.602  1.6877 -1.5928  0.6347
 8148SOL    HW236078   2.905   4.221   7.523 -0.9419  1.4155  0.8142
 8149SOL     OW36079   1.906   1.464   6.607 -0.3847  0.5038 -0.1776
 8149SOL    HW136080   1.946   1.377   6.604 -1.3813  0.0377 -0.0035
 8149SOL    HW236081   1.983   1.519   6.595 -0.2603  1.2348  3.8260
 8150SOL     OW36082   3.013   1.531   7.761 -0.2080  0.3532 -0.5973
 8150SOL    HW136083   2.944   1.500   7.820  1.1897  1.6955  1.7250
 8150SOL    HW236084   3.081   1.569   7.817 -3.4503  1.4782  2.5794
 8151SOL     OW36085   3.146   4.187   8.840 -0.0986  0.7369 -0.3913
 8151SOL    HW136086   3.235   4.216   8.821 -0.3701 -0.1241 -2.8483
 8151SOL    HW236087   3.159   4.152   8.929 -1.4505  0.1440 -0.4271
 8152SOL     OW36088   1.615   0.780   1.438 -0.3195  0.2848  0.0986
 8152SOL    HW136089   1.662   0.776   1.521  0.1090  1.6598 -0.0823
 8152SOL    HW236090   1.540   0.722   1.449 -0.7070  0.8410  0.3595
 8153SOL     OW36091   3.055   4.455  12.689  0.0984 -0.3747 -0.3722
 8153SOL    HW136092   3.033   4.400  12.614  2.1104 -1.2756 -0.2985
 8153SOL    HW236093   3.143   4.483  12.664  0.3495 -1.3869 -0.6266
 8154SOL     OW36094   1.576   3.766   1.587 -0.6306  0.4529  0.3839
 8154SOL    HW136095   1.583   3.845   1.641 -3.0187  2.3303 -2.0512
 8154SOL    HW236096   1.569   3.800   1.497  2.6294 -0.7706 -0.3349
 8155SOL     OW36097   1.173   4.262   6.813 -0.0608 -0.0558 -0.8284
 8155SOL    HW136098   1.246   4.314   6.845  1.4579 -0.4275 -3.7013
 8155SOL    HW236099   1.122   4.331   6.770 -2.1493  1.2560  3.8191
 8156SOL     OW36100   3.522   1.571   9.582  0.1256 -0.2287 -1.0374
 8156SOL    HW136101   3.559   1.599   9.498  1.5251  0.4782 -0.1926
 8156SOL    HW236102   3.452   1.513   9.553 -1.6101  1.1207  0.4662
 8157SOL     OW36103   2.110   2.010   6.167 -0.1897 -0.2994 -0.6107
 8157SOL    HW136104   2.029   2.039   6.209  1.8029  0.8185  2.4717
 8157SOL    HW236105   2.085   2.013   6.075  1.3313  0.5205 -1.0085
 8158SOL     OW36106   0.207   1.440   1.886  0.1178  0.1430  0.4552
 8158SOL    HW136107   0.161   1.423   1.969 -1.7123 -1.0629 -0.7982
 8158SOL    HW236108   0.282   1.381   1.887 -0.6543 -0.8678 -0.2125
 8159SOL     OW36109   3.894   1.797   6.875  0.1452 -0.4535 -0.0604
 8159SOL    HW136110   3.962   1.853   6.838  1.5291  0.1123  3.3194
 8159SOL    HW236111   3.951   1.721   6.892 -0.7166 -1.0534  0.1682
 8160SOL     OW36112   1.017   0.946  12.338  0.0666 -0.0126  0.1711
 8160SOL    HW136113   1.105   0.913  12.324  0.6584  0.6770  2.2740
 8160SOL    HW236114   1.027   1.020  12.278  1.4573  0.1040  0.5458
 8161SOL     OW36115   0.524   2.421   2.534 -0.3017 -0.3114 -0.1970
 8161SOL    HW136116   0.574   2.466   2.602  0.3484 -0.7059 -0.4162
 8161SOL    HW236117   0.538   2.478   2.458 -0.9649  0.9909  0.6495
 8162SOL     OW36118   3.879   1.244  13.636  0.5025  0.5212  0.5581
 8162SOL    HW136119   3.938   1.285  13.573  0.7948  0.5850  0.8724
 8162SOL    HW236120   3.931   1.202  13.705  1.4514 -0.6989 -0.9188
 8163SOL     OW36121   2.504   1.300   4.423 -0.4136 -0.0327 -0.3494
 8163SOL    HW136122   2.505   1.205   4.411 -0.8527 -0.1990  0.9107
 8163SOL    HW236123   2.547   1.326   4.341  1.6157 -0.2856  0.6161
 8164SOL     OW36124   3.544   4.673  16.913 -0.3527 -0.2730 -0.4245
 8164SOL    HW136125   3.621   4.619  16.933  0.2836  0.7538 -0.0766
 8164SOL    HW236126   3.576   4.723  16.837  0.5253  1.7555  1.2868
 8165SOL     OW36127   3.023   1.618   7.302 -0.1882 -0.2727 -0.3440
 8165SOL    HW136128   2.945   1.584   7.258  0.4970 -1.9961 -0.2453
 8165SOL    HW236129   2.980   1.647   7.383  0.3853  0.3241 -0.2593
 8166SOL     OW36130   4.294   3.257   7.330  0.2853 -0.2789 -0.0090
 8166SOL    HW136131   4.257   3.270   7.417 -1.5075  2.3185 -1.1549
 8166SOL    HW236132   4.274   3.334   7.277 -0.1466 -0.1990  0.2693
 8167SOL     OW36133   3.703   0.291   6.878 -0.0778  0.5439 -0.0020
 8167SOL    HW136134   3.798   0.293   6.893 -0.2492 -0.2436  1.1959
 8167SOL    HW236135   3.688   0.381   6.849  2.1768  0.2866 -1.9861
 8168SOL     OW36136   1.537   2.959  15.260  0.0120 -0.8336 -0.9231
 8168SOL    HW136137   1.518   2.867  15.282 -0.7564 -0.3453  0.5044
 8168SOL    HW236138   1.512   3.000  15.343 -1.4567 -1.0417 -1.2495
 8169SOL     OW36139   3.687   0.970   1.694  0.0451  0.0302  1.0964
 8169SOL    HW136140   3.710   0.946   1.784  1.5556  0.3092  0.7898
 8169SOL    HW236141   3.644   1.056   1.700 -1.1607 -0.2983 -2.8716
 8170SOL     OW36142   2.358   3.592   7.923  0.1267 -0.2856 -0.1464
 8170SOL    HW136143   2.305   3.668   7.898  0.4392  0.6825  2.1183
 8170SOL    HW236144   2.397   3.623   8.005  0.6405  2.1058 -1.2940
 8171SOL     OW36145   2.610   0.732  10.428 -0.5217 -0.3742 -0.6361
 8171SOL    HW136146   2.591   0.825  10.420  0.3612 -0.0908  0.7673
 8171SOL    HW236147   2.522   0.702  10.452 -0.0987 -1.9157 -1.0077
 8172SOL     OW36148   3.620   1.530  10.211  0.2318 -0.2226  0.5963
 8172SOL    HW136149   3.674   1.597  10.253 -2.1835  0.8504  1.9833
 8172SOL    HW236150   3.672   1.452  10.231 -1.7539 -1.7973 -0.3728
 8173SOL     OW36151   2.195   3.834   8.275 -0.1653  0.2454  0.0566
 8173SOL    HW136152   2.238   3.778   8.340 -0.6886 -0.6771 -0.4017
 8173SOL    HW236153   2.249   3.840   8.197 -0.9684 -1.0625 -0.6040
 8174SOL     OW36154   1.936   0.871   6.587 -0.4356 -0.4537  0.1958
 8174SOL    HW136155   1.999   0.915   6.643 -0.1676 -0.2511 -0.2636
 8174SOL    HW236156   1.989   0.811   6.535  1.2120  0.1161  1.2300
 8175SOL     OW36157   3.486   2.012   9.850 -0.1693  0.1501 -0.1974
 8175SOL    HW136158   3.454   1.947   9.787 -0.2697  1.4973 -1.5537
 8175SOL    HW236159   3.434   1.999   9.929  1.7390  0.6415  1.1466
 8176SOL     OW36160   0.148   1.767   0.742 -0.2936  0.1364  0.5071
 8176SOL    HW136161   0.128   1.762   0.835 -0.1864 -2.4680  0.3967
 8176SOL    HW236162   0.070   1.811   0.708 -0.2427 -0.8105 -0.8338
 8177SOL     OW36163   0.606   3.768   8.995  0.2832  0.2734 -0.0254
 8177SOL    HW136164   0.576   3.686   9.034 -1.3956  0.0562 -1.7666
 8177SOL    HW236165   0.523   3.814   8.978 -0.4960 -0.6843  1.1923
 8178SOL     OW36166   2.579   1.856  15.110  0.9183  0.3436 -0.7671
 8178SOL    HW136167   2.545   1.877  15.023 -0.0672  0.7298 -0.2885
 8178SOL    HW236168   2.593   1.942  15.149 -2.1831  0.9005 -0.9365
 8179SOL     OW36169   2.538   0.858   2.442 -0.6592  0.3725  0.6372
 8179SOL    HW136170   2.456   0.817   2.470 -0.5055 -0.1670  0.3014
 8179SOL    HW236171   2.574   0.789   2.386 -0.0929  1.0775  0.1426
 8180SOL     OW36172   3.894   1.301   5.248 -0.0383 -0.2775 -0.0863
 8180SOL    HW136173   3.866   1.228   5.193  0.2155  0.6363 -1.4014
 8180SOL    HW236174   3.940   1.354   5.184 -0.9451 -2.0805 -2.2245
 8181SOL     OW36175   4.523   4.611   8.015 -0.1974 -0.4645 -0.2753
 8181SOL    HW136176   4.587   4.679   7.995  1.8891 -2.1262  0.8171
 8181SOL    HW236177   4.476   4.603   7.932  0.6198 -1.4539 -0.6372
 8182SOL     OW36178   1.701   2.230   7.724  0.1553  0.5450 -0.4373
 8182SOL    HW136179   1.652   2.149   7.715 -1.7518  1.6252  0.2111
 8182SOL    HW236180   1.719   2.242   7.818  0.5147 -0.8363 -0.3241
 8183SOL     OW36181   1.925   0.110   0.751 -0.1880 -0.3084  0.6591
 8183SOL    HW136182   1.931   0.100   0.846  0.0350  1.2650  0.7980
 8183SOL    HW236183   1.904   0.020   0.727  1.8730 -0.7906  0.6245
 8184SOL     OW36184   2.427   0.590   1.729  0.2555  0.1671 -0.0543
 8184SOL    HW136185   2.522   0.594   1.740  0.0154  0.7093  1.8634
 8184SOL    HW236186   2.404   0.544   1.649  0.2627 -0.8576  0.5360
 8185SOL     OW36187   1.833   4.593  12.373 -0.1441 -0.4852 -0.3150
 8185SOL    HW136188   1.856   4.501  12.365 -2.0940 -0.8484 -1.8205
 8185SOL    HW236189   1.814   4.627  12.285 -0.5717  0.9873  0.3438
 8186SOL     OW36190   4.315   0.577   9.726  0.3937 -0.4151  0.4176
 8186SOL    HW136191   4.354   0.565   9.813 -1.0597 -2.6735  0.7469
 8186SOL    HW236192   4.391   0.595   9.672  1.1197 -0.8973  1.2763
 8187SOL     OW36193   0.337   1.990   5.481  0.4128  0.1157 -0.0213
 8187SOL    HW136194   0.339   2.029   5.394  1.2367  0.9858  0.3873
 8187SOL    HW236195   0.367   2.069   5.527  2.4897 -0.0036 -1.1568
 8188SOL     OW36196   2.729   1.444  15.804  0.1587  0.2714  0.1396
 8188SOL    HW136197   2.683   1.450  15.888 -0.8569 -2.0473 -0.2454
 8188SOL    HW236198   2.804   1.387  15.819  0.1316  0.1892 -0.0422
 8189SOL     OW36199   0.545   1.517  14.839 -0.6646 -0.3446  0.9405
 8189SOL    HW136200   0.520   1.482  14.924  1.1642 -0.8280  1.2733
 8189SOL    HW236201   0.555   1.609  14.863  1.2176 -0.9184  2.2969
 8190SOL     OW36202   2.368   0.638  12.689  0.3534  0.3290 -0.4231
 8190SOL    HW136203   2.450   0.639  12.639 -0.5465 -0.4741 -1.9167
 8190SOL    HW236204   2.403   0.633  12.778 -0.0541  3.8003 -0.0733
 8191SOL     OW36205   3.456   3.198   8.202  0.6673  0.2925 -0.2362
 8191SOL    HW136206   3.521   3.207   8.132  0.3779  0.1576 -0.5209
 8191SOL    HW236207   3.386   3.157   8.152  1.7925 -0.5613 -1.1264
 8192SOL     OW36208   2.038   0.876   0.912  0.1003  0.2251  0.1073
 8192SOL    HW136209   2.132   0.888   0.925  0.1169  1.9013 -1.6655
 8192SOL    HW236210   2.014   0.853   1.002 -5.2111  0.6679 -1.2037
 8193SOL     OW36211   1.860   3.340   4.932 -0.5267 -0.6437 -0.2058
 8193SOL    HW136212   1.950   3.358   4.960 -0.1890  0.3571 -1.9305
 8193SOL    HW236213   1.812   3.416   4.965  0.2640 -0.7205  1.1305
 8194SOL     OW36214   1.272   4.112   4.599  0.4077  0.1191  0.3000
 8194SOL    HW136215   1.290   4.206   4.600  1.7762 -0.1404 -0.5655
 8194SOL    HW236216   1.211   4.094   4.670 -0.1160  0.6671 -0.0046
 8195SOL     OW36217   1.881   3.078  13.763  0.1489  0.3008 -0.1653
 8195SOL    HW136218   1.810   3.071  13.699 -1.0768 -1.8845  1.4406
 8195SOL    HW236219   1.883   3.169  13.790  1.3375 -0.5291  2.5616
 8196SOL     OW36220   3.270   0.233   9.160  0.8111  0.0114 -0.0949
 8196SOL    HW136221   3.298   0.221   9.070 -0.7975  1.4263 -0.7711
 8196SOL    HW236222   3.178   0.207   9.156  0.6750  0.3795  0.5695
 8197SOL     OW36223   3.501   3.096   5.212  0.0550  0.1472  0.3968
 8197SOL    HW136224   3.549   3.115   5.132  0.0920  1.7577  0.7885
 8197SOL    HW236225   3.562   3.051   5.271  1.0949  0.4503 -0.4495
 8198SOL     OW36226   1.291   3.879  11.394 -0.6563  0.4337  0.1796
 8198SOL    HW136227   1.203   3.849  11.370 -1.2908  1.0608  1.7267
 8198SOL    HW236228   1.338   3.796  11.388  0.3500  1.1296 -1.6227
 8199SOL     OW36229   3.828   4.598   8.346  0.2921 -0.9217  0.2326
 8199SOL    HW136230   3.849   4.611   8.439  1.6004 -1.1972 -0.0175
 8199SOL    HW236231   3.884   4.655   8.292 -0.5893 -0.3528 -0.0922
 8200SOL     OW36232   2.866   2.131   1.007  0.1316  0.2574 -0.4696
 8200SOL    HW136233   2.872   2.197   0.937 -0.9461  2.0755  1.1658
 8200SOL    HW236234   2.780   2.148   1.045 -0.2656 -1.6513 -0.5216
 8201SOL     OW36235   2.906   4.624   8.980  0.2799  0.9362 -0.1062
 8201SOL    HW136236   2.956   4.567   9.038 -1.3833  0.0370  0.4669
 8201SOL    HW236237   2.941   4.609   8.892 -0.7858  0.6096 -0.4783
 8202SOL     OW36238   3.593   2.617   0.893  0.3993 -0.2225 -0.0043
 8202SOL    HW136239   3.571   2.710   0.886 -0.3494 -0.4251 -0.3872
 8202SOL    HW236240   3.586   2.596   0.987 -0.2597 -1.1955 -0.2671
 8203SOL     OW36241   0.493   0.233   6.245  0.2541 -0.8846 -0.1708
 8203SOL    HW136242   0.511   0.326   6.228 -0.2883 -0.5579  1.0606
 8203SOL    HW236243   0.413   0.240   6.297  1.4577 -0.0174  1.5444
 8204SOL     OW36244   2.873   0.346   3.488 -0.6592  0.0130 -0.0852
 8204SOL    HW136245   2.964   0.329   3.513 -0.6263 -1.1088 -0.9448
 8204SOL    HW236246   2.854   0.288   3.414 -0.0603 -0.5745  0.2229
 8205SOL     OW36247   4.671   0.232   2.516 -0.0452  0.6837 -0.6049
 8205SOL    HW136248   4.594   0.231   2.460  0.6649  0.1054 -1.5580
 8205SOL    HW236249   0.004   0.229   2.452  0.3091  0.0919 -0.1767
 8206SOL     OW36250   3.000   3.680  12.706  0.0681 -0.2241  0.1835
 8206SOL    HW136251   3.069   3.614  12.694  1.9861  1.8866 -0.3847
 8206SOL    HW236252   3.026   3.721  12.788 -2.0789  1.0473  0.2196
 8207SOL     OW36253   0.807   0.120   2.912 -0.4151 -0.0784 -0.3858
 8207SOL    HW136254   0.882   0.177   2.929 -0.4285 -0.0999 -0.2578
 8207SOL    HW236255   0.744   0.140   2.980  0.1801 -0.5572  0.3031
 8208SOL     OW36256   2.119   1.924   4.035  0.1989 -0.0549 -0.0941
 8208SOL    HW136257   2.031   1.961   4.048  0.5692  1.3808 -1.5886
 8208SOL    HW236258   2.119   1.858   4.105 -1.2866 -1.4682 -1.4046
 8209SOL     OW36259   0.774   2.500   7.203  0.2933 -0.1228  0.0816
 8209SOL    HW136260   0.821   2.555   7.141  0.2990  0.3108  0.4688
 8209SOL    HW236261   0.745   2.565   7.267  2.2235  3.5341 -2.7916
 8210SOL     OW36262   0.267   1.741  15.611 -0.5309 -0.2830  0.0480
 8210SOL    HW136263   0.184   1.780  15.638  0.2107  0.2388  1.5538
 8210SOL    HW236264   0.296   1.700  15.692 -0.9784  1.6265  1.1579
 8211SOL     OW36265   2.927   4.647   5.768  0.0551 -0.8965 -0.3158
 8211SOL    HW136266   3.014   4.672   5.736  0.8485 -2.0803  0.9202
 8211SOL    HW236267   2.942   4.553   5.778  0.9030 -0.6235  0.9089
 8212SOL     OW36268   4.301   3.175   5.802  0.1643 -0.0383 -0.0733
 8212SOL    HW136269   4.310   3.264   5.767  0.5179  0.5017  1.3824
 8212SOL    HW236270   4.337   3.117   5.735 -0.0090 -0.3370  0.0942
 8213SOL     OW36271   2.499   2.064   8.168 -0.1166 -0.1725  0.0403
 8213SOL    HW136272   2.477   1.991   8.226  0.0214 -2.3528 -2.6372
 8213SOL    HW236273   2.439   2.045   8.096  1.0669 -0.7832 -0.7794
 8214SOL     OW36274   3.059   2.216   2.736  0.2451  0.9037 -0.1968
 8214SOL    HW136275   3.034   2.126   2.718 -0.9005  1.0542  0.6066
 8214SOL    HW236276   3.134   2.216   2.677  1.1453  0.7159  0.9426
 8215SOL     OW36277   2.271   2.284   1.022  0.1644  0.1865 -0.4474
 8215SOL    HW136278   2.349   2.252   0.977  0.3472 -0.1501  0.0978
 8215SOL    HW236279   2.220   2.203   1.022  0.0289  0.2787 -3.5467
 8216SOL     OW36280   0.197   1.471   5.017  0.0846  0.1162  0.2969
 8216SOL    HW136281   0.229   1.515   4.939  2.0584  1.0565  1.6380
 8216SOL    HW236282   0.237   1.515   5.092  2.6245 -1.5273 -0.0894
 8217SOL     OW36283   1.339   3.425   9.600 -0.3704 -0.5277 -0.5082
 8217SOL    HW136284   1.336   3.403   9.506  1.0976  1.9747 -1.1503
 8217SOL    HW236285   1.434   3.426   9.612 -0.3461  0.8307 -0.7991
 8218SOL     OW36286   3.000   3.684   6.723 -0.1175  0.0833 -0.0289
 8218SOL    HW136287   3.080   3.735   6.710  0.6723 -1.5812 -1.6785
 8218SOL    HW236288   2.960   3.737   6.654  3.0888 -0.6481 -2.4067
 8219SOL     OW36289   3.511   4.476   1.907  0.3234  0.0632  0.3478
 8219SOL    HW136290   3.471   4.392   1.886 -1.2643  0.4840  1.6812
 8219SOL    HW236291   3.560   4.448   1.985  0.9701 -1.2956 -0.5584
 8220SOL     OW36292   2.281   3.313   7.975  0.0811  0.0496  0.3037
 8220SOL    HW136293   2.307   3.322   8.067 -1.2545 -2.1409  0.9044
 8220SOL    HW236294   2.317   3.392   7.935  0.8303 -0.6596 -0.4241
 8221SOL     OW36295   1.765   3.548   9.802  0.1251  0.0304 -0.1774
 8221SOL    HW136296   1.768   3.582   9.892 -0.4753 -0.1052 -0.1048
 8221SOL    HW236297   1.853   3.557   9.765  0.4994  0.9433  0.9341
 8222SOL     OW36298   1.809   1.078   6.162  0.4040 -0.2948 -0.0152
 8222SOL    HW136299   1.731   1.044   6.117  2.0551 -3.5130 -0.4127
 8222SOL    HW236300   1.876   1.017   6.133  0.0024 -0.7844  0.0851
 8223SOL     OW36301   2.592   2.070  13.472  0.2399 -0.2379  0.1524
 8223SOL    HW136302   2.567   1.998  13.531 -1.5767  0.5467  0.3160
 8223SOL    HW236303   2.674   2.104  13.507 -0.5286 -1.2797  2.9489
 8224SOL     OW36304   0.167   1.783   5.543  0.5697  0.1272 -0.2288
 8224SOL    HW136305   0.214   1.704   5.515  3.0719  1.6547 -0.2356
 8224SOL    HW236306   0.222   1.852   5.506 -0.8867  1.5099  0.1965
 8225SOL     OW36307   2.239   0.674   3.319 -0.2574  0.4575  0.5551
 8225SOL    HW136308   2.170   0.609   3.303  0.3085  0.1401 -0.5765
 8225SOL    HW236309   2.248   0.722   3.238  2.0115  0.8475  1.0407
 8226SOL     OW36310   4.607   0.808   6.518  0.0430 -0.7425  0.1591
 8226SOL    HW136311   4.684   0.848   6.557  1.3315 -1.6365 -1.4449
 8226SOL    HW236312   4.598   0.858   6.437 -1.3569 -3.1772 -1.2057
 8227SOL     OW36313   1.497   3.122   8.880 -0.2689  0.5100 -0.7424
 8227SOL    HW136314   1.434   3.131   8.808  0.1666  2.2824 -0.9063
 8227SOL    HW236315   1.500   3.213   8.909 -0.7118  1.0052 -2.2309
 8228SOL     OW36316   3.853   2.270   5.703 -0.6479 -0.5448  0.2488
 8228SOL    HW136317   3.929   2.298   5.755  0.2711 -0.6858 -1.0075
 8228SOL    HW236318   3.909   2.228   5.638 -0.1930  1.7119 -0.8118
 8229SOL     OW36319   4.635   1.885  16.037  0.0786  0.8554  0.3267
 8229SOL    HW136320   4.670   1.796  16.035  0.1492  0.8661  1.1357
 8229SOL    HW236321   4.719   1.923  16.012  0.5354  0.0015  0.5778
 8230SOL     OW36322   0.406   0.861   3.880 -0.1141  0.5194 -0.1011
 8230SOL    HW136323   0.494   0.872   3.916 -0.3007 -1.4698  0.9861
 8230SOL    HW236324   0.389   0.767   3.885 -2.0213  0.8957  0.3928
 8231SOL     OW36325   1.481   0.031   5.730 -0.1286  0.1815 -0.1107
 8231SOL    HW136326   1.512   4.704   5.791 -1.0125  1.2721  1.5263
 8231SOL    HW236327   1.407   4.725   5.688 -0.0768  0.9611 -1.0251
 8232SOL     OW36328   2.082   0.118   1.894  0.1200  0.3055  0.1442
 8232SOL    HW136329   1.995   0.136   1.929 -0.4466 -0.3281 -0.9806
 8232SOL    HW236330   2.110   0.049   1.954 -0.3828  0.6440  0.7692
 8233SOL     OW36331   1.942   3.610  16.520 -0.3234 -0.3149 -0.2074
 8233SOL    HW136332   1.938   3.654  16.605 -2.4077  1.3212 -1.1620
 8233SOL    HW236333   1.863   3.555  16.516  0.1818 -1.0552 -0.0374
 8234SOL     OW36334   1.501   3.644   5.852 -0.0133 -0.2396  0.3359
 8234SOL    HW136335   1.558   3.660   5.928 -1.5233 -0.0758  1.4437
 8234SOL    HW236336   1.420   3.678   5.890 -0.7633 -2.2803  0.5884
 8235SOL     OW36337   3.049   3.879  16.734 -0.1067  0.1828  0.6775
 8235SOL    HW136338   3.054   3.945  16.666  0.1550  1.4113  1.8993
 8235SOL    HW236339   3.092   3.914  16.811 -0.7894  0.6070  0.8664
 8236SOL     OW36340   0.452   0.012   5.069  0.7905  0.1878 -0.1805
 8236SOL    HW136341   0.408   0.093   5.094 -0.2574 -0.9082  1.5576
 8236SOL    HW236342   0.402   4.695   5.129  0.8617  0.3006 -0.0165
 8237SOL     OW36343   1.106   1.338   6.735  0.3335  0.0580 -0.1878
 8237SOL    HW136344   1.022   1.348   6.689  0.0277 -0.6736  0.2083
 8237SOL    HW236345   1.174   1.383   6.687  1.3592  0.4528  1.6217
 8238SOL     OW36346   3.528   0.214   7.073  0.0673 -0.2738 -0.2136
 8238SOL    HW136347   3.602   0.237   7.016  0.6344  0.4341  0.8118
 8238SOL    HW236348   3.473   0.289   7.049 -1.0238 -1.4065 -1.2827
 8239SOL     OW36349   2.594   3.458   1.220  0.2717 -0.3998 -0.0555
 8239SOL    HW136350   2.527   3.524   1.234  0.8274 -0.0071  0.8137
 8239SOL    HW236351   2.662   3.488   1.282 -1.6369  2.9655  0.3987
 8240SOL     OW36352   4.118   0.160   3.454 -0.0335  0.0577  0.6464
 8240SOL    HW136353   4.032   0.196   3.478  0.2982  0.6538  0.9343
 8240SOL    HW236354   4.175   0.236   3.444 -2.0552  1.8276  2.5356
 8241SOL     OW36355   1.114   1.526   1.901  0.1420  0.2149  0.3543
 8241SOL    HW136356   1.089   1.601   1.846  0.7190 -0.2693 -0.5717
 8241SOL    HW236357   1.187   1.497   1.846 -1.7238 -1.6175 -1.1674
 8242SOL     OW36358   1.066   0.475   4.198  0.2213  0.3398  0.7592
 8242SOL    HW136359   1.060   0.521   4.114  1.5646 -1.9632 -0.5886
 8242SOL    HW236360   1.010   0.540   4.240 -0.9602  0.4852 -1.0220
 8243SOL     OW36361   3.759   4.050   4.217  0.6258 -0.7045 -0.4964
 8243SOL    HW136362   3.736   4.074   4.127 -2.2961 -0.6127  0.2711
 8243SOL    HW236363   3.693   4.092   4.272 -0.5948 -2.3461 -0.6945
 8244SOL     OW36364   3.719   3.063   3.252  0.6333 -0.3153  0.6268
 8244SOL    HW136365   3.677   3.145   3.278 -3.0428 -1.9677 -0.0468
 8244SOL    HW236366   3.714   3.010   3.332  1.7512 -2.0080 -0.4281
 8245SOL     OW36367   0.492   3.357   4.402 -0.4463 -0.1767  0.7812
 8245SOL    HW136368   0.441   3.437   4.396 -0.4530 -0.1968  0.5683
 8245SOL    HW236369   0.440   3.297   4.348  0.2304 -1.7385  1.8841
 8246SOL     OW36370   1.823   2.703   0.935 -0.3078  0.0725  0.0202
 8246SOL    HW136371   1.891   2.751   0.889 -1.7240  1.3348 -0.7426
 8246SOL    HW236372   1.866   2.679   1.017 -1.9040 -0.1323  0.7906
 8247SOL     OW36373   0.878   2.978   7.591 -0.6287  0.7698 -0.2637
 8247SOL    HW136374   0.798   2.967   7.643 -0.5387  0.8190 -0.1148
 8247SOL    HW236375   0.946   2.966   7.657 -0.3352 -0.3232 -0.7699
 8248SOL     OW36376   3.225   2.562  11.619  0.3550 -0.4370  0.0637
 8248SOL    HW136377   3.207   2.475  11.657  0.1694 -0.4614 -0.0835
 8248SOL    HW236378   3.275   2.543  11.540 -1.8635 -2.0861 -0.9537
 8249SOL     OW36379   1.784   0.287   6.041 -0.2262 -0.3331 -0.1701
 8249SOL    HW136380   1.781   0.382   6.054 -0.6106 -0.3927  0.1661
 8249SOL    HW236381   1.696   0.258   6.065  0.8832 -1.7075  2.1150
 8250SOL     OW36382   4.424   3.968  17.509 -0.2599  0.1406 -0.4467
 8250SOL    HW136383   4.438   3.887  17.558 -2.2687 -0.0856 -0.2426
 8250SOL    HW236384   4.515   3.992  17.495  0.2802 -1.6764 -0.0424
 8251SOL     OW36385   1.265   4.611  12.695 -0.2800  0.5087 -0.5190
 8251SOL    HW136386   1.239   4.594  12.785 -0.4677  2.5740 -0.1829
 8251SOL    HW236387   1.191   4.572  12.648  0.4055  0.1181 -1.2579
 8252SOL     OW36388   1.477   1.722  15.060  0.1352 -0.2869 -0.3603
 8252SOL    HW136389   1.490   1.635  15.021  0.7528 -0.3143 -0.0992
 8252SOL    HW236390   1.542   1.738  15.129 -1.6446  0.1665  1.2131
 8253SOL     OW36391   4.607   1.356  10.583 -0.3826  0.5104  0.3656
 8253SOL    HW136392   4.583   1.435  10.631 -0.3432 -0.2232  1.5870
 8253SOL    HW236393   4.633   1.307  10.661 -0.0523  1.2767  0.7406
 8254SOL     OW36394   1.466   4.641  11.930  0.1767 -0.9978  0.5724
 8254SOL    HW136395   1.460   4.554  11.968  2.4232 -1.2722  0.3308
 8254SOL    HW236396   1.430   4.625  11.844  0.2632  0.1655  0.3173
 8255SOL     OW36397   1.701   3.943  16.454 -0.5578  0.5799 -0.3377
 8255SOL    HW136398   1.691   3.897  16.370 -0.9652  3.5203 -1.9297
 8255SOL    HW236399   1.698   4.032  16.418  0.8764  0.5227 -0.5889
 8256SOL     OW36400   1.748   4.648   1.008  0.6207 -0.5392  0.1933
 8256SOL    HW136401   1.728   4.605   1.091  2.0136 -0.1454  0.7222
 8256SOL    HW236402   1.781   4.734   1.034 -1.9888  0.3313  0.5868
 8257SOL     OW36403   2.700   3.054   6.857  0.0520 -0.0011  0.5383
 8257SOL    HW136404   2.712   3.021   6.946  0.0347  1.7241  1.1772
 8257SOL    HW236405   2.780   3.024   6.814 -0.9773 -0.8811 -0.7818
 8258SOL     OW36406   3.385   0.005   6.851  0.1955 -0.2444 -0.1757
 8258SOL    HW136407   3.329   0.075   6.883 -0.7824 -1.2875  0.4049
 8258SOL    HW236408   3.364   4.673   6.912 -2.7751 -0.4285 -1.4343
 8259SOL     OW36409   3.218   3.112   1.320  0.2683 -0.0534  0.4384
 8259SOL    HW136410   3.293   3.105   1.260 -0.1233 -2.5066  0.2406
 8259SOL    HW236411   3.232   3.029   1.366 -0.1052  0.0271  0.6956
 8260SOL     OW36412   0.107   3.503   4.463 -0.2042  0.1345  0.2394
 8260SOL    HW136413   0.024   3.541   4.492  0.1421  1.4696 -0.4886
 8260SOL    HW236414   0.074   3.492   4.374  1.3244  2.6797 -0.6594
 8261SOL     OW36415   4.143   2.443   1.220 -0.4746 -0.5752  0.0567
 8261SOL    HW136416   4.143   2.347   1.219 -0.3686 -0.5686 -0.4058
 8261SOL    HW236417   4.228   2.455   1.179 -0.2877  2.0470  1.2857
 8262SOL     OW36418   0.275   0.064   3.849 -0.1115  0.6233 -0.2906
 8262SOL    HW136419   0.324   0.097   3.773  0.8086  0.1235  0.0786
 8262SOL    HW236420   0.333   0.084   3.922 -0.6258 -1.5502  0.6949
 8263SOL     OW36421   1.659   3.208   2.914  0.1188  0.0801 -0.3712
 8263SOL    HW136422   1.674   3.282   2.855  1.2616  0.2919  0.1799
 8263SOL    HW236423   1.596   3.245   2.976 -0.8613 -2.2891  0.0350
 8264SOL     OW36424   2.247   2.995   0.770 -0.2032 -0.1550 -0.1298
 8264SOL    HW136425   2.293   3.070   0.731  0.8758  0.5013  2.3695
 8264SOL    HW236426   2.314   2.929   0.786 -0.4906 -0.3076  0.4342
 8265SOL     OW36427   0.049   3.497   8.418 -0.5354 -0.0550  0.4301
 8265SOL    HW136428   0.059   3.581   8.463  1.1937  0.6706 -1.3471
 8265SOL    HW236429   0.044   3.437   8.493 -0.9605 -2.0040 -1.1575
 8266SOL     OW36430   2.008   3.123  14.610 -0.6463  0.4963 -0.1692
 8266SOL    HW136431   1.925   3.125  14.561 -1.0109 -1.8144  0.3486
 8266SOL    HW236432   1.999   3.044  14.664  0.4071  2.4974  2.9295
 8267SOL     OW36433   0.918   0.737   4.598 -0.0385 -0.1982 -1.3319
 8267SOL    HW136434   0.828   0.730   4.566  0.2900  1.0784 -2.5477
 8267SOL    HW236435   0.944   0.645   4.591 -0.1353 -0.4230  1.2947
 8268SOL     OW36436   3.465   3.616   8.829 -0.2486 -0.3531  0.5688
 8268SOL    HW136437   3.481   3.566   8.749 -3.8647 -1.6257  0.6836
 8268SOL    HW236438   3.497   3.705   8.813  1.1515 -0.9157  0.1914
 8269SOL     OW36439   1.794   1.640   5.106  0.3350 -0.0827 -0.1352
 8269SOL    HW136440   1.740   1.575   5.150  2.1004 -1.3479  0.1522
 8269SOL    HW236441   1.792   1.612   5.014  1.0745 -1.5629  0.2921
 8270SOL     OW36442   3.952   1.696   0.920  0.1038 -0.4526  0.1748
 8270SOL    HW136443   3.984   1.759   0.855 -1.5739  0.8930  0.6542
 8270SOL    HW236444   3.878   1.752   0.941  1.0340  0.5899  0.7162
 8271SOL     OW36445   3.035   0.339   4.554 -0.7831 -0.0116 -0.5157
 8271SOL    HW136446   3.057   0.425   4.519 -1.4326 -0.0690 -1.0693
 8271SOL    HW236447   3.011   0.360   4.644  0.9775  1.2808 -0.3498
 8272SOL     OW36448   0.628   1.890  14.016 -0.3087  0.3842 -0.5215
 8272SOL    HW136449   0.633   1.923  13.927  0.9184 -2.0112 -1.3276
 8272SOL    HW236450   0.720   1.871  14.033  0.0830  2.3398 -0.4904
 8273SOL     OW36451   0.431   2.171   6.482  0.3402 -0.7511  0.2395
 8273SOL    HW136452   0.340   2.144   6.469  0.4793 -0.1232 -2.0637
 8273SOL    HW236453   0.438   2.177   6.577  0.0071  0.6640  0.1728
 8274SOL     OW36454   0.271   1.636  13.253 -0.0534  0.3579  0.6302
 8274SOL    HW136455   0.292   1.625  13.161 -0.3623  0.5935  0.5330
 8274SOL    HW236456   0.179   1.660  13.252 -0.1084  0.0274 -2.4552
 8275SOL     OW36457   2.081   1.443  14.858  0.4251 -0.4543  0.1558
 8275SOL    HW136458   2.176   1.437  14.857  0.4245 -0.4623  0.1165
 8275SOL    HW236459   2.057   1.366  14.909  0.0802  0.0470  0.7464
 8276SOL     OW36460   4.713   0.196   6.239 -0.1730  0.2144 -0.2639
 8276SOL    HW136461   0.021   0.277   6.221 -0.6940  0.0953 -2.1179
 8276SOL    HW236462   4.673   0.184   6.153 -0.6830  1.1810 -0.1698
 8277SOL     OW36463   1.415   4.006   9.582  0.6046 -0.6133 -0.0470
 8277SOL    HW136464   1.381   3.918   9.571  0.2663 -0.5008  0.1089
 8277SOL    HW236465   1.506   3.993   9.610  1.0280 -1.2330 -1.7307
 8278SOL     OW36466   0.060   2.850  14.826  0.0109  0.0110 -0.2366
 8278SOL    HW136467   0.124   2.792  14.865 -0.3012 -0.3230 -0.2155
 8278SOL    HW236468   0.119   2.922  14.805 -0.7818  0.5024 -0.7788
 8279SOL     OW36469   4.718   2.121  11.660  0.7708  0.1654  0.3754
 8279SOL    HW136470   0.069   2.129  11.628 -0.1014 -0.3076 -2.1661
 8279SOL    HW236471   4.690   2.212  11.670  0.9833  0.0394  2.0551
 8280SOL     OW36472   3.430   1.003   1.860 -0.9296  0.4623 -0.2669
 8280SOL    HW136473   3.336   1.019   1.849 -1.1523  0.0252  1.0215
 8280SOL    HW236474   3.460   1.070   1.798  0.2944 -0.5472 -0.7553
 8281SOL     OW36475   3.995   4.010   1.125  0.4589 -0.0604 -0.1799
 8281SOL    HW136476   4.030   4.065   1.195  0.4741  1.8494 -1.6945
 8281SOL    HW236477   4.028   4.056   1.049 -2.6694 -1.5182 -2.4219
 8282SOL     OW36478   3.854   2.774   8.492  0.0652 -0.2221 -0.0879
 8282SOL    HW136479   3.791   2.771   8.564 -0.5945  3.2638 -0.5362
 8282SOL    HW236480   3.792   2.763   8.420  0.0582  0.4250 -0.1824
 8283SOL     OW36481   1.383   0.572   5.347  0.1937  0.4202 -0.4589
 8283SOL    HW136482   1.456   0.552   5.406 -1.0236 -0.0853  0.8892
 8283SOL    HW236483   1.427   0.617   5.275  0.4300  2.4157  0.9311
 8284SOL     OW36484   1.398   3.198   8.590 -0.8854  0.1483 -0.4528
 8284SOL    HW136485   1.336   3.272   8.592 -1.7148 -0.5738  0.7086
 8284SOL    HW236486   1.455   3.238   8.524  0.0843  1.7932  1.3730
 8285SOL     OW36487   1.246   3.078   2.797 -0.5100  0.5494 -0.1685
 8285SOL    HW136488   1.294   3.059   2.716  1.1282  0.5775  0.7896
 8285SOL    HW236489   1.179   3.136   2.760 -1.7655  0.0058  1.2931
 8286SOL     OW36490   1.081   0.427   8.459  0.2404 -0.3305  0.5616
 8286SOL    HW136491   1.129   0.508   8.441 -0.6875  0.1845  0.4121
 8286SOL    HW236492   1.089   0.368   8.384 -1.4036 -0.0480  0.1738
 8287SOL     OW36493   4.280   0.370  10.168  0.5754 -0.3373  0.3485
 8287SOL    HW136494   4.311   0.362  10.078  1.2435 -0.6889  0.6081
 8287SOL    HW236495   4.364   0.342  10.205  0.7498  1.0300  1.0083
 8288SOL     OW36496   0.991   0.022   8.693  0.1795 -0.2118  0.0491
 8288SOL    HW136497   1.057   4.713   8.642  0.6100  0.1194  0.2975
 8288SOL    HW236498   0.910   0.008   8.644  0.0463 -0.0525  0.2274
 8289SOL     OW36499   3.008   2.256   4.134 -0.8614  0.1064 -0.0984
 8289SOL    HW136500   3.000   2.316   4.059  0.1515 -0.1302 -0.4018
 8289SOL    HW236501   3.031   2.179   4.081 -1.2717  0.7552 -1.2236
 8290SOL     OW36502   0.958   0.331  15.498  0.4717  0.4358  0.1926
 8290SOL    HW136503   1.031   0.326  15.436 -0.3333  0.3338 -0.7390
 8290SOL    HW236504   0.987   0.279  15.573  1.1599  1.2263  0.4785
 8291SOL     OW36505   1.964   2.641   6.571  0.6420  1.0658 -0.7515
 8291SOL    HW136506   1.985   2.649   6.478  0.2092 -0.7405 -1.0087
 8291SOL    HW236507   1.967   2.728   6.610 -0.8182  1.0248 -0.5151
 8292SOL     OW36508   2.296   0.816  15.039 -0.0777  0.0306 -0.0789
 8292SOL    HW136509   2.314   0.749  15.106  2.3723  0.2702 -0.4901
 8292SOL    HW236510   2.328   0.781  14.956 -0.6337 -0.5948 -0.0312
 8293SOL     OW36511   0.367   1.753   2.393 -0.3854  0.0298 -0.6261
 8293SOL    HW136512   0.310   1.689   2.436  1.8130 -2.1633 -0.9419
 8293SOL    HW236513   0.354   1.825   2.455  0.4291 -1.1604  0.9223
 8294SOL     OW36514   3.154   2.301   5.892 -0.0281  0.4167 -0.4914
 8294SOL    HW136515   3.239   2.293   5.849  0.1954  0.7186 -0.1076
 8294SOL    HW236516   3.109   2.278   5.811  2.4001 -0.7720 -1.5115
 8295SOL     OW36517   3.188   0.591   4.134  0.1996  0.4057  0.1578
 8295SOL    HW136518   3.145   0.569   4.052  0.4710 -0.5419  0.2684
 8295SOL    HW236519   3.276   0.556   4.119 -0.6305 -0.3023 -3.0268
 8296SOL     OW36520   1.327   1.838   0.154  0.0241  0.0711  0.0827
 8296SOL    HW136521   1.404   1.863   0.103 -0.0102  2.1984  1.0787
 8296SOL    HW236522   1.265   1.854   0.083  1.0262 -2.0052 -1.2658
 8297SOL     OW36523   4.218   3.661   2.567 -0.3313  0.4114 -0.1041
 8297SOL    HW136524   4.182   3.582   2.607  0.6720 -0.8704 -1.7705
 8297SOL    HW236525   4.155   3.732   2.582  0.7948  1.1432  1.1923
 8298SOL     OW36526   0.358   3.899  10.672  0.0815 -0.2430 -0.1484
 8298SOL    HW136527   0.402   3.814  10.667 -0.9843 -0.8700  0.9914
 8298SOL    HW236528   0.346   3.910  10.766  0.1793 -1.9435  0.0625
 8299SOL     OW36529   1.492   1.468  15.003 -0.6462 -0.5120 -0.0445
 8299SOL    HW136530   1.415   1.459  14.948 -1.6167 -2.8393  1.7243
 8299SOL    HW236531   1.570   1.441  14.954  0.2123 -1.2403  1.7234
 8300SOL     OW36532   3.655   2.891  15.143 -0.1081  0.2192 -0.7720
 8300SOL    HW136533   3.651   2.984  15.122  0.4041  0.2914 -0.5294
 8300SOL    HW236534   3.614   2.893  15.229  0.4383 -0.3190 -0.5001
 8301SOL     OW36535   2.054   2.529   6.089 -0.1146  0.1146 -0.3330
 8301SOL    HW136536   2.147   2.540   6.107 -0.6728  1.5137  1.6690
 8301SOL    HW236537   2.018   2.603   6.138  0.9175  0.3018  0.1270
 8302SOL     OW36538   0.094   4.038   1.554  0.0506 -0.3163 -0.2248
 8302SOL    HW136539   0.034   4.105   1.521  0.7468  0.7082  0.5939
 8302SOL    HW236540   0.037   4.001   1.621  0.9381  0.2233  0.8207
 8303SOL     OW36541   3.534   0.551   4.614 -0.0679 -0.0685 -0.2238
 8303SOL    HW136542   3.535   0.543   4.709  1.3419  0.2409 -0.2156
 8303SOL    HW236543   3.625   0.573   4.595  0.3893 -0.7557  1.1773
 8304SOL     OW36544   3.272   3.035   7.322 -0.2014 -0.0534 -0.2090
 8304SOL    HW136545   3.248   3.045   7.414 -0.2536 -2.9785  0.1106
 8304SOL    HW236546   3.337   2.965   7.335  1.1467  1.6387  1.9751
 8305SOL     OW36547   0.881   2.105   4.394 -0.0491 -0.2285  0.2583
 8305SOL    HW136548   0.954   2.077   4.450  0.9641  2.5234  0.3120
 8305SOL    HW236549   0.816   2.036   4.405 -0.3682 -0.1849 -1.3300
 8306SOL     OW36550   2.811   3.915  11.644 -0.0453 -0.1144  0.4205
 8306SOL    HW136551   2.854   3.845  11.693  1.7870  0.3025 -0.5963
 8306SOL    HW236552   2.723   3.908  11.680 -0.4245  0.7481 -0.3536
 8307SOL     OW36553   0.214   0.387   2.146 -0.0288 -0.0067  0.3422
 8307SOL    HW136554   0.249   0.306   2.110 -0.7066 -0.1593  0.0189
 8307SOL    HW236555   0.230   0.444   2.071 -2.1617  1.1254  0.7177
 8308SOL     OW36556   4.293   3.331  15.749  0.1220 -0.3278 -0.3737
 8308SOL    HW136557   4.327   3.336  15.660 -0.4460 -0.0188 -0.5737
 8308SOL    HW236558   4.248   3.247  15.752 -1.1394  0.2966 -1.8264
 8309SOL     OW36559   2.125   1.652   6.625 -0.2058  0.9364  0.1608
 8309SOL    HW136560   2.186   1.726   6.628  2.0202 -0.9892  2.1250
 8309SOL    HW236561   2.164   1.584   6.680  0.0285  1.6921  0.9240
 8310SOL     OW36562   3.272   0.720  10.237  0.1487 -0.1342  0.6314
 8310SOL    HW136563   3.363   0.706  10.209  0.1030 -1.8508  1.3297
 8310SOL    HW236564   3.225   0.640  10.213  0.0428  0.1819 -0.2159
 8311SOL     OW36565   3.643   0.920   7.393 -0.5267 -0.1783 -0.1294
 8311SOL    HW136566   3.675   0.994   7.341  2.7731 -0.4064  1.5727
 8311SOL    HW236567   3.552   0.948   7.404  0.0000  1.6214 -0.2759
 8312SOL     OW36568   4.570   1.199   8.023 -0.9104  0.4110  0.5946
 8312SOL    HW136569   4.652   1.242   8.048  0.3736 -0.5291 -2.0393
 8312SOL    HW236570   4.527   1.189   8.108 -0.5988  0.4441  0.7588
 8313SOL     OW36571   0.178   0.396   8.847 -0.7508 -0.5891 -0.3504
 8313SOL    HW136572   0.087   0.367   8.842 -1.8110  2.7794 -0.7494
 8313SOL    HW236573   0.181   0.490   8.867 -1.4560 -0.4435 -0.9579
 8314SOL     OW36574   2.392   4.037   8.119  0.0793 -0.3574  0.2224
 8314SOL    HW136575   2.309   4.016   8.075  0.4977  0.6475 -1.0336
 8314SOL    HW236576   2.438   4.055   8.037 -1.1386  0.9356 -0.1994
 8315SOL     OW36577   2.632   4.155  10.289 -0.3233  0.5568 -0.3138
 8315SOL    HW136578   2.570   4.082  10.284  0.3864 -0.1508  1.1773
 8315SOL    HW236579   2.584   4.222  10.337 -0.8862  1.0606 -1.5694
 8316SOL     OW36580   2.786   2.020  11.313 -0.1009  0.2249  0.2728
 8316SOL    HW136581   2.838   1.992  11.389  1.0714  0.5292 -0.4134
 8316SOL    HW236582   2.712   2.062  11.356 -1.2923 -1.7371  0.1062
 8317SOL     OW36583   2.500   2.825   0.203 -0.7468 -0.4779 -0.0641
 8317SOL    HW136584   2.551   2.857   0.276 -3.1630  0.7717  1.0782
 8317SOL    HW236585   2.503   2.729   0.207 -0.7063 -0.5420 -1.5324
 8318SOL     OW36586   1.394   3.068   4.149  0.2102 -0.5293  0.0250
 8318SOL    HW136587   1.398   3.161   4.173 -0.8692 -0.2978 -0.7051
 8318SOL    HW236588   1.485   3.044   4.165 -0.6789 -3.6405  0.3569
 8319SOL     OW36589   3.940   1.255   7.130  0.3833  0.0474 -0.2575
 8319SOL    HW136590   4.033   1.267   7.150  0.3808 -0.4829  0.0802
 8319SOL    HW236591   3.922   1.347   7.111  0.1341 -0.2165 -1.2844
 8320SOL     OW36592   1.078   4.401   4.753  0.3191 -0.1338 -0.0934
 8320SOL    HW136593   1.174   4.410   4.756  0.3011 -0.1619  0.5263
 8320SOL    HW236594   1.057   4.410   4.660 -1.4470  3.2810  0.6603
 8321SOL     OW36595   3.621   1.752   2.247  0.1879  0.6816 -0.3091
 8321SOL    HW136596   3.603   1.819   2.181 -1.0589 -2.2484 -2.9407
 8321SOL    HW236597   3.551   1.764   2.311  0.3253  1.1136 -0.2366
 8322SOL     OW36598   1.091   0.743   4.979 -0.4746  0.1071  0.2744
 8322SOL    HW136599   1.179   0.767   5.008 -0.6426 -0.2850  1.1080
 8322SOL    HW236600   1.074   0.667   5.034 -1.4452  0.1440  0.0221
 8323SOL     OW36601   2.592   2.735   2.499  0.5255  0.0104  0.4201
 8323SOL    HW136602   2.579   2.729   2.594  0.3297  0.3473  0.4150
 8323SOL    HW236603   2.603   2.830   2.503  0.6099  0.0435 -0.6004
 8324SOL     OW36604   3.785   1.073   2.202 -0.0481  0.3459 -0.2849
 8324SOL    HW136605   3.701   1.108   2.174 -0.2177  0.9343  0.9528
 8324SOL    HW236606   3.770   1.048   2.293 -0.8370  1.9580  0.0290
 8325SOL     OW36607   3.114   2.431   8.446  0.3137 -0.7040  0.2765
 8325SOL    HW136608   3.021   2.423   8.467 -0.2469 -1.6627 -2.6895
 8325SOL    HW236609   3.143   2.372   8.516 -0.0026 -1.8517 -0.5707
 8326SOL     OW36610   3.908   4.332  13.232  0.5354  0.0466 -0.1986
 8326SOL    HW136611   4.000   4.317  13.210  0.2647  1.1141 -2.1433
 8326SOL    HW236612   3.883   4.248  13.269  1.3362 -0.4955 -0.8931
 8327SOL     OW36613   3.813   2.058   3.002  0.2931 -0.0496  0.3479
 8327SOL    HW136614   3.871   2.008   3.059 -0.5354  0.1061  1.3270
 8327SOL    HW236615   3.836   2.148   3.023 -1.7722  0.7365 -0.7595
 8328SOL     OW36616   2.918   3.019   4.655  0.3172  0.2074 -0.7595
 8328SOL    HW136617   2.858   3.010   4.728  0.6200  2.3099 -0.2514
 8328SOL    HW236618   2.999   2.993   4.699 -0.1723 -2.0713 -1.2472
 8329SOL     OW36619   2.440   3.577   6.009 -0.3509 -0.1104  0.8987
 8329SOL    HW136620   2.522   3.623   5.990 -0.2849 -0.1427  1.0991
 8329SOL    HW236621   2.451   3.499   6.063  0.7571 -1.7121 -1.6291
 8330SOL     OW36622   4.228   1.008   7.516 -0.6426 -0.1971 -0.0895
 8330SOL    HW136623   4.171   1.072   7.561 -1.0590 -0.1759 -0.6515
 8330SOL    HW236624   4.166   0.946   7.478  1.1720 -2.4363  0.6523
 8331SOL     OW36625   3.897   2.296   3.971 -0.1254 -0.2761  0.2873
 8331SOL    HW136626   3.863   2.249   3.895  1.1028  0.6055 -0.7953
 8331SOL    HW236627   3.987   2.308   3.942 -0.8323  2.5661 -0.7115
 8332SOL     OW36628   1.065   1.212  13.764  0.4623  0.2294 -0.3096
 8332SOL    HW136629   1.056   1.277  13.834  2.3304  0.1236  0.0383
 8332SOL    HW236630   1.156   1.216  13.734  0.5771 -0.2210 -0.0234
 8333SOL     OW36631   0.738   2.720   0.240  0.2827  0.1059 -0.0398
 8333SOL    HW136632   0.820   2.719   0.290  0.5154 -0.4788 -0.4214
 8333SOL    HW236633   0.755   2.790   0.177 -0.7263 -0.5814 -1.0614
 8334SOL     OW36634   0.457   4.710   6.134  0.0412  0.2686 -0.5694
 8334SOL    HW136635   0.483   0.053   6.176 -0.5404  1.6591 -2.8836
 8334SOL    HW236636   0.542   4.665   6.133 -1.7025 -3.0541  0.5901
 8335SOL     OW36637   2.266   4.361   8.782  0.4277  0.2955 -0.4946
 8335SOL    HW136638   2.228   4.318   8.858 -1.4456  1.5378 -0.7316
 8335SOL    HW236639   2.250   4.450   8.813 -0.8420 -0.2179  0.3438
 8336SOL     OW36640   1.309   0.456   8.224 -0.1400 -0.1681  0.4791
 8336SOL    HW136641   1.285   0.547   8.243 -0.2431 -0.0915 -0.0152
 8336SOL    HW236642   1.297   0.448   8.129 -1.5156 -0.0965  0.6404
 8337SOL     OW36643   0.153   2.245  10.166 -0.0240 -0.1913  0.3816
 8337SOL    HW136644   0.178   2.250  10.259 -0.8896  0.1041  0.5947
 8337SOL    HW236645   0.058   2.251  10.168 -0.0674 -0.9219  1.1513
 8338SOL     OW36646   1.082   0.343   3.548  0.4320  0.5741 -0.5815
 8338SOL    HW136647   1.053   0.271   3.604  0.8441  0.8355 -0.0355
 8338SOL    HW236648   1.082   0.421   3.603 -1.0720  0.1286  0.0458
 8339SOL     OW36649   1.720   0.559   5.855 -0.1770  0.3072  0.1229
 8339SOL    HW136650   1.670   0.560   5.937  2.4024  1.4043  1.6700
 8339SOL    HW236651   1.644   0.581   5.801  0.1317  0.2618 -0.3224
 8340SOL     OW36652   4.620   3.406   9.726  0.0310 -0.2933  0.5007
 8340SOL    HW136653   4.688   3.339   9.727 -0.5875 -0.8683  3.3566
 8340SOL    HW236654   4.637   3.447   9.811 -0.5471  0.4502  0.2655
 8341SOL     OW36655   0.624   0.186  16.483 -0.2634 -0.0715  0.3975
 8341SOL    HW136656   0.580   0.266  16.513 -2.0349 -0.9676  0.1613
 8341SOL    HW236657   0.699   0.228  16.440 -2.4979  1.9960 -1.4534
 8342SOL     OW36658   1.586   1.439   1.130  0.6367 -0.1018  0.0954
 8342SOL    HW136659   1.627   1.353   1.122  0.7530  0.0290 -0.6808
 8342SOL    HW236660   1.653   1.496   1.092  1.0866 -1.7540 -1.6279
 8343SOL     OW36661   0.599   3.631   7.201  0.0080 -0.0325 -0.7135
 8343SOL    HW136662   0.600   3.578   7.121 -0.6934 -0.3301 -0.5288
 8343SOL    HW236663   0.675   3.689   7.204 -0.5011  0.6863 -1.8927
 8344SOL     OW36664   2.064   1.649   5.629 -0.4996  1.0171 -0.1393
 8344SOL    HW136665   2.105   1.632   5.544  0.6970  2.0303  0.2496
 8344SOL    HW236666   2.005   1.721   5.607 -0.4464  1.0402 -0.2055
 8345SOL     OW36667   1.249   4.548  17.100 -0.0530 -0.1293 -0.1889
 8345SOL    HW136668   1.179   4.542  17.035  0.6534  0.5445 -1.0075
 8345SOL    HW236669   1.302   4.471  17.079 -2.1770 -1.0871 -2.0062
 8346SOL     OW36670   4.346   0.211   1.424  1.0710 -0.2110  0.3018
 8346SOL    HW136671   4.314   0.297   1.450 -0.6162 -0.6465 -0.3422
 8346SOL    HW236672   4.271   0.166   1.385 -1.1663  3.7062  0.1254
 8347SOL     OW36673   1.064   2.572   5.103 -0.5678  0.6383  0.4239
 8347SOL    HW136674   1.102   2.646   5.150 -0.8148  0.1485  1.3907
 8347SOL    HW236675   1.080   2.594   5.011  0.9507  0.8407  0.7342
 8348SOL     OW36676   0.223   0.096   2.699  0.6016 -0.0467  0.5409
 8348SOL    HW136677   0.313   0.124   2.715  1.2194 -2.0117  0.4471
 8348SOL    HW236678   0.181   0.181   2.711  0.0174 -0.6561  2.8937
 8349SOL     OW36679   0.942   1.931   9.076 -1.0846  0.1947  0.1067
 8349SOL    HW136680   0.888   1.857   9.105 -0.7287  0.0968  0.5140
 8349SOL    HW236681   0.993   1.950   9.154 -0.0176  4.4022 -1.6631
 8350SOL     OW36682   2.134   4.643   5.383 -0.0709 -0.6487  0.1605
 8350SOL    HW136683   2.160   4.559   5.346 -0.0626 -0.9842  0.9276
 8350SOL    HW236684   2.071   4.658   5.312  0.8526 -1.5310 -0.8426
 8351SOL     OW36685   2.637   3.651   5.376  0.7422 -0.0470 -0.2975
 8351SOL    HW136686   2.696   3.612   5.441 -1.0307  0.6815  1.7513
 8351SOL    HW236687   2.674   3.739   5.368 -0.7356  0.5209 -0.8451
 8352SOL     OW36688   4.692   3.331   9.039 -0.2226  0.2822 -0.0252
 8352SOL    HW136689   4.734   3.333   9.125  0.5059  1.1066 -0.4075
 8352SOL    HW236690   4.704   3.239   9.016  0.3644 -0.3774  2.8925
 8353SOL     OW36691   0.974   3.060   9.124  0.3202 -0.0869 -0.0453
 8353SOL    HW136692   0.955   2.981   9.174  0.4850  1.0179  1.7621
 8353SOL    HW236693   1.069   3.052   9.112 -0.0358 -0.7178 -2.5122
 8354SOL     OW36694   0.102   3.958   7.202  0.4017  0.2037  0.2809
 8354SOL    HW136695   0.155   3.922   7.130  0.1448 -0.6928  0.5406
 8354SOL    HW236696   0.056   4.027   7.155 -1.6309 -1.5238 -0.2731
 8355SOL     OW36697   2.227   1.993  14.403  0.0967  0.0378  0.0088
 8355SOL    HW136698   2.183   1.978  14.320  0.2679  3.5826 -0.7314
 8355SOL    HW236699   2.287   1.919  14.411 -1.1095 -0.7478  1.7656
 8356SOL     OW36700   1.044   4.083   8.947 -0.3291 -0.0914  0.2322
 8356SOL    HW136701   1.038   4.027   9.024  0.6674 -0.0810  0.3131
 8356SOL    HW236702   1.024   4.021   8.877 -0.0894  0.2587 -0.1493
 8357SOL     OW36703   4.642   1.567   8.800  0.0954 -0.2891  0.1763
 8357SOL    HW136704   4.657   1.533   8.888  2.4778 -3.7749 -1.5466
 8357SOL    HW236705   4.622   1.659   8.814 -1.0768 -0.1885 -2.1678
 8358SOL     OW36706   0.643   3.312   9.301 -0.0252  0.6824 -0.4422
 8358SOL    HW136707   0.555   3.339   9.325 -0.0978  0.3053 -0.2856
 8358SOL    HW236708   0.633   3.217   9.302 -0.6862  0.7570 -0.0288
 8359SOL     OW36709   1.015   3.411   3.382 -0.1447 -0.5084  0.5181
 8359SOL    HW136710   0.962   3.491   3.381 -0.7714 -0.9153  1.6292
 8359SOL    HW236711   0.994   3.382   3.293  0.2107  2.2762 -0.4630
 8360SOL     OW36712   3.287   2.551   9.227 -0.0811 -0.0345 -0.0267
 8360SOL    HW136713   3.262   2.459   9.235  0.4029 -0.1664 -0.0167
 8360SOL    HW236714   3.325   2.565   9.313 -0.8731 -1.9675  0.6384
 8361SOL     OW36715   2.455   0.246   9.998 -0.1505 -0.2141 -0.4975
 8361SOL    HW136716   2.499   0.323  10.033  2.0154 -1.8106  0.2938
 8361SOL    HW236717   2.449   0.266   9.905  0.9764 -0.9793 -0.7353
 8362SOL     OW36718   3.194   0.815   6.835 -0.3873 -0.1875  0.2444
 8362SOL    HW136719   3.182   0.901   6.793 -0.3765 -0.7446 -0.8948
 8362SOL    HW236720   3.147   0.840   6.915  1.5176  1.0656  0.9906
 8363SOL     OW36721   1.669   4.369  15.791 -0.1040 -0.1964  0.2616
 8363SOL    HW136722   1.699   4.341  15.704 -3.1853 -0.1309 -0.8008
 8363SOL    HW236723   1.597   4.428  15.770  0.3212  0.2191 -0.0034
 8364SOL     OW36724   0.610   1.611   9.087 -0.4395  0.3282 -0.6664
 8364SOL    HW136725   0.611   1.529   9.037 -0.1504 -0.7376  1.0816
 8364SOL    HW236726   0.525   1.603   9.131 -0.0091  1.2038  0.3295
 8365SOL     OW36727   1.474   3.372   2.238  0.3328 -0.1015  0.0483
 8365SOL    HW136728   1.394   3.329   2.209  1.7214 -2.4691 -0.3154
 8365SOL    HW236729   1.526   3.388   2.159  1.7491  1.2654  1.2414
 8366SOL     OW36730   1.349   4.063  12.003  0.2731  0.1933  0.2109
 8366SOL    HW136731   1.435   4.035  12.034  0.5505  1.9735  1.0241
 8366SOL    HW236732   1.277   4.022  12.051  0.3457 -1.3688 -0.9913
 8367SOL     OW36733   3.452   2.850   3.632 -0.0752 -0.0395 -0.8653
 8367SOL    HW136734   3.463   2.945   3.619 -5.0857  0.6352 -0.1954
 8367SOL    HW236735   3.540   2.815   3.621  0.1315 -0.4500  2.1913
 8368SOL     OW36736   1.137   2.393   4.056  0.6486 -0.3795 -0.3283
 8368SOL    HW136737   1.199   2.321   4.069  2.8447  1.0886 -2.5459
 8368SOL    HW236738   1.056   2.354   4.088  0.1575 -0.4369 -1.6316
 8369SOL     OW36739   1.537   1.505   3.333  0.0601 -0.0522 -0.1611
 8369SOL    HW136740   1.530   1.412   3.354 -1.0946 -0.0367 -0.4486
 8369SOL    HW236741   1.471   1.510   3.263 -1.1169 -0.0356  0.9455
 8370SOL     OW36742   3.411   4.047   6.943 -0.1645 -0.0516 -0.4676
 8370SOL    HW136743   3.460   4.018   7.020 -0.6121 -0.3582 -0.2958
 8370SOL    HW236744   3.487   4.059   6.886 -0.8284  0.8458 -1.1582
 8371SOL     OW36745   4.194   1.730   9.611  0.4189 -0.0027 -0.1057
 8371SOL    HW136746   4.119   1.705   9.557  1.4431 -1.6782 -0.7328
 8371SOL    HW236747   4.206   1.655   9.669 -0.4812  0.2553  0.4217
 8372SOL     OW36748   4.135   4.436  11.271  0.0761 -0.1266 -0.1358
 8372SOL    HW136749   4.215   4.481  11.242 -0.5826  0.2324 -1.3955
 8372SOL    HW236750   4.152   4.421  11.364 -1.0064 -0.9738 -0.0711
 8373SOL     OW36751   0.661   2.111   1.590  0.0661 -0.4934  0.4544
 8373SOL    HW136752   0.714   2.071   1.659 -0.8610  0.3648  1.6662
 8373SOL    HW236753   0.698   2.199   1.580  0.5889 -0.8184 -0.5042
 8374SOL     OW36754   1.583   3.808   2.557 -0.4173  0.4666 -0.1460
 8374SOL    HW136755   1.518   3.812   2.488  1.0155 -0.0277 -1.5255
 8374SOL    HW236756   1.526   3.778   2.628  0.3416  2.5189  1.3298
 8375SOL     OW36757   4.194   4.556   2.344 -0.1916  0.2024 -0.9114
 8375SOL    HW136758   4.265   4.511   2.298  0.3394  0.2070 -0.1060
 8375SOL    HW236759   4.225   4.543   2.434  0.1027  2.4744 -0.7011
 8376SOL     OW36760   1.884   0.656   7.630 -0.4930  0.2618 -0.7672
 8376SOL    HW136761   1.948   0.727   7.634 -0.8201  0.5623 -0.9461
 8376SOL    HW236762   1.936   0.600   7.688  1.0541  2.2390 -0.2472
 8377SOL     OW36763   4.685   3.653  11.367 -0.7282  0.0369  0.1876
 8377SOL    HW136764   0.040   3.675  11.364 -0.5428 -1.0752 -1.6375
 8377SOL    HW236765   4.682   3.599  11.446 -2.7422  1.4494  1.0611
 8378SOL     OW36766   2.684   1.964  11.054 -0.2557 -0.4463 -0.0374
 8378SOL    HW136767   2.773   1.929  11.053 -0.9514 -2.2489 -0.0249
 8378SOL    HW236768   2.687   1.983  11.148 -0.5874 -0.5885  0.0025
 8379SOL     OW36769   1.873   1.309   9.577 -0.0395 -0.4282  0.0542
 8379SOL    HW136770   1.845   1.274   9.661  2.3139 -2.4887 -0.0095
 8379SOL    HW236771   1.821   1.389   9.569 -0.3945 -0.5003  1.6431
 8380SOL     OW36772   4.405   2.883   2.810 -0.4421 -0.2002 -0.2717
 8380SOL    HW136773   4.463   2.959   2.823 -0.5776  0.2247 -2.0894
 8380SOL    HW236774   4.319   2.925   2.812  0.1218  1.0100 -0.9860
 8381SOL     OW36775   1.080   0.531   5.140  0.9850  0.0478 -0.1815
 8381SOL    HW136776   1.075   0.531   5.235 -0.4811 -1.4358 -0.2463
 8381SOL    HW236777   1.139   0.456   5.134  1.1349  0.1751 -0.3218
 8382SOL     OW36778   0.764   4.315   1.759 -0.1810 -0.0862  0.4615
 8382SOL    HW136779   0.683   4.353   1.794  0.1912  1.9253 -0.8831
 8382SOL    HW236780   0.828   4.363   1.811 -0.2712  0.2674  0.2492
 8383SOL     OW36781   0.522   0.748   1.209  0.0833 -0.0194 -0.0779
 8383SOL    HW136782   0.513   0.704   1.293 -0.3691 -0.9881 -0.6406
 8383SOL    HW236783   0.612   0.722   1.191 -0.8184 -2.6346 -0.6942
 8384SOL     OW36784   0.368   4.503   4.090 -0.2622 -0.9360  0.2232
 8384SOL    HW136785   0.342   4.578   4.144 -0.2508 -0.2478 -0.7105
 8384SOL    HW236786   0.419   4.449   4.150 -0.3748  0.4266  1.5529
 8385SOL     OW36787   0.206   2.112   1.868  0.5283 -0.3751 -0.0642
 8385SOL    HW136788   0.253   2.058   1.931  0.0551  1.4202  1.8174
 8385SOL    HW236789   0.125   2.064   1.851  0.5138 -0.6054  0.6506
 8386SOL     OW36790   1.100   1.157   5.794  0.0295  0.0476 -0.1384
 8386SOL    HW136791   1.147   1.178   5.713  1.4428  0.1564  0.7091
 8386SOL    HW236792   1.081   1.063   5.790 -0.0098  0.1180 -1.8888
 8387SOL     OW36793   4.512   0.478   2.988 -0.4550  0.0226 -0.1590
 8387SOL    HW136794   4.604   0.452   2.992 -0.6213 -0.3613  0.9954
 8387SOL    HW236795   4.517   0.559   3.039  0.7256  0.6865 -1.3275
 8388SOL     OW36796   3.319   3.924  16.551  0.2958 -0.2720 -0.4011
 8388SOL    HW136797   3.318   3.970  16.467  0.9412  0.6079  0.0674
 8388SOL    HW236798   3.334   3.999  16.608  1.5658 -1.6052  0.9940
 8389SOL     OW36799   3.932   1.469   8.484 -0.5305  0.7302 -0.7097
 8389SOL    HW136800   3.862   1.476   8.419 -0.3501 -1.2344 -1.1051
 8389SOL    HW236801   3.951   1.562   8.500 -0.4935  0.4551  0.8638
 8390SOL     OW36802   2.377   2.266   5.687 -0.0180  0.1517  1.1056
 8390SOL    HW136803   2.410   2.283   5.776  0.7298 -1.1419  1.0714
 8390SOL    HW236804   2.393   2.172   5.682 -2.9034 -0.1873 -1.4728
 8391SOL     OW36805   3.112   1.396   8.596 -0.0263 -0.5834 -0.8659
 8391SOL    HW136806   3.203   1.420   8.580 -0.1282  1.1064  1.0130
 8391SOL    HW236807   3.104   1.401   8.692  0.3518  1.1288 -0.9307
 8392SOL     OW36808   3.872   3.053  15.880 -0.4124  0.3787 -0.2275
 8392SOL    HW136809   3.907   3.043  15.968  2.3958 -1.9840 -1.5823
 8392SOL    HW236810   3.779   3.037  15.893 -0.3005  0.7292  0.9568
 8393SOL     OW36811   2.082   4.680   4.539 -0.3165  0.2172 -0.1017
 8393SOL    HW136812   2.132   4.730   4.603 -0.7062  1.0823 -0.4803
 8393SOL    HW236813   2.141   4.608   4.516  1.0932  0.9994  1.1270
 8394SOL     OW36814   2.809   0.418   8.623  0.1962  0.3826  0.0187
 8394SOL    HW136815   2.744   0.382   8.563  0.2064 -1.7224  1.2580
 8394SOL    HW236816   2.749   0.478   8.668 -1.2945 -1.1305  0.0369
 8395SOL     OW36817   3.386   0.965   0.921  0.0652 -0.1187 -0.3730
 8395SOL    HW136818   3.371   0.996   1.011  3.6344 -2.3468  0.9979
 8395SOL    HW236819   3.466   1.010   0.894  0.1228  0.0199  0.0198
 8396SOL     OW36820   1.237   3.090   6.890  0.6219  0.0466 -0.1974
 8396SOL    HW136821   1.259   3.183   6.889  4.4237 -0.8373  1.9750
 8396SOL    HW236822   1.294   3.052   6.956 -2.4107 -2.3903  0.9918
 8397SOL     OW36823   2.729   0.998   5.098  0.4955 -0.7190 -0.2069
 8397SOL    HW136824   2.814   0.986   5.055  2.2817 -0.8056  3.3070
 8397SOL    HW236825   2.731   0.945   5.177  0.7256  1.4520  1.2521
 8398SOL     OW36826   3.719   4.193   6.422  0.2186  0.2825 -0.4542
 8398SOL    HW136827   3.678   4.263   6.371 -1.7905  0.0021  0.7897
 8398SOL    HW236828   3.760   4.245   6.491 -0.3095  0.1631 -0.0465
 8399SOL     OW36829   4.337   1.340   4.570 -0.8112  0.3054 -0.7612
 8399SOL    HW136830   4.257   1.292   4.590 -0.0387 -1.0282 -0.8998
 8399SOL    HW236831   4.330   1.335   4.475 -2.2420  1.4238 -0.7134
 8400SOL     OW36832   1.627   0.107   2.495 -0.7393 -0.0126  0.1374
 8400SOL    HW136833   1.687   0.054   2.548 -0.6371 -0.5061 -0.4830
 8400SOL    HW236834   1.669   0.193   2.504 -0.7863 -0.0164  0.3918
 8401SOL     OW36835   4.550   4.005   9.087  0.3478 -0.3627 -0.0847
 8401SOL    HW136836   4.627   4.052   9.056 -0.2998  0.4057 -0.5222
 8401SOL    HW236837   4.532   4.059   9.164  0.5587  1.9374 -1.6226
 8402SOL     OW36838   4.206   2.944   6.583  0.4313  0.2136  0.0625
 8402SOL    HW136839   4.203   2.926   6.677  0.5858  1.9231  0.4056
 8402SOL    HW236840   4.291   2.989   6.573  0.0654  0.6602 -1.0734
 8403SOL     OW36841   3.938   2.235   4.620  0.2509 -0.0209  0.0408
 8403SOL    HW136842   3.879   2.171   4.581 -1.0305  1.0878  0.1336
 8403SOL    HW236843   3.872   2.272   4.679 -0.2378 -0.6993 -0.0826
 8404SOL     OW36844   4.373   3.274   2.431 -0.4155 -0.2776  0.3530
 8404SOL    HW136845   4.356   3.243   2.342  1.3549  0.1386 -0.1293
 8404SOL    HW236846   4.437   3.345   2.426 -0.0298 -0.6410  0.2318
 8405SOL     OW36847   2.543   2.575   4.340 -0.0556  0.9438 -0.2988
 8405SOL    HW136848   2.533   2.650   4.398 -1.0125  1.1464 -0.7324
 8405SOL    HW236849   2.462   2.529   4.362 -0.4214  0.8084 -1.9078
 8406SOL     OW36850   2.681   3.149   0.391  0.2886  0.0520 -0.3836
 8406SOL    HW136851   2.684   3.054   0.403  0.4222  0.6013  3.9010
 8406SOL    HW236852   2.604   3.182   0.438  1.9124 -0.9675  2.9783
 8407SOL     OW36853   4.501   4.427   5.734  0.6355  0.6208  0.1766
 8407SOL    HW136854   4.562   4.364   5.771 -0.8331 -0.5940  0.5154
 8407SOL    HW236855   4.470   4.476   5.810 -0.3560  0.9370 -0.4244
 8408SOL     OW36856   0.952   3.065   4.738 -0.0813 -0.4097  0.0004
 8408SOL    HW136857   1.041   3.096   4.748 -0.3862  1.1970 -2.3466
 8408SOL    HW236858   0.904   3.136   4.781  0.2822 -0.6533  0.8198
 8409SOL     OW36859   0.259   0.370  10.152  0.1260 -0.1928  0.1060
 8409SOL    HW136860   0.330   0.308  10.133  1.6175  2.0736 -1.5890
 8409SOL    HW236861   0.215   0.382  10.068 -0.9512 -0.5801  0.6115
 8410SOL     OW36862   2.729   1.204  14.991 -0.3867  0.3854  0.3377
 8410SOL    HW136863   2.682   1.157  14.923 -0.1771  1.3280 -0.4556
 8410SOL    HW236864   2.669   1.203  15.066  1.1039  1.6577  1.5585
 8411SOL     OW36865   0.901   0.906   7.372 -0.0778  0.0285  0.1329
 8411SOL    HW136866   0.894   0.908   7.277 -0.9767  1.0904  0.2156
 8411SOL    HW236867   0.807   0.889   7.385 -0.4790  0.5433 -2.0720
 8412SOL     OW36868   1.393   0.792   5.007  0.0634 -0.0215  0.2824
 8412SOL    HW136869   1.418   0.700   5.010 -1.3137 -0.3689  0.9364
 8412SOL    HW236870   1.446   0.817   4.931 -0.6677  2.9440  0.7385
 8413SOL     OW36871   0.555   0.103   8.746 -0.4130 -0.0131 -0.2023
 8413SOL    HW136872   0.473   0.134   8.786 -0.1037  1.4630 -0.7176
 8413SOL    HW236873   0.612   0.176   8.769  0.5791 -0.0889 -2.5044
 8414SOL     OW36874   1.126   2.020   4.526 -0.0622 -0.3462  0.0397
 8414SOL    HW136875   1.130   2.020   4.622  1.2646 -0.3795 -0.0126
 8414SOL    HW236876   1.216   2.000   4.499 -0.4474 -0.1072 -1.4207
 8415SOL     OW36877   4.332   1.648   5.526 -0.1531 -0.4114  0.5795
 8415SOL    HW136878   4.374   1.693   5.599  0.3446  0.9194 -0.5380
 8415SOL    HW236879   4.280   1.718   5.485  0.5598 -0.1746  0.0838
 8416SOL     OW36880   0.584   2.476  12.074 -0.1940  0.8109  0.8221
 8416SOL    HW136881   0.633   2.478  11.991 -4.6224  1.8662 -1.7685
 8416SOL    HW236882   0.652   2.514  12.129  0.0810  0.6180  0.6159
 8417SOL     OW36883   0.291   4.246   8.020 -0.7594 -0.2165 -0.0441
 8417SOL    HW136884   0.219   4.209   7.970 -0.5099  0.2353 -0.7403
 8417SOL    HW236885   0.361   4.182   8.004 -1.0356 -0.4121 -0.4482
 8418SOL     OW36886   2.427   3.922   1.361 -0.2802  0.0499 -0.0400
 8418SOL    HW136887   2.405   3.835   1.327  2.6132 -0.5787 -0.2952
 8418SOL    HW236888   2.349   3.939   1.412 -1.4197 -4.8956 -0.1335
 8419SOL     OW36889   2.045   4.486  17.178 -0.5125 -0.1264 -0.2936
 8419SOL    HW136890   2.074   4.557  17.120  0.8552 -0.8959 -0.5640
 8419SOL    HW236891   2.067   4.528  17.261  0.2110 -2.0875  0.5178
 8420SOL     OW36892   0.856   3.492   9.526  0.8024  0.6259 -0.0079
 8420SOL    HW136893   0.877   3.409   9.483 -1.6139 -0.1734  0.3778
 8420SOL    HW236894   0.762   3.481   9.536  0.7829 -0.3811 -1.3990
 8421SOL     OW36895   0.486   2.315   6.098  0.2223  0.1901  0.1613
 8421SOL    HW136896   0.543   2.391   6.099  1.0564 -0.3743 -2.0730
 8421SOL    HW236897   0.505   2.262   6.175  2.8782  0.6658 -0.1949
 8422SOL     OW36898   4.421   3.009  14.475  0.2667 -0.3994 -0.1667
 8422SOL    HW136899   4.436   2.987  14.567 -0.8351  0.1221  0.1329
 8422SOL    HW236900   4.511   3.009  14.442 -0.3139  0.0941 -1.7163
 8423SOL     OW36901   4.667   2.820   2.705  0.5931 -0.3253 -0.7326
 8423SOL    HW136902   4.597   2.874   2.742 -0.8526 -2.5656 -0.2377
 8423SOL    HW236903   4.628   2.793   2.622 -3.1000 -2.4902  1.7853
 8424SOL     OW36904   0.584   3.558   3.506  0.3096  0.1344  0.2664
 8424SOL    HW136905   0.495   3.590   3.493  0.4460 -0.3031 -1.6818
 8424SOL    HW236906   0.584   3.485   3.445 -0.4800 -0.3059  0.8044
 8425SOL     OW36907   3.589   2.889  14.666  0.3221  0.3955 -0.2990
 8425SOL    HW136908   3.666   2.900  14.721 -0.2049 -1.9092  0.9011
 8425SOL    HW236909   3.518   2.923  14.720 -1.2992 -1.0754 -1.4922
 8426SOL     OW36910   2.378   1.647   7.846  0.5079 -0.2389  0.7988
 8426SOL    HW136911   2.302   1.631   7.789 -0.5806  0.8351  1.9696
 8426SOL    HW236912   2.384   1.739   7.870  1.0132  0.1187 -0.7044
 8427SOL     OW36913   3.833   4.404  11.434  0.3880  0.5895 -0.1795
 8427SOL    HW136914   3.794   4.433  11.517 -1.2903  0.3710 -0.8815
 8427SOL    HW236915   3.793   4.317  11.431 -2.1508  1.8078 -1.6670
 8428SOL     OW36916   0.323   0.648   9.502 -0.1667 -0.1693  0.0516
 8428SOL    HW136917   0.347   0.737   9.526  0.0933 -0.4339  0.7483
 8428SOL    HW236918   0.337   0.604   9.586  2.4762 -1.3635 -1.0220
 8429SOL     OW36919   3.443   4.496  17.721 -0.0368 -0.2956  0.5450
 8429SOL    HW136920   3.466   4.589  17.716 -1.3919  0.0660  0.8697
 8429SOL    HW236921   3.462   4.473  17.630 -1.6622 -0.8978  0.3545
 8430SOL     OW36922   2.473   0.875   1.420  0.8087 -0.4908  0.0215
 8430SOL    HW136923   2.557   0.861   1.376 -0.6226  1.2628 -3.3144
 8430SOL    HW236924   2.421   0.798   1.396  1.0377 -0.3117 -1.0739
 8431SOL     OW36925   4.640   1.533   5.452  0.1012  0.2504 -0.0519
 8431SOL    HW136926   4.565   1.490   5.494 -0.9864  0.4848 -1.7714
 8431SOL    HW236927   4.706   1.467   5.470 -1.4493 -0.1362  4.4403
 8432SOL     OW36928   3.183   3.130   5.533 -0.0148  0.6632 -0.4239
 8432SOL    HW136929   3.114   3.093   5.479  0.3743 -0.4433 -0.1563
 8432SOL    HW236930   3.183   3.072   5.609 -0.6925  1.0392 -0.1422
 8433SOL     OW36931   2.611   3.729   8.399 -0.6562  0.5304  0.1439
 8433SOL    HW136932   2.596   3.794   8.468  2.2068 -0.8783  2.0630
 8433SOL    HW236933   2.641   3.656   8.453  1.7943 -0.2038 -2.2408
 8434SOL     OW36934   3.343   2.802   3.322  0.2267  0.6091  0.0133
 8434SOL    HW136935   3.310   2.829   3.408  0.9838 -0.6651  0.7083
 8434SOL    HW236936   3.284   2.727   3.308  0.6637  0.8958 -3.3330
 8435SOL     OW36937   4.259   3.871  13.205  0.1238 -0.0772  0.1038
 8435SOL    HW136938   4.283   3.863  13.113 -1.5772 -2.3148 -0.1557
 8435SOL    HW236939   4.174   3.828  13.198  1.2341 -2.2018 -0.1694
 8436SOL     OW36940   0.375   1.714   8.876 -0.0877  0.5891 -0.0582
 8436SOL    HW136941   0.338   1.632   8.908  1.1429  0.4695  1.0333
 8436SOL    HW236942   0.305   1.752   8.823  0.3732 -1.4959 -2.1530
 8437SOL     OW36943   3.926   0.009   6.234  0.2021  0.6252 -0.3039
 8437SOL    HW136944   3.901   4.666   6.276 -0.2910  1.4201  0.9462
 8437SOL    HW236945   3.889   4.732   6.147 -0.8100  1.5729 -0.0457
 8438SOL     OW36946   0.600   3.382   6.376  0.0792 -0.0541 -0.1326
 8438SOL    HW136947   0.583   3.476   6.388 -0.2571  0.1316 -2.0782
 8438SOL    HW236948   0.694   3.380   6.360  0.0570  0.9000 -0.3952
 8439SOL     OW36949   0.810   1.727   6.467  0.5289 -0.6201  0.3474
 8439SOL    HW136950   0.721   1.700   6.487  0.3585  0.7208  1.3961
 8439SOL    HW236951   0.807   1.823   6.468  2.0296 -0.5583 -0.8713
 8440SOL     OW36952   3.481   0.743  17.658  0.3529  0.1344 -0.0358
 8440SOL    HW136953   3.456   0.651  17.661 -0.1812  0.3099  1.2582
 8440SOL    HW236954   3.555   0.737  17.719  0.2140 -0.0025  0.1215
 8441SOL     OW36955   1.987   0.225   3.972 -0.7570  0.6316  0.5866
 8441SOL    HW136956   1.894   0.242   3.989 -1.1618 -0.6480 -0.3305
 8441SOL    HW236957   2.003   0.165   4.044  0.6524  1.0784  0.6357
 8442SOL     OW36958   0.240   4.349   5.700  0.4630 -0.6424  0.3195
 8442SOL    HW136959   0.235   4.339   5.795  1.4294 -0.2437  0.4095
 8442SOL    HW236960   0.221   4.259   5.675  2.5514 -0.6284 -1.3136
 8443SOL     OW36961   1.320   2.832  15.973  0.0569 -0.7051 -0.0727
 8443SOL    HW136962   1.358   2.744  15.966  1.5697  0.1686 -2.6219
 8443SOL    HW236963   1.234   2.815  16.013 -0.2290  1.0717  0.0774
 8444SOL     OW36964   2.714   1.033   5.566  0.8932  0.3433  0.8951
 8444SOL    HW136965   2.738   1.117   5.528  1.7113 -0.1796  0.2523
 8444SOL    HW236966   2.800   0.990   5.561 -0.3371 -2.0631 -0.0063
 8445SOL     OW36967   4.585   4.673   7.279  0.0339  0.2770 -0.0992
 8445SOL    HW136968   4.647   4.717   7.337 -0.1340 -0.5246  0.6849
 8445SOL    HW236969   4.575   4.734   7.206 -3.5002 -0.2364 -0.0389
 8446SOL     OW36970   1.223   4.275   8.122 -0.8012  0.1123 -0.0826
 8446SOL    HW136971   1.302   4.298   8.171  0.3185  0.8327 -2.2469
 8446SOL    HW236972   1.222   4.345   8.057 -0.0769  0.3629  0.1807
 8447SOL     OW36973   1.813   3.044   7.214  0.6776  0.0426  0.0709
 8447SOL    HW136974   1.841   2.962   7.256  0.6764  0.9205  1.7386
 8447SOL    HW236975   1.737   3.007   7.169  2.0444 -0.6283 -1.7504
 8448SOL     OW36976   2.350   2.365   7.941  0.2170  0.5699 -0.3160
 8448SOL    HW136977   2.425   2.424   7.928  0.0253  0.6291 -1.1266
 8448SOL    HW236978   2.299   2.433   7.987  2.9104  2.5343 -0.1888
 8449SOL     OW36979   4.713   0.064   4.235  0.3678 -0.4368  0.3521
 8449SOL    HW136980   4.623   0.097   4.239  0.1585 -1.1028  1.0695
 8449SOL    HW236981   0.027   0.137   4.266 -3.6781  1.8119  1.9450
 8450SOL     OW36982   2.066   2.338  10.455  0.1762  0.6927 -0.2844
 8450SOL    HW136983   2.068   2.368  10.546  0.3423 -1.8773  0.5665
 8450SOL    HW236984   2.069   2.243  10.468  0.4481  0.5710 -1.2647
 8451SOL     OW36985   4.183   2.425   0.578 -0.2630 -0.1192 -0.1379
 8451SOL    HW136986   4.101   2.452   0.537  0.3345  0.9575 -0.6239
 8451SOL    HW236987   4.195   2.493   0.644  0.6806  0.4458 -0.8876
 8452SOL     OW36988   2.591   3.196   1.191  0.5048  0.1426  0.2038
 8452SOL    HW136989   2.569   3.288   1.181  0.4440 -0.0243 -1.2125
 8452SOL    HW236990   2.679   3.195   1.228  1.2920 -0.0412 -1.6785
 8453SOL     OW36991   4.544   4.415   5.365  0.0400  0.0347  0.0340
 8453SOL    HW136992   4.610   4.468   5.411  0.5458 -0.6967  0.1587
 8453SOL    HW236993   4.594   4.370   5.297  2.4917  3.4381 -0.4363
 8454SOL     OW36994   3.770   4.510  16.944 -0.5748 -0.2690 -0.0845
 8454SOL    HW136995   3.855   4.534  16.907  0.1891 -1.6585  0.7814
 8454SOL    HW236996   3.792   4.442  17.007 -3.7887  1.4730  2.9047
 8455SOL     OW36997   4.371   3.644   6.090 -0.1070 -0.5682 -0.2443
 8455SOL    HW136998   4.360   3.722   6.035  2.8298  0.3973  0.5318
 8455SOL    HW236999   4.319   3.673   6.165  0.8622 -0.3548  0.3540
 8456SOL     OW37000   2.715   1.488   6.491  0.4188 -1.1171  0.5908
 8456SOL    HW137001   2.750   1.567   6.450 -1.9266  0.1901  1.1316
 8456SOL    HW237002   2.723   1.435   6.411 -1.0429  1.1110 -1.0074
 8457SOL     OW37003   2.447   1.619  11.928  0.7203  0.1013 -0.8249
 8457SOL    HW137004   2.500   1.621  12.008 -0.7077  0.4131  0.1113
 8457SOL    HW237005   2.414   1.708  11.925 -0.3022 -0.2663 -0.6975
 8458SOL     OW37006   2.886   2.167   2.503 -0.0930  0.0107 -0.3630
 8458SOL    HW137007   2.815   2.226   2.531  0.7675  1.4200 -1.1479
 8458SOL    HW237008   2.947   2.232   2.469  0.9752 -0.7935  0.0383
 8459SOL     OW37009   3.696   4.522   3.858  0.3820  0.1808 -0.6602
 8459SOL    HW137010   3.622   4.530   3.799  0.4039  1.3481 -0.5403
 8459SOL    HW237011   3.742   4.602   3.832 -0.2422  0.9797  0.6931
 8460SOL     OW37012   1.202   2.864   4.213  0.2909  1.1914  0.0273
 8460SOL    HW137013   1.256   2.942   4.198  0.6423  0.6655 -1.4660
 8460SOL    HW237014   1.270   2.801   4.239 -2.0587 -1.2273  0.2926
 8461SOL     OW37015   4.188   1.891   7.896  0.1972  0.4552 -0.1813
 8461SOL    HW137016   4.211   1.798   7.900  0.1669  0.5190  1.1673
 8461SOL    HW237017   4.171   1.904   7.989 -0.8403 -0.6105 -0.2418
 8462SOL     OW37018   1.078   3.706   5.015 -0.5935 -0.2654  0.6777
 8462SOL    HW137019   1.079   3.612   5.032  1.0794 -0.4027 -0.2319
 8462SOL    HW237020   1.029   3.745   5.088 -2.6878 -2.3438  0.3782
 8463SOL     OW37021   0.633   0.353   7.187  0.4548  0.1286 -0.0041
 8463SOL    HW137022   0.598   0.366   7.098 -0.5611 -0.7245  0.2729
 8463SOL    HW237023   0.709   0.411   7.179  0.3671  0.0340 -1.5847
 8464SOL     OW37024   1.931   2.374   6.592 -0.7034  0.3607  0.3901
 8464SOL    HW137025   1.840   2.347   6.585 -0.3031 -0.4868 -1.4912
 8464SOL    HW237026   1.908   2.466   6.604 -0.6743  0.1896  1.8015
 8465SOL     OW37027   3.501   0.152   6.642  0.3367  0.1951  0.2294
 8465SOL    HW137028   3.460   0.111   6.718 -0.1779 -2.2927 -1.3723
 8465SOL    HW237029   3.585   0.175   6.680  0.4166 -0.4412  0.4341
 8466SOL     OW37030   1.432   4.352  12.107  0.1773 -0.6913  0.1614
 8466SOL    HW137031   1.495   4.298  12.059  1.8992  1.0052  0.5009
 8466SOL    HW237032   1.465   4.349  12.197 -0.6608  2.3337  0.5833
 8467SOL     OW37033   0.928   4.579  10.208  0.2150  0.0265  0.0083
 8467SOL    HW137034   0.989   4.615  10.143 -0.7850 -2.2759 -2.2123
 8467SOL    HW237035   0.970   4.495  10.225 -0.4461 -0.1217  0.8704
 8468SOL     OW37036   1.103   1.057   4.761 -0.4498 -0.1877 -0.1111
 8468SOL    HW137037   1.167   0.995   4.725 -0.4512 -0.2157 -0.0644
 8468SOL    HW237038   1.026   1.047   4.705 -0.0166 -0.2416 -0.6996
 8469SOL     OW37039   0.510   0.884   6.812 -0.4299 -0.4268 -0.3492
 8469SOL    HW137040   0.491   0.865   6.904 -0.9846 -0.3832 -0.4563
 8469SOL    HW237041   0.524   0.977   6.825 -1.3659 -0.1062 -1.6273
 8470SOL     OW37042   1.302   3.757   2.231 -0.3050  0.0306  0.2556
 8470SOL    HW137043   1.371   3.810   2.272  0.2411 -1.6547  1.5298
 8470SOL    HW237044   1.351   3.703   2.170  0.4078  1.1001 -0.0969
 8471SOL     OW37045   0.669   4.136  10.888  0.6910  0.4687 -0.0925
 8471SOL    HW137046   0.659   4.057  10.941  2.2249 -1.2296 -2.3483
 8471SOL    HW237047   0.726   4.187  10.945 -0.7951  1.6254  0.3539
 8472SOL     OW37048   0.460   2.129  10.485  0.1682 -0.3970 -0.0556
 8472SOL    HW137049   0.381   2.140  10.433 -0.1867 -1.5052  0.2508
 8472SOL    HW237050   0.533   2.163  10.433 -0.3042 -1.3830 -1.3697
 8473SOL     OW37051   2.683   0.548  16.398  0.5802  0.2222 -0.0894
 8473SOL    HW137052   2.588   0.549  16.401  0.6208  0.7043  0.9466
 8473SOL    HW237053   2.697   0.638  16.368 -1.5799  1.2464  2.0066
 8474SOL     OW37054   3.928   2.673   5.542  0.0488 -0.8987 -0.4740
 8474SOL    HW137055   3.915   2.686   5.636 -2.2961  0.2300 -0.9768
 8474SOL    HW237056   3.904   2.755   5.498  1.0994 -0.8818 -1.0415
 8475SOL     OW37057   3.749   4.594  16.191 -0.4506  0.4573 -0.4953
 8475SOL    HW137058   3.693   4.529  16.234  0.0817 -2.1834 -3.8119
 8475SOL    HW237059   3.731   4.581  16.098 -1.4148  0.8207 -0.3648
 8476SOL     OW37060   3.590   3.555   4.468  0.2577 -0.4498 -0.3104
 8476SOL    HW137061   3.508   3.535   4.422 -2.0188  0.5607  3.3623
 8476SOL    HW237062   3.606   3.629   4.409  3.1523 -0.7847  0.0515
 8477SOL     OW37063   3.221   0.157   7.022 -0.2879  0.1968  0.6824
 8477SOL    HW137064   3.278   0.230   7.044 -1.1006  0.3896  2.0852
 8477SOL    HW237065   3.196   0.130   7.110  1.5654  1.8299  1.7161
 8478SOL     OW37066   2.837   3.381   4.182  0.0976 -0.1699 -0.7870
 8478SOL    HW137067   2.755   3.387   4.232  1.3754 -0.6494  1.3460
 8478SOL    HW237068   2.865   3.473   4.178  0.9577 -0.4812 -1.8267
 8479SOL     OW37069   1.182   1.748   6.555  0.2710  0.5612 -0.3531
 8479SOL    HW137070   1.151   1.767   6.466  0.8603 -1.7118 -1.0625
 8479SOL    HW237071   1.276   1.766   6.549 -0.0411  2.3562  0.1352
 8480SOL     OW37072   3.619   3.856  10.778  0.1758  0.0588 -0.2905
 8480SOL    HW137073   3.699   3.892  10.816 -1.1618  0.5750  2.1034
 8480SOL    HW237074   3.563   3.902  10.841 -1.7072 -1.5216 -0.8097
 8481SOL     OW37075   4.678   4.603   9.908 -0.3325 -0.2588 -0.4353
 8481SOL    HW137076   4.653   4.511   9.920 -0.2076 -0.2552 -0.1617
 8481SOL    HW237077   4.604   4.634   9.855 -0.7927  0.5444  0.6915
 8482SOL     OW37078   4.703   2.763   9.076 -0.5200 -0.3026  0.2037
 8482SOL    HW137079   4.656   2.750   9.158 -2.5350  2.8154 -0.4697
 8482SOL    HW237080   0.034   2.698   9.070  3.3329  3.9216 -0.9212
 8483SOL     OW37081   1.079   4.519   6.946  0.5746 -0.0926  0.6481
 8483SOL    HW137082   1.160   4.556   6.982  1.1068 -0.1667 -0.4760
 8483SOL    HW237083   1.033   4.600   6.924  1.2990  0.7787  2.2981
 8484SOL     OW37084   3.252   4.056   9.090 -0.6304 -0.3903  0.1488
 8484SOL    HW137085   3.338   4.072   9.051  0.1720 -1.1503  1.6151
 8484SOL    HW237086   3.271   3.976   9.138  0.3583 -0.9667 -1.2067
 8485SOL     OW37087   1.285   3.872   7.894 -0.2467 -0.0952  0.5882
 8485SOL    HW137088   1.222   3.931   7.934 -0.0551  1.1580 -0.9980
 8485SOL    HW237089   1.314   3.913   7.813 -2.7211 -1.0693 -0.7703
 8486SOL     OW37090   4.381   3.323  14.518 -0.1713  0.1844 -0.1763
 8486SOL    HW137091   4.399   3.335  14.611 -1.1255  2.0392 -0.2196
 8486SOL    HW237092   4.472   3.306  14.494 -0.0400  2.7593 -1.5115
 8487SOL     OW37093   0.663   1.572  11.242 -0.4212 -0.4645 -0.0295
 8487SOL    HW137094   0.592   1.509  11.231 -1.0685  0.1847  0.4292
 8487SOL    HW237095   0.705   1.549  11.325 -1.2731 -1.0951  0.2288
 8488SOL     OW37096   0.172   0.585   3.748 -0.3385  0.2190  0.0191
 8488SOL    HW137097   0.150   0.521   3.816 -1.6841 -0.2010 -0.8298
 8488SOL    HW237098   0.266   0.600   3.758 -0.3927  0.1951  0.5470
 8489SOL     OW37099   0.705   4.260   4.551  0.1656 -0.0800  0.0131
 8489SOL    HW137100   0.612   4.269   4.531  0.0359 -0.1794  0.5748
 8489SOL    HW237101   0.704   4.237   4.644  0.9882 -1.1025 -0.2356
 8490SOL     OW37102   2.698   1.057  16.259  0.1433  0.2817  0.4587
 8490SOL    HW137103   2.745   0.974  16.271 -1.1231 -0.0697  2.8509
 8490SOL    HW237104   2.620   1.015  16.295  0.6871 -2.7376 -1.8649
 8491SOL     OW37105   2.293   0.911   0.962 -0.8844 -0.3068 -0.0049
 8491SOL    HW137106   2.308   0.858   1.040 -0.8668 -0.7899 -0.3340
 8491SOL    HW237107   2.361   0.876   0.905 -0.8631  2.2240 -1.5576
 8492SOL     OW37108   3.408   1.628  16.253 -0.2201 -0.4806 -0.4177
 8492SOL    HW137109   3.430   1.643  16.161 -1.3699 -1.7749 -0.9086
 8492SOL    HW237110   3.371   1.540  16.246 -1.1424 -0.0463 -1.0104
 8493SOL     OW37111   2.127   4.104   4.541 -0.2785  0.3822  0.3603
 8493SOL    HW137112   2.094   4.017   4.560  0.3768 -0.1118 -0.7334
 8493SOL    HW237113   2.214   4.074   4.512  0.3343  2.3957  0.1015
 8494SOL     OW37114   1.308   3.889  12.351  0.4529  0.3724 -0.1264
 8494SOL    HW137115   1.252   3.914  12.278  0.8559 -0.1025 -0.5986
 8494SOL    HW237116   1.355   3.814  12.314  3.2028  1.6612  0.7676
 8495SOL     OW37117   3.014   2.314   3.266  0.3021 -0.1586  0.0557
 8495SOL    HW137118   3.045   2.273   3.185  2.7768 -0.0537  0.9382
 8495SOL    HW237119   2.923   2.287   3.263  0.8337 -1.7574 -1.6528
 8496SOL     OW37120   4.188   3.994   8.843 -0.0244  0.5329 -0.0875
 8496SOL    HW137121   4.175   4.000   8.938  1.7144 -0.4676  0.2128
 8496SOL    HW237122   4.248   4.066   8.829  0.7656 -0.0745  0.1629
 8497SOL     OW37123   2.646   2.374  14.989  0.3347  0.2303 -0.3974
 8497SOL    HW137124   2.659   2.469  14.992  1.7579  0.0392 -0.5938
 8497SOL    HW237125   2.640   2.356  14.895  0.0205  0.7993 -0.4851
 8498SOL     OW37126   2.903   0.610   3.465 -0.0146  0.0343 -0.1741
 8498SOL    HW137127   2.894   0.515   3.472  0.5129 -0.0081 -0.0836
 8498SOL    HW237128   2.857   0.638   3.386 -1.3705 -1.8615 -0.0467
 8499SOL     OW37129   1.693   2.694   2.931 -0.1022 -0.4877 -0.0964
 8499SOL    HW137130   1.676   2.709   2.839  1.1386  2.4687  0.1676
 8499SOL    HW237131   1.646   2.762   2.980  0.6498 -0.2870  0.3550
 8500SOL     OW37132   0.328   0.845   5.171 -0.4445  0.1223 -0.4038
 8500SOL    HW137133   0.364   0.761   5.140 -1.0167 -0.3591  0.2304
 8500SOL    HW237134   0.345   0.899   5.094  2.2880 -0.3209 -0.1140
 8501SOL     OW37135   4.135   3.409  12.296 -0.3112 -0.2212  0.2780
 8501SOL    HW137136   4.098   3.401  12.384 -0.4711 -0.7774  0.1570
 8501SOL    HW237137   4.156   3.503  12.289 -0.9760 -0.1329 -0.4976
 8502SOL     OW37138   3.544   1.481   5.674 -0.2623 -0.0754  0.0637
 8502SOL    HW137139   3.474   1.416   5.676 -0.0142 -0.3571 -0.4019
 8502SOL    HW237140   3.495   1.563   5.677 -0.2340 -0.1300  2.4083
 8503SOL     OW37141   1.999   1.812   4.341  0.0295 -0.0528  0.4464
 8503SOL    HW137142   1.943   1.829   4.417  2.3983 -2.8430  2.7823
 8503SOL    HW237143   2.085   1.819   4.382  0.0538 -4.0937  1.0569
 8504SOL     OW37144   3.138   3.847  12.373 -0.6005 -0.1660 -0.1843
 8504SOL    HW137145   3.205   3.857  12.441 -0.5143  0.5963 -0.3810
 8504SOL    HW237146   3.190   3.894  12.308 -0.4545 -1.7375 -1.1890
 8505SOL     OW37147   1.325   2.530   3.856 -0.1147 -0.7050  0.5458
 8505SOL    HW137148   1.385   2.543   3.930  1.0906 -1.1098 -0.3497
 8505SOL    HW237149   1.263   2.474   3.904  0.4479 -1.9078 -0.1219
 8506SOL     OW37150   2.235   1.068   4.717 -0.7933 -0.2031  0.4951
 8506SOL    HW137151   2.238   1.158   4.684 -0.1146 -0.0862  0.8702
 8506SOL    HW237152   2.195   1.018   4.646 -0.9668 -0.2873  0.6504
 8507SOL     OW37153   0.451   2.178   0.153  0.3067 -0.2181  0.2222
 8507SOL    HW137154   0.399   2.192   0.232 -0.7551 -1.2289 -0.2913
 8507SOL    HW237155   0.394   2.205   0.082 -0.9586 -1.1344  0.8868
 8508SOL     OW37156   0.298   1.429   7.694 -0.0482  0.0367 -0.1167
 8508SOL    HW137157   0.349   1.471   7.625 -1.3560  1.9381  0.0738
 8508SOL    HW237158   0.358   1.358   7.714  0.3678  0.3451 -0.2737
 8509SOL     OW37159   0.942   0.927   2.048 -0.3229 -0.2567  0.4196
 8509SOL    HW137160   0.962   1.018   2.025  0.7933 -0.8971 -1.1452
 8509SOL    HW237161   1.019   0.875   2.024 -0.3751 -0.0598 -0.1711
 8510SOL     OW37162   4.136   3.309   8.849  0.3508  0.1744 -0.4041
 8510SOL    HW137163   4.122   3.382   8.788  0.1942 -2.2354 -3.2239
 8510SOL    HW237164   4.052   3.264   8.846  1.1847 -1.3749 -0.5913
 8511SOL     OW37165   0.430   0.267   1.245  0.0875 -0.2484 -0.4580
 8511SOL    HW137166   0.358   0.329   1.258 -0.9135 -0.9854 -2.4910
 8511SOL    HW237167   0.397   0.183   1.275 -0.4601 -0.2993 -1.1820
 8512SOL     OW37168   3.829   2.690   7.377  0.7068 -0.0864 -0.4810
 8512SOL    HW137169   3.781   2.727   7.451  0.2937 -0.8655 -0.3640
 8512SOL    HW237170   3.804   2.732   7.295 -2.2866 -0.0025  0.4868
 8513SOL     OW37171   3.605   1.231   5.018 -0.2376 -0.2802 -0.4376
 8513SOL    HW137172   3.645   1.267   5.097 -1.3223  0.1930 -0.1026
 8513SOL    HW237173   3.654   1.281   4.953 -0.1088  0.3460  0.1410
 8514SOL     OW37174   3.555   1.305   8.066 -0.1433  0.4575  0.2144
 8514SOL    HW137175   3.494   1.291   8.139 -0.0859  1.4404  0.4472
 8514SOL    HW237176   3.591   1.388   8.096 -0.1945 -0.1899  2.0874
 8515SOL     OW37177   2.645   0.829  14.983  0.7197  0.1125  0.1331
 8515SOL    HW137178   2.603   0.757  14.937  0.2613  0.1719  0.4580
 8515SOL    HW237179   2.732   0.795  15.004  0.2185  0.9163  3.4979
 8516SOL     OW37180   2.425   2.297   4.155  0.0198 -1.3134  0.6601
 8516SOL    HW137181   2.434   2.278   4.248  0.6514 -0.0580  0.8618
 8516SOL    HW237182   2.356   2.236   4.132 -0.1602 -0.0126 -2.3080
 8517SOL     OW37183   2.896   1.293  16.783  0.0707 -0.4074 -0.1655
 8517SOL    HW137184   2.977   1.321  16.741  1.2253 -1.0097  1.6468
 8517SOL    HW237185   2.915   1.204  16.810 -0.0391 -0.3061  0.2534
 8518SOL     OW37186   3.794   0.481  14.536  0.1783  0.5548  0.1927
 8518SOL    HW137187   3.849   0.515  14.608  0.1287  2.4196 -0.6450
 8518SOL    HW237188   3.853   0.494  14.462  0.7171  0.7070  0.6488
 8519SOL     OW37189   1.065   2.450   9.069  0.5970  0.0083 -0.3378
 8519SOL    HW137190   1.054   2.356   9.060 -2.1395  0.4826 -1.9766
 8519SOL    HW237191   1.141   2.458   9.013  2.0709  0.6900  1.7554
 8520SOL     OW37192   1.140   4.572   5.892  0.4360 -0.5210 -0.2034
 8520SOL    HW137193   1.184   4.503   5.943 -1.1391 -1.7701 -0.5656
 8520SOL    HW237194   1.055   4.533   5.877  0.4419 -1.4230  2.0938
 8521SOL     OW37195   3.926   0.771  15.373 -0.2004  0.2058 -0.5536
 8521SOL    HW137196   3.952   0.691  15.328 -1.0989 -1.0666  1.2173
 8521SOL    HW237197   3.953   0.739  15.459  2.0623  1.9890 -0.5793
 8522SOL     OW37198   0.898   0.326   5.718 -0.3098 -0.4608 -0.4313
 8522SOL    HW137199   0.930   0.281   5.797  2.7287  0.2953 -1.2132
 8522SOL    HW237200   0.851   0.401   5.754  0.1631  0.1417 -1.0763
 8523SOL     OW37201   1.439   0.774   8.823 -0.2472  0.2179 -0.1331
 8523SOL    HW137202   1.526   0.780   8.784 -0.1949  0.6821  0.0552
 8523SOL    HW237203   1.455   0.729   8.906  0.7243 -0.7076 -0.8171
 8524SOL     OW37204   4.210   4.439   9.755 -0.2096  0.1794  0.0837
 8524SOL    HW137205   4.189   4.387   9.832 -1.4384  0.8687  0.2108
 8524SOL    HW237206   4.204   4.378   9.682 -0.7781 -0.1635  0.4164
 8525SOL     OW37207   3.467   1.969  10.152 -0.3092 -0.1763  0.6418
 8525SOL    HW137208   3.527   1.997  10.222 -2.5213  2.5802  1.4370
 8525SOL    HW237209   3.460   1.876  10.174  0.1942 -0.2280  0.5971
 8526SOL     OW37210   2.746   1.302   6.708 -0.1366  0.0853 -0.1642
 8526SOL    HW137211   2.816   1.342   6.758 -0.5856  0.5587  0.0859
 8526SOL    HW237212   2.772   1.334   6.621 -0.2340  2.3269  0.6264
 8527SOL     OW37213   1.913   4.261  17.172 -0.6112  0.0334  0.0892
 8527SOL    HW137214   1.930   4.347  17.210 -1.5404  0.5809 -0.7324
 8527SOL    HW237215   1.932   4.288  17.082 -1.7990 -1.5520 -0.6412
 8528SOL     OW37216   1.098   2.772   8.923 -0.3000 -0.0020 -0.1601
 8528SOL    HW137217   1.143   2.688   8.919  2.3048  1.3164  1.1485
 8528SOL    HW237218   1.010   2.736   8.911  0.4474 -1.7890 -0.2428
 8529SOL     OW37219   4.410   1.569   3.239 -1.0209  0.1537  0.0212
 8529SOL    HW137220   4.360   1.531   3.166 -0.9463 -0.6448  0.3897
 8529SOL    HW237221   4.491   1.578   3.188 -0.8422  1.3350  0.5025
 8530SOL     OW37222   1.315   4.545  16.747 -0.3646  0.2402 -0.2867
 8530SOL    HW137223   1.223   4.554  16.772 -0.4279  1.7380 -1.0492
 8530SOL    HW237224   1.327   4.611  16.679  1.3773  0.0991 -0.1359
 8531SOL     OW37225   2.967   0.540  16.239 -0.5220 -0.4121  0.3795
 8531SOL    HW137226   2.936   0.537  16.148  1.0708 -2.5131 -0.0909
 8531SOL    HW237227   3.033   0.472  16.246  0.3054  0.4099  0.5685
 8532SOL     OW37228   1.965   3.773   9.634 -0.6338  0.2482  0.0782
 8532SOL    HW137229   1.991   3.788   9.725 -0.6746 -2.3886  0.5457
 8532SOL    HW237230   2.001   3.851   9.593 -1.0266 -0.2177 -1.1367
 8533SOL     OW37231   0.372   2.808   6.333  0.2013  0.6255 -0.1134
 8533SOL    HW137232   0.436   2.738   6.317  0.3956  0.7916 -0.0731
 8533SOL    HW237233   0.431   2.884   6.322  0.7128 -0.0258 -1.9146
 8534SOL     OW37234   1.269   3.636   2.695 -0.1052  0.0524  0.4346
 8534SOL    HW137235   1.229   3.662   2.612  1.3025  1.2524  0.1263
 8534SOL    HW237236   1.326   3.565   2.665 -0.4102 -0.0887  0.1935
 8535SOL     OW37237   4.381   2.053  13.088  1.1376 -0.1259  0.0617
 8535SOL    HW137238   4.374   2.110  13.166  0.5664  1.2675 -0.9994
 8535SOL    HW237239   4.410   2.120  13.027  1.9662 -0.3121  0.2511
 8536SOL     OW37240   3.600   3.785   2.744 -0.4817  0.8085  0.8007
 8536SOL    HW137241   3.537   3.754   2.810 -0.8306  2.3865  1.2057
 8536SOL    HW237242   3.660   3.826   2.806  0.4701  3.1223 -1.6756
 8537SOL     OW37243   1.932   2.462   1.104 -0.1106  0.2797 -0.1187
 8537SOL    HW137244   1.850   2.466   1.152 -3.5728 -2.2559 -5.7869
 8537SOL    HW237245   1.991   2.522   1.151 -0.4349  0.8432 -0.4216
 8538SOL     OW37246   1.528   1.240   3.478  0.0206  0.2529  0.3184
 8538SOL    HW137247   1.505   1.259   3.569  0.0690  0.7035  0.2334
 8538SOL    HW237248   1.596   1.173   3.484 -0.7117 -0.4150  1.0865
 8539SOL     OW37249   3.205   0.772   1.624 -0.1387  0.6053 -0.0150
 8539SOL    HW137250   3.126   0.759   1.676  0.3001 -0.8077  0.3024
 8539SOL    HW237251   3.216   0.682   1.595 -0.8864  0.1844  0.9919
 8540SOL     OW37252   4.278   3.056   5.234 -0.2194  0.4318  0.2331
 8540SOL    HW137253   4.225   3.132   5.210  0.7320  0.7865 -0.7547
 8540SOL    HW237254   4.348   3.064   5.169 -0.5459 -1.2002 -0.3366
 8541SOL     OW37255   1.352   2.282  14.545 -0.3096  0.0161 -0.2238
 8541SOL    HW137256   1.394   2.273  14.630 -1.0941 -1.2838  0.0297
 8541SOL    HW237257   1.273   2.323  14.579 -0.6677  0.4442 -1.5708
 8542SOL     OW37258   1.916   3.076   0.233 -0.2665  0.0197 -0.6352
 8542SOL    HW137259   2.006   3.058   0.206 -0.0760 -0.0148  0.0241
 8542SOL    HW237260   1.903   3.159   0.187  0.8509 -0.6544 -2.1499
 8543SOL     OW37261   3.179   0.148   8.589  0.0884  0.1059 -0.2921
 8543SOL    HW137262   3.105   0.199   8.554 -0.2480  2.0151  3.2434
 8543SOL    HW237263   3.254   0.203   8.567  0.8244 -0.9862 -0.5159
 8544SOL     OW37264   3.223   2.445   2.460 -0.2025 -0.7220  0.5296
 8544SOL    HW137265   3.263   2.447   2.547 -2.3596 -0.7668  1.5271
 8544SOL    HW237266   3.139   2.486   2.483  0.0003  1.1758 -2.0584
 8545SOL     OW37267   2.832   3.713   7.460 -0.4351 -0.1430 -0.8625
 8545SOL    HW137268   2.918   3.686   7.428 -0.5773  0.0554 -1.4061
 8545SOL    HW237269   2.801   3.626   7.487  0.5659 -0.1847  0.1643
 8546SOL     OW37270   2.697   0.166  17.403  0.1854 -0.0482 -0.0395
 8546SOL    HW137271   2.681   0.101  17.335  0.5331 -1.1112  0.9016
 8546SOL    HW237272   2.611   0.168  17.446  0.5904  0.3954  0.7591
 8547SOL     OW37273   3.276   0.439  15.800 -0.2643  0.1216 -0.4794
 8547SOL    HW137274   3.302   0.505  15.864 -0.5094 -1.2046  1.0027
 8547SOL    HW237275   3.359   0.432  15.752  1.1255  1.2885  1.7682
 8548SOL     OW37276   0.179   3.653   8.613 -0.2768  0.3127  0.0371
 8548SOL    HW137277   0.162   3.615   8.699 -0.7212 -0.4432 -0.3923
 8548SOL    HW237278   0.266   3.692   8.626 -0.3619  1.2608 -2.1789
 8549SOL     OW37279   1.402   3.599   1.793  0.0966 -0.0467 -0.4219
 8549SOL    HW137280   1.449   3.617   1.875 -3.0631 -0.7240  1.5400
 8549SOL    HW237281   1.468   3.597   1.724  0.3200  2.2260 -0.2924
 8550SOL     OW37282   3.891   0.141  10.980 -0.3847  0.5568  0.2398
 8550SOL    HW137283   3.983   0.165  10.989 -0.1242 -0.1124 -0.5483
 8550SOL    HW237284   3.883   0.154  10.885  1.0897 -1.1765 -0.1169
 8551SOL     OW37285   2.517   3.927  13.308  0.3436  0.0413  0.5476
 8551SOL    HW137286   2.561   3.843  13.292 -1.4166 -1.4906  3.6614
 8551SOL    HW237287   2.592   3.981  13.333  0.3839 -0.2580  1.0881
 8552SOL     OW37288   3.946   2.461   8.331 -0.7460 -0.6268 -0.8441
 8552SOL    HW137289   4.016   2.471   8.395  0.3287 -1.2708 -1.9278
 8552SOL    HW237290   3.952   2.547   8.290 -0.1802 -0.8934 -1.3108
 8553SOL     OW37291   1.996   3.975   3.766  0.1749  0.5768  0.4424
 8553SOL    HW137292   2.062   4.044   3.763  0.0939  0.5462 -2.1736
 8553SOL    HW237293   1.943   4.005   3.839  2.5865  3.3171  1.0793
 8554SOL     OW37294   3.215   4.298   2.940  0.0566  0.5141 -0.3524
 8554SOL    HW137295   3.300   4.254   2.933  0.2192  1.1558 -2.4438
 8554SOL    HW237296   3.156   4.225   2.960  0.6074  1.1557  3.5838
 8555SOL     OW37297   2.481   3.679  15.938  0.3756  0.6074  0.1700
 8555SOL    HW137298   2.524   3.763  15.956  0.2199  0.9351 -0.9500
 8555SOL    HW237299   2.562   3.629  15.945  0.7179  1.3265  1.2871
 8556SOL     OW37300   0.681   4.066   7.413 -0.1900 -0.2459  0.2518
 8556SOL    HW137301   0.631   3.996   7.455  0.2004 -0.2044  0.7900
 8556SOL    HW237302   0.645   4.071   7.324 -0.6788  0.6849  0.5094
 8557SOL     OW37303   2.944   1.661   9.225 -0.4718 -0.7423 -0.6669
 8557SOL    HW137304   2.880   1.725   9.258  0.2972 -0.7084  0.7358
 8557SOL    HW237305   2.886   1.586   9.240 -0.6250 -0.3122  0.8773
 8558SOL     OW37306   2.755   1.582   2.858  0.2921  0.0125  0.1669
 8558SOL    HW137307   2.833   1.634   2.878 -1.5005  2.6635  0.2533
 8558SOL    HW237308   2.782   1.511   2.916 -0.3054 -0.9400 -0.7111
 8559SOL     OW37309   2.517   2.644   7.088  0.0718 -0.2748 -0.2232
 8559SOL    HW137310   2.579   2.600   7.031  1.0727 -0.9329  1.3674
 8559SOL    HW237311   2.565   2.657   7.170  0.8477 -0.4418 -0.6566
 8560SOL     OW37312   3.787   3.116  13.174  0.2365 -0.0104 -0.2256
 8560SOL    HW137313   3.837   3.068  13.239 -0.3541  0.9974  0.9650
 8560SOL    HW237314   3.708   3.135  13.225 -1.1588 -1.8043 -1.6907
 8561SOL     OW37315   1.787   1.611   8.058 -0.3467  0.1493  0.4722
 8561SOL    HW137316   1.839   1.574   7.987 -2.4114  0.9889 -1.4954
 8561SOL    HW237317   1.696   1.586   8.041  0.1305 -1.2029 -0.0392
 8562SOL     OW37318   1.828   3.661  10.069  0.4220 -0.6504 -0.2120
 8562SOL    HW137319   1.835   3.753  10.041 -0.9256 -0.8215 -1.1304
 8562SOL    HW237320   1.812   3.664  10.163  0.3683  1.2045 -0.2787
 8563SOL     OW37321   2.660   3.866   1.477  0.6684  0.8157  0.6553
 8563SOL    HW137322   2.571   3.885   1.446  0.6068  2.4698  1.8293
 8563SOL    HW237323   2.651   3.797   1.543 -1.8547 -1.6457 -2.2622
 8564SOL     OW37324   0.844   0.504   7.172 -0.0368 -0.4253  0.9419
 8564SOL    HW137325   0.895   0.466   7.244  0.3351 -2.2199 -0.2775
 8564SOL    HW237326   0.917   0.533   7.117  0.0222 -2.8999 -0.2713
 8565SOL     OW37327   0.048   4.398  12.699 -0.6104  0.1277  0.0584
 8565SOL    HW137328   0.050   4.401  12.795  1.2305  2.8173 -0.0715
 8565SOL    HW237329   4.736   4.478  12.685 -1.4857  0.0229  2.6036
 8566SOL     OW37330   3.001   0.897   7.811  0.0223 -0.3048  0.2124
 8566SOL    HW137331   3.066   0.896   7.741  0.4660 -2.1065  0.6749
 8566SOL    HW237332   3.021   0.973   7.866 -1.4127  0.8041 -0.7831
 8567SOL     OW37333   0.312   4.639   9.104 -0.1852  0.1048 -0.1819
 8567SOL    HW137334   0.319   4.589   9.023 -0.1902  0.1455 -0.2080
 8567SOL    HW237335   0.369   4.714   9.086 -1.3921  1.4264  1.5422
 8568SOL     OW37336   1.165   1.399   4.660  0.2601 -0.2355 -0.2385
 8568SOL    HW137337   1.087   1.394   4.716  1.2867  2.5365  1.4521
 8568SOL    HW237338   1.123   1.353   4.588  0.3734 -1.1528  0.2842
 8569SOL     OW37339   4.551   2.669   4.303 -0.0316  0.4474 -0.2031
 8569SOL    HW137340   4.621   2.701   4.361  2.0084  1.2501 -3.1091
 8569SOL    HW237341   4.586   2.583   4.280 -1.4205 -0.0777 -0.3195
 8570SOL     OW37342   1.414   2.458   4.509  0.3408  0.0569 -0.1949
 8570SOL    HW137343   1.334   2.474   4.460  1.0712  0.2405 -1.3362
 8570SOL    HW237344   1.445   2.385   4.455 -0.9703  0.9620 -2.1902
 8571SOL     OW37345   4.124   4.425   2.682  0.5942 -0.0482 -0.0501
 8571SOL    HW137346   4.166   4.342   2.659 -1.1092 -0.3594 -2.0548
 8571SOL    HW237347   4.182   4.488   2.639  0.7174 -0.8372 -1.0315
 8572SOL     OW37348   4.580   4.328   4.733 -0.0827 -0.3934  0.3015
 8572SOL    HW137349   4.609   4.387   4.802  3.4148  1.5812 -2.8296
 8572SOL    HW237350   4.658   4.273   4.730 -2.7037 -3.9660 -3.0056
 8573SOL     OW37351   0.211   2.663   7.408  0.2697  0.2334 -0.9122
 8573SOL    HW137352   0.119   2.688   7.418  0.3660  0.0165  0.4864
 8573SOL    HW237353   0.251   2.744   7.375 -0.4261  0.6907 -0.6360
 8574SOL     OW37354   2.771   4.177   8.125 -0.0183 -0.4561 -0.2297
 8574SOL    HW137355   2.732   4.145   8.044 -0.7436 -1.5149  0.5349
 8574SOL    HW237356   2.712   4.133   8.187  0.8397 -0.7493  0.3883
 8575SOL     OW37357   1.087   4.040   5.446 -0.1145 -0.0623  0.4114
 8575SOL    HW137358   1.019   4.101   5.419  0.5886  0.9587  0.9863
 8575SOL    HW237359   1.049   4.002   5.525 -3.4191  0.4161 -0.9671
 8576SOL     OW37360   1.540   0.294   5.755 -0.0299  0.4294  0.0905
 8576SOL    HW137361   1.536   0.201   5.732  0.7742 -0.1122  2.1011
 8576SOL    HW237362   1.538   0.281   5.850 -0.8915 -0.9351 -0.1207
 8577SOL     OW37363   1.842   1.084   0.925 -0.5074 -0.1057  0.1425
 8577SOL    HW137364   1.907   1.015   0.939  2.0047  2.5468  1.5772
 8577SOL    HW237365   1.774   1.037   0.877  0.5976  0.7035 -2.2020
 8578SOL     OW37366   0.155   1.243  15.306  0.4161  0.5546 -0.6930
 8578SOL    HW137367   0.118   1.276  15.388 -0.7379  0.1927 -1.0611
 8578SOL    HW237368   0.117   1.294  15.234  0.8663  2.7109  0.6202
 8579SOL     OW37369   3.811   3.029   3.584  0.0357  0.1981 -0.5405
 8579SOL    HW137370   3.829   3.056   3.674  0.0784  1.1334 -0.8222
 8579SOL    HW237371   3.719   3.056   3.579  0.4237  1.8014  0.6137
 8580SOL     OW37372   1.057   4.507  12.349  0.1160 -0.5593  0.3296
 8580SOL    HW137373   1.131   4.565  12.332 -3.0770  3.3861 -0.2027
 8580SOL    HW237374   1.040   4.462  12.266 -1.0032 -0.2802  0.4067
 8581SOL     OW37375   4.561   2.529  15.760  0.1669  0.4649  0.3757
 8581SOL    HW137376   4.574   2.491  15.673 -1.0882  0.7982  0.0419
 8581SOL    HW237377   4.520   2.461  15.812  0.0535  0.1975 -0.0623
 8582SOL     OW37378   0.354   3.212  16.278  0.8588  0.4306 -0.3683
 8582SOL    HW137379   0.435   3.181  16.319  0.2375  0.1754  0.6894
 8582SOL    HW237380   0.316   3.270  16.344  3.5348  1.6612  0.0548
 8583SOL     OW37381   2.009   3.027   5.625  0.1987  0.3028  0.4687
 8583SOL    HW137382   1.946   3.019   5.696 -0.2211  0.0367  0.0626
 8583SOL    HW237383   1.988   2.956   5.565 -0.1721  0.4743  0.3923
 8584SOL     OW37384   4.461   1.378   2.617 -0.0885  0.1410  0.1479
 8584SOL    HW137385   4.490   1.287   2.613  1.9535  0.7370  1.4836
 8584SOL    HW237386   4.368   1.369   2.595  0.0047  1.7681 -0.8939
 8585SOL     OW37387   3.388   3.842  11.746  0.0781  0.6126  0.4066
 8585SOL    HW137388   3.310   3.897  11.735 -0.8674 -0.4273  1.8447
 8585SOL    HW237389   3.424   3.860  11.832 -2.0165 -0.2696  1.4704
 8586SOL     OW37390   4.436   2.076   5.518 -0.0701 -0.1847  0.3873
 8586SOL    HW137391   4.474   2.145   5.464 -1.5848 -0.4194 -0.9782
 8586SOL    HW237392   4.346   2.075   5.486 -0.1235  1.3019  0.5091
 8587SOL     OW37393   3.625   4.225   9.548  0.2176 -0.3867 -0.0302
 8587SOL    HW137394   3.561   4.286   9.584  0.3254 -0.6696  0.6392
 8587SOL    HW237395   3.643   4.264   9.462 -2.3855  1.2507  0.1871
 8588SOL     OW37396   3.229   4.068   1.674  0.2014  0.4073  0.4697
 8588SOL    HW137397   3.226   4.100   1.584  1.2890  0.6280  0.5125
 8588SOL    HW237398   3.305   4.010   1.674 -0.0326  0.1100 -0.8700
 8589SOL     OW37399   0.560   1.145   9.666  0.5297 -0.1011 -0.0741
 8589SOL    HW137400   0.555   1.058   9.627 -0.9170  0.4171 -1.0667
 8589SOL    HW237401   0.606   1.112   9.743 -1.7401 -0.2452  1.2269
 8590SOL     OW37402   0.796   2.886   1.648 -0.8500  0.0422  0.0407
 8590SOL    HW137403   0.795   2.922   1.560  0.4448 -1.0137 -0.3947
 8590SOL    HW237404   0.727   2.941   1.685 -0.3408  0.0984  0.9204
 8591SOL     OW37405   2.702   2.437   6.728  0.2632 -0.2494 -0.5339
 8591SOL    HW137406   2.635   2.403   6.788  0.3108 -0.0338 -0.3588
 8591SOL    HW237407   2.647   2.495   6.675  0.8815  1.1385  0.3763
 8592SOL     OW37408   0.773   0.642   1.365 -0.3683  0.5837 -0.0620
 8592SOL    HW137409   0.764   0.623   1.271  0.1430  0.5092 -0.0934
 8592SOL    HW237410   0.736   0.563   1.404  1.7872  0.3108  1.3738
 8593SOL     OW37411   1.683   2.166   5.719 -0.4312  0.2652 -0.0417
 8593SOL    HW137412   1.617   2.232   5.742 -1.1079 -0.7106  0.7872
 8593SOL    HW237413   1.630   2.120   5.654 -1.7168  0.3542  0.9661
 8594SOL     OW37414   1.443   1.363   2.149  0.0970  0.2942  0.2361
 8594SOL    HW137415   1.477   1.330   2.065  2.0145  2.6106  0.1146
 8594SOL    HW237416   1.406   1.446   2.118  1.0036  0.8702  0.7033
 8595SOL     OW37417   1.763   0.190   7.511  0.5417 -0.3380  0.2954
 8595SOL    HW137418   1.739   0.107   7.552 -1.5863  0.4998  0.7350
 8595SOL    HW237419   1.837   0.170   7.454  1.3617  0.4287  1.0830
 8596SOL     OW37420   1.293   1.244   8.079 -0.0894 -0.0495  0.0391
 8596SOL    HW137421   1.275   1.174   8.142  1.0992  0.2896  0.7460
 8596SOL    HW237422   1.212   1.249   8.028 -0.1803  0.1042  0.1943
 8597SOL     OW37423   0.060   0.578   4.915 -0.5054 -0.0873  0.0725
 8597SOL    HW137424   4.712   0.572   4.873 -0.7641  0.5569  0.5283
 8597SOL    HW237425   0.048   0.613   5.003  1.3532 -0.4583  0.4604
 8598SOL     OW37426   1.782   2.626   0.523  0.5309 -0.2100 -0.1888
 8598SOL    HW137427   1.805   2.563   0.592  0.9991  1.6227  1.3438
 8598SOL    HW237428   1.876   2.637   0.511  0.6911  0.2592  1.4468
 8599SOL     OW37429   3.264   4.538   0.693 -0.0959  0.2010  0.3399
 8599SOL    HW137430   3.315   4.577   0.622 -1.2240  0.2306 -0.4510
 8599SOL    HW237431   3.306   4.568   0.773  2.1081  0.7692 -1.0163
 8600SOL     OW37432   2.400   1.671   3.222 -0.5771 -0.0269  0.4225
 8600SOL    HW137433   2.423   1.738   3.287  1.1305 -3.5448  3.3857
 8600SOL    HW237434   2.320   1.632   3.257  0.5390 -2.1834  0.5562
 8601SOL     OW37435   3.718   4.570  17.329  0.3609  0.5095 -0.2998
 8601SOL    HW137436   3.687   4.654  17.293 -2.2211  0.3272  1.4836
 8601SOL    HW237437   3.812   4.581  17.317  0.4887  1.3065  1.4621
 8602SOL     OW37438   3.075   0.607   8.730 -0.0155  0.9717 -0.0674
 8602SOL    HW137439   3.042   0.529   8.686  1.4149 -0.3068  1.1098
 8602SOL    HW237440   2.998   0.661   8.716  0.2688  1.3516 -0.1461
 8603SOL     OW37441   1.260   2.503   7.551 -0.1219  0.0502 -0.0607
 8603SOL    HW137442   1.226   2.479   7.465 -0.9297 -1.5398  0.6782
 8603SOL    HW237443   1.352   2.511   7.528 -0.0991  1.2771  0.4651
 8604SOL     OW37444   0.969   3.342   6.636 -0.0611 -0.1445  0.0228
 8604SOL    HW137445   0.909   3.300   6.698  0.9657 -0.1912  0.9700
 8604SOL    HW237446   0.992   3.425   6.679 -1.3300 -0.6129  1.6220
 8605SOL     OW37447   0.559   4.380   1.958  0.1261 -0.2016 -0.3033
 8605SOL    HW137448   0.568   4.464   2.003  1.0169 -0.0145 -0.8394
 8605SOL    HW237449   0.464   4.367   1.955 -0.0854  1.0412  1.0887
 8606SOL     OW37450   4.446   2.525  16.423  0.3833  0.0960  0.1998
 8606SOL    HW137451   4.521   2.575  16.454  1.3146 -0.2426 -1.5192
 8606SOL    HW237452   4.485   2.438  16.432 -1.0031 -0.4055  1.3471
 8607SOL     OW37453   3.840   3.341  15.856  0.2475  0.2123 -0.1129
 8607SOL    HW137454   3.933   3.348  15.878  0.2551 -1.5176  0.4203
 8607SOL    HW237455   3.825   3.247  15.860  0.5161  0.1894  0.4321
 8608SOL     OW37456   2.723   2.166   6.166 -0.1162 -0.0744  0.0185
 8608SOL    HW137457   2.718   2.217   6.085  2.9032 -0.6638 -0.5411
 8608SOL    HW237458   2.720   2.073   6.142  0.3520  0.2839 -1.4447
 8609SOL     OW37459   0.108   2.581   6.103 -0.4928 -0.6307 -0.8230
 8609SOL    HW137460   0.042   2.641   6.137  0.7215 -0.1308  0.6410
 8609SOL    HW237461   0.113   2.514   6.173 -0.2278  1.4062  1.1052
 8610SOL     OW37462   1.886   2.914  12.160  0.3034  0.5968 -0.0644
 8610SOL    HW137463   1.973   2.950  12.144  0.1405  2.5378  3.3951
 8610SOL    HW237464   1.860   2.864  12.082 -0.6274  0.1066  0.5634
 8611SOL     OW37465   2.660   1.171  11.829  0.1895 -0.8226 -0.2998
 8611SOL    HW137466   2.722   1.101  11.810  0.9821  0.1067 -1.0950
 8611SOL    HW237467   2.716   1.248  11.818 -1.1831  0.3340  0.7012
 8612SOL     OW37468   1.306   0.034   3.077  0.0451 -0.5278 -0.2409
 8612SOL    HW137469   1.319   4.738   3.165 -1.1296  0.9586  0.5277
 8612SOL    HW237470   1.215   0.005   3.064  0.5151 -1.7601 -0.7662
 8613SOL     OW37471   4.355   2.412   8.346  0.3750 -0.6781  0.5650
 8613SOL    HW137472   4.437   2.387   8.303  1.1074 -0.1924  1.6677
 8613SOL    HW237473   4.317   2.458   8.272 -1.1196 -1.4881  0.8429
 8614SOL     OW37474   4.660   4.692   2.035  0.8358  0.2825  0.4570
 8614SOL    HW137475   4.604   0.006   1.977  1.1142 -1.8171 -1.7351
 8614SOL    HW237476   4.619   4.606   2.039  0.4516  0.4902  1.1002
 8615SOL     OW37477   1.080   2.442   6.579 -0.6319 -0.3695 -0.4826
 8615SOL    HW137478   0.986   2.432   6.564 -1.0583  1.5960  1.0319
 8615SOL    HW237479   1.082   2.460   6.673 -1.8422  0.4555 -0.6188
 8616SOL     OW37480   1.073   1.863   6.339  0.5151 -0.1731 -0.6890
 8616SOL    HW137481   1.027   1.840   6.258  2.8020 -0.3757 -1.9262
 8616SOL    HW237482   1.057   1.956   6.355  0.9624 -0.3780  0.9146
 8617SOL     OW37483   4.145   4.737   4.735 -0.1752  1.0531 -0.2430
 8617SOL    HW137484   4.219   0.038   4.688  1.0659 -0.2738  0.5720
 8617SOL    HW237485   4.201   4.680   4.788 -2.7117 -0.3684  0.9039
 8618SOL     OW37486   3.283   2.803   2.219 -0.6727 -0.5232  0.0944
 8618SOL    HW137487   3.231   2.724   2.230 -0.0544 -1.1276 -1.4649
 8618SOL    HW237488   3.217   2.860   2.180  0.3999  1.4773  1.1884
 8619SOL     OW37489   0.346   4.302   4.806 -0.3890  0.1976  0.2671
 8619SOL    HW137490   0.417   4.254   4.848  0.6358 -0.7950 -2.5721
 8619SOL    HW237491   0.348   4.380   4.861 -0.0877 -0.3947  1.0970
 8620SOL     OW37492   1.772   1.407   4.950 -0.3900  0.0823  0.2830
 8620SOL    HW137493   1.837   1.338   4.962 -0.0170  0.2889 -0.6054
 8620SOL    HW237494   1.698   1.351   4.974 -1.1238  0.7524 -0.4412
 8621SOL     OW37495   1.839   1.224   2.732  0.5306 -0.0582 -0.0449
 8621SOL    HW137496   1.797   1.276   2.801 -0.9582  0.3133 -1.2360
 8621SOL    HW237497   1.838   1.131   2.757 -1.0085 -0.0805 -0.1689
 8622SOL     OW37498   3.488   2.458  14.719 -0.0234  0.3522 -0.0436
 8622SOL    HW137499   3.576   2.448  14.682 -0.3609 -0.3666 -0.6598
 8622SOL    HW237500   3.436   2.407  14.656 -0.7594 -0.5138  1.2690
 8623SOL     OW37501   2.460   2.036   8.660 -0.8938 -0.0475 -0.6016
 8623SOL    HW137502   2.419   2.052   8.745 -0.1777 -0.0638 -0.2603
 8623SOL    HW237503   2.423   1.952   8.633  0.1394 -0.9173  0.6757
 8624SOL     OW37504   0.990   0.873   0.734  0.7330  0.0047 -0.0822
 8624SOL    HW137505   0.956   0.855   0.821  1.4379  0.2682  0.2521
 8624SOL    HW237506   1.085   0.871   0.748  0.5674 -0.3146  0.9755
 8625SOL     OW37507   0.278   4.441   7.237 -0.3565 -0.2410  0.4998
 8625SOL    HW137508   0.338   4.391   7.293 -2.5706 -1.5655  1.6650
 8625SOL    HW237509   0.289   4.530   7.270 -2.5720 -0.1221  0.9114
 8626SOL     OW37510   0.828   3.581   3.249  0.6882  0.1474 -0.4486
 8626SOL    HW137511   0.753   3.522   3.243  1.1164 -0.5530  1.2688
 8626SOL    HW237512   0.869   3.587   3.162 -0.0561 -0.8633 -0.8636
 8627SOL     OW37513   0.814   1.998   6.501  0.3709 -0.0069  0.5328
 8627SOL    HW137514   0.868   2.067   6.463 -0.1721 -0.0062 -0.2308
 8627SOL    HW237515   0.783   2.033   6.585  0.3947  1.6441 -0.1571
 8628SOL     OW37516   0.108   3.795   4.968 -0.1004  0.6063 -0.4750
 8628SOL    HW137517   0.166   3.719   4.971 -0.5370  0.3539  1.1949
 8628SOL    HW237518   0.146   3.866   4.916 -2.4907  0.7848 -2.0019
 8629SOL     OW37519   4.086   4.161   1.344 -0.5835 -0.0200  0.0403
 8629SOL    HW137520   4.147   4.234   1.354 -0.6008 -0.0729  0.5349
 8629SOL    HW237521   4.014   4.169   1.406 -0.8951  1.4930 -0.5227
 8630SOL     OW37522   1.212   3.114   4.778  0.3094 -0.3469  0.2967
 8630SOL    HW137523   1.292   3.107   4.726  0.3523 -2.1491  0.6050
 8630SOL    HW237524   1.251   3.129   4.864  1.2400 -1.3087  0.0443
 8631SOL     OW37525   0.990   2.991   7.189 -0.5125  0.6274  0.4809
 8631SOL    HW137526   1.004   2.966   7.097  0.8177 -2.3212  1.5139
 8631SOL    HW237527   1.050   3.065   7.200  1.4891 -0.8241 -0.8324
 8632SOL     OW37528   4.072   3.988   2.283  0.3678 -0.0176 -0.1645
 8632SOL    HW137529   4.136   3.979   2.354 -0.5853  1.2043  0.8600
 8632SOL    HW237530   4.091   3.906   2.239 -0.9978  0.1949 -1.1472
 8633SOL     OW37531   4.157   3.617   3.061  0.2810  0.3509  0.6511
 8633SOL    HW137532   4.238   3.649   3.022  0.7205 -1.4663  0.0746
 8633SOL    HW237533   4.170   3.522   3.070 -1.1453  0.0455 -0.3177
 8634SOL     OW37534   2.194   0.553   2.988  0.3223 -0.7503  0.0789
 8634SOL    HW137535   2.175   0.464   2.960 -1.6154 -0.9186  1.9547
 8634SOL    HW237536   2.283   0.544   3.023  1.2197 -0.2636 -2.1252
 8635SOL     OW37537   0.181   3.672   4.064  0.0548 -0.2128 -0.3343
 8635SOL    HW137538   0.100   3.625   4.087 -0.4311  0.0923 -1.3956
 8635SOL    HW237539   0.232   3.601   4.024  1.3608 -0.0239  0.9881
 8636SOL     OW37540   2.771   2.482  14.540 -0.2009 -0.4781 -0.0998
 8636SOL    HW137541   2.729   2.423  14.603 -0.6516 -0.3620 -0.2921
 8636SOL    HW237542   2.697   2.533  14.506 -1.3358 -2.9866 -1.3751
 8637SOL     OW37543   3.051   2.009   7.622 -0.2380 -0.5842 -0.2712
 8637SOL    HW137544   3.034   2.027   7.715 -0.1932  3.1250 -0.9802
 8637SOL    HW237545   3.094   2.089   7.592  0.2956  0.1247  2.3325
 8638SOL     OW37546   0.454   1.399  11.548  0.0937  0.2812 -0.0288
 8638SOL    HW137547   0.534   1.410  11.496 -0.7070  0.9627 -1.1240
 8638SOL    HW237548   0.461   1.468  11.614 -0.3276  0.5592 -0.2729
 8639SOL     OW37549   0.015   2.803   1.324 -0.3174  0.1135  0.2136
 8639SOL    HW137550   4.703   2.734   1.366 -0.5589  1.0202  1.4059
 8639SOL    HW237551   0.011   2.873   1.389 -2.3547  0.6614 -0.4892
 8640SOL     OW37552   4.036   1.941   6.528  0.3604  0.0262  0.1538
 8640SOL    HW137553   4.119   1.912   6.490  0.0147 -0.7642  0.0137
 8640SOL    HW237554   3.985   1.861   6.538  0.8445 -0.4854 -1.4919
 8641SOL     OW37555   3.547   1.382  14.952  0.5268  0.7889  0.5161
 8641SOL    HW137556   3.473   1.441  14.937 -0.2312  0.0621  1.3798
 8641SOL    HW237557   3.515   1.298  14.920  0.0703 -0.1621  3.4647
 8642SOL     OW37558   3.617   3.197   7.990 -0.3779  0.1878 -0.0469
 8642SOL    HW137559   3.608   3.153   7.905 -0.1977 -1.8642  0.9828
 8642SOL    HW237560   3.711   3.209   7.999 -0.6606  2.4811 -0.1450
 8643SOL     OW37561   0.917   4.389   7.373  0.1757  0.0253  0.2033
 8643SOL    HW137562   0.998   4.438   7.359 -0.6248  1.4004  0.3313
 8643SOL    HW237563   0.880   4.406   7.286 -1.9701  0.0616  1.1050
 8644SOL     OW37564   4.160   0.705   3.021 -0.1800  0.0414 -0.2174
 8644SOL    HW137565   4.197   0.627   2.979  2.8954  2.4764 -2.0168
 8644SOL    HW237566   4.159   0.670   3.110  1.2972  2.4992  0.7760
 8645SOL     OW37567   1.083   2.118   2.817  0.2676 -0.2094 -0.5176
 8645SOL    HW137568   1.037   2.117   2.733  1.2422 -0.2032 -1.0536
 8645SOL    HW237569   1.043   2.201   2.845  0.8238  0.5487 -1.9237
 8646SOL     OW37570   2.054   4.383  16.414 -0.0348 -0.1969  0.3985
 8646SOL    HW137571   2.114   4.441  16.368  1.3539 -2.8730 -1.1253
 8646SOL    HW237572   1.986   4.450  16.427 -1.8986 -2.2635  1.3719
 8647SOL     OW37573   3.421   1.109   3.873  0.1646 -0.5242  0.6215
 8647SOL    HW137574   3.489   1.043   3.863 -0.2138 -0.8490  0.1977
 8647SOL    HW237575   3.365   1.076   3.944  0.5830 -1.2860  0.5936
 8648SOL     OW37576   3.520   1.087   2.115  0.7032 -0.5333 -0.7378
 8648SOL    HW137577   3.474   1.039   2.183  3.4818  0.5944  1.9156
 8648SOL    HW237578   3.486   1.051   2.033 -0.7039 -1.6877  0.3568
 8649SOL     OW37579   0.271   3.433   3.957  0.3181  0.3033 -0.1879
 8649SOL    HW137580   0.216   3.404   3.885 -0.2254 -0.7537  0.6627
 8649SOL    HW237581   0.319   3.355   3.986  0.8520  0.5598 -0.3716
 8650SOL     OW37582   0.916   2.480   9.300  0.1969 -0.1949  0.3302
 8650SOL    HW137583   0.962   2.458   9.219 -0.7197  0.4646 -0.3744
 8650SOL    HW237584   0.830   2.438   9.292  0.9820 -1.7131 -0.1146
 8651SOL     OW37585   2.914   1.820   5.960 -0.5567 -0.0563  0.4090
 8651SOL    HW137586   2.923   1.844   5.867  2.0478  0.6060  0.8439
 8651SOL    HW237587   3.000   1.780   5.973  1.0433  2.5301 -2.0094
 8652SOL     OW37588   3.274   3.334   3.673  0.0081  0.1118  0.0141
 8652SOL    HW137589   3.301   3.328   3.765  0.6602 -0.3514 -0.2032
 8652SOL    HW237590   3.213   3.260   3.669 -0.5843  0.6779 -1.2059
 8653SOL     OW37591   1.285   0.322   2.676 -0.1498  0.3000 -0.2122
 8653SOL    HW137592   1.226   0.277   2.615 -1.3033  2.0315 -0.3635
 8653SOL    HW237593   1.330   0.249   2.720 -1.0590  1.0147  1.8642
 8654SOL     OW37594   1.728   2.796   5.424  0.3637  0.2602 -0.0358
 8654SOL    HW137595   1.647   2.779   5.375 -0.5756  0.7799  1.3278
 8654SOL    HW237596   1.719   2.732   5.494  0.8263  2.1257  1.7271
 8655SOL     OW37597   1.520   4.230   3.298  0.5648 -0.6507 -0.3317
 8655SOL    HW137598   1.502   4.140   3.323 -1.5207  0.7193  3.1251
 8655SOL    HW237599   1.434   4.261   3.269  0.4864  0.1645  0.7643
 8656SOL     OW37600   2.711   1.474   9.272 -0.3619  0.3693 -0.0331
 8656SOL    HW137601   2.641   1.540   9.276  0.0095  0.7899 -0.4953
 8656SOL    HW237602   2.660   1.396   9.292  1.6729 -1.2169 -1.1502
 8657SOL     OW37603   1.725   4.258   3.784 -0.3004  0.4036  0.2908
 8657SOL    HW137604   1.740   4.350   3.765 -2.0611  0.5239 -0.5402
 8657SOL    HW237605   1.723   4.265   3.880 -0.5519  0.2409  0.2984
 8658SOL     OW37606   0.595   4.486   5.535  0.3624  0.0055 -0.4893
 8658SOL    HW137607   0.500   4.487   5.524  0.4971  0.1896 -1.6541
 8658SOL    HW237608   0.620   4.537   5.613 -0.0284 -0.3210 -0.1499
 8659SOL     OW37609   1.257   4.287  11.385 -0.5272  0.5509  0.2981
 8659SOL    HW137610   1.296   4.223  11.444  0.0335 -0.0077 -0.6832
 8659SOL    HW237611   1.308   4.246  11.315 -0.9523 -1.8975  1.4440
 8660SOL     OW37612   0.306   3.369  11.452  0.3271 -0.0397  0.4723
 8660SOL    HW137613   0.316   3.443  11.512 -0.3084 -1.0298  1.7945
 8660SOL    HW237614   0.272   3.407  11.371  1.9912  3.4448  1.3973
 8661SOL     OW37615   1.964   2.602   2.827  0.7216 -0.3869 -0.3500
 8661SOL    HW137616   1.926   2.662   2.892  0.2609  0.5026 -1.4461
 8661SOL    HW237617   1.930   2.643   2.747 -0.0881 -1.9706 -0.8067
 8662SOL     OW37618   2.668   2.744   1.679 -0.6378 -0.0281  0.2033
 8662SOL    HW137619   2.614   2.682   1.630  0.6450  0.1240 -1.4122
 8662SOL    HW237620   2.606   2.817   1.680 -0.7559 -0.1130 -1.5832
 8663SOL     OW37621   4.460   2.546  14.456  0.0061 -0.0320  0.2840
 8663SOL    HW137622   4.457   2.570  14.548 -1.5970 -1.3308  0.5650
 8663SOL    HW237623   4.480   2.453  14.469 -0.0438  0.1144  1.3878
 8664SOL     OW37624   3.027   1.599   6.210  0.1160 -0.3556 -0.0811
 8664SOL    HW137625   3.089   1.652   6.159 -0.3390  1.8328  1.6257
 8664SOL    HW237626   2.953   1.589   6.150  0.1721  0.2760 -0.2602
 8665SOL     OW37627   3.639   4.124   7.870 -0.3368 -0.0370 -0.0155
 8665SOL    HW137628   3.566   4.080   7.914 -1.3301  0.1973 -1.4161
 8665SOL    HW237629   3.698   4.051   7.855 -0.2454  0.1667 -0.6685
 8666SOL     OW37630   2.189   0.673   4.861  0.5066 -0.7145 -0.1438
 8666SOL    HW137631   2.203   0.758   4.903 -1.0659 -0.7216  0.3854
 8666SOL    HW237632   2.280   0.648   4.842  0.9226 -0.3262  1.3393
 8667SOL     OW37633   1.670   1.003  10.675  0.1582  0.4497  0.1957
 8667SOL    HW137634   1.711   0.941  10.736  0.4232  1.8960  1.4917
 8667SOL    HW237635   1.620   0.947  10.616  0.5659  0.7563 -0.4451
 8668SOL     OW37636   2.087   1.253   7.031  0.3226  0.6942 -0.3079
 8668SOL    HW137637   2.150   1.291   6.970 -0.8002 -0.3356 -2.1050
 8668SOL    HW237638   2.036   1.331   7.052 -3.6785 -1.8707 -0.4198
 8669SOL     OW37639   4.558   4.632   5.577  0.0533 -0.1335 -0.0007
 8669SOL    HW137640   4.518   4.552   5.610 -0.8447 -0.5986 -2.2287
 8669SOL    HW237641   4.538   4.699   5.642  0.7626 -1.5884  1.6995
 8670SOL     OW37642   1.758   1.542   9.746 -0.0393  0.1292 -0.1286
 8670SOL    HW137643   1.697   1.503   9.682  1.4966  1.0345 -2.1492
 8670SOL    HW237644   1.718   1.535   9.833 -0.8130 -0.6896 -0.5465
 8671SOL     OW37645   2.949   3.898   3.210 -0.3940  0.2743  0.2032
 8671SOL    HW137646   2.913   3.936   3.290 -0.3972  0.1179  0.2754
 8671SOL    HW237647   2.874   3.850   3.176 -0.4558  1.4295 -1.3163
 8672SOL     OW37648   2.904   3.140  12.037  0.1036 -0.2141  0.2031
 8672SOL    HW137649   2.919   3.235  12.034 -0.7362 -0.0736  0.3995
 8672SOL    HW237650   2.876   3.117  12.126  0.7197  1.1347  0.7578
 8673SOL     OW37651   4.147   0.254   5.644  0.3992 -0.0964  0.1127
 8673SOL    HW137652   4.072   0.196   5.644 -1.4437  2.3001  0.4702
 8673SOL    HW237653   4.120   0.304   5.721 -1.8068 -0.1307 -0.6608
 8674SOL     OW37654   3.093   3.370  15.946 -0.7000  0.2661  0.6782
 8674SOL    HW137655   3.101   3.452  15.898 -0.6034 -0.5148 -0.6196
 8674SOL    HW237656   2.998   3.360  15.943 -0.4402 -1.9436  0.1465
 8675SOL     OW37657   1.213   3.531   6.266  0.4377  0.1107 -0.1722
 8675SOL    HW137658   1.202   3.525   6.361 -0.2006 -0.4018 -0.2824
 8675SOL    HW237659   1.302   3.496   6.275  0.3531  1.1194  4.5408
 8676SOL     OW37660   3.454   1.422  16.644 -0.2468  0.0254  0.1946
 8676SOL    HW137661   3.374   1.379  16.612 -1.1484  1.0210  1.0983
 8676SOL    HW237662   3.429   1.505  16.685  1.9444  0.7167  0.1005
 8677SOL     OW37663   0.697   3.624  14.867 -0.4140  0.1012 -0.3280
 8677SOL    HW137664   0.781   3.649  14.906 -0.7820  1.3680 -0.3572
 8677SOL    HW237665   0.726   3.582  14.786 -0.4792 -0.2119 -0.1885
 8678SOL     OW37666   0.916   1.530   5.723  0.0622 -0.0075 -0.3104
 8678SOL    HW137667   0.927   1.603   5.783 -0.6007  0.4057 -0.6862
 8678SOL    HW237668   0.919   1.458   5.786 -3.1128 -0.5350 -0.7545
 8679SOL     OW37669   3.741   0.713   9.735 -0.1144 -0.3804 -0.1284
 8679SOL    HW137670   3.698   0.779   9.681  0.4860  0.7962  0.8465
 8679SOL    HW237671   3.793   0.661   9.674  0.5833  1.5216 -1.1527
 8680SOL     OW37672   2.134   2.715   1.907 -0.6709 -0.6456 -0.4159
 8680SOL    HW137673   2.088   2.799   1.908  0.2527 -0.1080 -2.5408
 8680SOL    HW237674   2.095   2.676   1.829  0.1478  1.3966 -1.8572
 8681SOL     OW37675   3.894   2.080   9.741 -0.1309 -0.1570  0.1564
 8681SOL    HW137676   3.859   2.152   9.689  0.8429  1.1219  1.2648
 8681SOL    HW237677   3.975   2.125   9.766 -0.4668  0.2523  0.4993
 8682SOL     OW37678   1.395   1.809   7.785  0.8971  0.0327  0.5188
 8682SOL    HW137679   1.327   1.801   7.852 -1.0809  0.9039 -1.3700
 8682SOL    HW237680   1.335   1.783   7.715  0.5197 -1.8025  1.5347
 8683SOL     OW37681   4.683   3.227   5.798 -0.3977 -0.6012 -0.2359
 8683SOL    HW137682   4.658   3.169   5.870 -1.4753 -0.2530 -0.3331
 8683SOL    HW237683   4.605   3.225   5.742 -0.5494 -2.1245  0.0403
 8684SOL     OW37684   0.130   0.766   8.399 -0.3208 -0.3746  0.3193
 8684SOL    HW137685   0.179   0.833   8.351  0.0455  0.1981  1.4971
 8684SOL    HW237686   0.147   0.690   8.343 -0.0564 -0.3540  0.3732
 8685SOL     OW37687   3.645   3.186  12.690  0.7523  0.3813  0.1138
 8685SOL    HW137688   3.684   3.124  12.629  0.8320  1.0804 -0.5507
 8685SOL    HW237689   3.571   3.131  12.714  0.5135  0.6791  0.0623
 8686SOL     OW37690   1.605   3.484  10.276 -0.1395 -0.5327 -0.3757
 8686SOL    HW137691   1.665   3.554  10.252  0.0086 -0.0290  1.5140
 8686SOL    HW237692   1.529   3.523  10.233  0.9213  0.8713 -0.9639
 8687SOL     OW37693   3.896   3.914   6.172  0.4146  0.1192  0.5551
 8687SOL    HW137694   3.801   3.918   6.176  0.6796  3.6201  2.9099
 8687SOL    HW237695   3.926   3.951   6.255  1.5879 -0.1680  0.2692
 8688SOL     OW37696   3.692   1.800  10.582 -0.0164 -0.1195  0.0858
 8688SOL    HW137697   3.649   1.768  10.661 -0.6203 -0.9380 -0.5719
 8688SOL    HW237698   3.734   1.721  10.549 -1.7096 -0.6114 -0.9109
 8689SOL     OW37699   3.477   2.802   4.321  0.4537 -0.9758  0.4951
 8689SOL    HW137700   3.499   2.786   4.413  0.7553  0.1480  0.6118
 8689SOL    HW237701   3.410   2.734   4.312 -1.2565  0.6312  1.3225
 8690SOL     OW37702   3.179   1.831   4.813  0.4298 -0.3098  0.7135
 8690SOL    HW137703   3.227   1.818   4.895  0.6471  0.6711  0.7415
 8690SOL    HW237704   3.136   1.915   4.829  0.1726 -0.1880 -0.6103
 8691SOL     OW37705   2.829   2.447   5.187 -0.3090 -0.9440 -0.1081
 8691SOL    HW137706   2.861   2.369   5.232 -0.3305 -1.1933 -0.5235
 8691SOL    HW237707   2.750   2.455   5.240 -0.8764 -1.2341 -0.9099
 8692SOL     OW37708   0.239   0.168   0.805  0.4539 -0.4070 -0.1310
 8692SOL    HW137709   0.210   0.101   0.868  1.5126 -0.7234  0.0221
 8692SOL    HW237710   0.329   0.138   0.798  0.8451  0.5338  0.8307
 8693SOL     OW37711   0.736   2.673  10.754 -0.2483  0.3053  0.0305
 8693SOL    HW137712   0.828   2.673  10.727  0.0231  0.2130  0.9554
 8693SOL    HW237713   0.717   2.762  10.783 -0.6633  0.3060 -0.2524
 8694SOL     OW37714   3.917   1.001   9.415  0.2479  0.8624  0.0954
 8694SOL    HW137715   3.996   0.949   9.409  0.1398  0.6494  0.5413
 8694SOL    HW237716   3.957   1.074   9.461  2.4085  0.4241 -1.0996
 8695SOL     OW37717   1.727   3.067   5.794 -0.1472 -0.6765  0.2994
 8695SOL    HW137718   1.679   3.144   5.827 -2.0499 -2.7646  2.4353
 8695SOL    HW237719   1.711   3.061   5.700  1.9755  3.0787 -0.3123
 8696SOL     OW37720   3.105   2.482   8.171 -0.1275 -0.1965  0.5260
 8696SOL    HW137721   3.090   2.576   8.178 -0.2632 -0.1693 -0.1153
 8696SOL    HW237722   3.115   2.456   8.262  2.2907 -0.3211  0.2315
 8697SOL     OW37723   3.033   3.133   6.725  0.1168  0.4008  0.1787
 8697SOL    HW137724   3.037   3.171   6.638 -0.1447 -0.5213 -0.2345
 8697SOL    HW237725   2.967   3.066   6.708  1.2086 -0.0044 -2.3060
 8698SOL     OW37726   2.445   0.388   3.524 -0.0202 -0.3646  0.2030
 8698SOL    HW137727   2.395   0.352   3.451 -0.1876 -0.9898  0.6312
 8698SOL    HW237728   2.496   0.449   3.470 -0.2764  0.0529  0.4356
 8699SOL     OW37729   0.431   4.158   4.065 -0.2239 -0.3066  0.7207
 8699SOL    HW137730   0.367   4.106   4.115 -3.0228  0.4163 -2.0738
 8699SOL    HW237731   0.461   4.228   4.123  1.2440 -1.2443  1.0873
 8700SOL     OW37732   0.275   3.121   0.012 -0.0495 -0.1993 -0.8426
 8700SOL    HW137733   0.188   3.141  17.732 -0.8449 -0.9982  0.7671
 8700SOL    HW237734   0.281   3.025   0.019 -2.0147 -0.1552  1.3320
 8701SOL     OW37735   1.900   3.959  15.575  0.2636 -0.7610 -0.4232
 8701SOL    HW137736   1.903   3.932  15.667  0.5048 -4.3613 -1.5141
 8701SOL    HW237737   1.899   4.055  15.577 -2.6304 -0.8311  0.5496
 8702SOL     OW37738   0.137   1.120   9.613  0.0031  0.0151 -0.2930
 8702SOL    HW137739   0.114   1.075   9.694 -1.6763  1.4758  0.0108
 8702SOL    HW237740   0.107   1.208   9.635 -1.7960 -0.4753 -0.7839
 8703SOL     OW37741   1.224   3.792   5.455  0.1872  0.2985  0.2472
 8703SOL    HW137742   1.159   3.722   5.450  1.5539 -1.0071  0.7340
 8703SOL    HW237743   1.172   3.869   5.474  0.3132  0.6331 -0.7675
 8704SOL     OW37744   3.285   3.552   6.857 -0.5532 -0.1125  0.0387
 8704SOL    HW137745   3.363   3.608   6.858 -0.0131 -0.8517 -0.4462
 8704SOL    HW237746   3.235   3.589   6.930  0.8068 -0.5280  1.1840
 8705SOL     OW37747   0.976   0.471   5.486 -0.3449  0.3946 -0.0766
 8705SOL    HW137748   0.945   0.454   5.575  1.8763 -0.1993  0.5911
 8705SOL    HW237749   0.890   0.468   5.444  0.1361  1.3639 -1.1266
 8706SOL     OW37750   2.390   1.958   4.564 -0.3457  0.2636  0.3834
 8706SOL    HW137751   2.463   1.991   4.616  0.3027 -0.7054  0.0917
 8706SOL    HW237752   2.359   1.888   4.621  0.6298  1.4746  2.3953
 8707SOL     OW37753   1.598   1.526   6.842  0.7447 -0.0136  0.3542
 8707SOL    HW137754   1.516   1.484   6.868  0.4787 -0.0272 -0.5124
 8707SOL    HW237755   1.613   1.495   6.753 -0.2759 -0.6111  0.3946
 8708SOL     OW37756   1.569   2.471  14.645  0.0961 -0.1158  0.1885
 8708SOL    HW137757   1.487   2.505  14.609 -0.3256  0.6002  1.7824
 8708SOL    HW237758   1.535   2.425  14.722 -1.0622  0.5190  0.0647
 8709SOL     OW37759   0.013   2.451   6.872 -0.4126  0.7086  0.4399
 8709SOL    HW137760   0.018   2.365   6.914  1.3596  0.0591 -1.1177
 8709SOL    HW237761   0.105   2.472   6.857  0.0763 -0.1056  2.3243
 8710SOL     OW37762   1.077   1.225   5.166  0.0197  0.6848 -0.1463
 8710SOL    HW137763   1.059   1.269   5.082  2.6373  0.3025 -0.9063
 8710SOL    HW237764   1.057   1.134   5.147 -0.2971  0.7720 -0.2300
 8711SOL     OW37765   4.131   0.903   4.282 -0.0320  0.3157 -0.4263
 8711SOL    HW137766   4.152   0.872   4.194  2.1604 -2.3323  1.0207
 8711SOL    HW237767   4.061   0.963   4.257  0.1208  1.3071  1.5631
 8712SOL     OW37768   4.461   2.175   4.741  0.1681  0.1159  0.2288
 8712SOL    HW137769   4.478   2.263   4.774 -0.9016  0.3128  0.2522
 8712SOL    HW237770   4.426   2.198   4.655  0.2416 -0.5453  0.0204
 8713SOL     OW37771   3.111   1.722  10.360 -0.1947 -0.3542 -0.8264
 8713SOL    HW137772   3.145   1.809  10.382 -0.6308 -0.4467  0.1958
 8713SOL    HW237773   3.187   1.670  10.386 -0.4965  0.7682  2.2202
 8714SOL     OW37774   3.387   3.068   0.834 -0.0917  0.2383  0.1290
 8714SOL    HW137775   3.432   3.132   0.778  0.1669  0.4094  0.5342
 8714SOL    HW237776   3.417   2.984   0.799 -1.4101  0.1671 -0.8421
 8715SOL     OW37777   2.919   4.114   4.774  0.8683 -0.4067  0.6088
 8715SOL    HW137778   2.882   4.055   4.839  0.4258 -0.1730  0.5766
 8715SOL    HW237779   2.986   4.155   4.828  1.4764 -0.2629 -0.2543
 8716SOL     OW37780   0.061   1.118   3.217 -0.2425 -0.0818 -0.3518
 8716SOL    HW137781   0.064   1.044   3.156 -1.1028 -0.1835 -0.2796
 8716SOL    HW237782   0.032   1.074   3.297  1.8185 -0.9842 -0.1091
 8717SOL     OW37783   4.296   3.837   8.254 -0.2458 -0.2047 -0.8141
 8717SOL    HW137784   4.390   3.854   8.258 -0.4409  1.5262 -3.5199
 8717SOL    HW237785   4.293   3.741   8.262  0.3434 -0.5553 -4.4549
 8718SOL     OW37786   0.969   0.553  11.134 -0.6572 -0.1217  0.5973
 8718SOL    HW137787   0.991   0.646  11.129  1.9070 -0.9064 -2.5885
 8718SOL    HW237788   0.922   0.550  11.218  1.1925  1.1226  1.6805
 8719SOL     OW37789   1.428   2.617   7.328  0.0367  0.2126  0.1838
 8719SOL    HW137790   1.471   2.650   7.406  1.2342 -0.5218 -0.1522
 8719SOL    HW237791   1.430   2.695   7.273 -0.5516  0.5295  0.6212
 8720SOL     OW37792   1.681   3.426   2.046 -0.5508 -0.2610  0.0411
 8720SOL    HW137793   1.734   3.452   1.970 -1.4859  1.1589 -0.1294
 8720SOL    HW237794   1.748   3.441   2.112  0.8792  1.4202 -1.7648
 8721SOL     OW37795   1.945   4.235   8.243  0.0972  0.3514 -0.6723
 8721SOL    HW137796   1.982   4.281   8.168 -1.2921  1.8155 -0.4578
 8721SOL    HW237797   2.030   4.202   8.273 -0.0454 -0.3338 -1.0181
 8722SOL     OW37798   1.551   3.258   5.883 -0.0456  0.8455 -0.2470
 8722SOL    HW137799   1.497   3.332   5.856 -3.0336 -1.5411 -0.7693
 8722SOL    HW237800   1.562   3.268   5.977 -0.6647 -0.7872  0.0049
 8723SOL     OW37801   3.186   3.541   8.820 -0.2039  0.2065 -0.1618
 8723SOL    HW137802   3.269   3.583   8.839  0.7480 -1.1784 -1.2875
 8723SOL    HW237803   3.126   3.583   8.883  1.4818 -2.3479  3.1356
 8724SOL     OW37804   4.165   4.007  13.503 -0.7846  0.3435 -0.5232
 8724SOL    HW137805   4.156   4.017  13.408 -1.2023  3.2333 -0.1569
 8724SOL    HW237806   4.083   4.039  13.540  0.8598 -0.7864  4.0045
 8725SOL     OW37807   4.401   4.112  13.535  0.1239 -0.0148 -0.3040
 8725SOL    HW137808   4.406   4.122  13.440 -0.3174  1.5988 -0.1623
 8725SOL    HW237809   4.319   4.064  13.540  1.1618 -1.6854  0.6175
 8726SOL     OW37810   3.603   4.477  11.655 -0.0218 -0.2501  0.2135
 8726SOL    HW137811   3.512   4.494  11.628  1.0060  4.1626 -0.5007
 8726SOL    HW237812   3.603   4.402  11.714 -0.4843 -0.1207  0.3799
 8727SOL     OW37813   0.062   2.373   2.733 -0.8685 -0.0720  0.0875
 8727SOL    HW137814   0.056   2.453   2.785  0.5298  1.3145 -1.8768
 8727SOL    HW237815   4.730   2.390   2.670 -0.6643  1.7834  0.3531
 8728SOL     OW37816   2.556   0.051   4.677 -0.5714  0.2487 -0.2806
 8728SOL    HW137817   2.626   0.016   4.732 -0.1461 -0.9266 -1.5453
 8728SOL    HW237818   2.586   0.142   4.672 -0.9793  0.3495 -0.9557
 8729SOL     OW37819   2.015   1.782   1.120  0.1815 -0.3514  0.0396
 8729SOL    HW137820   2.107   1.800   1.101  0.4462  0.9005  2.4343
 8729SOL    HW237821   1.991   1.850   1.183  0.6068 -0.0657 -0.1049
 8730SOL     OW37822   0.740   4.417   3.523 -0.4422  0.5158 -0.5928
 8730SOL    HW137823   0.664   4.472   3.540  1.0513  2.6147 -0.7081
 8730SOL    HW237824   0.728   4.356   3.597  3.3665  0.4006 -0.0883
 8731SOL     OW37825   1.688   3.876  13.135 -0.4825 -0.4570 -0.1603
 8731SOL    HW137826   1.659   3.879  13.226 -0.9947 -1.3916 -0.2803
 8731SOL    HW237827   1.618   3.935  13.106 -0.1835  0.2536  0.5725
 8732SOL     OW37828   4.428   2.208   2.044 -0.1637  0.1301  0.0816
 8732SOL    HW137829   4.452   2.270   2.112 -1.4502  0.8348 -0.1051
 8732SOL    HW237830   4.337   2.187   2.068 -0.3072  1.7369  0.9707
 8733SOL     OW37831   0.121   4.305   0.082  0.7833 -0.2290  0.4274
 8733SOL    HW137832   0.142   4.216   0.110 -0.7434 -0.5554  0.5360
 8733SOL    HW237833   0.189   4.317   0.016 -1.6243  2.1366 -1.6140
 8734SOL     OW37834   4.695   2.272   6.551 -0.8853 -0.0151  0.1853
 8734SOL    HW137835   4.712   2.364   6.573  0.4085 -1.2186  4.3048
 8734SOL    HW237836   4.605   2.264   6.583 -1.3150  0.4462 -0.9322
 8735SOL     OW37837   1.041   4.432   4.054 -0.3237 -0.1169 -0.1724
 8735SOL    HW137838   1.036   4.386   4.137  1.4119 -2.0222 -1.1319
 8735SOL    HW237839   1.091   4.369   4.002  1.5904  2.3669 -1.3266
 8736SOL     OW37840   3.561   3.666   9.070 -0.2762  0.1052  0.4221
 8736SOL    HW137841   3.648   3.688   9.036 -0.9984  2.3215  0.0011
 8736SOL    HW237842   3.523   3.652   8.984  2.2332 -0.8336 -0.5376
 8737SOL     OW37843   3.896   3.372   3.603  0.4422 -0.0308  0.2367
 8737SOL    HW137844   3.859   3.373   3.691 -0.0020  3.1947  0.0145
 8737SOL    HW237845   3.964   3.313   3.636  0.2274  0.6297  1.8805
 8738SOL     OW37846   0.937   2.677   3.045  0.1017 -0.7016  0.0200
 8738SOL    HW137847   1.011   2.721   3.086 -0.6582 -0.6290  1.3435
 8738SOL    HW237848   0.864   2.685   3.108 -0.7332  0.2959 -1.0788
 8739SOL     OW37849   0.586   3.216   6.983  0.1976 -0.2138  0.2701
 8739SOL    HW137850   0.543   3.153   7.040  0.5063 -0.4678  0.2223
 8739SOL    HW237851   0.550   3.197   6.896  0.6688  0.8934 -0.1646
 8740SOL     OW37852   1.119   0.586  13.262  0.5134 -0.0202 -0.8209
 8740SOL    HW137853   1.184   0.554  13.324  1.1280  0.5233 -1.1927
 8740SOL    HW237854   1.163   0.590  13.178  3.3128  2.2701  0.7287
 8741SOL     OW37855   2.386   2.995   1.087  0.0565 -0.5042 -0.2363
 8741SOL    HW137856   2.414   2.905   1.074 -4.2361 -1.8203 -0.2988
 8741SOL    HW237857   2.452   3.043   1.137 -2.8763  3.0353  0.2495
 8742SOL     OW37858   2.095   2.947   3.845 -0.0277 -0.3096  0.5191
 8742SOL    HW137859   2.137   2.865   3.873  0.1950 -0.2917  0.2266
 8742SOL    HW237860   2.017   2.920   3.796  1.0383 -0.7131 -0.9588
 8743SOL     OW37861   3.037   1.943   7.110 -0.2835  0.3697 -0.1455
 8743SOL    HW137862   3.028   1.855   7.147 -2.3861  1.1040  1.0495
 8743SOL    HW237863   3.048   1.927   7.017  0.8711 -0.0230  0.0520
 8744SOL     OW37864   2.750   0.381   4.204 -0.3565 -0.6062  0.6008
 8744SOL    HW137865   2.749   0.286   4.210  1.0880 -0.5586  1.4700
 8744SOL    HW237866   2.810   0.402   4.133 -0.1618 -1.6198  0.4789
 8745SOL     OW37867   3.175   4.176   2.572  0.8579 -0.0769  0.2029
 8745SOL    HW137868   3.095   4.228   2.561 -0.0660 -1.4535  0.2547
 8745SOL    HW237869   3.150   4.127   2.650  0.8741  1.1761  0.9768
 8746SOL     OW37870   3.347   0.432  12.951  0.1070  0.6801  0.3632
 8746SOL    HW137871   3.402   0.499  12.990  0.6739  1.2673 -1.4333
 8746SOL    HW237872   3.333   0.380  13.030  1.2370  1.3149  0.9785
 8747SOL     OW37873   4.300   1.638   1.904 -0.1903  0.4241 -1.3078
 8747SOL    HW137874   4.366   1.706   1.890 -0.4497  0.5523 -1.8934
 8747SOL    HW237875   4.232   1.689   1.948  1.2733  2.3065 -1.2371
 8748SOL     OW37876   1.209   3.180   5.330 -0.3353  0.9824 -0.4238
 8748SOL    HW137877   1.121   3.216   5.317 -0.4782  0.6887 -0.2628
 8748SOL    HW237878   1.252   3.181   5.245 -1.0628  1.3592 -0.7848
 8749SOL     OW37879   2.895   2.196   1.957  0.2325 -0.2342  0.3624
 8749SOL    HW137880   2.813   2.163   1.921  0.3013 -0.4662  0.4161
 8749SOL    HW237881   2.904   2.261   1.887  0.5664  0.1825  0.7948
 8750SOL     OW37882   4.080   2.523  12.524 -0.1741  0.6902  0.4457
 8750SOL    HW137883   4.164   2.559  12.553  0.9900  0.7508 -3.0580
 8750SOL    HW237884   4.093   2.492  12.435  0.6413  0.4428  0.6523
 8751SOL     OW37885   0.604   3.890  12.060  0.8314 -0.1385 -0.3761
 8751SOL    HW137886   0.623   3.894  12.154  0.3524 -2.4463 -0.1949
 8751SOL    HW237887   0.511   3.871  12.061  0.6916  0.4524 -1.9942
 8752SOL     OW37888   4.491   1.862   6.635 -0.5401  0.0509  0.2893
 8752SOL    HW137889   4.433   1.900   6.702 -1.2274 -0.3540 -0.0734
 8752SOL    HW237890   4.535   1.791   6.681 -0.0686  0.7046  0.8427
 8753SOL     OW37891   3.709   0.248   3.759 -0.3414 -0.2390  0.4826
 8753SOL    HW137892   3.762   0.264   3.837  0.5825  0.7601 -0.3551
 8753SOL    HW237893   3.680   0.334   3.728  2.1372  1.3261  2.5760
 8754SOL     OW37894   4.368   4.334   6.151  0.1583 -0.7036 -0.2493
 8754SOL    HW137895   4.431   4.344   6.079  0.4044  0.8798  0.1890
 8754SOL    HW237896   4.285   4.366   6.116  0.5941 -0.8058 -1.3744
 8755SOL     OW37897   1.109   0.329   7.759  0.2603 -0.6104  0.0636
 8755SOL    HW137898   1.193   0.291   7.732  0.3566 -0.3098 -0.0566
 8755SOL    HW237899   1.044   0.288   7.702 -1.2255  0.7184  0.8129
 8756SOL     OW37900   2.500   1.108   2.346  0.6241 -0.2855 -0.3857
 8756SOL    HW137901   2.504   1.015   2.367 -0.5868 -0.4759 -1.0162
 8756SOL    HW237902   2.416   1.106   2.301  1.8039 -1.6680 -2.5354
 8757SOL     OW37903   0.327   0.410  16.967  0.6833 -0.4055 -0.0002
 8757SOL    HW137904   0.311   0.423  16.873 -1.3907  0.5378  0.4933
 8757SOL    HW237905   0.337   0.315  16.960  0.0573 -0.4094 -0.8372
 8758SOL     OW37906   1.269   0.374   5.825  0.2501  0.2993 -0.1413
 8758SOL    HW137907   1.231   0.342   5.743 -0.8553  0.5953  0.2568
 8758SOL    HW237908   1.363   0.375   5.807  0.4249 -0.1968  0.7540
 8759SOL     OW37909   0.960   4.696  15.691 -0.4567 -0.2544  0.5793
 8759SOL    HW137910   0.900   4.669  15.621  0.6227 -0.1495 -0.3872
 8759SOL    HW237911   0.944   0.051  15.700  1.9638 -0.1139  3.2392
 8760SOL     OW37912   0.330   2.326  12.097 -0.3892 -0.1225 -0.2913
 8760SOL    HW137913   0.291   2.328  12.185 -0.2184  0.2068 -0.2255
 8760SOL    HW237914   0.404   2.386  12.102 -1.0668  0.6083  0.8363
 8761SOL     OW37915   4.246   0.262  13.967 -0.2356 -0.0638 -0.2216
 8761SOL    HW137916   4.282   0.191  13.914 -0.6915 -0.3423 -0.1637
 8761SOL    HW237917   4.302   0.334  13.940 -1.3373  0.5425 -0.8764
 8762SOL     OW37918   3.228   1.377   2.377 -0.4152  0.2476 -0.6705
 8762SOL    HW137919   3.298   1.429   2.337 -0.0769 -0.4252 -0.9511
 8762SOL    HW237920   3.188   1.439   2.438  0.4386  0.1188  0.0257
 8763SOL     OW37921   0.966   4.042   3.178 -0.4952 -0.1876  0.0722
 8763SOL    HW137922   0.992   3.963   3.226 -0.8141  0.7887  1.8347
 8763SOL    HW237923   0.913   4.089   3.242 -0.3685 -0.9824  0.7584
 8764SOL     OW37924   1.109   1.421   8.811  0.6621  0.0424  0.2773
 8764SOL    HW137925   1.182   1.361   8.825  2.0371  2.2563  2.6602
 8764SOL    HW237926   1.114   1.479   8.887 -1.3304  0.8410 -0.1920
 8765SOL     OW37927   1.104   2.836  10.443 -0.0770  0.3551  0.0884
 8765SOL    HW137928   1.065   2.752  10.465  1.8430 -0.0539  1.8339
 8765SOL    HW237929   1.188   2.796  10.423  0.8896  1.4036  2.1323
 8766SOL     OW37930   4.103   0.389   9.761  0.7492  0.0451 -0.5022
 8766SOL    HW137931   4.145   0.466   9.722  1.8537 -0.3071 -0.0134
 8766SOL    HW237932   4.171   0.362   9.822  0.4164  1.5906  0.5397
 8767SOL     OW37933   1.532   0.038   1.444  0.2998 -0.1078 -0.2276
 8767SOL    HW137934   1.460   0.076   1.495  1.8455 -0.9769  2.6038
 8767SOL    HW237935   1.481   4.722   1.385  2.2492 -2.3771  0.2433
 8768SOL     OW37936   2.295   3.675  17.082  0.4055  0.1945  0.1863
 8768SOL    HW137937   2.358   3.675  17.010  1.2864  0.4097  0.9471
 8768SOL    HW237938   2.242   3.751  17.058  0.9613  0.1905 -1.0485
 8769SOL     OW37939   1.383   2.408   3.324  0.2131 -0.3892 -0.5192
 8769SOL    HW137940   1.317   2.467   3.286  0.0255 -0.3456 -0.1309
 8769SOL    HW237941   1.431   2.477   3.370  1.4001 -1.1076 -0.7043
 8770SOL     OW37942   0.420   3.605  14.898  0.5027  0.2290  0.3183
 8770SOL    HW137943   0.452   3.632  14.984 -1.5510  1.0677  0.8263
 8770SOL    HW237944   0.494   3.549  14.874 -1.1002 -1.4742 -0.6671
 8771SOL     OW37945   4.488   1.118   6.109 -0.6899  0.1466  0.1701
 8771SOL    HW137946   4.396   1.142   6.095 -0.7197 -0.7461 -1.1180
 8771SOL    HW237947   4.539   1.177   6.054 -0.8519 -0.6965 -0.8709
 8772SOL     OW37948   0.539   3.635   6.435  0.1671 -0.1229 -0.9070
 8772SOL    HW137949   0.548   3.691   6.359  1.5169 -1.7731 -1.9570
 8772SOL    HW237950   0.454   3.655   6.474  0.1538  2.4024 -2.2690
 8773SOL     OW37951   0.630   4.564   2.192 -0.1548  0.7781 -0.2500
 8773SOL    HW137952   0.656   4.475   2.214 -1.7564  0.0669 -1.2146
 8773SOL    HW237953   0.539   4.559   2.162 -0.8282  0.4674  1.8299
 8774SOL     OW37954   0.047   2.053  12.693  0.1402  0.0708  0.1796
 8774SOL    HW137955   0.039   2.063  12.788  0.4480 -1.1368  0.3311
 8774SOL    HW237956   0.109   1.981  12.686  1.4267  1.4763 -2.5392
 8775SOL     OW37957   4.380   3.669   2.887  0.0960  0.3180  0.3120
 8775SOL    HW137958   4.349   3.738   2.829 -0.0498 -0.1333 -0.1437
 8775SOL    HW237959   4.465   3.709   2.908 -0.9969  1.9990  1.5960
 8776SOL     OW37960   2.232   3.159  11.765 -0.5350  0.0822  0.0783
 8776SOL    HW137961   2.291   3.143  11.692 -0.3524 -4.6956  1.2536
 8776SOL    HW237962   2.292   3.168  11.840  0.3927 -0.2620 -0.6240
 8777SOL     OW37963   0.258   1.652  15.885  0.0849 -0.4425 -0.0250
 8777SOL    HW137964   0.179   1.624  15.931 -0.2296 -1.5743 -1.2697
 8777SOL    HW237965   0.312   1.574  15.894  0.5254 -0.0293  0.9259
 8778SOL     OW37966   3.624   4.387   6.674  0.2775 -0.2352  0.5778
 8778SOL    HW137967   3.610   4.378   6.768 -1.1254 -0.6186  0.3324
 8778SOL    HW237968   3.711   4.427   6.677 -0.7737  2.0411  0.3980
 8779SOL     OW37969   3.840   1.009   5.549 -0.4203 -0.5958 -0.0476
 8779SOL    HW137970   3.808   1.090   5.509 -0.0298 -0.0272  0.7892
 8779SOL    HW237971   3.844   1.029   5.643 -1.5397 -0.3023 -0.0693
 8780SOL     OW37972   3.821   3.031  16.977  0.1819 -0.3659 -0.6053
 8780SOL    HW137973   3.811   3.110  17.030  1.4306 -0.9764  0.5022
 8780SOL    HW237974   3.732   3.033  16.941 -0.3044 -1.0350  0.5592
 8781SOL     OW37975   0.433   4.005  11.781  0.1088 -0.2291  0.4335
 8781SOL    HW137976   0.385   4.052  11.713  0.2133  3.6066  3.0048
 8781SOL    HW237977   0.468   4.073  11.838 -4.6348  0.4999  2.5058
 8782SOL     OW37978   0.545   0.326   3.902  0.4119  0.0462  0.1275
 8782SOL    HW137979   0.568   0.242   3.942 -1.5302  0.6338  2.4201
 8782SOL    HW237980   0.513   0.304   3.814  0.5447 -2.4755  0.7142
 8783SOL     OW37981   2.340   1.358   9.587 -0.6415  0.1733 -1.0162
 8783SOL    HW137982   2.325   1.451   9.602 -1.4116 -0.0429 -0.4514
 8783SOL    HW237983   2.311   1.310   9.665  1.5096  0.4992 -0.0427
 8784SOL     OW37984   2.196   4.143   3.375 -0.4311 -0.6336 -0.1314
 8784SOL    HW137985   2.261   4.214   3.367 -0.6854 -0.3185  0.5899
 8784SOL    HW237986   2.245   4.075   3.330 -0.2313 -0.0685 -0.7737
 8785SOL     OW37987   4.477   0.536   2.548  0.2687 -0.4937 -0.2229
 8785SOL    HW137988   4.523   0.585   2.616 -0.8331  0.7136 -0.3322
 8785SOL    HW237989   4.414   0.499   2.610  0.5357  0.3295  0.5351
 8786SOL     OW37990   2.046   1.219  14.997 -0.1962 -0.7304  0.2184
 8786SOL    HW137991   1.975   1.179  15.047 -1.1945  0.7690 -0.0117
 8786SOL    HW237992   2.117   1.156  15.006  0.7758  0.4814  1.0785
 8787SOL     OW37993   3.904   1.982   3.527 -0.0601 -0.4275  0.7447
 8787SOL    HW137994   3.921   1.912   3.590  2.4150  1.9974  2.7720
 8787SOL    HW237995   3.915   1.938   3.443  0.2718  0.3006  0.3991
 8788SOL     OW37996   0.173   2.423   5.209  0.5555 -0.0671  0.3062
 8788SOL    HW137997   0.110   2.400   5.141 -0.6760 -0.8152  1.6821
 8788SOL    HW237998   0.107   2.433   5.278  1.6292  1.7016  1.0696
 8789SOL     OW37999   1.521   2.281  15.271 -0.1368  0.5652  0.0158
 8789SOL    HW138000   1.469   2.285  15.351 -0.4350  1.4384 -0.2215
 8789SOL    HW238001   1.483   2.355  15.224  0.5356 -0.2807 -1.9001
 8790SOL     OW38002   0.556   0.623   6.738  0.1231  0.2162  0.0637
 8790SOL    HW138003   0.550   0.712   6.773 -0.0316  0.5305 -0.7540
 8790SOL    HW238004   0.487   0.608   6.673  1.0783 -1.6971 -0.5284
 8791SOL     OW38005   2.912   3.702   8.647  0.0360 -0.3208  0.7928
 8791SOL    HW138006   2.960   3.771   8.693  1.1700  0.7897 -2.0569
 8791SOL    HW238007   2.951   3.623   8.683 -1.5423 -0.6725  1.7350
 8792SOL     OW38008   0.712   2.556  13.455 -0.0088  0.4278 -0.5417
 8792SOL    HW138009   0.703   2.506  13.536 -2.4574  2.0211  0.1395
 8792SOL    HW238010   0.740   2.640  13.492 -1.2300  0.3977  0.4408
 8793SOL     OW38011   3.424   3.653   2.906  0.0885  0.3174  0.2873
 8793SOL    HW138012   3.338   3.627   2.941 -0.0323  0.3598  0.0201
 8793SOL    HW238013   3.467   3.568   2.919 -0.2858  0.0206 -0.4076
 8794SOL     OW38014   2.928   2.674   4.803 -0.3058 -0.0015 -0.1678
 8794SOL    HW138015   2.927   2.639   4.714 -1.3323  0.5328 -0.3631
 8794SOL    HW238016   2.902   2.594   4.850  0.7935  1.4506  2.8740
 8795SOL     OW38017   2.280   3.223   7.715  0.4378 -0.0191 -0.1120
 8795SOL    HW138018   2.281   3.272   7.797  2.1674 -0.4807  0.1410
 8795SOL    HW238019   2.210   3.266   7.666 -0.5502 -1.4108  0.0971
 8796SOL     OW38020   3.593   0.561   5.281 -0.4698  0.0565 -0.0078
 8796SOL    HW138021   3.594   0.480   5.230 -0.0155 -0.5101  0.9000
 8796SOL    HW238022   3.627   0.534   5.366 -2.3442  2.2116  1.4262
 8797SOL     OW38023   0.624   0.763  10.487 -0.1930 -0.2892 -0.5475
 8797SOL    HW138024   0.644   0.804  10.571  1.2574 -1.6664 -0.2111
 8797SOL    HW238025   0.626   0.675  10.524  1.1524  0.9288  2.2920
 8798SOL     OW38026   1.376   4.075  12.541  0.3543  0.0641  0.0378
 8798SOL    HW138027   1.462   4.050  12.577  0.0484 -0.9647  0.0508
 8798SOL    HW238028   1.360   4.023  12.462  0.6097 -0.0346  0.0507
 8799SOL     OW38029   2.053   3.678   4.037 -0.1637  0.2855 -0.0462
 8799SOL    HW138030   2.120   3.739   4.067  0.9593 -0.8009 -0.3470
 8799SOL    HW238031   2.098   3.594   4.047 -2.6306 -1.1281 -0.9227
 8800SOL     OW38032   2.810   2.846  16.720  0.3686  0.5177  0.1797
 8800SOL    HW138033   2.881   2.855  16.656  1.8886 -0.4181  1.7289
 8800SOL    HW238034   2.841   2.901  16.791  0.0511  0.1207  0.6285
 8801SOL     OW38035   2.638   0.908  11.428  0.2391  0.5015  0.4897
 8801SOL    HW138036   2.699   0.944  11.492 -1.3644  1.2403  1.5920
 8801SOL    HW238037   2.608   0.987  11.383 -0.5301  1.8642  3.4169
 8802SOL     OW38038   3.615   3.688   7.422  0.2545 -0.0717 -0.4381
 8802SOL    HW138039   3.646   3.768   7.379  0.5054  1.2596  2.2451
 8802SOL    HW238040   3.693   3.633   7.431 -1.1245 -1.8351  0.8468
 8803SOL     OW38041   1.644   1.364   4.699 -0.5309 -0.6257 -0.4747
 8803SOL    HW138042   1.564   1.365   4.752  0.0547  1.2261  0.3731
 8803SOL    HW238043   1.707   1.401   4.760 -1.7763 -1.3562  1.2690
 8804SOL     OW38044   2.195   0.854   7.325 -0.2250  0.0454  0.2120
 8804SOL    HW138045   2.208   0.870   7.232  0.0410 -0.2142  0.2051
 8804SOL    HW238046   2.183   0.760   7.338  2.1082 -0.1675  0.8367
 8805SOL     OW38047   1.085   1.706   1.695  0.1660 -0.0715  0.2890
 8805SOL    HW138048   1.123   1.753   1.620  1.6358  0.2044  1.2006
 8805SOL    HW238049   1.026   1.642   1.654  1.5107 -0.3336 -1.2906
 8806SOL     OW38050   0.652   1.374   6.582  0.1362 -0.3435  0.4539
 8806SOL    HW138051   0.669   1.344   6.493 -2.2622 -1.8955  0.5153
 8806SOL    HW238052   0.736   1.357   6.623  1.2746  2.4754 -0.7096
 8807SOL     OW38053   4.723   4.008  10.385  0.2902  0.1793 -0.8567
 8807SOL    HW138054   0.036   3.930  10.399 -0.0517 -0.1102 -1.1861
 8807SOL    HW238055   0.005   4.063  10.460 -0.8149  0.8113 -1.0103
 8808SOL     OW38056   3.199   2.146   2.534 -0.2688  0.0691  0.1326
 8808SOL    HW138057   3.243   2.174   2.454  0.1496 -1.3992 -0.1545
 8808SOL    HW238058   3.187   2.053   2.518  1.5120 -0.3985  1.4909
 8809SOL     OW38059   1.166   2.319   5.078 -0.3325 -0.0102  0.2169
 8809SOL    HW138060   1.184   2.323   4.984 -2.9096 -2.2773 -0.3611
 8809SOL    HW238061   1.117   2.402   5.076 -1.7034 -0.8106  0.9436
 8810SOL     OW38062   1.712   4.482   1.245  0.3761 -0.6516 -0.0723
 8810SOL    HW138063   1.638   4.472   1.305 -0.1778 -0.3040 -0.7008
 8810SOL    HW238064   1.793   4.478   1.297  0.4158 -1.2908 -0.1814
 8811SOL     OW38065   4.583   0.527   4.393 -0.0663  0.2939  0.0623
 8811SOL    HW138066   4.511   0.517   4.456 -1.5366 -0.9667 -1.8097
 8811SOL    HW238067   4.600   0.620   4.401 -0.7480  0.4233  0.0327
 8812SOL     OW38068   2.095   1.342   8.539  0.5587 -0.0327 -0.6143
 8812SOL    HW138069   2.046   1.289   8.476 -1.5844  1.1649  0.0603
 8812SOL    HW238070   2.121   1.269   8.595 -0.3682 -1.3183 -1.8418
 8813SOL     OW38071   0.582   3.937   7.117  0.7070  0.3373 -0.3813
 8813SOL    HW138072   0.574   3.908   7.026  0.9847 -1.7508  0.2511
 8813SOL    HW238073   0.669   3.907   7.145  0.4863  0.2026  0.1626
 8814SOL     OW38074   3.167   2.249   4.614  0.2532  0.3146  0.0469
 8814SOL    HW138075   3.238   2.279   4.558  0.7925 -2.1994 -0.6083
 8814SOL    HW238076   3.204   2.161   4.620  0.2297  0.3495  0.7398
 8815SOL     OW38077   1.509   1.993   6.156 -0.0983  0.3973 -0.8253
 8815SOL    HW138078   1.554   1.950   6.084  2.6075  0.4213  0.8228
 8815SOL    HW238079   1.465   1.924   6.205 -0.8082  0.8482 -0.8215
 8816SOL     OW38080   1.713   2.424   4.451  0.2604  0.1564 -0.1007
 8816SOL    HW138081   1.806   2.445   4.444 -0.5583  3.1255 -2.0409
 8816SOL    HW238082   1.711   2.371   4.531 -1.9913 -0.1157 -0.3539
 8817SOL     OW38083   4.489   4.347   8.630 -0.2219 -0.2169  0.2679
 8817SOL    HW138084   4.525   4.321   8.545 -2.0198 -1.5435 -0.0816
 8817SOL    HW238085   4.563   4.393   8.669 -0.7540 -0.3037  1.3895
 8818SOL     OW38086   2.392   2.596  16.008  0.0396 -0.8809 -0.3983
 8818SOL    HW138087   2.319   2.619  16.065  1.3810  1.9692  0.1309
 8818SOL    HW238088   2.441   2.677  16.020 -1.3679  0.0788 -1.0429
 8819SOL     OW38089   2.272   3.975  13.388 -0.4919 -0.1024  0.0743
 8819SOL    HW138090   2.354   3.953  13.345 -0.4801  0.1956 -0.0564
 8819SOL    HW238091   2.309   4.038  13.450  3.3523 -0.9123 -1.4540
 8820SOL     OW38092   1.831   0.512   2.933  0.0750  0.3893 -0.5343
 8820SOL    HW138093   1.762   0.576   2.914  1.3638  2.2144  0.8886
 8820SOL    HW238094   1.810   0.478   3.020  1.8556 -0.9207 -0.6260
 8821SOL     OW38095   3.366   3.883   5.560 -0.3398 -0.1128  0.4443
 8821SOL    HW138096   3.388   3.976   5.561  0.7740 -0.3599 -1.5300
 8821SOL    HW238097   3.392   3.864   5.470 -0.9351  1.3032 -0.0282
 8822SOL     OW38098   2.343   1.364   7.618  0.7954 -0.1788  0.2391
 8822SOL    HW138099   2.387   1.380   7.534 -1.8423  1.2651 -0.8514
 8822SOL    HW238100   2.374   1.281   7.653  1.0901  0.9246  2.5960
 8823SOL     OW38101   3.005   3.629  10.118 -0.7712 -0.7849  0.3627
 8823SOL    HW138102   3.022   3.715  10.157 -1.1164 -0.2128 -0.7668
 8823SOL    HW238103   2.918   3.652  10.084 -0.3458  1.1567  0.5738
 8824SOL     OW38104   3.037   1.596   4.311 -0.0569  0.4690 -0.0036
 8824SOL    HW138105   2.988   1.516   4.330  2.7716 -0.6646  2.5981
 8824SOL    HW238106   3.014   1.657   4.382 -0.0078  3.5799 -2.6262
 8825SOL     OW38107   2.880   3.445   6.733  0.5364 -0.5797 -0.2546
 8825SOL    HW138108   2.932   3.412   6.659 -2.1199 -1.3521 -1.7888
 8825SOL    HW238109   2.915   3.534   6.729  0.9596 -0.7723 -0.9179
 8826SOL     OW38110   3.973   2.197   8.953  0.0333  0.3083 -0.3013
 8826SOL    HW138111   3.883   2.225   8.935 -0.0535  0.4559  0.3706
 8826SOL    HW238112   4.024   2.214   8.874  0.9363  0.0278  0.2210
 8827SOL     OW38113   2.663   0.741   4.744  0.3102 -0.1954 -0.3807
 8827SOL    HW138114   2.594   0.808   4.744 -0.0830 -0.5991  0.7312
 8827SOL    HW238115   2.707   0.747   4.659  2.0439 -2.6844  0.3559
 8828SOL     OW38116   3.405   3.565   6.187  0.2721  0.2722  0.1883
 8828SOL    HW138117   3.395   3.612   6.104  1.1223  0.0136 -0.0603
 8828SOL    HW238118   3.401   3.471   6.169  0.4023  1.0193 -3.6457
 8829SOL     OW38119   0.067   1.276   7.731  0.1068  0.5538  0.1931
 8829SOL    HW138120   0.041   1.299   7.820  1.2620  0.9560  0.4201
 8829SOL    HW238121   0.133   1.340   7.705  2.1901 -1.8403 -0.4222
 8830SOL     OW38122   4.480   3.152   1.687  0.1767  0.2168 -0.2382
 8830SOL    HW138123   4.419   3.132   1.758 -0.1805  1.4000 -0.2059
 8830SOL    HW238124   4.419   3.190   1.623  0.1208  1.4515  0.5610
 8831SOL     OW38125   2.960   0.016   1.825 -0.4486  0.2030  0.0995
 8831SOL    HW138126   2.913   0.067   1.758  1.5653 -0.1859 -1.6224
 8831SOL    HW238127   2.968   4.670   1.782 -1.0194  0.3822 -0.3644
 8832SOL     OW38128   1.971   3.834  14.735 -0.0265  0.3846 -0.2034
 8832SOL    HW138129   1.899   3.888  14.701  0.0694  0.6285 -0.0153
 8832SOL    HW238130   2.013   3.891  14.799  2.2348  0.8382 -2.0729
 8833SOL     OW38131   0.076   0.280  11.744  0.0023 -0.3673 -0.7219
 8833SOL    HW138132   0.051   0.351  11.685 -1.2077  2.0536  2.6883
 8833SOL    HW238133   0.050   0.316  11.828  1.7416  1.4958 -0.9895
 8834SOL     OW38134   3.717   3.304   2.696 -0.4003 -0.0112 -0.7296
 8834SOL    HW138135   3.767   3.306   2.614  0.1633 -2.8255 -0.4834
 8834SOL    HW238136   3.650   3.239   2.677  0.2270 -0.3496 -1.7753
 8835SOL     OW38137   3.084   2.504   6.394 -0.5659  0.2272 -0.6362
 8835SOL    HW138138   3.072   2.424   6.342  2.4993 -1.2175  0.8496
 8835SOL    HW238139   3.179   2.507   6.402 -0.6417  1.8377 -0.4638
 8836SOL     OW38140   3.810   3.885   2.900 -0.2824  0.5310  0.4995
 8836SOL    HW138141   3.884   3.824   2.908  0.6699  1.2293 -2.8850
 8836SOL    HW238142   3.848   3.956   2.952  3.3799 -0.8340 -0.3240
 8837SOL     OW38143   4.218   2.989   8.912 -0.5687 -0.5269 -0.0085
 8837SOL    HW138144   4.299   3.039   8.919 -1.8162  0.8684  4.2057
 8837SOL    HW238145   4.163   3.040   8.972 -1.6940 -1.4201 -0.2670
 8838SOL     OW38146   2.490   2.393   2.534 -0.4779 -0.3655  0.6307
 8838SOL    HW138147   2.408   2.435   2.507 -0.7386  1.1400  3.7044
 8838SOL    HW238148   2.493   2.317   2.477  0.5734  0.2819 -0.1655
 8839SOL     OW38149   3.808   1.174   3.163  0.2239  0.0993  0.5357
 8839SOL    HW138150   3.797   1.255   3.113 -0.9247 -2.0017 -2.6234
 8839SOL    HW238151   3.816   1.108   3.094  0.0283  0.5749  0.0572
 8840SOL     OW38152   3.786   0.877  13.263 -0.3796  0.0503 -0.1183
 8840SOL    HW138153   3.806   0.809  13.199  0.6102  0.4236 -0.2110
 8840SOL    HW238154   3.715   0.835  13.310  0.4624  1.0674  2.0730
 8841SOL     OW38155   1.472   3.470  16.386  0.3074  0.1094  0.4342
 8841SOL    HW138156   1.530   3.546  16.391 -0.6653  0.9816 -1.5369
 8841SOL    HW238157   1.535   3.404  16.355  0.1199 -0.5155  1.3683
 8842SOL     OW38158   2.260   2.603  17.081  0.1049 -0.1402 -0.0090
 8842SOL    HW138159   2.349   2.626  17.107  0.4412 -0.0850 -1.1935
 8842SOL    HW238160   2.222   2.672  17.025  2.1431  0.7343 -0.3254
 8843SOL     OW38161   2.690   1.923   6.743 -0.0702  0.3149  0.4774
 8843SOL    HW138162   2.679   2.017   6.730  3.6541  0.2595 -2.9588
 8843SOL    HW238163   2.618   1.893   6.688  1.1575  1.0676 -1.5370
 8844SOL     OW38164   0.123   4.164   6.849 -0.3697 -0.3639 -0.2912
 8844SOL    HW138165   0.058   4.155   6.919  1.3520 -0.2931  1.3242
 8844SOL    HW238166   0.179   4.090   6.874 -1.0371 -0.8756 -0.3070
 8845SOL     OW38167   2.444   1.664   8.747 -0.0219 -0.5105 -0.1622
 8845SOL    HW138168   2.386   1.658   8.823  0.2407  3.5567  0.3308
 8845SOL    HW238169   2.394   1.719   8.687  1.3672  0.5629 -0.3399
 8846SOL     OW38170   1.317   1.677   1.245  0.6640 -0.1672 -0.2686
 8846SOL    HW138171   1.405   1.652   1.272  1.5382  4.3963  1.2178
 8846SOL    HW238172   1.326   1.746   1.179 -2.2911  0.8227  0.3590
 8847SOL     OW38173   0.683   4.149   1.216 -0.0786  0.0754 -0.1155
 8847SOL    HW138174   0.694   4.062   1.254 -1.7847 -0.4802 -0.8850
 8847SOL    HW238175   0.718   4.203   1.287  0.6695 -1.5650  0.7498
 8848SOL     OW38176   1.605   0.110   8.822  0.1346  0.4231  0.4683
 8848SOL    HW138177   1.672   0.044   8.838 -0.8282 -0.5475  0.4785
 8848SOL    HW238178   1.532   0.085   8.878  0.8852  0.1270  1.3188
 8849SOL     OW38179   3.346   0.801   3.094  0.7747  0.0724  0.5637
 8849SOL    HW138180   3.401   0.802   3.172  2.3594  0.5323 -0.5608
 8849SOL    HW238181   3.302   0.885   3.103 -0.0565 -0.5031  1.7341
 8850SOL     OW38182   1.786   2.529   9.631  0.9115  0.6478  0.0217
 8850SOL    HW138183   1.764   2.544   9.539  0.9898  1.0479  0.0662
 8850SOL    HW238184   1.705   2.569   9.661 -0.2515 -1.5203 -0.2603
 8851SOL     OW38185   0.096   0.566   8.566  0.6358  0.2067 -0.3660
 8851SOL    HW138186   0.110   0.592   8.658 -1.6658 -0.5770  0.1995
 8851SOL    HW238187   0.125   0.647   8.524 -0.2627  0.3778 -0.6510
 8852SOL     OW38188   0.295   2.979   7.613 -0.1975 -0.1326  0.3390
 8852SOL    HW138189   0.284   2.964   7.519 -0.4524  0.4839  0.2740
 8852SOL    HW238190   0.225   3.042   7.629 -0.6309  0.0080 -2.1109
 8853SOL     OW38191   4.427   2.758   5.017  0.1699  0.4287 -0.1018
 8853SOL    HW138192   4.344   2.720   4.988 -0.1562 -0.7599  2.4767
 8853SOL    HW238193   4.413   2.845   4.978  0.6176  0.2510 -0.6711
 8854SOL     OW38194   4.507   2.113   3.206  0.1032  0.1011  0.5708
 8854SOL    HW138195   4.483   2.188   3.152 -0.4860 -0.2645  0.3161
 8854SOL    HW238196   4.545   2.061   3.136 -1.2700 -1.1326  0.7327
 8855SOL     OW38197   2.516   1.136   8.813  0.4882 -0.2136 -0.5982
 8855SOL    HW138198   2.565   1.219   8.809 -2.1482  1.3336 -0.8965
 8855SOL    HW238199   2.499   1.133   8.907  1.4509  1.1574 -0.3679
 8856SOL     OW38200   2.142   1.539   0.888 -0.0233 -0.8705 -0.2288
 8856SOL    HW138201   2.185   1.579   0.963  1.7560 -1.9582 -0.6642
 8856SOL    HW238202   2.051   1.563   0.902 -0.0598 -1.2877  0.2484
 8857SOL     OW38203   2.992   2.043  17.702 -0.3668  0.0171  0.0367
 8857SOL    HW138204   3.054   1.983  17.663 -0.3964  0.2656 -0.3865
 8857SOL    HW238205   2.930   1.979  17.739 -0.3831 -0.5718 -1.0167
 8858SOL     OW38206   4.485   1.129   5.131  0.2936 -0.1158 -0.3559
 8858SOL    HW138207   4.562   1.077   5.154 -0.4679 -0.3001  1.8244
 8858SOL    HW238208   4.421   1.084   5.187  0.4414 -1.4543 -1.2698
 8859SOL     OW38209   1.267   1.501   5.247  0.4037 -0.3911 -0.5792
 8859SOL    HW138210   1.213   1.579   5.262  1.5559  0.3217 -0.1440
 8859SOL    HW238211   1.284   1.504   5.153  1.6983 -1.0608 -0.3664
 8860SOL     OW38212   4.392   4.364   2.972  0.3027 -0.2759 -0.5480
 8860SOL    HW138213   4.318   4.425   2.966  0.8133  0.6427  2.5659
 8860SOL    HW238214   4.466   4.422   2.989 -1.1831  1.3215  0.4418
 8861SOL     OW38215   4.393   3.208   8.309  0.3604 -0.6066 -0.0014
 8861SOL    HW138216   4.458   3.202   8.378  1.5451  2.1583 -0.9027
 8861SOL    HW238217   4.389   3.120   8.273 -0.4598 -0.9291  0.8737
 8862SOL     OW38218   3.937   3.142  11.365 -0.1128 -0.9543  0.5190
 8862SOL    HW138219   3.970   3.129  11.454  0.7483 -2.3774  0.0004
 8862SOL    HW238220   3.979   3.065  11.325  2.7821  1.1294 -0.4558
 8863SOL     OW38221   4.451   0.709   8.501  0.0444  0.2431 -0.4587
 8863SOL    HW138222   4.434   0.777   8.436  0.5444  0.4436 -0.3780
 8863SOL    HW238223   4.520   0.752   8.550 -0.8911  0.5431  0.5999
 8864SOL     OW38224   1.955   1.911   3.455 -0.8524  0.1110 -0.0300
 8864SOL    HW138225   1.876   1.859   3.465 -0.5759 -0.2460  0.3216
 8864SOL    HW238226   2.009   1.843   3.414 -0.4976  0.4510 -0.1313
 8865SOL     OW38227   4.307   2.010   3.666 -1.1696 -0.0612 -0.5234
 8865SOL    HW138228   4.308   2.102   3.637  2.3189 -0.2976 -1.1946
 8865SOL    HW238229   4.316   1.956   3.588 -2.6312 -0.3203 -0.5071
 8866SOL     OW38230   0.576   1.832   1.253  0.5348  0.1871 -0.2164
 8866SOL    HW138231   0.529   1.771   1.310 -0.7096  0.2674 -1.1548
 8866SOL    HW238232   0.506   1.872   1.200 -0.4223 -0.5225  0.5164
 8867SOL     OW38233   0.924   1.987   3.698  0.0297 -0.2982  0.7355
 8867SOL    HW138234   0.910   1.892   3.703 -0.6137 -0.2742 -0.6511
 8867SOL    HW238235   0.833   2.014   3.689 -0.3207 -1.6124  0.2361
 8868SOL     OW38236   3.936   1.768   5.092 -0.5018  0.8328 -0.5676
 8868SOL    HW138237   3.882   1.828   5.144 -0.9581  0.3837 -0.5265
 8868SOL    HW238238   3.886   1.784   5.012 -2.6103 -3.0651  0.0085
 8869SOL     OW38239   0.168   2.349   1.740 -0.4986 -0.2055 -0.2036
 8869SOL    HW138240   0.124   2.370   1.822  0.8824 -0.3472  0.5678
 8869SOL    HW238241   0.198   2.264   1.771  0.4617 -0.1973 -1.1042
 8870SOL     OW38242   2.736   0.625  10.645  0.3416 -0.5707  0.1913
 8870SOL    HW138243   2.673   0.642  10.575  0.9670 -1.6117 -0.6184
 8870SOL    HW238244   2.787   0.705  10.634 -0.7696  0.1109  0.0170
 8871SOL     OW38245   3.458   0.077   8.804 -0.6824  0.4547 -0.8064
 8871SOL    HW138246   3.371   0.104   8.833 -0.4631  1.2350 -0.8543
 8871SOL    HW238247   3.496   0.156   8.763 -2.5324  0.8720 -1.7313
 8872SOL     OW38248   3.570   2.067   7.226 -0.0725  0.1507  0.0651
 8872SOL    HW138249   3.583   1.985   7.177  0.1814 -0.4558  1.1468
 8872SOL    HW238250   3.552   2.040   7.316  1.5936 -1.1641  0.0121
 8873SOL     OW38251   2.447   3.924   5.665 -0.2856  0.0126  0.4381
 8873SOL    HW138252   2.538   3.949   5.681 -0.4307  1.5987 -1.2196
 8873SOL    HW238253   2.427   3.894   5.754 -0.6512  0.7303  0.5994
 8874SOL     OW38254   2.813   4.499   8.415  0.4790  0.1168 -0.0402
 8874SOL    HW138255   2.872   4.428   8.442 -0.6563 -1.2373 -1.0909
 8874SOL    HW238256   2.851   4.545   8.340 -0.5487 -0.4239 -0.9096
 8875SOL     OW38257   0.723   0.435   1.873  0.1068 -0.5067  0.4129
 8875SOL    HW138258   0.805   0.463   1.915  0.2375 -1.6961  0.9498
 8875SOL    HW238259   0.662   0.438   1.946 -1.2000  0.1860 -0.7082
 8876SOL     OW38260   4.526   1.822   8.356 -0.1244  0.3980  0.2507
 8876SOL    HW138261   4.475   1.771   8.419  0.0684  0.0892  0.1580
 8876SOL    HW238262   4.610   1.793   8.392 -0.7541 -1.1080  0.5006
 8877SOL     OW38263   0.029   4.459   1.852  0.1838 -0.2568  0.0561
 8877SOL    HW138264   4.737   4.471   1.942  1.3238  2.0283  0.1453
 8877SOL    HW238265   0.038   4.364   1.848 -0.8009 -0.2897 -1.2834
 8878SOL     OW38266   3.945   1.549   3.286  0.1737 -0.0842  0.0278
 8878SOL    HW138267   4.020   1.606   3.268  0.2400 -0.1878 -0.0248
 8878SOL    HW238268   3.906   1.522   3.203  0.5381  0.7462 -0.4146
 8879SOL     OW38269   3.890   4.340   6.581 -0.2120  0.6222 -0.4564
 8879SOL    HW138270   3.897   4.417   6.638 -1.0607 -0.3599  0.9734
 8879SOL    HW238271   3.961   4.285   6.614  0.9592  1.0114 -2.2838
 8880SOL     OW38272   3.318   3.097   2.869  0.2923 -0.1379  0.2861
 8880SOL    HW138273   3.297   3.118   2.959  1.1647 -1.3431  0.7743
 8880SOL    HW238274   3.235   3.103   2.822 -0.2988 -2.2947  1.0866
 8881SOL     OW38275   2.483   0.634   3.882  0.3325  0.1592  0.5836
 8881SOL    HW138276   2.543   0.587   3.940 -0.1449  1.0884  1.8386
 8881SOL    HW238277   2.444   0.555   3.845 -1.2409  0.0351  2.5158
 8882SOL     OW38278   3.922   2.019  12.000  0.0189  0.1778 -0.2407
 8882SOL    HW138279   3.860   1.948  11.982  0.7720 -0.6914  0.5898
 8882SOL    HW238280   3.862   2.089  12.026  1.8708  1.8912 -0.5795
 8883SOL     OW38281   4.427   1.822   4.099 -0.3399  0.0771  0.2640
 8883SOL    HW138282   4.520   1.844   4.088 -0.2429  0.7053  2.2486
 8883SOL    HW238283   4.389   1.847   4.015  0.4437 -0.1072 -0.1495
 8884SOL     OW38284   0.240   4.131   2.982  0.4732  0.2709  0.4484
 8884SOL    HW138285   0.158   4.146   3.029 -0.8159  1.2351 -2.1262
 8884SOL    HW238286   0.251   4.037   2.997 -1.1702 -0.0024 -0.0643
 8885SOL     OW38287   2.867   4.199   5.123 -0.7742  0.1123  0.5100
 8885SOL    HW138288   2.932   4.210   5.193  0.2335  2.6281 -0.8232
 8885SOL    HW238289   2.911   4.244   5.051  1.0500 -0.9025  0.9804
 8886SOL     OW38290   2.129   1.972   0.516 -0.5809 -0.3319 -0.3644
 8886SOL    HW138291   2.189   1.969   0.441 -3.7294  0.8057 -2.9366
 8886SOL    HW238292   2.059   2.024   0.477 -0.4856 -0.0499 -0.1620
 8887SOL     OW38293   2.540   0.774  11.087 -0.0583  0.6873 -0.0090
 8887SOL    HW138294   2.562   0.709  11.020 -2.7033  0.7350 -0.9147
 8887SOL    HW238295   2.626   0.812  11.106  0.2894 -1.0880  2.0379
 8888SOL     OW38296   0.035   4.393  12.981 -0.6650 -0.7261  0.6668
 8888SOL    HW138297   0.127   4.402  13.006 -1.0752 -0.6174  2.1320
 8888SOL    HW238298   0.004   4.471  13.028  1.7677  1.1766 -0.8603
 8889SOL     OW38299   1.756   3.068   5.299 -0.8346 -0.0717  0.2227
 8889SOL    HW138300   1.689   3.081   5.366 -0.0187  2.1656  0.6310
 8889SOL    HW238301   1.758   2.973   5.299  0.5729 -0.0400 -2.2173
 8890SOL     OW38302   1.841   0.509   1.072 -0.2438 -0.1960  0.6191
 8890SOL    HW138303   1.825   0.516   0.978 -0.2457  1.8861  0.7833
 8890SOL    HW238304   1.781   0.575   1.105 -0.0464  0.0099  0.5669
 8891SOL     OW38305   1.144   0.744   8.909 -0.1622 -0.7524 -0.6784
 8891SOL    HW138306   1.135   0.726   9.002  0.4462  2.0777 -0.0743
 8891SOL    HW238307   1.239   0.752   8.898 -0.2232 -0.1547 -0.7589
 8892SOL     OW38308   0.818   2.252  14.824 -0.0857 -0.2562  0.5123
 8892SOL    HW138309   0.790   2.160  14.818 -0.0840 -0.2981  1.1897
 8892SOL    HW238310   0.913   2.248  14.815 -0.1713  0.2429 -0.6114
 8893SOL     OW38311   2.924   1.090  17.567  0.1883 -0.3773 -0.3495
 8893SOL    HW138312   2.872   1.170  17.578  1.2042  0.1540  0.5709
 8893SOL    HW238313   2.939   1.099  17.472  1.2123  0.1616 -0.1438
 8894SOL     OW38314   0.133   4.665   8.232 -0.2502 -0.6639  0.2806
 8894SOL    HW138315   0.226   4.648   8.220 -0.2265 -1.0161  0.9742
 8894SOL    HW238316   0.140   4.734   8.298 -2.2670 -0.4649  0.3013
 8895SOL     OW38317   2.360   1.747  14.754 -0.0558  0.3404 -0.3260
 8895SOL    HW138318   2.272   1.715  14.772  0.3482 -2.2681 -2.9795
 8895SOL    HW238319   2.364   1.745  14.658 -0.4617  1.9737 -0.3697
 8896SOL     OW38320   2.358   3.125   2.926 -0.4775  0.2182  0.4425
 8896SOL    HW138321   2.357   3.220   2.935 -0.0508  0.4911 -2.3451
 8896SOL    HW238322   2.301   3.104   3.000 -3.2037  1.6915 -1.2392
 8897SOL     OW38323   4.009   2.302   2.737 -0.0156  0.3144  0.0441
 8897SOL    HW138324   3.936   2.360   2.758 -0.3231  0.9147 -2.7143
 8897SOL    HW238325   4.078   2.364   2.713 -0.1603  0.1776 -0.7306
 8898SOL     OW38326   1.056   1.009   9.574  0.0434 -0.3674 -0.2444
 8898SOL    HW138327   0.963   1.008   9.596 -0.1009  2.9144 -0.6760
 8898SOL    HW238328   1.093   1.089   9.610  1.9179 -2.6610  2.9209
 8899SOL     OW38329   1.026   2.978  14.838  0.1603  0.0409  0.5296
 8899SOL    HW138330   1.016   3.062  14.884 -0.9067  1.2382 -1.9392
 8899SOL    HW238331   1.053   2.923  14.912 -0.5604 -1.2225 -0.1523
 8900SOL     OW38332   1.890   0.084   2.957  0.6301  0.0154 -0.5039
 8900SOL    HW138333   1.859   0.133   2.880 -0.4844 -1.7803 -1.2130
 8900SOL    HW238334   1.953   0.018   2.925  0.4210 -0.4952  0.1454
 8901SOL     OW38335   2.340   0.338   6.972 -0.1211  0.3981  0.8805
 8901SOL    HW138336   2.427   0.378   6.970  0.7547 -1.4932  0.1337
 8901SOL    HW238337   2.361   0.244   6.976 -0.4897  0.3863  2.4395
 8902SOL     OW38338   1.366   4.624   6.226  0.5525 -0.1911  0.7674
 8902SOL    HW138339   1.359   4.663   6.138  3.2856 -0.7959  0.2636
 8902SOL    HW238340   1.307   4.685   6.270 -2.9061 -1.8307 -1.6140
 8903SOL     OW38341   4.173   3.351  12.049 -0.2012 -0.4515 -0.1262
 8903SOL    HW138342   4.153   3.327  12.140  1.7749 -1.8649 -0.0486
 8903SOL    HW238343   4.138   3.439  12.041 -0.1122 -0.6522 -2.6786
 8904SOL     OW38344   1.445   4.149   0.841  0.3647 -0.6755  0.0599
 8904SOL    HW138345   1.401   4.210   0.900 -0.0759 -1.0539  0.1188
 8904SOL    HW238346   1.511   4.208   0.804 -1.5112  0.3397 -1.6642
 8905SOL     OW38347   4.509   2.028   9.885 -0.0829  0.5016 -0.1631
 8905SOL    HW138348   4.550   2.085   9.819 -1.3105  1.7987  0.1812
 8905SOL    HW238349   4.419   2.017   9.855  0.0351 -1.6045  0.2274
 8906SOL     OW38350   4.097   0.908   8.101  0.4087 -0.3060  0.5673
 8906SOL    HW138351   4.030   0.976   8.111 -0.1897 -0.9062  0.6640
 8906SOL    HW238352   4.174   0.935   8.151 -0.4199  1.3712  0.9356
 8907SOL     OW38353   0.286   1.914   8.149 -0.4436 -0.2954 -0.0820
 8907SOL    HW138354   0.330   1.973   8.211  0.6861 -0.3569 -0.8432
 8907SOL    HW238355   0.365   1.874   8.115  0.9443  2.3156  0.0326
 8908SOL     OW38356   1.425   4.216  14.021  0.5014 -0.0012  0.6188
 8908SOL    HW138357   1.349   4.274  14.018  1.0242  0.7764  2.7335
 8908SOL    HW238358   1.452   4.211  13.929 -0.9068  0.0771  0.1948
 8909SOL     OW38359   2.691   1.146   3.237 -0.0681  0.1444 -0.1758
 8909SOL    HW138360   2.622   1.132   3.173 -0.7500  0.1593  0.5528
 8909SOL    HW238361   2.635   1.129   3.313 -0.6295  0.8833 -0.4264
 8910SOL     OW38362   1.865   3.623   8.405 -0.2746 -0.4238  0.0650
 8910SOL    HW138363   1.877   3.694   8.343 -0.0530 -1.3392 -0.9281
 8910SOL    HW238364   1.770   3.616   8.398 -0.3286  0.4640 -0.0998
 8911SOL     OW38365   2.685   0.367   5.196 -0.1829 -0.8138  0.1196
 8911SOL    HW138366   2.639   0.363   5.112  2.3525  1.0824 -1.3527
 8911SOL    HW238367   2.753   0.302   5.178  0.8504  0.4459 -0.5551
 8912SOL     OW38368   1.503   4.335   7.297  0.2392  0.2200 -0.2759
 8912SOL    HW138369   1.524   4.389   7.222  1.1328 -1.0232 -0.9193
 8912SOL    HW238370   1.461   4.265   7.247  0.4842 -1.0137  1.2106
 8913SOL     OW38371   1.818   0.836   4.264 -0.5161  0.0209 -0.3330
 8913SOL    HW138372   1.802   0.910   4.205  2.3913  3.0428  2.6807
 8913SOL    HW238373   1.799   0.886   4.343  0.8113  0.1895 -0.1306
 8914SOL     OW38374   0.124   3.724   2.268  0.2303  0.0106  0.4795
 8914SOL    HW138375   0.065   3.665   2.221  0.0685  0.5912 -0.0375
 8914SOL    HW238376   0.188   3.746   2.201  2.4250  0.2609  2.6700
 8915SOL     OW38377   1.932   3.064   8.900 -0.1722 -0.2905  1.1649
 8915SOL    HW138378   1.999   3.098   8.958 -0.2341 -1.3114  1.8404
 8915SOL    HW238379   1.869   3.027   8.962  1.4754 -3.9213  0.6535
 8916SOL     OW38380   2.371   4.050   3.916  0.3709 -0.3724  1.0704
 8916SOL    HW138381   2.416   4.108   3.977 -0.2051  2.8091 -1.5444
 8916SOL    HW238382   2.307   4.112   3.880  2.0240  0.6600 -0.0986
 8917SOL     OW38383   3.150   3.001   1.687  0.6235  0.0213  0.1421
 8917SOL    HW138384   3.208   3.028   1.759  0.0029  1.3007  0.1700
 8917SOL    HW238385   3.209   2.955   1.627  0.1049 -0.5444  0.0695
 8918SOL     OW38386   4.174   2.908   3.774 -0.1998 -0.0495 -1.0226
 8918SOL    HW138387   4.176   2.866   3.688 -0.6397 -0.7078 -0.7184
 8918SOL    HW238388   4.093   2.867   3.804 -1.3129  3.2796  0.4628
 8919SOL     OW38389   0.160   1.889  11.089  0.1780 -0.0623 -0.0235
 8919SOL    HW138390   0.183   1.827  11.019 -0.7369  1.0890 -1.3335
 8919SOL    HW238391   0.165   1.834  11.167 -2.4080 -1.4249 -0.7949
 8920SOL     OW38392   4.053   1.917   3.954 -0.0552  0.2444 -0.0565
 8920SOL    HW138393   4.020   1.958   3.873  0.2903  1.9759  0.6711
 8920SOL    HW238394   4.016   1.829   3.954  0.0724  0.1912 -0.1228
 8921SOL     OW38395   1.499   0.829   7.363  0.6255  0.4363 -0.3818
 8921SOL    HW138396   1.575   0.871   7.404  1.0524 -0.2362 -0.4946
 8921SOL    HW238397   1.450   0.818   7.444  1.0213  1.4574 -0.0020
 8922SOL     OW38398   1.363   0.728   8.051  0.1293 -0.4416 -0.2882
 8922SOL    HW138399   1.357   0.664   7.980 -1.5505 -1.4549  0.7737
 8922SOL    HW238400   1.320   0.800   8.004 -1.7457 -0.9116  0.7111
 8923SOL     OW38401   4.035   1.135  17.694 -0.3329  0.1202  0.3288
 8923SOL    HW138402   3.999   1.165  17.611 -1.0489 -0.8302  0.3032
 8923SOL    HW238403   4.010   1.197   0.010  1.2740  1.3004 -0.1540
 8924SOL     OW38404   3.915   0.836   2.639  0.2708 -0.1654 -0.8094
 8924SOL    HW138405   3.914   0.789   2.555  0.1065 -1.4670 -0.0728
 8924SOL    HW238406   3.821   0.856   2.640  0.1537 -0.6848 -1.0808
 8925SOL     OW38407   4.177   0.748   5.147  0.4537 -0.1424 -0.2931
 8925SOL    HW138408   4.245   0.741   5.080  1.4964  2.6551  0.4850
 8925SOL    HW238409   4.221   0.740   5.231 -2.3028 -1.8221  0.9863
 8926SOL     OW38410   3.741   3.391  15.445 -0.0641  0.1620 -0.3279
 8926SOL    HW138411   3.819   3.419  15.493  0.2193  0.8159 -1.1626
 8926SOL    HW238412   3.754   3.296  15.453 -2.2848  0.0295  1.7701
 8927SOL     OW38413   1.865   2.316  15.694  0.4584  0.8932  0.0403
 8927SOL    HW138414   1.823   2.231  15.699  0.1601  0.9874 -0.9347
 8927SOL    HW238415   1.841   2.334  15.604  0.7264 -2.3908 -0.6648
 8928SOL     OW38416   3.288   4.220   5.246 -0.2983 -0.1620  0.3905
 8928SOL    HW138417   3.231   4.292   5.274 -0.8447  0.1822 -1.6580
 8928SOL    HW238418   3.363   4.267   5.208 -2.3092  2.0635 -0.8101
 8929SOL     OW38419   2.251   0.914   9.464  0.0071  0.0955  0.4010
 8929SOL    HW138420   2.176   0.972   9.446  0.9901  2.0501  2.6042
 8929SOL    HW238421   2.215   0.840   9.512  0.6328 -2.3026 -2.8593
 8930SOL     OW38422   3.537   2.191  12.909 -0.0935 -0.2160  0.0188
 8930SOL    HW138423   3.618   2.221  12.866 -0.4143 -2.3436 -2.1178
 8930SOL    HW238424   3.546   2.236  12.992  1.9498 -2.1588  0.8573
 8931SOL     OW38425   0.681   0.959   5.043  0.3265 -0.2789 -0.4742
 8931SOL    HW138426   0.597   0.976   5.001 -0.3096 -1.7819  0.1929
 8931SOL    HW238427   0.705   0.870   5.019 -2.0345 -0.8347 -0.6975
 8932SOL     OW38428   3.507   0.147   4.284  0.1703  0.3251 -0.2297
 8932SOL    HW138429   3.436   0.187   4.334 -0.7355 -0.0923 -1.1845
 8932SOL    HW238430   3.452   0.122   4.210  1.1825 -0.7585 -0.6227
 8933SOL     OW38431   2.201   0.301   3.787 -0.1316  0.1089 -0.2369
 8933SOL    HW138432   2.110   0.313   3.816  0.1930 -2.1849  1.6885
 8933SOL    HW238433   2.204   0.366   3.717 -0.2559 -0.4239 -0.7392
 8934SOL     OW38434   0.531   3.220  11.298  0.4982 -0.2067 -0.0382
 8934SOL    HW138435   0.457   3.280  11.300  0.9753  0.3457  1.0994
 8934SOL    HW238436   0.501   3.150  11.240  2.5361 -0.4273 -0.8382
 8935SOL     OW38437   0.956   4.217   3.688 -0.8376  0.0658 -0.1813
 8935SOL    HW138438   0.998   4.272   3.622  1.0681 -1.6364 -0.3731
 8935SOL    HW238439   0.920   4.149   3.632  0.8541 -0.5564 -0.5031
 8936SOL     OW38440   0.460   2.935   3.296 -0.0645  0.1339  0.2741
 8936SOL    HW138441   0.511   2.891   3.364 -0.8877  0.1823  0.9256
 8936SOL    HW238442   0.402   2.993   3.344 -0.5132 -0.7180  0.7688
 8937SOL     OW38443   1.249   1.734   3.620 -0.0456 -0.0730  0.0599
 8937SOL    HW138444   1.263   1.786   3.698 -0.5077  0.4987 -0.2383
 8937SOL    HW238445   1.292   1.652   3.641 -0.6995 -0.8018 -1.3907
 8938SOL     OW38446   3.496   4.069   5.858  0.1974 -0.0270 -0.6647
 8938SOL    HW138447   3.530   3.980   5.862 -1.6338 -0.8489 -2.9584
 8938SOL    HW238448   3.558   4.106   5.796  0.2140 -1.2398 -1.3710
 8939SOL     OW38449   1.496   3.883  16.128 -0.6036 -0.1177 -0.9316
 8939SOL    HW138450   1.467   3.925  16.047 -2.4544 -0.3559 -0.3952
 8939SOL    HW238451   1.592   3.876  16.122 -0.4636  1.9023 -1.2911
 8940SOL     OW38452   4.036   2.689   8.174 -0.6866 -0.3868  0.5267
 8940SOL    HW138453   4.067   2.752   8.239  0.0122  0.2754 -0.4497
 8940SOL    HW238454   3.973   2.739   8.123  1.0562 -0.5500 -1.7646
 8941SOL     OW38455   3.487   0.307   7.917  0.7762 -0.5673 -0.2733
 8941SOL    HW138456   3.571   0.329   7.878  1.1003 -1.9635 -0.3573
 8941SOL    HW238457   3.444   0.240   7.863  0.1402  0.2937 -0.8323
 8942SOL     OW38458   3.330   1.330   9.705 -0.3746  0.2151 -0.2100
 8942SOL    HW138459   3.395   1.273   9.663 -0.0267  0.0308  0.5795
 8942SOL    HW238460   3.356   1.333   9.797 -1.0579  2.1622 -0.0789
 8943SOL     OW38461   3.745   0.186   8.225  0.2366 -0.0900  0.4073
 8943SOL    HW138462   3.722   0.148   8.310 -2.3857  0.4540 -0.0910
 8943SOL    HW238463   3.814   0.131   8.188 -0.6509 -1.4145  0.7155
 8944SOL     OW38464   0.677   1.680   3.499 -0.4053  0.2652 -0.2322
 8944SOL    HW138465   0.588   1.647   3.498 -1.3206  2.7124  2.3996
 8944SOL    HW238466   0.678   1.749   3.433  1.7481  0.5541  0.0900
 8945SOL     OW38467   4.582   2.488   2.584  0.0870  0.4621  0.1241
 8945SOL    HW138468   4.555   2.575   2.555 -1.2915 -0.2922 -0.8751
 8945SOL    HW238469   4.539   2.482   2.670  0.9468  0.8048  0.5837
 8946SOL     OW38470   0.952   0.190   6.048  0.7025  0.1702 -0.0823
 8946SOL    HW138471   0.998   0.274   6.044  1.6506 -0.3781 -0.8779
 8946SOL    HW238472   1.002   0.148   5.977 -1.3462  0.2349 -1.5765
 8947SOL     OW38473   4.450   2.688   1.186  0.3351 -0.1259 -0.0588
 8947SOL    HW138474   4.461   2.743   1.263  0.0605 -0.5003  0.2470
 8947SOL    HW238475   4.539   2.656   1.176  0.6138  1.2630 -2.0029
 8948SOL     OW38476   1.241   3.556  15.600  0.0823  0.5695 -0.4929
 8948SOL    HW138477   1.148   3.545  15.584  0.2757  0.6124 -1.6771
 8948SOL    HW238478   1.249   3.648  15.625  1.2439  0.4227 -0.2949
 8949SOL     OW38479   3.080   3.477   8.049 -0.0135  0.3050 -0.1341
 8949SOL    HW138480   3.020   3.533   8.098 -2.2042 -1.0560 -1.2678
 8949SOL    HW238481   3.026   3.398   8.055 -1.0588  1.0784  0.5314
 8950SOL     OW38482   0.012   1.812   8.495  0.5467  0.2793 -0.3961
 8950SOL    HW138483   0.101   1.788   8.523 -0.3116 -1.6890  0.6338
 8950SOL    HW238484   0.029   1.898   8.455  0.3886  0.3145 -0.3877
 8951SOL     OW38485   3.333   1.029   6.079  0.5434 -0.7163 -0.0645
 8951SOL    HW138486   3.417   1.023   6.033 -0.4540  3.1570 -2.4003
 8951SOL    HW238487   3.317   1.123   6.077 -1.2380 -1.0999 -3.5346
 8952SOL     OW38488   4.677   0.030   4.530 -0.4931  0.5255  0.1212
 8952SOL    HW138489   0.014   0.028   4.471 -1.3263 -0.5090 -0.9307
 8952SOL    HW238490   4.614   0.090   4.491 -0.8698 -0.2021 -0.4018
 8953SOL     OW38491   4.432   0.546   5.195  0.2092 -0.0383 -0.5087
 8953SOL    HW138492   4.411   0.591   5.113 -1.0322  0.8122  0.2660
 8953SOL    HW238493   4.396   0.603   5.263  0.5389  1.2746 -1.4245
 8954SOL     OW38494   1.880   0.804  16.748  0.0164 -0.1559 -0.2687
 8954SOL    HW138495   1.948   0.759  16.798 -1.0059 -1.0567  0.3069
 8954SOL    HW238496   1.861   0.869  16.815 -0.6531 -1.2783  0.6154
 8955SOL     OW38497   0.594   1.013   1.292  0.4650  0.1660  0.2242
 8955SOL    HW138498   0.601   0.962   1.212  2.2425  1.0099 -0.1596
 8955SOL    HW238499   0.684   0.997   1.322  0.3338 -1.3051 -0.1973
 8956SOL     OW38500   1.738   3.284   0.527  0.1719  0.1029  0.2527
 8956SOL    HW138501   1.828   3.266   0.502 -0.7734 -0.4779 -2.7321
 8956SOL    HW238502   1.698   3.199   0.509  0.8254  0.1554 -1.4674
 8957SOL     OW38503   1.528   3.797   4.804  0.1081 -0.1770  0.3307
 8957SOL    HW138504   1.475   3.767   4.730  0.4852 -2.1348  0.8691
 8957SOL    HW238505   1.469   3.800   4.880 -2.9646  2.1605 -2.1087
 8958SOL     OW38506   2.751   2.249   7.927  0.5598  0.3243  0.4676
 8958SOL    HW138507   2.734   2.225   8.018 -1.1914  1.2444  0.3983
 8958SOL    HW238508   2.833   2.296   7.940  0.5220  0.1379  1.3256
 8959SOL     OW38509   3.050   1.773   3.424  0.0963 -0.2801  0.1017
 8959SOL    HW138510   3.069   1.860   3.460 -1.2029 -0.0493  0.1994
 8959SOL    HW238511   3.000   1.731   3.493 -1.1570 -0.5474 -0.9837
 8960SOL     OW38512   4.016   2.049   2.642  0.5761 -0.0874 -0.2786
 8960SOL    HW138513   3.992   2.135   2.678 -1.7910 -1.3177  1.0716
 8960SOL    HW238514   4.023   2.002   2.725 -1.9862 -0.8743 -0.5008
 8961SOL     OW38515   1.402   0.797   7.609 -0.1588  0.0091  0.4923
 8961SOL    HW138516   1.492   0.776   7.633 -0.1918 -0.9603 -0.2160
 8961SOL    HW238517   1.344   0.738   7.658  1.9244 -2.9766 -0.6454
 8962SOL     OW38518   2.339   4.651   7.949 -0.0250 -0.0375 -0.3961
 8962SOL    HW138519   2.294   4.727   7.910  2.2854  0.3702 -2.2180
 8962SOL    HW238520   2.321   4.579   7.889 -1.2515 -0.2828  0.2616
 8963SOL     OW38521   3.759   3.377   6.046  0.0421 -0.6746  0.3703
 8963SOL    HW138522   3.682   3.350   5.996  0.1674 -0.3030 -0.0187
 8963SOL    HW238523   3.821   3.386   5.974  0.5517 -2.1928  0.6187
 8964SOL     OW38524   1.708   2.597   8.754  0.1150  0.0319 -0.3823
 8964SOL    HW138525   1.697   2.581   8.848 -1.6717  1.1653 -0.4082
 8964SOL    HW238526   1.789   2.648   8.756  0.0377  0.2065 -1.9659
 8965SOL     OW38527   4.675   0.238  13.460  0.6259  0.0993 -0.1103
 8965SOL    HW138528   4.643   0.295  13.390 -1.5615 -0.5635  0.3401
 8965SOL    HW238529   4.596   0.235  13.514  1.7164 -2.4558  1.3163
 8966SOL     OW38530   3.100   2.914   4.849 -0.5416  0.2980 -0.3184
 8966SOL    HW138531   3.173   2.866   4.888  1.7482  1.8394 -2.6860
 8966SOL    HW238532   3.026   2.860   4.874 -0.5231  1.6632  2.7126
 8967SOL     OW38533   4.588   1.452   7.254 -0.2596 -0.6393 -0.2066
 8967SOL    HW138534   4.648   1.454   7.329  0.3299 -1.4956 -0.6542
 8967SOL    HW238535   4.568   1.358   7.252 -0.5315 -0.6414  1.8690
 8968SOL     OW38536   0.981   4.527   4.499 -0.1373 -0.1319  0.0539
 8968SOL    HW138537   0.916   4.501   4.434 -1.0040  1.1845  0.3773
 8968SOL    HW238538   1.066   4.517   4.455 -0.3365  0.9711 -0.5875
 8969SOL     OW38539   2.015   0.363   7.625  0.4922  0.5200 -0.1248
 8969SOL    HW138540   2.049   0.434   7.681 -0.0083 -2.0402  3.4575
 8969SOL    HW238541   1.968   0.421   7.566  0.6274  0.7944  0.0353
 8970SOL     OW38542   4.719   1.606   2.136 -0.7272 -0.4901  0.2924
 8970SOL    HW138543   0.032   1.656   2.072 -0.1729 -0.3149  0.8778
 8970SOL    HW238544   0.007   1.516   2.120 -1.8632 -0.9317  0.8882
 8971SOL     OW38545   0.198   4.210   2.198  0.6335  0.1879  0.3314
 8971SOL    HW138546   0.235   4.166   2.274  0.8853  0.2077  0.2205
 8971SOL    HW238547   0.195   4.299   2.231  1.3299  0.2541  0.2169
 8972SOL     OW38548   2.894   2.423   1.166 -0.1618  0.1616 -0.3622
 8972SOL    HW138549   2.911   2.435   1.072  0.4642  0.4867 -0.2086
 8972SOL    HW238550   2.971   2.370   1.187  1.4120  1.7333 -2.0297
 8973SOL     OW38551   0.508   0.632   5.054  0.0918  0.3037  0.0578
 8973SOL    HW138552   0.535   0.693   4.986 -0.4001  1.2602  0.7254
 8973SOL    HW238553   0.591   0.619   5.100 -0.1593 -0.8690  0.1948
 8974SOL     OW38554   0.101   3.359   4.189  0.2181  0.5487  0.0579
 8974SOL    HW138555   0.131   3.285   4.137  2.0176  0.5220  1.1363
 8974SOL    HW238556   0.170   3.424   4.178 -1.6086  2.7315  1.4942
 8975SOL     OW38557   1.389   1.435   2.706 -0.3478 -0.0023  0.0003
 8975SOL    HW138558   1.464   1.436   2.646  1.1331  3.1734  1.8585
 8975SOL    HW238559   1.420   1.507   2.761  0.1909 -0.6412  0.5295
 8976SOL     OW38560   4.525   1.958   6.358  0.3301  0.3200 -0.2211
 8976SOL    HW138561   4.619   1.971   6.344  0.0776  3.1778  0.7240
 8976SOL    HW238562   4.519   1.909   6.440  0.2813  0.9660  0.1572
 8977SOL     OW38563   0.944   3.444   8.417  0.0273 -0.6973  0.0076
 8977SOL    HW138564   0.881   3.511   8.387 -2.4697 -2.0298  2.2977
 8977SOL    HW238565   0.997   3.436   8.337 -0.3976  3.6605 -0.7416
 8978SOL     OW38566   1.445   0.323   3.620  0.8707 -0.0339 -0.2898
 8978SOL    HW138567   1.415   0.256   3.559 -1.2440 -1.6945  2.5881
 8978SOL    HW238568   1.375   0.328   3.685 -1.3714  0.0574 -2.7078
 8979SOL     OW38569   2.724   3.353   7.959  0.2959 -0.1359 -0.2182
 8979SOL    HW138570   2.759   3.388   7.878 -0.0194  0.2466 -0.1892
 8979SOL    HW238571   2.803   3.323   8.004 -0.1964 -1.1139  0.0010
 8980SOL     OW38572   0.658   0.951   3.940 -0.2297 -0.0489  0.4087
 8980SOL    HW138573   0.694   1.037   3.919 -2.0331  0.2086 -1.5489
 8980SOL    HW238574   0.610   0.972   4.021  0.7207 -1.0916  1.2434
 8981SOL     OW38575   0.000   4.150   3.168  0.6203 -0.1124  0.0049
 8981SOL    HW138576   4.734   4.241   3.198  0.5253  0.1112 -0.6847
 8981SOL    HW238577   4.686   4.146   3.088  1.5105 -0.4289 -0.5740
 8982SOL     OW38578   1.432   3.802   6.390 -0.2338 -0.0503 -0.0151
 8982SOL    HW138579   1.471   3.881   6.353  2.0356  0.4445  3.3896
 8982SOL    HW238580   1.373   3.780   6.318 -0.0489 -0.4682 -0.0365
 8983SOL     OW38581   4.095   1.368   7.919  0.0843 -0.4506 -0.0619
 8983SOL    HW138582   4.170   1.375   7.979 -0.3289  3.4531  0.0007
 8983SOL    HW238583   4.125   1.437   7.860 -1.3032 -0.9274 -1.3209
 8984SOL     OW38584   1.988   4.097   5.333  0.1399 -0.1861  0.5158
 8984SOL    HW138585   2.056   4.072   5.271 -2.0562  1.1740 -2.4779
 8984SOL    HW238586   1.906   4.053   5.308  0.4492  0.0811 -1.0024
 8985SOL     OW38587   3.451   2.548  15.295 -0.2293  1.2117 -0.2052
 8985SOL    HW138588   3.411   2.575  15.377 -1.6377  0.8146 -0.7673
 8985SOL    HW238589   3.442   2.452  15.299  0.6485  1.1760  0.9978
 8986SOL     OW38590   0.618   2.872   3.549  0.3375 -0.2282  0.3497
 8986SOL    HW138591   0.566   2.794   3.527 -1.3438  0.5554  1.5690
 8986SOL    HW238592   0.646   2.845   3.637  0.2966 -2.2475 -0.2436
 8987SOL     OW38593   0.081   0.551   2.320 -0.1848 -0.1773 -0.3880
 8987SOL    HW138594   0.117   0.489   2.257 -1.1577 -1.0705 -0.0620
 8987SOL    HW238595   0.141   0.623   2.300 -0.6319  0.0124 -1.0580
 8988SOL     OW38596   1.253   0.087   9.472 -0.3801  0.2620  0.4674
 8988SOL    HW138597   1.343   0.088   9.438  0.0672 -0.3415  1.6120
 8988SOL    HW238598   1.234   4.738   9.438  3.0447 -0.5036  0.5203
 8989SOL     OW38599   0.900   3.428   8.022 -0.3381 -0.0559 -0.0398
 8989SOL    HW138600   0.808   3.453   8.021 -0.7680 -1.5493  1.6564
 8989SOL    HW238601   0.892   3.337   7.992  1.0315  0.0685 -0.7713
 8990SOL     OW38602   4.009   2.832  16.895 -0.5021 -0.6914 -0.3389
 8990SOL    HW138603   4.024   2.892  16.822 -1.2230  1.8978  1.6458
 8990SOL    HW238604   3.946   2.881  16.947  1.9142  4.0953 -1.8398
 8991SOL     OW38605   0.651   1.259   1.885  0.3080  0.1021  0.4171
 8991SOL    HW138606   0.660   1.249   1.790 -2.1564 -0.6777  0.2692
 8991SOL    HW238607   0.742   1.283   1.903  0.1609  2.4557 -1.9624
 8992SOL     OW38608   4.504   4.592   3.332  0.0289 -0.1186 -0.5978
 8992SOL    HW138609   4.484   4.684   3.318  1.7828  0.2495 -0.6438
 8992SOL    HW238610   4.474   4.586   3.422 -1.3099 -0.4433 -1.0669
 8993SOL     OW38611   1.473   3.285  14.722 -0.5112 -0.0834  0.3417
 8993SOL    HW138612   1.560   3.252  14.744 -0.4055  0.5339  0.8490
 8993SOL    HW238613   1.415   3.245  14.787  0.8813 -0.5226  1.2982
 8994SOL     OW38614   3.827   3.952   6.461  0.2495 -0.3582  0.5304
 8994SOL    HW138615   3.899   3.977   6.519  1.7497 -0.6404 -1.2227
 8994SOL    HW238616   3.792   4.034   6.425 -2.3987 -1.7554 -0.0717
 8995SOL     OW38617   3.028   2.972   7.954  0.0386 -0.0588  0.0803
 8995SOL    HW138618   2.970   2.915   8.003 -0.7805  0.2955 -0.4796
 8995SOL    HW238619   3.009   2.947   7.864 -0.0556  2.6884 -0.6708
 8996SOL     OW38620   1.428   1.018   6.247 -0.6006 -0.0106  0.6260
 8996SOL    HW138621   1.457   1.023   6.156  0.2884 -2.5615  0.7859
 8996SOL    HW238622   1.411   0.924   6.251 -3.9595  0.5377 -0.2880
 8997SOL     OW38623   2.045   4.138   9.801  0.1046 -0.0309  0.0066
 8997SOL    HW138624   2.029   4.195   9.725 -0.8745  0.5603  0.6596
 8997SOL    HW238625   2.139   4.124   9.789  0.4497  3.6010 -1.6394
 8998SOL     OW38626   1.334   1.259   4.514 -0.3377 -0.3168 -0.5460
 8998SOL    HW138627   1.265   1.228   4.455 -0.8007  1.9187 -1.2024
 8998SOL    HW238628   1.285   1.327   4.561 -1.0310 -0.5525 -0.9097
 8999SOL     OW38629   2.326   2.895   8.536 -0.2196  0.1805  0.5591
 8999SOL    HW138630   2.243   2.857   8.508 -1.0496 -0.2870  3.7041
 8999SOL    HW238631   2.362   2.911   8.449 -2.0528  3.6943  0.4453
 9000SOL     OW38632   1.405   3.002   2.585  0.2494 -0.6150  0.0031
 9000SOL    HW138633   1.466   2.998   2.511  1.3803 -0.6773  0.9374
 9000SOL    HW238634   1.341   3.058   2.541  0.8123 -1.2017 -1.5783
 9001SOL     OW38635   4.533   1.317   6.983 -0.3700  0.1643  0.0144
 9001SOL    HW138636   4.599   1.300   7.050 -0.9824  0.8212  0.7780
 9001SOL    HW238637   4.560   1.398   6.941 -1.0806 -0.7527 -2.2402
 9002SOL     OW38638   0.360   4.533   3.040 -0.4738  0.2034  0.0993
 9002SOL    HW138639   0.364   4.626   3.063 -3.1073 -0.2208  2.3421
 9002SOL    HW238640   0.452   4.508   3.042 -0.8615 -1.2105  0.0091
 9003SOL     OW38641   2.875   3.502  15.662  0.3307 -0.0083  0.0125
 9003SOL    HW138642   2.815   3.442  15.707  1.3562 -0.5526  0.6715
 9003SOL    HW238643   2.845   3.503  15.571  1.6573  0.9127 -0.4145
 9004SOL     OW38644   3.448   2.641  13.413 -0.0671 -0.0213  0.1922
 9004SOL    HW138645   3.492   2.670  13.333  0.5932 -1.3810  0.0657
 9004SOL    HW238646   3.487   2.692  13.484 -1.8594  0.4288  0.8638
 9005SOL     OW38647   1.985   1.364   4.702 -0.4399  0.6553  0.0100
 9005SOL    HW138648   1.978   1.287   4.646 -1.3640  1.1496 -0.5442
 9005SOL    HW238649   1.992   1.310   4.781 -1.8708 -1.3272 -1.2329
 9006SOL     OW38650   2.200   4.135   8.335  0.0127 -0.0379  0.6849
 9006SOL    HW138651   2.201   4.039   8.327 -3.2326 -0.0957  0.8797
 9006SOL    HW238652   2.260   4.157   8.265 -0.9582  1.6585  0.3908
 9007SOL     OW38653   3.598   0.759   6.537 -0.0513 -0.0976  0.1633
 9007SOL    HW138654   3.608   0.790   6.627 -1.7759  0.4154  0.1824
 9007SOL    HW238655   3.666   0.693   6.525  0.0575  0.1874 -0.8297
 9008SOL     OW38656   2.738   1.712  14.653 -0.2082  0.1183  0.0371
 9008SOL    HW138657   2.714   1.625  14.621  2.0619 -0.6205  0.3180
 9008SOL    HW238658   2.826   1.732  14.620 -0.5392 -1.7699 -2.0507
 9009SOL     OW38659   0.409   3.900   5.055 -0.2080 -0.0753  0.2202
 9009SOL    HW138660   0.421   3.863   4.967  2.7904  1.0544  0.1668
 9009SOL    HW238661   0.393   3.814   5.094 -1.2881 -0.8893 -1.9939
 9010SOL     OW38662   0.421   1.281   2.050  0.5405 -0.0548  0.0757
 9010SOL    HW138663   0.438   1.306   2.141  0.7061 -0.4123  0.1444
 9010SOL    HW238664   0.504   1.280   2.003  0.6944  0.6002  0.3301
 9011SOL     OW38665   4.558   3.022   8.145 -0.3305 -0.1936  0.6837
 9011SOL    HW138666   4.629   3.087   8.148 -0.2884 -0.1615 -1.3266
 9011SOL    HW238667   4.601   2.939   8.168 -0.2989  0.3323  2.5079
 9012SOL     OW38668   4.663   3.533   3.904  0.2105  0.2261  0.4162
 9012SOL    HW138669   4.589   3.479   3.875  0.6128  1.3161 -2.6227
 9012SOL    HW238670   4.729   3.466   3.923 -0.7771 -1.5310 -2.3678
 9013SOL     OW38671   4.349   1.037  12.959 -0.1126 -0.6140  0.6628
 9013SOL    HW138672   4.430   1.032  13.009 -0.2827 -2.0890  0.7912
 9013SOL    HW238673   4.391   1.036  12.873  0.1882  0.6989  0.7868
 9014SOL     OW38674   4.515   1.796   7.996  0.6487  0.4686 -0.5266
 9014SOL    HW138675   4.485   1.732   7.931  0.2610  1.3324 -1.2017
 9014SOL    HW238676   4.454   1.782   8.069 -0.4126 -1.7486 -1.8149
 9015SOL     OW38677   1.839   3.986  10.247 -0.2166 -0.1928 -0.2545
 9015SOL    HW138678   1.819   3.913  10.305 -0.3960  0.3470  0.3671
 9015SOL    HW238679   1.830   4.066  10.299 -0.3718  1.0055 -2.1182
 9016SOL     OW38680   3.953   2.054  16.483  0.3780  0.6866 -0.1092
 9016SOL    HW138681   3.979   2.092  16.399 -0.3721 -1.0356 -1.1126
 9016SOL    HW238682   3.994   1.968  16.496  0.0369  0.8009  1.7997
 9017SOL     OW38683   3.065   3.262   5.967  0.4894  0.6060  0.4317
 9017SOL    HW138684   3.039   3.171   5.958  0.7141  0.5650  0.1980
 9017SOL    HW238685   3.131   3.261   6.037  0.9411  0.5512  0.0028
 9018SOL     OW38686   2.244   1.785   7.031  0.5328 -0.4106  0.1446
 9018SOL    HW138687   2.188   1.846   6.983 -0.5242 -0.4036  1.3773
 9018SOL    HW238688   2.313   1.844   7.063 -0.8854  1.7141 -0.7825
 9019SOL     OW38689   3.318   2.179  10.373  0.2388 -0.0464 -0.2822
 9019SOL    HW138690   3.296   2.191  10.281  0.7324 -0.8229 -0.5027
 9019SOL    HW238691   3.408   2.145  10.369  0.8601  1.3891  1.1239
 9020SOL     OW38692   0.164   1.956   8.854  0.3843  0.1727  0.0424
 9020SOL    HW138693   0.171   2.011   8.776 -3.0735 -1.5861 -1.4828
 9020SOL    HW238694   0.087   1.902   8.834  1.2573 -1.2941  0.6336
 9021SOL     OW38695   3.173   2.404   1.832 -1.3632  0.4635  0.5171
 9021SOL    HW138696   3.211   2.317   1.821  2.8148  2.2800  0.8610
 9021SOL    HW238697   3.205   2.450   1.754 -1.0276  1.2241  1.1135
 9022SOL     OW38698   4.037   0.292   2.678 -0.1126 -0.6956  0.9244
 9022SOL    HW138699   4.115   0.348   2.680  0.8410 -2.0037  0.0332
 9022SOL    HW238700   4.015   0.283   2.586  0.2338 -0.7448  0.8467
 9023SOL     OW38701   3.427   4.652   1.681  0.6931 -0.2202  0.0012
 9023SOL    HW138702   3.415   4.647   1.775  1.6463 -0.3324  0.1230
 9023SOL    HW238703   3.346   4.618   1.644  0.6377  1.5628 -1.5478
 9024SOL     OW38704   3.615   2.750   3.321 -0.0115 -0.3172  0.1470
 9024SOL    HW138705   3.539   2.788   3.365  0.0956  0.4978 -0.3723
 9024SOL    HW238706   3.648   2.694   3.391 -0.1841 -0.2632  0.2730
 9025SOL     OW38707   0.363   0.798   6.070 -0.2161  0.0568  0.8103
 9025SOL    HW138708   0.440   0.847   6.097 -0.0111  1.5353 -2.4224
 9025SOL    HW238709   0.320   0.846   5.998  1.5837 -1.5293 -1.3259
 9026SOL     OW38710   0.836   2.218  12.713 -0.6779 -0.0967  0.1950
 9026SOL    HW138711   0.917   2.194  12.758 -0.8720 -1.6047 -0.2532
 9026SOL    HW238712   0.852   2.175  12.629  1.2507  0.4801  0.2703
 9027SOL     OW38713   3.204   3.166   7.564 -0.3362 -0.5826 -0.2074
 9027SOL    HW138714   3.233   3.105   7.631 -0.6479  0.7160  1.1011
 9027SOL    HW238715   3.119   3.184   7.604 -0.4494  1.0651 -1.1625
 9028SOL     OW38716   1.572   0.427   5.509 -0.7207  0.1286  0.2911
 9028SOL    HW138717   1.537   0.346   5.472 -0.0833 -0.2213  0.4610
 9028SOL    HW238718   1.556   0.407   5.601  2.8131  2.6566  1.4339
 9029SOL     OW38719   1.851   1.474  15.709  0.4743  0.3441 -0.0320
 9029SOL    HW138720   1.759   1.466  15.732  0.2702  0.4653 -0.8029
 9029SOL    HW238721   1.887   1.425  15.783 -0.2497 -1.5499 -0.9250
 9030SOL     OW38722   3.118   3.194   3.352  0.2098  0.0540 -0.0153
 9030SOL    HW138723   3.126   3.131   3.280  0.7321  1.8897 -1.5595
 9030SOL    HW238724   3.032   3.168   3.384  1.3155 -0.1720  2.7409
 9031SOL     OW38725   2.779   2.205   3.157 -0.4439  0.2608 -0.1567
 9031SOL    HW138726   2.689   2.179   3.177 -0.4866  0.4262 -0.1311
 9031SOL    HW238727   2.770   2.246   3.071 -0.3002 -1.4386 -0.9807
 9032SOL     OW38728   3.997   1.273  12.208  0.7232 -0.3971  0.6963
 9032SOL    HW138729   3.979   1.206  12.274  1.2087 -1.5325 -0.3267
 9032SOL    HW238730   3.992   1.224  12.127  0.9640  2.4068 -1.0199
 9033SOL     OW38731   3.993   2.899   5.234  0.3649 -0.2338  0.6495
 9033SOL    HW138732   4.059   2.880   5.301  1.6654  1.2932 -0.2175
 9033SOL    HW238733   4.024   2.979   5.193 -2.0794  0.3511 -0.0796
 9034SOL     OW38734   3.799   0.460   5.940  0.5680 -0.1224 -0.2904
 9034SOL    HW138735   3.842   0.545   5.938  1.6840 -0.6958 -0.2656
 9034SOL    HW238736   3.750   0.478   6.020  0.3628 -2.4617  0.1090
 9035SOL     OW38737   0.172   2.982   1.681 -0.3060  0.3299 -0.2761
 9035SOL    HW138738   0.111   2.980   1.755 -1.7315  1.9251 -1.3867
 9035SOL    HW238739   0.166   2.894   1.644 -0.5371 -0.1378  0.8724
 9036SOL     OW38740   0.237   0.440   4.503 -0.4345 -0.4253  0.3428
 9036SOL    HW138741   0.321   0.433   4.458 -1.7109 -2.6383 -1.7376
 9036SOL    HW238742   0.271   0.450   4.592  3.8908 -1.9942 -1.1520
 9037SOL     OW38743   0.756   2.701   3.255  0.2011 -0.3492  0.0568
 9037SOL    HW138744   0.742   2.620   3.303 -0.0235 -0.0512  0.5015
 9037SOL    HW238745   0.788   2.764   3.319  1.2786 -1.5856  0.7287
 9038SOL     OW38746   1.555   4.500   5.553  0.1836  0.2873 -0.2308
 9038SOL    HW138747   1.523   4.411   5.542 -1.1259  0.7787 -0.3639
 9038SOL    HW238748   1.546   4.504   5.648  1.3306 -1.9667 -0.0298
 9039SOL     OW38749   3.162   3.167  16.756 -0.0886 -0.3097  0.3104
 9039SOL    HW138750   3.219   3.202  16.688  1.1841  0.3541  1.7202
 9039SOL    HW238751   3.098   3.238  16.753 -0.8022 -1.0319 -1.5528
 9040SOL     OW38752   1.830   4.687   8.800 -0.6819  1.0197  0.2911
 9040SOL    HW138753   1.877   4.631   8.739 -0.9307 -1.6996  2.6095
 9040SOL    HW238754   1.807   0.022   8.744 -0.3076  0.8659 -0.0578
 9041SOL     OW38755   3.310   1.715  11.817 -0.0051  0.7900  0.3881
 9041SOL    HW138756   3.284   1.670  11.897  0.6697 -0.9198 -0.3600
 9041SOL    HW238757   3.400   1.682  11.811 -0.0509  0.9011 -0.9921
 9042SOL     OW38758   3.331   3.393   8.381 -0.1338  0.0338  0.2649
 9042SOL    HW138759   3.260   3.340   8.417  0.8216  0.0364  2.0985
 9042SOL    HW238760   3.399   3.327   8.365  0.1060 -0.2581  2.5813
 9043SOL     OW38761   1.180   3.830   6.596 -0.1136  0.2501 -0.1286
 9043SOL    HW138762   1.253   3.862   6.542 -1.3996  0.2688 -1.8718
 9043SOL    HW238763   1.160   3.892   6.666  0.2241  0.6766 -0.4115
 9044SOL     OW38764   3.323   0.486   5.591 -0.3789 -0.0095 -0.3989
 9044SOL    HW138765   3.290   0.492   5.681  0.1525 -1.8723 -0.0920
 9044SOL    HW238766   3.393   0.551   5.584  0.9894 -1.2754  1.5681
 9045SOL     OW38767   0.433   1.824   1.660 -0.4149  0.5687  0.5583
 9045SOL    HW138768   0.455   1.849   1.750  0.6919  3.1976 -0.4551
 9045SOL    HW238769   0.519   1.786   1.642 -0.3113  0.3522  1.4808
 9046SOL     OW38770   0.257   0.181   3.473 -0.1081 -0.4376  0.2935
 9046SOL    HW138771   0.212   0.201   3.390  0.6160 -0.9601 -0.2228
 9046SOL    HW238772   0.280   0.088   3.476 -1.2570 -0.7867 -1.7617
 9047SOL     OW38773   2.247   1.009   4.186  0.2952  0.2289  0.0806
 9047SOL    HW138774   2.278   1.097   4.162 -3.2278  1.2904 -0.4918
 9047SOL    HW238775   2.290   0.954   4.121  2.1197  0.2415  1.2482
 9048SOL     OW38776   1.667   3.173   8.084  0.5855  0.5540 -0.5162
 9048SOL    HW138777   1.757   3.151   8.111  1.2207  3.0563 -0.5647
 9048SOL    HW238778   1.669   3.267   8.100  0.6606  0.2967  1.0317
 9049SOL     OW38779   1.916   0.583   2.542 -0.2700 -0.2286 -0.4431
 9049SOL    HW138780   1.955   0.646   2.483  2.0464 -1.8692 -0.6505
 9049SOL    HW238781   1.974   0.590   2.618 -0.8181 -1.4052  0.0786
 9050SOL     OW38782   1.105   0.987   5.433  0.6827 -0.4308 -0.0320
 9050SOL    HW138783   1.165   0.960   5.364  1.1363  0.6654 -0.0694
 9050SOL    HW238784   1.175   1.008   5.496 -1.1745  0.4267  1.7495
 9051SOL     OW38785   0.978   3.459   4.000  0.0358  0.1051  0.2884
 9051SOL    HW138786   0.899   3.510   3.980 -1.3007 -1.8829  0.4405
 9051SOL    HW238787   0.965   3.412   3.917  1.7593  2.6657 -1.4350
 9052SOL     OW38788   1.190   3.701   3.064  0.2762  0.1723  0.5044
 9052SOL    HW138789   1.211   3.688   3.156 -0.5720 -2.2408  0.3662
 9052SOL    HW238790   1.214   3.793   3.061  1.8175 -0.1679  2.8755
 9053SOL     OW38791   1.818   3.400   3.688 -0.1934  0.5649  0.0534
 9053SOL    HW138792   1.777   3.409   3.774  0.4113 -0.2117  0.4197
 9053SOL    HW238793   1.910   3.409   3.711  0.2478 -1.1191 -0.9960
 9054SOL     OW38794   2.001   3.061   1.358 -0.1022  0.9228 -0.3505
 9054SOL    HW138795   2.068   2.997   1.385  0.1223  0.8369 -1.1256
 9054SOL    HW238796   2.053   3.108   1.294  1.2497 -0.1806 -0.0542
 9055SOL     OW38797   2.707   2.070   7.072 -0.0574 -0.7963 -0.1267
 9055SOL    HW138798   2.780   2.129   7.092 -1.1695 -0.1230  2.0139
 9055SOL    HW238799   2.661   2.086   7.155  0.5072  3.2684 -0.6158
 9056SOL     OW38800   0.326   3.469   2.933  0.0002 -0.7983  0.3227
 9056SOL    HW138801   0.307   3.526   2.859  0.3795 -3.7343 -2.0632
 9056SOL    HW238802   0.393   3.515   2.983  0.9167  0.7622 -2.3449
 9057SOL     OW38803   2.688   0.443   3.170  0.0746  0.3684 -0.0157
 9057SOL    HW138804   2.636   0.466   3.248 -1.9887  0.0064 -1.2659
 9057SOL    HW238805   2.743   0.520   3.168  2.7175 -1.5373 -0.0380
 9058SOL     OW38806   1.786   0.980   4.526  0.0847  0.7824  0.2224
 9058SOL    HW138807   1.704   1.027   4.541 -0.6572 -1.1725  2.4134
 9058SOL    HW238808   1.789   0.922   4.603  0.4862 -0.9014 -1.0536
 9059SOL     OW38809   1.032   3.631   9.098 -0.2074  0.5315 -0.0783
 9059SOL    HW138810   1.061   3.558   9.044  2.2166  1.5759 -0.1845
 9059SOL    HW238811   0.956   3.663   9.050 -1.3531  0.6531  1.8145
 9060SOL     OW38812   2.352   0.174   8.219 -0.2793 -0.3350 -0.3262
 9060SOL    HW138813   2.342   0.081   8.239  0.1923 -0.0104  1.3689
 9060SOL    HW238814   2.409   0.201   8.291 -0.0145  1.4517 -1.1991
 9061SOL     OW38815   4.731   3.885   8.619 -0.3141 -0.2974  0.2004
 9061SOL    HW138816   0.044   3.816   8.660  0.0821  1.9414  3.5216
 9061SOL    HW238817   0.033   3.890   8.532 -0.2313 -0.7028  0.2160
 9062SOL     OW38818   0.986   2.668   2.756 -0.5452 -0.3081 -0.4742
 9062SOL    HW138819   0.937   2.667   2.838  1.7928  1.5402  0.9211
 9062SOL    HW238820   1.063   2.718   2.782 -0.8612  0.0879 -0.2922
 9063SOL     OW38821   3.306   1.590   3.062 -0.2774  0.2375 -1.0332
 9063SOL    HW138822   3.321   1.496   3.075 -1.7044  0.7018  4.0551
 9063SOL    HW238823   3.231   1.589   3.121 -0.5347 -0.3033 -1.3673
 9064SOL     OW38824   4.197   0.018   8.031 -0.1089 -0.3814 -0.7649
 9064SOL    HW138825   4.220   0.069   7.953  0.3589 -0.3102 -0.5803
 9064SOL    HW238826   4.220   0.088   8.093  0.1541 -2.1103  1.0821
 9065SOL     OW38827   3.681   0.975   2.699  0.7103  0.3886 -0.2447
 9065SOL    HW138828   3.637   0.935   2.775 -0.0833  2.9748  0.6449
 9065SOL    HW238829   3.738   1.034   2.749 -1.1433 -1.2853  3.8592
 9066SOL     OW38830   1.993   2.817   5.444  0.3064  0.0779 -0.0176
 9066SOL    HW138831   1.905   2.802   5.410 -0.6384 -1.3765  3.1055
 9066SOL    HW238832   2.013   2.728   5.472 -1.3186 -0.5440 -0.8368
 9067SOL     OW38833   1.773   4.576   6.923  0.5179  0.1021  0.3789
 9067SOL    HW138834   1.789   4.545   6.834 -1.1845  0.4384 -0.0456
 9067SOL    HW238835   1.860   4.613   6.935  0.3240  0.4090  0.8551
 9068SOL     OW38836   2.670   1.139  10.612  0.0536  0.3088 -0.0710
 9068SOL    HW138837   2.707   1.204  10.672 -1.3355  1.6615 -0.6786
 9068SOL    HW238838   2.594   1.099  10.652 -0.6319  2.5334  0.8618
 9069SOL     OW38839   2.758   3.424  16.364 -0.1047 -0.6140  0.2565
 9069SOL    HW138840   2.846   3.459  16.380 -0.1928 -0.4126  0.2918
 9069SOL    HW238841   2.740   3.467  16.281  3.5078  0.9680  0.2666
 9070SOL     OW38842   4.670   2.600  12.574 -0.1134 -1.1928  0.6607
 9070SOL    HW138843   4.651   2.673  12.515 -0.3638 -0.8128  1.2204
 9070SOL    HW238844   4.669   2.520  12.522 -1.2825  0.3979 -1.7324
 9071SOL     OW38845   3.932   0.326   6.466 -0.6304 -0.1376 -0.1426
 9071SOL    HW138846   3.889   0.286   6.391  0.4403  0.5642 -1.1402
 9071SOL    HW238847   3.957   0.249   6.516 -0.9523  0.2623  0.6320
 9072SOL     OW38848   4.429   1.705  15.314  0.3387 -0.0247 -0.3947
 9072SOL    HW138849   4.492   1.643  15.278 -0.9876 -0.5928 -1.7495
 9072SOL    HW238850   4.371   1.707  15.237  0.3352  0.6364 -0.3819
 9073SOL     OW38851   4.646   1.080   1.352 -0.2019 -0.0147 -0.4664
 9073SOL    HW138852   4.582   1.071   1.422 -1.1562  0.3556 -1.2975
 9073SOL    HW238853   4.678   0.990   1.341  0.7135  0.1152  1.1752
 9074SOL     OW38854   2.658   4.609   0.479 -0.2219  0.0625  0.3586
 9074SOL    HW138855   2.720   4.655   0.536 -0.1140 -1.3477  1.3781
 9074SOL    HW238856   2.695   4.612   0.391  1.5800 -1.7316  1.0583
 9075SOL     OW38857   2.944   0.299  15.146 -0.8215  0.1632 -0.0880
 9075SOL    HW138858   2.996   0.344  15.079 -0.7682 -0.1057 -0.2301
 9075SOL    HW238859   2.984   0.326  15.229 -0.0948 -1.8061  0.2109
 9076SOL     OW38860   4.098   3.053   4.139 -0.3082 -0.1444 -0.0781
 9076SOL    HW138861   4.092   2.959   4.121  2.0243 -0.1801 -0.6946
 9076SOL    HW238862   4.007   3.082   4.133 -0.7392 -1.5641 -0.6587
 9077SOL     OW38863   4.114   3.384  14.944 -0.0930 -0.3362  0.4574
 9077SOL    HW138864   4.110   3.312  15.007 -0.8987 -0.9461 -0.2689
 9077SOL    HW238865   4.071   3.348  14.866  1.2464 -0.9982  0.0209
 9078SOL     OW38866   4.425   0.529   7.191  0.6623 -0.1408  0.2619
 9078SOL    HW138867   4.387   0.616   7.182  1.2559  0.1750  0.7764
 9078SOL    HW238868   4.504   0.543   7.243  1.8251 -2.2504 -0.9014
 9079SOL     OW38869   1.757   4.601   4.306  0.6157  0.0041 -0.1544
 9079SOL    HW138870   1.677   4.648   4.279 -0.5679 -1.7725  0.2765
 9079SOL    HW238871   1.726   4.511   4.313  0.8122  0.0866  1.6196
 9080SOL     OW38872   1.610   4.395   4.640 -0.2250 -0.4404 -0.0706
 9080SOL    HW138873   1.616   4.371   4.547  0.5930  0.5153 -0.2619
 9080SOL    HW238874   1.702   4.399   4.669 -0.6270  1.3019  0.9537
 9081SOL     OW38875   3.327   1.905   3.247 -0.0116 -0.5204 -0.3665
 9081SOL    HW138876   3.347   1.812   3.242 -0.2969 -0.4999 -1.6760
 9081SOL    HW238877   3.277   1.926   3.169 -0.5566  0.7817  0.3319
 9082SOL     OW38878   0.646   3.779   6.221 -0.2536  0.5472 -0.3101
 9082SOL    HW138879   0.669   3.754   6.131  2.1449 -0.1029  0.5082
 9082SOL    HW238880   0.700   3.858   6.226  1.6317 -0.7504 -0.3167
 9083SOL     OW38881   3.588   2.033   9.554 -0.5317  0.1091  0.7819
 9083SOL    HW138882   3.543   2.114   9.575 -0.5455 -0.1680  1.7840
 9083SOL    HW238883   3.519   1.978   9.518 -0.1079 -0.2456  0.5082
 9084SOL     OW38884   2.688   0.832   5.337  0.1409  0.4790  0.2427
 9084SOL    HW138885   2.670   0.738   5.345 -0.3267  0.5100 -0.3939
 9084SOL    HW238886   2.693   0.859   5.429 -2.7254  0.9733  0.2760
 9085SOL     OW38887   3.540   1.553   7.629  0.2937 -0.0223 -0.6922
 9085SOL    HW138888   3.513   1.462   7.637 -1.1760  0.4920  0.1556
 9085SOL    HW238889   3.616   1.545   7.571  0.2383 -0.4064 -0.7119
 9086SOL     OW38890   3.075   3.896  10.183 -0.0216 -0.0979  0.5912
 9086SOL    HW138891   3.151   3.921  10.237  0.5167  0.7688 -0.5529
 9086SOL    HW238892   3.026   3.975  10.208 -2.0559 -0.6804 -1.5861
 9087SOL     OW38893   3.565   3.010  16.943  0.1079  0.2175 -0.7200
 9087SOL    HW138894   3.579   2.938  17.005  1.3544  0.8256 -0.3160
 9087SOL    HW238895   3.471   3.005  16.924  0.3221 -1.1333 -1.4148
 9088SOL     OW38896   1.354   4.133  11.602 -0.2212 -0.2745  0.2085
 9088SOL    HW138897   1.350   4.038  11.607 -0.7640 -0.2686 -0.0887
 9088SOL    HW238898   1.447   4.141  11.623 -0.7081  2.0226  1.5904
 9089SOL     OW38899   1.638   4.151   2.890 -0.2144 -0.3325 -0.3951
 9089SOL    HW138900   1.591   4.072   2.916 -0.1290 -1.6411 -4.1645
 9089SOL    HW238901   1.634   4.202   2.970 -0.7814  1.1134 -1.3323
 9090SOL     OW38902   0.840   3.917   9.566  0.9099  0.1636 -0.3853
 9090SOL    HW138903   0.888   3.840   9.536  1.3241 -0.0305  0.7773
 9090SOL    HW238904   0.904   3.954   9.626 -0.1538  2.3212 -0.5821
 9091SOL     OW38905   2.920   3.125   4.311  0.2035  0.4499 -0.5897
 9091SOL    HW138906   2.957   3.164   4.391 -1.0201 -0.1697  0.2700
 9091SOL    HW238907   2.900   3.204   4.261  2.3833  2.7888  2.1936
 9092SOL     OW38908   3.831   4.057  13.146 -0.0632 -0.2101  0.3121
 9092SOL    HW138909   3.745   4.052  13.106 -0.2021 -0.3029  0.6180
 9092SOL    HW238910   3.797   4.075  13.234 -0.6685  0.9297 -0.1567
 9093SOL     OW38911   1.959   4.565   6.445 -0.0052 -0.1860 -0.3282
 9093SOL    HW138912   2.019   4.573   6.371 -0.5163 -1.3160 -0.8660
 9093SOL    HW238913   1.904   4.643   6.434 -0.2178 -0.6382 -2.4893
 9094SOL     OW38914   1.821   4.654  12.078 -0.2925 -0.1103 -0.3408
 9094SOL    HW138915   1.791   4.568  12.052  1.7827 -0.5331 -1.3416
 9094SOL    HW238916   1.915   4.636  12.084 -0.4454 -0.7995 -0.0951
 9095SOL     OW38917   2.443   1.625   2.261 -0.3281 -0.2084 -0.3689
 9095SOL    HW138918   2.496   1.704   2.272 -3.5157  1.6731  1.6472
 9095SOL    HW238919   2.517   1.567   2.243  0.9727  0.6079  2.3607
 9096SOL     OW38920   4.290   4.675   3.534 -0.2234 -0.5480  0.4518
 9096SOL    HW138921   4.232   0.011   3.524  0.0366  0.0924  3.5423
 9096SOL    HW238922   4.231   4.619   3.584 -0.5415 -0.1922  0.4680
 9097SOL     OW38923   4.633   2.358   9.831 -0.4255 -0.1961  0.2199
 9097SOL    HW138924   4.643   2.360   9.926  2.2960  2.7524 -0.1346
 9097SOL    HW238925   4.720   2.343   9.793  0.3718 -0.9728  2.3427
 9098SOL     OW38926   2.024   0.683   2.782  0.3211 -0.2478 -0.1557
 9098SOL    HW138927   2.097   0.622   2.767  0.5131 -0.0781  0.0753
 9098SOL    HW238928   1.960   0.634   2.834 -0.8751  0.3012 -1.1301
 9099SOL     OW38929   4.078   2.544   5.853  0.3600  0.0641  0.3772
 9099SOL    HW138930   4.061   2.456   5.888  1.5906 -0.2550  0.1666
 9099SOL    HW238931   4.173   2.532   5.858  0.5159  1.6109  1.1109
 9100SOL     OW38932   0.812   0.706   1.629  0.1727  0.1627 -0.3771
 9100SOL    HW138933   0.796   0.688   1.536 -2.7530  1.1664 -0.0808
 9100SOL    HW238934   0.728   0.729   1.669  1.2713  1.1924  1.3549
 9101SOL     OW38935   4.407   0.833   3.865  0.1258  0.2354 -0.2964
 9101SOL    HW138936   4.481   0.864   3.916  0.4156 -2.1030  0.6836
 9101SOL    HW238937   4.421   0.739   3.855  1.8043  0.5586 -1.0588
 9102SOL     OW38938   3.484   2.814   4.591  0.6603  0.4601  0.1444
 9102SOL    HW138939   3.394   2.781   4.596  1.4109 -1.3717  1.5939
 9102SOL    HW238940   3.481   2.904   4.624 -2.1478  0.1202  0.8489
 9103SOL     OW38941   4.631   4.195  13.118 -0.0853 -0.1168 -0.2624
 9103SOL    HW138942   4.670   4.262  13.061  0.6212 -1.3410 -1.2304
 9103SOL    HW238943   4.675   4.113  13.093  0.0828  0.4274 -1.7537
 9104SOL     OW38944   4.574   2.953   1.053 -0.1265 -0.1947 -0.0757
 9104SOL    HW138945   4.541   2.863   1.052  2.6226 -1.2054  1.6803
 9104SOL    HW238946   4.656   2.944   1.004  0.4647 -1.0701  1.0840
 9105SOL     OW38947   3.559   2.575   2.600  0.4942 -0.1497  0.0964
 9105SOL    HW138948   3.561   2.512   2.527  0.7463 -0.2802  0.2161
 9105SOL    HW238949   3.511   2.527   2.668 -0.2284 -0.0068 -0.3077
 9106SOL     OW38950   4.201   2.827   5.442 -0.2883 -0.8097 -0.3555
 9106SOL    HW138951   4.269   2.864   5.386 -0.2059  0.0144  0.2703
 9106SOL    HW238952   4.243   2.752   5.484 -0.1018 -0.2655  0.4501
 9107SOL     OW38953   0.332   3.757  12.819 -0.5782  0.4023 -0.5679
 9107SOL    HW138954   0.299   3.672  12.848 -1.4364  1.5073  1.7467
 9107SOL    HW238955   0.271   3.811  12.870 -0.0034  1.3864 -0.9231
 9108SOL     OW38956   2.284   1.903   4.286  0.6478 -0.2543  0.1411
 9108SOL    HW138957   2.327   1.930   4.368 -0.3314 -0.2742  0.6593
 9108SOL    HW238958   2.237   1.984   4.270 -0.0128  0.0187  3.4585
 9109SOL     OW38959   1.871   2.692   7.264 -0.2090 -0.8659 -0.1245
 9109SOL    HW138960   1.920   2.768   7.294 -0.2723 -0.5558 -0.8090
 9109SOL    HW238961   1.852   2.645   7.346 -1.1857  1.3273  0.8951
 9110SOL     OW38962   2.028   2.810  10.549  0.1266 -0.4253  0.0561
 9110SOL    HW138963   1.967   2.779  10.616 -1.4005  1.2765 -0.5627
 9110SOL    HW238964   2.110   2.777  10.587  0.2883  1.2253  1.1543
 9111SOL     OW38965   1.321   2.509   6.046  0.2034  0.1671  0.0879
 9111SOL    HW138966   1.401   2.531   5.998  0.1656  1.0436  0.4264
 9111SOL    HW238967   1.336   2.555   6.129 -0.4084 -0.1786  0.3918
 9112SOL     OW38968   1.617   3.682   7.923 -0.3380 -0.9248  0.0105
 9112SOL    HW138969   1.587   3.748   7.985  0.9131 -2.6282  2.4612
 9112SOL    HW238970   1.533   3.636   7.919 -1.0276  0.2342  1.6812
 9113SOL     OW38971   1.990   3.431   4.256 -0.4468 -0.6631  0.8709
 9113SOL    HW138972   2.003   3.348   4.302  3.7332 -0.1242  0.6353
 9113SOL    HW238973   2.056   3.487   4.296  1.9875 -1.9302 -1.4489
 9114SOL     OW38974   1.774   0.076   1.307 -0.2925  0.0486  0.2124
 9114SOL    HW138975   1.685   0.045   1.323  0.2471 -2.3822 -1.4893
 9114SOL    HW238976   1.797   0.113   1.392 -0.4913 -0.6841  0.5832
 9115SOL     OW38977   1.498   1.183   3.755 -0.4176  0.2485 -0.1720
 9115SOL    HW138978   1.463   1.259   3.800 -0.4780 -0.1788  0.5054
 9115SOL    HW238979   1.470   1.111   3.812  0.0428 -0.7446 -1.1761
 9116SOL     OW38980   3.185   2.141   1.698 -0.2820 -1.2736 -0.6517
 9116SOL    HW138981   3.152   2.201   1.631 -1.4349  0.8750  1.8198
 9116SOL    HW238982   3.192   2.063   1.644 -1.3907 -1.2846 -0.7926
 9117SOL     OW38983   1.092   4.109   4.835 -0.5227  0.5497 -0.2531
 9117SOL    HW138984   1.121   4.198   4.816 -0.3816  0.7083  0.7268
 9117SOL    HW238985   1.035   4.127   4.910  2.2573  0.9032  1.7733
 9118SOL     OW38986   3.360   4.468   2.352  0.1730  0.4014  0.1064
 9118SOL    HW138987   3.301   4.486   2.279 -1.1177 -1.0160  0.7943
 9118SOL    HW238988   3.404   4.552   2.369  1.5388 -0.1224 -0.8240
 9119SOL     OW38989   3.849   2.906   4.307 -0.2852  0.3104 -0.1345
 9119SOL    HW138990   3.813   2.971   4.247 -0.6095 -0.2947 -0.5997
 9119SOL    HW238991   3.849   2.954   4.390 -0.8580  0.3208 -0.1438
 9120SOL     OW38992   4.245   0.072  14.173  0.0445  0.1284 -0.3346
 9120SOL    HW138993   4.255   0.129  14.097 -3.4129 -0.8536 -1.5419
 9120SOL    HW238994   4.281   0.133  14.237  1.6681 -0.0800 -1.0584
 9121SOL     OW38995   2.934   2.758   3.119 -0.0149 -0.1253  0.3040
 9121SOL    HW138996   2.974   2.704   3.186  0.7980 -1.1216 -0.9920
 9121SOL    HW238997   2.978   2.721   3.042 -1.3383  0.6414 -0.8295
 9122SOL     OW38998   0.706   2.170   1.276  0.3064  0.4713 -0.5401
 9122SOL    HW138999   0.618   2.147   1.244 -0.0952  1.9480 -0.4732
 9122SOL    HW239000   0.698   2.131   1.363  0.5522  0.3525 -0.5714
 9123SOL     OW39001   3.978   2.829   9.846 -0.5449 -0.3678  0.3641
 9123SOL    HW139002   3.991   2.919   9.817  3.3659 -1.9033 -2.6031
 9123SOL    HW239003   4.068   2.799   9.837 -0.6700 -0.7620  0.4034
 9124SOL     OW39004   3.920   1.298  11.666 -0.7947 -0.1756 -0.4919
 9124SOL    HW139005   3.915   1.365  11.598 -0.1297  0.2036 -0.1601
 9124SOL    HW239006   3.840   1.247  11.650  0.0231 -1.6007 -0.0711
 9125SOL     OW39007   4.387   2.130   8.007  0.4435  0.2663  0.0687
 9125SOL    HW139008   4.336   2.056   7.976  0.5749  0.2917 -0.2058
 9125SOL    HW239009   4.391   2.096   8.096 -0.4730  0.3812  0.1512
 9126SOL     OW39010   4.273   1.236  15.999 -0.4144 -0.4027 -0.3039
 9126SOL    HW139011   4.278   1.319  16.046  0.4747 -0.6923  0.1155
 9126SOL    HW239012   4.211   1.261  15.931 -0.5574  0.0163 -0.0188
 9127SOL     OW39013   3.559   3.529  15.692 -0.3566  0.2768  0.8950
 9127SOL    HW139014   3.547   3.510  15.785  0.7653 -1.1088  0.7743
 9127SOL    HW239015   3.538   3.442  15.657  0.2346  0.4645  0.0638
 9128SOL     OW39016   3.938   2.680   0.717 -0.3628  0.2125 -0.4253
 9128SOL    HW139017   3.997   2.741   0.671 -2.5439  2.1855 -0.5925
 9128SOL    HW239018   3.986   2.677   0.800 -0.2309 -3.9950 -0.6424
 9129SOL     OW39019   3.795   1.324  10.205 -0.1306  0.1763 -0.7236
 9129SOL    HW139020   3.828   1.359  10.122  0.9220 -1.0244 -0.8188
 9129SOL    HW239021   3.874   1.277  10.234  0.5250  1.8832  0.2576
 9130SOL     OW39022   3.110   0.480  14.953 -0.2610 -0.1967  0.5927
 9130SOL    HW139023   3.177   0.477  15.021  0.0740 -0.8785  0.2390
 9130SOL    HW239024   3.159   0.515  14.879 -0.3861  0.4113  0.7962
 9131SOL     OW39025   0.534   1.135   5.333 -0.1042  0.2839  0.2774
 9131SOL    HW139026   0.628   1.115   5.335 -0.0764  0.5874  1.9293
 9131SOL    HW239027   0.497   1.057   5.373  0.5059 -0.5231 -0.7237
 9132SOL     OW39028   2.415   3.224  11.534 -0.3616 -0.6648  0.2761
 9132SOL    HW139029   2.388   3.313  11.512  0.5397 -0.4671 -0.0317
 9132SOL    HW239030   2.405   3.176  11.451 -0.2646 -1.3702  0.6726
 9133SOL     OW39031   1.804   3.178  12.600 -0.0843  0.3045 -0.2184
 9133SOL    HW139032   1.824   3.201  12.510 -0.0151  2.1738  0.2798
 9133SOL    HW239033   1.741   3.111  12.573 -0.0861 -0.4499  1.6758
 9134SOL     OW39034   4.458   0.126   7.681 -0.1199 -0.0143  0.5455
 9134SOL    HW139035   4.533   0.118   7.741  0.1190 -2.8647 -0.1214
 9134SOL    HW239036   4.387   0.134   7.744  0.4778  0.1570  1.1944
 9135SOL     OW39037   1.127   4.566  12.913  0.4569  0.5721 -0.1638
 9135SOL    HW139038   1.048   4.616  12.932  1.7439  2.1057  1.2262
 9135SOL    HW239039   1.105   4.479  12.947 -0.9568  1.5376  1.3794
 9136SOL     OW39040   0.984   4.472   6.589 -0.4042 -0.0089  0.0111
 9136SOL    HW139041   1.032   4.534   6.642  0.2915 -0.7188  0.2104
 9136SOL    HW239042   0.905   4.525   6.583  0.5426  1.3884  0.1147
 9137SOL     OW39043   1.200   3.255   1.231  0.1846 -0.5381 -0.3595
 9137SOL    HW139044   1.277   3.298   1.192 -0.5203  1.8604  0.8579
 9137SOL    HW239045   1.229   3.196   1.301 -0.5401  1.7416  1.8674
 9138SOL     OW39046   0.005   3.227   8.076 -0.5484 -0.0602 -0.2708
 9138SOL    HW139047   0.091   3.250   8.111 -1.1245  1.9274 -0.1604
 9138SOL    HW239048   4.694   3.294   8.123 -0.1665 -0.1695  0.2832
 9139SOL     OW39049   1.529   3.172  16.983 -0.0134  0.5003 -0.3917
 9139SOL    HW139050   1.563   3.226  17.055  1.1591 -2.7508  1.4971
 9139SOL    HW239051   1.559   3.086  17.014  3.3322  2.7848  2.6444
 9140SOL     OW39052   0.132   0.396  15.766  0.4114  0.7574  0.4486
 9140SOL    HW139053   0.135   0.389  15.862  1.5563 -1.1250  0.2890
 9140SOL    HW239054   0.053   0.446  15.749 -1.9719 -2.9452  0.5114
 9141SOL     OW39055   2.266   0.211   7.780 -0.0962 -0.2318 -0.1734
 9141SOL    HW139056   2.247   0.295   7.737 -1.0176 -0.8237 -0.9064
 9141SOL    HW239057   2.255   0.250   7.867 -1.5463 -1.3603  0.1464
 9142SOL     OW39058   0.464   0.919   6.529  0.3342  0.0286 -0.3056
 9142SOL    HW139059   0.455   0.914   6.624 -0.0839 -0.6867 -0.3839
 9142SOL    HW239060   0.426   1.005   6.514 -0.8016 -0.3991  0.1031
 9143SOL     OW39061   1.035   3.357   6.975 -0.0925 -0.3937  0.0516
 9143SOL    HW139062   1.066   3.422   7.038 -1.0138  0.3743 -0.2886
 9143SOL    HW239063   1.120   3.321   6.948 -1.2714 -1.5684 -2.0299
 9144SOL     OW39064   0.369   4.116   7.067  0.0074 -0.0907 -0.2880
 9144SOL    HW139065   0.445   4.081   7.113  0.6886  0.4835 -0.9853
 9144SOL    HW239066   0.343   4.187   7.127 -3.2338 -1.3339 -0.2179
 9145SOL     OW39067   1.467   0.929   8.474 -0.7883  0.4867  0.5368
 9145SOL    HW139068   1.478   0.848   8.425 -2.4982  0.6448 -0.1053
 9145SOL    HW239069   1.512   1.000   8.428 -0.8690 -0.7127 -1.3961
 9146SOL     OW39070   3.846   3.601   8.320 -0.0280 -0.1321 -0.3001
 9146SOL    HW139071   3.821   3.538   8.388  1.7424 -1.5116 -0.9464
 9146SOL    HW239072   3.903   3.556   8.258  0.3594  0.5484 -0.4345
 9147SOL     OW39073   4.032   1.082   8.755  0.0308 -0.2966 -0.4204
 9147SOL    HW139074   4.053   1.173   8.733 -2.3609  0.6888  1.3185
 9147SOL    HW239075   3.944   1.089   8.791  0.2351 -0.3087  0.0824
 9148SOL     OW39076   2.692   1.152   7.711 -0.1485 -0.4697 -0.4184
 9148SOL    HW139077   2.687   1.144   7.806  0.3532 -1.3879 -0.4701
 9148SOL    HW239078   2.781   1.186   7.698  0.0697 -1.0673 -0.4827
 9149SOL     OW39079   0.905   0.506   2.058  0.1906 -0.4526  0.2372
 9149SOL    HW139080   0.896   0.424   2.108  2.7860  0.5100  2.2509
 9149SOL    HW239081   0.927   0.570   2.125  1.8425 -3.0144  2.1735
 9150SOL     OW39082   2.034   0.948   8.449 -0.4065  0.4835  0.0921
 9150SOL    HW139083   2.130   0.942   8.455 -0.2476  3.7726  0.8226
 9150SOL    HW239084   2.017   0.989   8.365  1.5939  0.5586 -0.2964
 9151SOL     OW39085   2.745   1.078   9.599 -0.4463 -0.3173  0.2551
 9151SOL    HW139086   2.760   1.156   9.652  1.9885  0.7723 -2.0185
 9151SOL    HW239087   2.649   1.076   9.602 -0.4495  0.3681  0.6825
 9152SOL     OW39088   1.246   4.296  11.888  0.1574  0.0826  0.0061
 9152SOL    HW139089   1.276   4.238  11.957 -2.3676  0.7438  1.6266
 9152SOL    HW239090   1.311   4.277  11.820 -0.2194  0.5184 -0.4872
 9153SOL     OW39091   0.072   1.347   8.004 -0.4703 -0.3993  0.5964
 9153SOL    HW139092   0.141   1.361   8.068  1.2041  1.1597 -1.5568
 9153SOL    HW239093   0.033   1.434   8.009 -1.3896 -0.6103 -2.6750
 9154SOL     OW39094   1.665   2.976   0.089  0.0922  0.8121 -0.0051
 9154SOL    HW139095   1.594   2.942   0.035  1.5997 -0.6930 -1.0508
 9154SOL    HW239096   1.725   3.024   0.031  1.2986 -0.8150 -0.1223
 9155SOL     OW39097   3.180   0.449   2.570 -0.0424 -0.4297 -0.4273
 9155SOL    HW139098   3.274   0.459   2.552 -0.0681  1.6998  0.5702
 9155SOL    HW239099   3.160   0.525   2.624  1.4717 -0.4843  0.2166
 9156SOL     OW39100   0.876   3.147   8.020 -0.1021 -0.0468 -0.3158
 9156SOL    HW139101   0.950   3.088   8.035 -1.4038 -1.3935  0.9037
 9156SOL    HW239102   0.835   3.160   8.106  0.2140  2.9408 -0.6277
 9157SOL     OW39103   3.207   1.869   7.454 -0.1028  0.3837 -0.1046
 9157SOL    HW139104   3.171   1.809   7.388 -1.4163 -0.0484  1.0171
 9157SOL    HW239105   3.134   1.905   7.505 -1.4116 -0.5168 -1.3181
 9158SOL     OW39106   2.355   4.056   1.118  0.3984 -0.5668 -0.0571
 9158SOL    HW139107   2.353   4.034   1.212  3.0833 -1.3585 -0.1697
 9158SOL    HW239108   2.367   3.969   1.081 -0.7657 -0.7742  0.0544
 9159SOL     OW39109   3.042   0.153   4.240 -0.0100 -0.4145  0.4130
 9159SOL    HW139110   3.134   0.134   4.257  0.0367  0.1837  0.8255
 9159SOL    HW239111   3.022   0.221   4.305  0.7990 -0.7292  0.9938
 9160SOL     OW39112   4.329   4.021   5.640  0.1479 -0.2258  0.1494
 9160SOL    HW139113   4.323   3.950   5.576 -1.7657  0.2376 -0.1744
 9160SOL    HW239114   4.381   4.082   5.589  1.2019 -1.7113 -0.5708
 9161SOL     OW39115   2.970   1.326   8.858 -0.8581 -0.0521  0.5121
 9161SOL    HW139116   3.020   1.401   8.890 -0.5268 -0.0430 -0.0167
 9161SOL    HW239117   2.910   1.306   8.930 -3.1596 -2.0709 -1.9589
 9162SOL     OW39118   4.548   2.636   3.968 -0.0972  0.9096 -0.7653
 9162SOL    HW139119   4.491   2.709   3.947 -0.2992  0.6989 -0.9483
 9162SOL    HW239120   4.510   2.603   4.050 -0.0974  2.7285 -0.0282
 9163SOL     OW39121   3.385   0.330   8.402  0.6468  0.0621  0.1132
 9163SOL    HW139122   3.442   0.380   8.343  1.3331 -1.0735 -0.1793
 9163SOL    HW239123   3.377   0.248   8.354 -0.7932  1.2300 -1.6368
 9164SOL     OW39124   0.658   3.962   4.733  0.6135  0.2383  0.2278
 9164SOL    HW139125   0.742   3.970   4.687  0.2264 -2.6306 -1.0061
 9164SOL    HW239126   0.597   3.920   4.672 -1.0509  1.5349  1.0140
 9165SOL     OW39127   1.169   2.902   5.866 -0.0642  0.2697 -0.8145
 9165SOL    HW139128   1.166   2.829   5.927  1.0558  0.3405 -0.6771
 9165SOL    HW239129   1.259   2.917   5.839  0.1875 -0.5335 -0.4063
 9166SOL     OW39130   0.852   2.975   6.711 -0.4270  0.2631  0.3618
 9166SOL    HW139131   0.833   3.063   6.744  0.6493  0.3502  0.7375
 9166SOL    HW239132   0.783   2.943   6.652  0.7022 -3.5387  1.0744
 9167SOL     OW39133   3.182   1.241   5.462 -0.1171 -0.6263 -0.3411
 9167SOL    HW139134   3.187   1.240   5.366 -0.4927  0.4560 -0.3775
 9167SOL    HW239135   3.181   1.147   5.479  4.1748 -1.0037 -2.0361
 9168SOL     OW39136   0.177   1.282  14.887 -0.8403  0.3612  0.2494
 9168SOL    HW139137   0.143   1.277  14.797  0.4106  0.4092 -0.2371
 9168SOL    HW239138   0.217   1.195  14.895 -0.1544  0.6906  0.4295
 9169SOL     OW39139   2.205   1.794   9.822  0.6276  0.1838 -0.4819
 9169SOL    HW139140   2.287   1.747   9.804 -0.1777 -1.1311 -0.7148
 9169SOL    HW239141   2.147   1.721   9.846 -1.4286  1.7617 -0.6583
 9170SOL     OW39142   0.102   4.674  14.608 -0.0058 -0.5351 -0.4506
 9170SOL    HW139143   0.141   4.668  14.521  1.1934  1.7630 -0.0575
 9170SOL    HW239144   0.009   4.672  14.583  0.1521 -2.2987 -0.9011
 9171SOL     OW39145   3.272   3.387   5.808  0.5271 -0.0974  0.3881
 9171SOL    HW139146   3.261   3.452   5.738  0.8751 -0.4117  0.0400
 9171SOL    HW239147   3.179   3.364   5.812  0.8202 -0.7533  3.1254
 9172SOL     OW39148   3.086   0.840   2.427  0.0003 -0.0259  0.2481
 9172SOL    HW139149   3.171   0.821   2.386 -0.2657  1.1660 -0.8352
 9172SOL    HW239150   3.076   0.934   2.414  0.2472  0.0825  0.8317
 9173SOL     OW39151   4.286   0.686   5.402  0.1016  0.6942 -0.1415
 9173SOL    HW139152   4.203   0.731   5.418 -0.4380 -0.0324 -0.8415
 9173SOL    HW239153   4.330   0.703   5.485  2.0056 -2.4662 -0.4988
 9174SOL     OW39154   3.123   2.283   2.077  0.4784 -0.2689 -0.1641
 9174SOL    HW139155   3.050   2.243   2.029  0.2808  1.3574 -1.2352
 9174SOL    HW239156   3.139   2.353   2.013 -0.0645  1.5391  1.6639
 9175SOL     OW39157   4.587   2.049   4.272 -0.4315 -0.5520  0.3460
 9175SOL    HW139158   4.608   2.075   4.362 -0.6187 -1.0847  0.5391
 9175SOL    HW239159   4.504   2.004   4.280  0.3692 -1.7233  1.9772
 9176SOL     OW39160   2.617   4.589   2.605  0.0960 -0.3846 -0.7133
 9176SOL    HW139161   2.554   4.651   2.642  2.3104  1.0335  0.7242
 9176SOL    HW239162   2.682   4.651   2.572 -3.2644  3.4208 -0.2428
 9177SOL     OW39163   1.301   0.219   6.198 -0.0781 -0.2764  0.2155
 9177SOL    HW139164   1.215   0.185   6.224  0.9180 -1.6596  1.6686
 9177SOL    HW239165   1.337   0.234   6.285 -0.5108  3.4985 -0.2542
 9178SOL     OW39166   4.507   3.808   3.992 -0.0555 -0.4786  0.1562
 9178SOL    HW139167   4.478   3.799   3.901 -0.6677 -0.4314  0.3462
 9178SOL    HW239168   4.585   3.755   3.978  2.4773  3.1143  0.7394
 9179SOL     OW39169   3.519   2.617   7.276  0.9663 -0.1989  0.3316
 9179SOL    HW139170   3.541   2.709   7.259  1.2537 -0.6171 -1.5362
 9179SOL    HW239171   3.578   2.597   7.349  0.4677 -0.9840  0.5210
 9180SOL     OW39172   2.172   3.782   7.912  0.5742 -1.1141  0.8083
 9180SOL    HW139173   2.114   3.751   7.843 -0.0360  3.7847 -0.8883
 9180SOL    HW239174   2.141   3.872   7.920  1.5284 -0.7126  0.1240
 9181SOL     OW39175   2.405   1.788  17.684  0.0581  0.1960 -0.2258
 9181SOL    HW139176   2.332   1.838  17.647 -0.3257 -0.9627 -1.0462
 9181SOL    HW239177   2.488   1.830  17.662  0.6993 -1.2022 -0.5005
 9182SOL     OW39178   1.788   3.881   2.238  0.3416 -0.1578 -0.0733
 9182SOL    HW139179   1.877   3.916   2.230  1.4334 -2.7464  0.5040
 9182SOL    HW239180   1.800   3.842   2.325  1.9586 -2.6305 -1.4003
 9183SOL     OW39181   2.923   2.206   7.142  0.9325 -0.2708 -0.5848
 9183SOL    HW139182   2.925   2.204   7.237  0.7810  3.5099 -0.5035
 9183SOL    HW239183   2.980   2.130   7.130 -0.4400 -1.3978  0.0085
 9184SOL     OW39184   2.295   3.652   6.707  0.2061 -0.1511  0.2684
 9184SOL    HW139185   2.228   3.674   6.642 -0.6621 -1.5678  0.6948
 9184SOL    HW239186   2.266   3.572   6.751  0.2143  0.9688  2.3026
 9185SOL     OW39187   2.281   2.206  15.045 -0.6232 -0.3616  0.0103
 9185SOL    HW139188   2.239   2.202  14.959 -0.9685 -2.7460  0.3002
 9185SOL    HW239189   2.343   2.134  15.043 -1.7775 -1.3581  0.6726
 9186SOL     OW39190   1.714   4.278   5.867  0.1536 -0.0667 -0.2203
 9186SOL    HW139191   1.735   4.281   5.773  1.3211  1.0676  0.0794
 9186SOL    HW239192   1.781   4.327   5.913 -0.4380 -1.3563  1.9856
 9187SOL     OW39193   0.514   4.319   4.263  0.8799  0.1153  0.1280
 9187SOL    HW139194   0.481   4.333   4.352 -0.4241 -1.7601 -0.0793
 9187SOL    HW239195   0.590   4.263   4.279  1.0011  0.2021 -0.1385
 9188SOL     OW39196   1.671   4.271   5.259 -0.0993  0.2205  0.0437
 9188SOL    HW139197   1.581   4.265   5.228 -0.4963 -2.3689  1.6621
 9188SOL    HW239198   1.706   4.347   5.213  1.0799  0.0244  0.6178
 9189SOL     OW39199   2.255   1.899   8.853 -0.5453  1.0908  0.5418
 9189SOL    HW139200   2.244   1.806   8.873  1.3666  0.5500 -0.9277
 9189SOL    HW239201   2.312   1.926   8.925 -0.4480  0.7121  0.6038
 9190SOL     OW39202   0.891   3.486   5.828 -0.7094  0.1333  0.3137
 9190SOL    HW139203   0.858   3.569   5.793  1.1640 -0.0020 -1.7507
 9190SOL    HW239204   0.971   3.479   5.776 -0.7499 -1.1887  0.4450
 9191SOL     OW39205   2.166   3.944  16.733 -0.3229  0.0768 -0.1346
 9191SOL    HW139206   2.203   3.928  16.646 -0.8528 -1.7332 -0.0190
 9191SOL    HW239207   2.100   4.008  16.709  0.0702  0.6280  0.2618
 9192SOL     OW39208   1.993   1.108   3.970 -0.0971 -0.3310  0.5182
 9192SOL    HW139209   1.911   1.100   4.018 -1.1075  1.8789 -0.8147
 9192SOL    HW239210   2.033   1.185   4.010 -1.3093  0.4850  0.1424
 9193SOL     OW39211   0.909   2.862   8.285 -0.3545  0.6995  0.4799
 9193SOL    HW139212   0.988   2.874   8.232  0.8671 -0.7912  1.9534
 9193SOL    HW239213   0.864   2.788   8.243  1.0132  1.0104 -1.5223
 9194SOL     OW39214   3.477   1.153  10.847  0.0913  0.0572  0.1869
 9194SOL    HW139215   3.414   1.208  10.800 -0.9344  0.7587  2.3774
 9194SOL    HW239216   3.523   1.124  10.768  3.2124  1.1971  1.6089
 9195SOL     OW39217   1.742   4.294   2.206 -0.8477 -0.2218 -0.7690
 9195SOL    HW139218   1.801   4.237   2.255 -1.7868 -1.1900 -0.7948
 9195SOL    HW239219   1.794   4.321   2.130 -1.3062  0.0674 -0.9758
 9196SOL     OW39220   1.212   4.677   3.380 -0.0655 -0.7797 -0.1584
 9196SOL    HW139221   1.124   4.639   3.384 -0.8742  1.0844 -0.1059
 9196SOL    HW239222   1.262   4.597   3.396 -0.8040 -1.3638 -0.7893
 9197SOL     OW39223   1.114   3.787   7.045  0.6254 -0.5570 -0.0765
 9197SOL    HW139224   1.165   3.714   7.079  1.0253 -2.2072 -4.1824
 9197SOL    HW239225   1.078   3.754   6.962 -0.0452  0.7879 -0.3233
 9198SOL     OW39226   4.537   2.339   7.348 -0.4249 -0.2622 -0.0576
 9198SOL    HW139227   4.456   2.381   7.377 -0.0941  0.7955 -0.6561
 9198SOL    HW239228   4.508   2.248   7.350  1.2171 -0.7196  2.8328
 9199SOL     OW39229   2.213   2.196  11.919 -0.6408 -0.3766  0.5886
 9199SOL    HW139230   2.280   2.264  11.925 -1.6441  0.3299  3.3931
 9199SOL    HW239231   2.155   2.232  11.852  0.4980  1.2552  0.4923
 9200SOL     OW39232   3.189   1.407   0.036  0.5566  0.0041  0.1776
 9200SOL    HW139233   3.156   1.352   0.107  0.2804 -0.2219 -0.1323
 9200SOL    HW239234   3.260   1.359  17.748 -0.2930 -0.4727 -0.7398
 9201SOL     OW39235   4.694   1.983   5.598 -0.6722 -0.2132 -0.1879
 9201SOL    HW139236   4.734   2.069   5.602  0.9444 -0.9156 -1.3205
 9201SOL    HW239237   4.609   1.994   5.556 -0.9286 -3.0840 -0.4616
 9202SOL     OW39238   1.637   4.031  12.630 -0.3851 -0.0798 -0.2744
 9202SOL    HW139239   1.701   4.102  12.625 -1.4696  0.9582  0.4180
 9202SOL    HW239240   1.596   4.052  12.714 -0.2078  0.1136 -0.2353
 9203SOL     OW39241   3.370   0.153   4.058  0.0559 -0.6735  0.1110
 9203SOL    HW139242   3.439   0.151   3.992  0.5524 -0.6613  0.6320
 9203SOL    HW239243   3.317   0.228   4.034 -0.2301 -0.6222  0.8847
 9204SOL     OW39244   0.668   0.167   5.093  0.0240 -0.1899  0.2030
 9204SOL    HW139245   0.619   0.237   5.136  1.1835  0.8509 -0.1722
 9204SOL    HW239246   0.604   0.096   5.084 -0.8083  0.6574 -0.5541
 9205SOL     OW39247   4.633   3.961   7.515 -0.2234 -0.1397 -0.0119
 9205SOL    HW139248   4.698   3.903   7.476  1.8699  2.8963 -1.0360
 9205SOL    HW239249   4.676   3.989   7.596 -1.8434 -0.1021  0.8363
 9206SOL     OW39250   2.232   3.907   1.588 -0.4044 -0.0178 -0.2904
 9206SOL    HW139251   2.184   3.826   1.571  0.9339 -1.3845  2.4942
 9206SOL    HW239252   2.198   3.951   1.510 -1.2099 -0.0608  0.0323
 9207SOL     OW39253   2.208   2.112   2.256 -0.2690  0.3748  0.2364
 9207SOL    HW139254   2.115   2.091   2.258 -0.3344  0.5740 -0.6203
 9207SOL    HW239255   2.211   2.113   2.160 -0.5918  2.7814  0.2524
 9208SOL     OW39256   0.948   3.763   1.635 -0.4081 -0.0455 -0.6866
 9208SOL    HW139257   1.024   3.723   1.591 -1.2878 -4.5869  1.9144
 9208SOL    HW239258   0.994   3.842   1.664 -0.1604 -0.5585  0.2936
 9209SOL     OW39259   3.635   2.505   6.271  0.3260  1.0323  0.0470
 9209SOL    HW139260   3.552   2.478   6.231  0.8749 -1.9607  0.9276
 9209SOL    HW239261   3.634   2.460   6.356 -2.2502 -0.0324 -0.5415
 9210SOL     OW39262   3.912   1.148   8.353 -0.5810 -0.1166  0.0856
 9210SOL    HW139263   3.905   1.171   8.260  0.3473 -1.6640 -0.3593
 9210SOL    HW239264   3.936   1.056   8.338  1.5323  0.4549 -0.0402
 9211SOL     OW39265   3.127   2.913   3.876 -0.3277  1.0138  0.6418
 9211SOL    HW139266   3.034   2.933   3.880 -1.2257 -2.6829 -1.8882
 9211SOL    HW239267   3.142   2.918   3.970  2.7024  0.2517  0.1931
 9212SOL     OW39268   3.093   0.010   1.131  0.4114 -0.2972 -0.0436
 9212SOL    HW139269   3.086   4.654   1.117 -2.4688 -0.0900  0.0601
 9212SOL    HW239270   3.181   0.018   1.168 -0.4089  1.8641  1.4384
 9213SOL     OW39271   3.789   1.850  12.936  0.0232  0.2574  0.1868
 9213SOL    HW139272   3.854   1.781  12.953  1.5635  1.4816 -0.6965
 9213SOL    HW239273   3.726   1.805  12.880  0.2408  0.5345 -0.2779
 9214SOL     OW39274   4.329   3.563   8.735 -0.8549  0.0439 -0.0835
 9214SOL    HW139275   4.363   3.652   8.748 -1.4222  0.3321 -0.5298
 9214SOL    HW239276   4.378   3.520   8.804 -0.0530 -0.3082 -0.8789
 9215SOL     OW39277   1.159   4.232  10.737  0.0666 -0.0035 -0.0891
 9215SOL    HW139278   1.089   4.220  10.673 -0.2535 -0.5351  0.3556
 9215SOL    HW239279   1.226   4.179  10.696 -0.7028 -1.5722  0.6826
 9216SOL     OW39280   1.278   2.604   9.377  0.2550  0.0989  0.5290
 9216SOL    HW139281   1.335   2.532   9.403 -1.6696 -0.3114  3.7288
 9216SOL    HW239282   1.251   2.643   9.461 -0.9668 -2.9606  1.5619
 9217SOL     OW39283   4.070   0.238   4.839  0.0485  0.3998  0.3332
 9217SOL    HW139284   4.032   0.208   4.922  0.0570  1.6493  0.7835
 9217SOL    HW239285   4.090   0.151   4.804  0.3336  0.3131  0.7062
 9218SOL     OW39286   0.183   0.003   1.014  0.0451 -0.5900  0.4539
 9218SOL    HW139287   0.148   0.068   1.075 -3.3820 -2.1290  0.1065
 9218SOL    HW239288   0.212   4.666   1.065  2.1961  1.4869  2.3281
 9219SOL     OW39289   0.975   4.183  13.367 -0.5131  0.3145  0.4643
 9219SOL    HW139290   1.002   4.110  13.422  0.0654 -1.1979 -1.8248
 9219SOL    HW239291   0.913   4.241  13.412  1.0355  2.5944 -0.3176
 9220SOL     OW39292   1.134   3.891   4.226  0.1575  0.7845  0.3395
 9220SOL    HW139293   1.055   3.923   4.184  0.9349 -0.7963 -2.3181
 9220SOL    HW239294   1.139   3.809   4.178 -0.6379  0.2559  1.1598
 9221SOL     OW39295   0.360   2.029  12.698  0.5871 -0.3162  0.5304
 9221SOL    HW139296   0.325   2.011  12.786  0.6125 -1.7717  0.2334
 9221SOL    HW239297   0.425   2.091  12.731  1.3644 -1.0397  0.3283
 9222SOL     OW39298   3.860   3.504   4.459 -0.4640  0.1185 -0.0027
 9222SOL    HW139299   3.766   3.513   4.472 -0.6292  0.7653 -1.7109
 9222SOL    HW239300   3.884   3.589   4.424 -0.0149  0.2834  0.6976
 9223SOL     OW39301   0.673   4.655   2.793 -0.2555  0.2441  0.2144
 9223SOL    HW139302   0.697   4.586   2.855 -0.6059  0.5850  0.7361
 9223SOL    HW239303   0.726   4.727   2.827  2.8174 -2.5311  1.2890
 9224SOL     OW39304   3.649   0.377  17.696  0.2413  0.4492 -0.3287
 9224SOL    HW139305   3.725   0.430  17.676 -0.8144  1.6074 -1.2850
 9224SOL    HW239306   3.657   0.317  17.622 -0.7641 -2.2136  1.7000
 9225SOL     OW39307   2.945   1.989   2.155 -0.1695  0.0674  0.2124
 9225SOL    HW139308   2.851   1.991   2.135  0.6809 -1.1360 -3.8454
 9225SOL    HW239309   2.970   2.041   2.079 -0.3061 -0.8034 -0.4303
 9226SOL     OW39310   1.707   1.763  14.186  0.0325 -0.2813  0.2288
 9226SOL    HW139311   1.793   1.722  14.178  0.0755 -0.3444  1.0386
 9226SOL    HW239312   1.713   1.795  14.276 -1.4733 -1.2699  0.6778
 9227SOL     OW39313   3.476   0.616  13.111 -0.3191 -0.2836  0.4585
 9227SOL    HW139314   3.547   0.602  13.174  0.2434 -0.5932 -0.2374
 9227SOL    HW239315   3.427   0.685  13.154  0.5380  0.5974  0.0353
 9228SOL     OW39316   4.033   1.521   5.134  0.3618  0.2767 -0.4731
 9228SOL    HW139317   4.112   1.536   5.187  0.4505  1.0910 -0.8317
 9228SOL    HW239318   3.990   1.606   5.125  1.0115  0.2074 -4.4315
 9229SOL     OW39319   3.294   2.520   7.158 -0.3536 -0.6986  0.0997
 9229SOL    HW139320   3.307   2.427   7.176 -1.5022 -0.6317  1.3298
 9229SOL    HW239321   3.366   2.554   7.211 -0.2211  0.1665 -0.6486
 9230SOL     OW39322   3.211   0.457   7.980  0.4027 -0.2540 -0.1737
 9230SOL    HW139323   3.285   0.397   7.971  1.3262  0.8851 -0.2144
 9230SOL    HW239324   3.253   0.543   7.971  1.3740 -0.7550 -0.4238
 9231SOL     OW39325   3.079   3.620  17.538  0.2280 -0.1789 -0.8099
 9231SOL    HW139326   3.022   3.684  17.580  1.3386 -1.4937  2.6884
 9231SOL    HW239327   3.140   3.683  17.498 -1.0553  1.1690 -0.6267
 9232SOL     OW39328   0.366   3.468  15.492  0.4431 -0.4588  0.5823
 9232SOL    HW139329   0.311   3.546  15.489  0.3737 -0.4268  2.5659
 9232SOL    HW239330   0.297   3.402  15.490 -0.2111  0.1520  2.8445
 9233SOL     OW39331   0.995   0.282   7.335  0.4828  0.2184  0.5898
 9233SOL    HW139332   0.990   0.242   7.422 -0.6643 -1.0891 -0.0692
 9233SOL    HW239333   0.927   0.239   7.282 -0.2747  2.8829 -0.5918
 9234SOL     OW39334   0.315   4.678   6.489 -0.0600  0.0786  0.2839
 9234SOL    HW139335   0.261   4.709   6.415 -1.0931  1.5344  1.6539
 9234SOL    HW239336   0.352   0.021   6.522  2.4261 -0.2428 -1.6843
 9235SOL     OW39337   0.540   3.042   2.611 -0.2786 -0.1460 -0.3564
 9235SOL    HW139338   0.577   3.106   2.671  0.1310 -0.4638 -0.2687
 9235SOL    HW239339   0.454   3.043   2.652 -1.2308  0.3932 -2.3640
 9236SOL     OW39340   3.231   2.745   7.795  0.1882  0.1578  0.2837
 9236SOL    HW139341   3.215   2.664   7.746  0.5152  0.0986  0.2736
 9236SOL    HW239342   3.151   2.797   7.788 -0.9588 -1.7294 -0.3888
 9237SOL     OW39343   1.840   0.065   7.976  0.4953 -0.0192 -0.3945
 9237SOL    HW139344   1.867   0.156   7.972  0.8077 -0.1148 -0.5020
 9237SOL    HW239345   1.746   0.072   7.993  0.2801  1.9957 -2.4443
 9238SOL     OW39346   2.612   1.398   8.964 -0.1894 -0.4440 -0.2300
 9238SOL    HW139347   2.678   1.351   9.016  0.0329 -0.2170 -0.3084
 9238SOL    HW239348   2.543   1.341   8.999  0.0069 -0.6170 -0.1176
 9239SOL     OW39349   1.873   4.606  16.400 -0.3299  0.0660 -0.5206
 9239SOL    HW139350   1.857   4.618  16.307 -4.0499  2.4913  0.4181
 9239SOL    HW239351   1.782   4.623  16.424 -0.6956 -0.0667 -1.8582
 9240SOL     OW39352   2.527   3.110  17.447 -0.0531 -0.1336 -0.2027
 9240SOL    HW139353   2.447   3.099  17.396 -0.4749  0.1653  0.3841
 9240SOL    HW239354   2.591   3.089  17.379  2.2416 -0.5495  2.0727
 9241SOL     OW39355   1.582   3.677   4.118  0.0380  0.0724 -0.2384
 9241SOL    HW139356   1.665   3.671   4.072  0.7560  0.2412  1.0330
 9241SOL    HW239357   1.524   3.704   4.047 -0.5345 -1.2697 -0.2832
 9242SOL     OW39358   2.501   1.528  15.144  0.4309 -0.1507  0.2712
 9242SOL    HW139359   2.456   1.522  15.060 -0.8861  1.1381  0.8929
 9242SOL    HW239360   2.523   1.438  15.170 -2.2293 -0.4000  1.6184
 9243SOL     OW39361   3.440   2.589   3.901  0.0951  0.0239 -0.1894
 9243SOL    HW139362   3.459   2.667   3.953 -0.0199  1.4093 -2.2508
 9243SOL    HW239363   3.386   2.633   3.837 -0.5780 -0.8924 -0.2559
 9244SOL     OW39364   0.309   4.431   8.918 -0.0399 -0.3424  0.2053
 9244SOL    HW139365   0.275   4.410   8.831 -1.9393 -0.7268  1.0284
 9244SOL    HW239366   0.401   4.406   8.917 -0.0406 -0.2645 -1.7995
 9245SOL     OW39367   1.476   4.215   3.608 -0.2171 -0.0531 -0.4797
 9245SOL    HW139368   1.555   4.264   3.630  0.7185 -1.7118 -0.0649
 9245SOL    HW239369   1.477   4.218   3.512  0.8872  2.9453 -0.3558
 9246SOL     OW39370   2.805   4.117  12.526  0.2212  0.3240 -0.2000
 9246SOL    HW139371   2.878   4.083  12.475 -3.2832 -2.2193 -3.4854
 9246SOL    HW239372   2.746   4.042  12.516 -0.9416  1.0748  0.9621
 9247SOL     OW39373   0.366   0.975  10.201  0.2186  0.3991  0.0809
 9247SOL    HW139374   0.432   0.980  10.271 -1.9721  0.9088  2.1106
 9247SOL    HW239375   0.380   1.063  10.166  2.3730 -0.2312 -0.6618
 9248SOL     OW39376   2.909   4.380  12.160 -0.7559  0.0217 -0.4941
 9248SOL    HW139377   2.981   4.371  12.098  0.3691  0.7870  0.7190
 9248SOL    HW239378   2.837   4.375  12.097 -0.2997  0.7716 -1.0706
 9249SOL     OW39379   1.189   2.008   1.581  0.5404 -0.4339  0.1535
 9249SOL    HW139380   1.141   1.985   1.501  1.4470 -0.3697 -0.3994
 9249SOL    HW239381   1.276   2.021   1.543 -0.6371  0.9562 -2.0768
 9250SOL     OW39382   0.921   0.236   3.770  0.8237 -0.1060 -0.0867
 9250SOL    HW139383   0.976   0.260   3.844  0.1220 -0.9959  0.7244
 9250SOL    HW239384   0.870   0.313   3.750  0.3592 -0.2397  0.6065
 9251SOL     OW39385   1.903   0.405  15.645  0.0964 -0.3919  0.3500
 9251SOL    HW139386   1.868   0.460  15.576 -0.4591 -0.7462  0.3515
 9251SOL    HW239387   1.840   0.333  15.650  1.6315 -1.8212 -0.4767
 9252SOL     OW39388   1.381   4.637  10.401 -0.1281 -0.2748 -0.0898
 9252SOL    HW139389   1.400   4.723  10.362 -1.0013  0.4803  1.1222
 9252SOL    HW239390   1.287   4.630  10.415 -0.3243 -0.3656 -1.4762
 9253SOL     OW39391   1.653   3.026   2.420  0.1011 -0.7183 -0.0233
 9253SOL    HW139392   1.702   3.007   2.340 -1.0895  0.0185 -0.9269
 9253SOL    HW239393   1.720   3.025   2.488 -0.7926  1.2948  0.8821
 9254SOL     OW39394   2.962   0.694   1.831  0.0243 -0.2672 -0.0087
 9254SOL    HW139395   3.013   0.614   1.832  0.6468  0.1215 -0.6192
 9254SOL    HW239396   2.960   0.727   1.921 -1.1547  0.6000 -0.3405
 9255SOL     OW39397   4.036   2.972  14.268 -0.2538  0.1154  0.7722
 9255SOL    HW139398   4.093   2.950  14.194  1.6434 -0.6748  2.4526
 9255SOL    HW239399   4.096   3.022  14.323  0.4312 -0.5631  0.6438
 9256SOL     OW39400   2.877   1.516   5.965  0.2261  0.2749  0.1047
 9256SOL    HW139401   2.957   1.527   5.913 -1.0084 -0.8789 -2.0409
 9256SOL    HW239402   2.897   1.435   6.011  1.6728  1.8802  2.2828
 9257SOL     OW39403   4.718   0.722   7.993 -0.2869 -0.5745 -0.2684
 9257SOL    HW139404   4.706   0.779   7.918  1.1759 -2.9489 -2.3136
 9257SOL    HW239405   4.676   0.763   8.069  1.7257 -0.5190  0.8201
 9258SOL     OW39406   2.961   1.297  11.618 -0.3872  1.0075  0.0362
 9258SOL    HW139407   3.017   1.350  11.561  1.7262 -0.9001  0.3515
 9258SOL    HW239408   3.022   1.239  11.664 -3.1218 -1.8989 -0.0234
 9259SOL     OW39409   4.303   1.001   8.820 -0.6315  0.8265 -0.2975
 9259SOL    HW139410   4.215   1.031   8.797 -0.7991  0.6467  0.1140
 9259SOL    HW239411   4.297   0.906   8.808 -2.5677  0.7656  1.3296
 9260SOL     OW39412   3.200   1.559   3.326  0.3852  0.2775 -0.8692
 9260SOL    HW139413   3.165   1.639   3.364  2.8037  1.5983 -1.3763
 9260SOL    HW239414   3.269   1.531   3.387  0.7463  0.1799 -1.3214
 9261SOL     OW39415   0.806   4.328   3.039 -0.7955  0.4765  0.0547
 9261SOL    HW139416   0.760   4.408   3.062 -0.8233  0.2566  0.7775
 9261SOL    HW239417   0.738   4.264   3.061 -1.7597  1.5993  0.3246
 9262SOL     OW39418   4.541   4.136   2.966 -0.3286 -0.3077 -0.0495
 9262SOL    HW139419   4.495   4.122   2.884 -0.3792  0.5229 -0.1590
 9262SOL    HW239420   4.497   4.209   3.009 -1.9811 -0.8533 -0.8258
 9263SOL     OW39421   1.585   3.584   8.377 -0.1198 -0.0100  0.1931
 9263SOL    HW139422   1.572   3.547   8.465 -0.6487  1.7642  0.8579
 9263SOL    HW239423   1.496   3.592   8.344 -0.6977  3.1927  2.5769
 9264SOL     OW39424   1.525   3.411   0.638 -0.1624 -0.1737 -0.1063
 9264SOL    HW139425   1.609   3.391   0.597  0.6765  2.5556  0.2611
 9264SOL    HW239426   1.465   3.338   0.624  1.1285 -0.9407 -1.6545
 9265SOL     OW39427   2.463   2.764   5.399  0.0660 -0.7487 -0.5135
 9265SOL    HW139428   2.392   2.824   5.421  0.2497 -0.2338 -1.3202
 9265SOL    HW239429   2.426   2.677   5.415 -1.2071 -0.1458 -0.2609
 9266SOL     OW39430   2.410   0.926   5.329  0.5822  0.2946 -0.4529
 9266SOL    HW139431   2.369   0.841   5.319 -0.7486  1.1257 -2.0322
 9266SOL    HW239432   2.503   0.906   5.315  1.2060  1.6117  1.7126
 9267SOL     OW39433   1.365   4.095  11.236  0.9973  0.1351  0.2641
 9267SOL    HW139434   1.449   4.056  11.215  1.9941  1.7261  1.2690
 9267SOL    HW239435   1.324   4.020  11.280  1.1541 -2.3034 -3.7989
 9268SOL     OW39436   0.171   0.204   1.773  0.2754 -0.3965  0.2220
 9268SOL    HW139437   0.238   0.260   1.734  1.0598 -0.6196  1.2525
 9268SOL    HW239438   0.202   0.197   1.863  0.4746  1.5582  0.3213
 9269SOL     OW39439   3.887   3.697   7.282  0.4629 -0.5279  0.2928
 9269SOL    HW139440   3.832   3.702   7.204  0.1018  0.7070  0.6290
 9269SOL    HW239441   3.945   3.773   7.269 -0.4568 -0.0910 -1.1946
 9270SOL     OW39442   3.403   2.785   5.430 -0.4775 -0.0513 -0.3857
 9270SOL    HW139443   3.357   2.843   5.489  1.6547  0.1926  1.0278
 9270SOL    HW239444   3.492   2.819   5.441 -1.1997  1.2988  1.1901
 9271SOL     OW39445   1.737   0.414   3.181  0.0521 -0.1110  0.4831
 9271SOL    HW139446   1.712   0.401   3.272 -1.0736 -2.8203 -0.2197
 9271SOL    HW239447   1.689   0.338   3.148  0.1860  0.1424 -0.3048
 9272SOL     OW39448   0.944   3.987   4.015  0.4829  0.3161  0.6654
 9272SOL    HW139449   0.972   3.897   4.000 -0.6321 -0.1574  1.3909
 9272SOL    HW239450   0.854   3.974   4.045  0.8649 -0.1606  1.5865
 9273SOL     OW39451   2.294   2.643   4.625  0.0839  0.6299 -0.4854
 9273SOL    HW139452   2.246   2.713   4.579  2.0266  1.8718 -0.6324
 9273SOL    HW239453   2.286   2.575   4.558  0.3667  0.6510 -0.5411
 9274SOL     OW39454   2.219   0.369  16.791 -0.8397  0.6519 -0.0401
 9274SOL    HW139455   2.187   0.279  16.792 -0.6638  0.6125  1.6688
 9274SOL    HW239456   2.267   0.372  16.708  1.6516 -1.6187  1.3086
 9275SOL     OW39457   2.847   4.477   4.016  0.1296 -0.3248  0.1311
 9275SOL    HW139458   2.894   4.395   4.030 -1.3481 -1.3012 -0.5564
 9275SOL    HW239459   2.801   4.487   4.099  2.5909  1.1877  1.2870
 9276SOL     OW39460   1.133   0.221   7.016 -0.2523 -0.2413 -0.2175
 9276SOL    HW139461   1.152   0.168   7.094 -2.6314  3.0856  2.6230
 9276SOL    HW239462   1.218   0.265   7.011 -1.3848  2.1249  1.2873
 9277SOL     OW39463   1.125   3.243   3.575  0.0604 -0.9736 -0.1415
 9277SOL    HW139464   1.187   3.183   3.533  1.2099 -0.1309  0.3685
 9277SOL    HW239465   1.096   3.295   3.500 -0.0423 -2.1325 -0.9041
 9278SOL     OW39466   1.997   3.373   7.314  0.5834 -0.6176  0.4292
 9278SOL    HW139467   1.933   3.367   7.243 -0.1250  0.9366  0.9548
 9278SOL    HW239468   2.070   3.321   7.280 -0.4800 -2.3797  0.8162
 9279SOL     OW39469   2.887   0.288  11.341 -0.2741 -0.1034 -0.1070
 9279SOL    HW139470   2.864   0.376  11.312  0.2205  0.2826  0.6568
 9279SOL    HW239471   2.918   0.252  11.258 -0.3234  1.9571 -1.0168
 9280SOL     OW39472   0.836   2.532   4.879 -0.0038 -0.4622 -0.2526
 9280SOL    HW139473   0.811   2.622   4.902  3.0726  0.4106 -0.2696
 9280SOL    HW239474   0.930   2.549   4.882 -0.3393  1.0529  1.4475
 9281SOL     OW39475   3.850   3.694  15.493  0.3477 -0.4479 -0.2568
 9281SOL    HW139476   3.806   3.686  15.409 -0.7150 -0.4132  0.2867
 9281SOL    HW239477   3.913   3.762  15.472  0.8812  0.1540  3.2516
 9282SOL     OW39478   0.470   2.157   6.754 -0.4937 -0.0363 -0.2227
 9282SOL    HW139479   0.376   2.149   6.772 -0.3670  3.0076  1.7274
 9282SOL    HW239480   0.507   2.075   6.785 -0.2889  1.2498  2.8719
 9283SOL     OW39481   4.715   1.073   6.426 -0.0386 -0.5560  0.3261
 9283SOL    HW139482   0.016   1.069   6.513  0.8293 -0.1862 -0.0486
 9283SOL    HW239483   0.043   1.028   6.374  0.1423 -0.4884  0.5011
 9284SOL     OW39484   1.572   2.918  17.097 -0.0592  0.0492  0.3954
 9284SOL    HW139485   1.602   2.839  17.051 -1.5928  1.0588 -2.3130
 9284SOL    HW239486   1.627   2.930  17.175 -1.5015 -0.1983  1.4461
 9285SOL     OW39487   1.330   2.649  14.544 -0.1599 -0.1234 -0.3377
 9285SOL    HW139488   1.280   2.723  14.579 -1.6815 -1.0600 -0.5281
 9285SOL    HW239489   1.375   2.693  14.472  2.1054 -1.6344  0.1604
 9286SOL     OW39490   2.491   2.542   0.088 -0.2249  0.1926  0.2692
 9286SOL    HW139491   2.484   2.561  17.747  1.1528 -0.7954 -0.0384
 9286SOL    HW239492   2.407   2.498   0.100 -0.7710  2.0327  3.1041
 9287SOL     OW39493   2.736   4.317   6.250 -0.1952 -0.5226  0.3525
 9287SOL    HW139494   2.821   4.361   6.247 -1.0004  0.9421 -0.8206
 9287SOL    HW239495   2.679   4.373   6.302 -0.1270  3.1257 -3.4913
 9288SOL     OW39496   2.367   2.747   4.967  0.3936  0.4949  0.0673
 9288SOL    HW139497   2.313   2.823   4.988 -0.9097 -0.2630 -0.5728
 9288SOL    HW239498   2.425   2.744   5.043 -2.6684 -2.0559  2.3039
 9289SOL     OW39499   3.653   1.449   3.102 -0.1036  0.5324  1.4091
 9289SOL    HW139500   3.734   1.497   3.085 -0.4388 -0.2693 -2.3193
 9289SOL    HW239501   3.594   1.489   3.038  1.2388  0.1999 -0.0194
 9290SOL     OW39502   3.483   1.445   4.186  0.1023  0.5435 -0.1320
 9290SOL    HW139503   3.406   1.392   4.205 -2.1594  3.4232 -1.3667
 9290SOL    HW239504   3.538   1.397   4.248 -0.0515  1.0431  0.3902
 9291SOL     OW39505   3.424   1.483  12.664  0.1186  0.2214 -0.4307
 9291SOL    HW139506   3.455   1.515  12.579 -0.9347  0.2578 -0.8007
 9291SOL    HW239507   3.496   1.515  12.717  2.4528 -1.6141 -2.4652
 9292SOL     OW39508   3.516   3.568   4.822 -0.4578 -0.0379 -0.2912
 9292SOL    HW139509   3.527   3.496   4.761 -0.4411  0.3388 -0.7281
 9292SOL    HW239510   3.425   3.594   4.803 -0.3873  0.0990 -0.4395
 9293SOL     OW39511   2.209   3.828  17.472 -0.3767  0.4542 -0.7676
 9293SOL    HW139512   2.179   3.907  17.516 -0.2022  0.9290 -1.4981
 9293SOL    HW239513   2.266   3.860  17.402  0.1732 -1.3457 -1.1384
 9294SOL     OW39514   0.786   4.030  10.661 -0.0442 -0.5136 -0.3634
 9294SOL    HW139515   0.740   4.063  10.739  0.1720  0.4486 -0.6448
 9294SOL    HW239516   0.712   4.036  10.600 -0.8966  0.8515  0.7999
 9295SOL     OW39517   2.343   1.650   4.685  0.3621  0.2743  0.2975
 9295SOL    HW139518   2.379   1.586   4.623 -2.3336 -1.5056  0.5994
 9295SOL    HW239519   2.253   1.621   4.671  0.5910 -0.9955  1.5355
 9296SOL     OW39520   4.504   1.445   1.944 -0.7964  0.1083  0.2328
 9296SOL    HW139521   4.564   1.484   1.879  0.3086 -1.7599  0.1425
 9296SOL    HW239522   4.435   1.511   1.936 -1.9081 -0.9546  1.2734
 9297SOL     OW39523   1.739   3.041   1.104  0.0679  0.2419  0.1672
 9297SOL    HW139524   1.776   3.109   1.048 -1.6201  1.6109  0.6979
 9297SOL    HW239525   1.806   3.044   1.173  0.2443 -2.1138  0.0821
 9298SOL     OW39526   1.365   1.924   5.338  0.0862 -0.4338  0.3126
 9298SOL    HW139527   1.282   1.888   5.308 -1.4279  1.3735  2.3463
 9298SOL    HW239528   1.430   1.854   5.332 -0.2370 -0.5814 -1.4151
 9299SOL     OW39529   0.350   0.362   2.741 -0.0830  0.7970 -0.0147
 9299SOL    HW139530   0.255   0.372   2.733 -0.1854  1.4490  1.9150
 9299SOL    HW239531   0.369   0.445   2.784  2.8783 -0.0889  0.3366
 9300SOL     OW39532   2.366   3.549  14.896 -0.5439 -0.0178 -0.5546
 9300SOL    HW139533   2.304   3.506  14.837  0.9208  2.0960 -3.6611
 9300SOL    HW239534   2.345   3.639  14.872  1.2863  0.5037 -0.1903
 9301SOL     OW39535   2.570   1.219   0.041  0.6704 -0.4091 -0.3653
 9301SOL    HW139536   2.601   1.246   0.128  1.9056 -0.9250 -0.6574
 9301SOL    HW239537   2.580   1.124   0.037 -0.0781 -0.4437 -1.2464
 9302SOL     OW39538   1.049   1.613   1.291  0.0581 -0.0227 -0.1675
 9302SOL    HW139539   1.144   1.614   1.278 -0.0112 -0.3966 -0.7245
 9302SOL    HW239540   1.026   1.618   1.198  0.0562 -0.2064 -0.1783
 9303SOL     OW39541   3.243   0.703   2.721  0.6969 -0.2948 -0.0981
 9303SOL    HW139542   3.309   0.643   2.757 -0.7167 -0.2243  2.5681
 9303SOL    HW239543   3.294   0.769   2.674 -1.2593  0.6672 -0.8690
 9304SOL     OW39544   4.185   2.279   3.956 -0.0780 -0.0624  0.6436
 9304SOL    HW139545   4.251   2.346   3.976  0.9358  0.2040 -3.6444
 9304SOL    HW239546   4.215   2.215   4.020 -0.6747 -3.1879 -2.1890
 9305SOL     OW39547   3.621   2.498  11.616 -0.4887  0.1696 -0.0931
 9305SOL    HW139548   3.659   2.439  11.681 -0.9219  0.1197  0.1197
 9305SOL    HW239549   3.578   2.556  11.679 -1.4369  0.6722 -1.1901
 9306SOL     OW39550   0.970   1.179   7.461 -0.6583  0.5423 -0.4195
 9306SOL    HW139551   0.951   1.086   7.446 -1.1150  0.5652  0.0122
 9306SOL    HW239552   1.005   1.209   7.378  0.8107 -0.6155 -0.2243
 9307SOL     OW39553   2.734   0.983   6.281 -0.2956  0.4483 -0.1498
 9307SOL    HW139554   2.666   1.005   6.218 -0.5507  0.7510  0.2272
 9307SOL    HW239555   2.678   0.969   6.358 -0.8741 -0.6508 -0.7742
 9308SOL     OW39556   2.617   2.729  11.058  0.2788  0.4996  0.1214
 9308SOL    HW139557   2.612   2.823  11.044  0.4853  0.2857 -1.3862
 9308SOL    HW239558   2.639   2.723  11.151  1.5696  0.2257 -0.1973
 9309SOL     OW39559   1.142   0.234   2.422  0.4236  0.7854 -0.2856
 9309SOL    HW139560   1.049   0.213   2.417  1.3637 -3.1501 -0.9347
 9309SOL    HW239561   1.149   0.288   2.343  3.2365 -1.2887 -1.4214
 9310SOL     OW39562   2.053   2.986   1.937 -0.3078  0.1893 -0.0640
 9310SOL    HW139563   2.001   3.062   1.962  1.4013  0.7761  1.7688
 9310SOL    HW239564   2.062   2.943   2.022  1.0767  1.0661  0.2234
 9311SOL     OW39565   4.367   0.814   0.967  0.4573 -0.1270 -0.2617
 9311SOL    HW139566   4.335   0.873   1.034  1.1856 -1.8168  1.5766
 9311SOL    HW239567   4.286   0.798   0.919 -0.0661  1.0920  0.2317
 9312SOL     OW39568   3.671   3.131  14.947  0.2194 -0.2844  0.3235
 9312SOL    HW139569   3.620   3.075  14.890 -1.2836  2.2785 -0.8804
 9312SOL    HW239570   3.670   3.221  14.914 -1.5510 -0.8732 -1.1777
 9313SOL     OW39571   3.300   0.514   3.495 -0.1588  0.0330  0.0654
 9313SOL    HW139572   3.244   0.446   3.532  1.9607 -0.6537  2.0371
 9313SOL    HW239573   3.234   0.578   3.470  1.1327  1.7873  1.1711
 9314SOL     OW39574   3.196   2.308   0.848  0.0139 -0.2650  0.0165
 9314SOL    HW139575   3.217   2.402   0.844  2.1615 -0.7101  1.0014
 9314SOL    HW239576   3.108   2.298   0.811  1.0214  0.0818 -2.5026
 9315SOL     OW39577   1.327   0.815   9.487 -0.4462  0.1905 -0.1427
 9315SOL    HW139578   1.240   0.852   9.491 -0.0077  0.9475  2.3300
 9315SOL    HW239579   1.315   0.720   9.483 -0.8310  0.3628 -2.5847
 9316SOL     OW39580   3.585   2.687   9.176 -0.2351  0.1667 -0.0786
 9316SOL    HW139581   3.677   2.713   9.184 -0.1357 -0.6947  1.6132
 9316SOL    HW239582   3.585   2.623   9.247 -3.6927 -0.5222 -0.6836
 9317SOL     OW39583   0.222   2.284   7.616  0.2117  0.1885 -0.4102
 9317SOL    HW139584   0.256   2.371   7.597 -0.5336  0.9804  1.8524
 9317SOL    HW239585   0.132   2.313   7.602 -0.0492 -0.6250 -0.4351
 9318SOL     OW39586   2.333   1.156   3.650  0.2924 -0.1561 -0.2866
 9318SOL    HW139587   2.314   1.229   3.592  2.4801 -0.1249 -0.9315
 9318SOL    HW239588   2.426   1.170   3.666  1.0628 -3.1835 -1.9805
 9319SOL     OW39589   1.930   4.474   5.872 -0.4881  0.2759  0.8909
 9319SOL    HW139590   1.892   4.554   5.836 -1.1275  0.4955  2.0377
 9319SOL    HW239591   2.002   4.466   5.809 -1.3327  1.3676 -0.2101
 9320SOL     OW39592   2.175   1.644   3.933 -0.0529 -0.0326 -0.4201
 9320SOL    HW139593   2.237   1.591   3.884  1.6297  1.1456  0.4395
 9320SOL    HW239594   2.234   1.713   3.964 -0.6691  0.9719 -1.4847
 9321SOL     OW39595   1.158   2.490  10.803  0.0262  0.4539 -0.9201
 9321SOL    HW139596   1.110   2.482  10.886 -0.4572 -0.6527 -1.3058
 9321SOL    HW239597   1.245   2.456  10.822 -0.0819  0.4063 -0.4998
 9322SOL     OW39598   1.647   2.131   6.355 -0.8361 -0.5417 -0.0381
 9322SOL    HW139599   1.600   2.058   6.315  0.2105 -1.9893  1.4014
 9322SOL    HW239600   1.631   2.099   6.443  0.5662  0.7728  0.7015
 9323SOL     OW39601   1.885   3.077   2.564  0.0667 -0.2069  0.0039
 9323SOL    HW139602   1.959   3.022   2.537 -2.0084 -2.3262 -1.3744
 9323SOL    HW239603   1.908   3.087   2.656  1.4045  1.4978 -0.5129
 9324SOL     OW39604   4.628   0.466   0.161 -0.3747 -0.0795  0.2527
 9324SOL    HW139605   4.668   0.445   0.245  0.7779 -0.4302 -0.3814
 9324SOL    HW239606   4.657   0.556   0.146 -0.5424  0.0578  0.7496
 9325SOL     OW39607   2.949   3.315  17.367  0.0139 -1.0358 -0.6073
 9325SOL    HW139608   2.993   3.335  17.450 -1.1208 -1.2409  0.0474
 9325SOL    HW239609   2.897   3.393  17.346  1.7858 -0.1138 -1.5216
 9326SOL     OW39610   2.031   4.669   2.491 -0.5536 -0.2814  0.2828
 9326SOL    HW139611   2.024   4.598   2.427 -1.9503 -0.5917  0.7989
 9326SOL    HW239612   1.939   4.675   2.517 -0.8306  0.4393 -0.8594
 9327SOL     OW39613   0.176   3.428   5.822  0.4179  0.0124 -0.3259
 9327SOL    HW139614   0.264   3.390   5.813  0.2242 -0.5091 -0.0152
 9327SOL    HW239615   0.126   3.351   5.797 -0.3113  0.6610 -0.8702
 9328SOL     OW39616   4.602   1.261   3.356  0.5036 -0.2059 -0.0415
 9328SOL    HW139617   4.661   1.227   3.289 -0.7015 -0.2464 -1.0947
 9328SOL    HW239618   4.655   1.260   3.436  2.0076  1.9402 -1.0241
 9329SOL     OW39619   1.831   4.211   2.454 -0.2517 -0.2784 -0.1034
 9329SOL    HW139620   1.757   4.158   2.484  0.2664 -0.4315  0.9272
 9329SOL    HW239621   1.842   4.268   2.530 -0.2738 -0.0994 -0.2371
 9330SOL     OW39622   2.535   1.743  13.253 -0.1350 -0.7781 -0.3363
 9330SOL    HW139623   2.520   1.738  13.159  1.0160  0.0872 -0.5679
 9330SOL    HW239624   2.603   1.810  13.245 -1.8007  1.2742  2.6346
 9331SOL     OW39625   2.386   0.605  15.509  0.7747 -0.8262  0.2221
 9331SOL    HW139626   2.424   0.686  15.544  0.3732 -0.6806  0.3229
 9331SOL    HW239627   2.335   0.580  15.585  1.4776 -0.2992  0.8685
 9332SOL     OW39628   1.352   3.588   7.078  0.5780 -0.1022  0.8167
 9332SOL    HW139629   1.429   3.549   7.118  1.9063  2.4113  0.7222
 9332SOL    HW239630   1.394   3.637   7.007 -1.5505 -0.5952 -0.7983
 9333SOL     OW39631   2.326   1.237  11.766  0.1754 -0.1145  0.1789
 9333SOL    HW139632   2.316   1.141  11.764  1.5677 -0.2374 -1.6113
 9333SOL    HW239633   2.397   1.241  11.830 -1.5400 -2.5846  2.2448
 9334SOL     OW39634   2.550   1.850   2.390 -0.3187 -0.7072 -0.0482
 9334SOL    HW139635   2.599   1.822   2.467 -1.7181 -0.7594  0.8218
 9334SOL    HW239636   2.505   1.923   2.432  0.5678  0.0933 -0.4748
 9335SOL     OW39637   4.393   0.098   2.637 -0.2735  0.4382  0.2920
 9335SOL    HW139638   4.487   0.100   2.654  0.1595  1.9857 -2.1254
 9335SOL    HW239639   4.397   0.148   2.555 -0.9480  0.1739  0.0963
 9336SOL     OW39640   1.320   4.318  16.969  0.1729  0.2912  0.1604
 9336SOL    HW139641   1.405   4.291  16.934 -0.5985 -3.4284  1.0698
 9336SOL    HW239642   1.308   4.395  16.914  0.4073 -0.6627 -1.2540
 9337SOL     OW39643   4.509   2.839  13.721  0.3916  0.1580  0.1229
 9337SOL    HW139644   4.528   2.766  13.780  0.1809 -0.4092 -0.5140
 9337SOL    HW239645   4.601   2.864  13.710  0.3574  1.2821  2.3694
 9338SOL     OW39646   3.426   3.686  16.372 -0.1069 -0.3523 -0.0550
 9338SOL    HW139647   3.335   3.689  16.343  0.2362 -0.9851 -1.1905
 9338SOL    HW239648   3.436   3.764  16.426 -3.4689  0.7995 -1.1059
 9339SOL     OW39649   0.382   2.081   5.965  0.6296  0.2265 -0.6207
 9339SOL    HW139650   0.345   2.150   5.911  1.5471  0.3068 -1.1436
 9339SOL    HW239651   0.438   2.135   6.020  1.6650  0.8096 -2.2458
 9340SOL     OW39652   0.578   1.293  13.273 -0.3601  0.5870  0.4610
 9340SOL    HW139653   0.523   1.235  13.325  2.0152 -1.0145  1.2022
 9340SOL    HW239654   0.574   1.252  13.187 -0.1131  0.8269  0.3295
 9341SOL     OW39655   0.920   2.226   4.628 -0.4239  0.4895  0.1847
 9341SOL    HW139656   0.862   2.237   4.552  1.0211  0.8395 -0.8733
 9341SOL    HW239657   0.982   2.297   4.610 -1.0540  1.4623  1.8643
 9342SOL     OW39658   3.592   1.633   9.337  0.1006  0.3925 -0.6396
 9342SOL    HW139659   3.677   1.600   9.309 -0.0590 -2.1571  1.8650
 9342SOL    HW239660   3.578   1.715   9.290 -2.3172  0.5764  0.3921
 9343SOL     OW39661   0.791   4.688   4.179  0.2739  0.3969  0.4363
 9343SOL    HW139662   0.818   0.033   4.216  2.1787  0.0930 -0.2741
 9343SOL    HW239663   0.790   4.621   4.247  1.0805 -1.2036 -1.1036
 9344SOL     OW39664   2.634   1.346   0.679 -0.0808 -0.3282 -0.5413
 9344SOL    HW139665   2.630   1.312   0.768  1.2519  2.5262  0.6399
 9344SOL    HW239666   2.658   1.268   0.630  2.1925 -0.0055  0.0477
 9345SOL     OW39667   2.146   1.159   7.497  0.2711  0.2365  0.5452
 9345SOL    HW139668   2.211   1.167   7.428 -0.0814  1.4829  0.3598
 9345SOL    HW239669   2.187   1.218   7.561 -0.3007 -0.2950  1.4123
 9346SOL     OW39670   3.636   3.833   5.814 -0.3013  0.1853 -0.3889
 9346SOL    HW139671   3.718   3.853   5.768 -1.4830  0.0016 -2.5312
 9346SOL    HW239672   3.640   3.741   5.840  0.7611 -0.0150 -1.2590
 9347SOL     OW39673   4.212   0.005   0.698 -0.4312  0.0925  0.4920
 9347SOL    HW139674   4.145   4.704   0.643  0.3467  0.3811 -0.6465
 9347SOL    HW239675   4.289   4.695   0.671 -0.2863  1.3491 -1.3292
 9348SOL     OW39676   0.163   4.328  13.659  0.7477  0.2861  0.0102
 9348SOL    HW139677   0.079   4.364  13.686  1.0637  0.5819  0.5832
 9348SOL    HW239678   0.174   4.368  13.572 -0.5137 -1.8949 -1.1498
 9349SOL     OW39679   0.684   3.180   4.838  0.2549  0.6560 -0.2095
 9349SOL    HW139680   0.725   3.242   4.898  0.3912  2.4797 -2.1604
 9349SOL    HW239681   0.684   3.224   4.752 -0.7362  1.1331  0.0283
 9350SOL     OW39682   3.655   2.066   2.374  0.0206  0.0696  0.3251
 9350SOL    HW139683   3.636   2.102   2.287  0.7422 -1.1267 -0.3345
 9350SOL    HW239684   3.612   2.132   2.428  2.0381  2.7282 -1.3172
 9351SOL     OW39685   3.435   4.320   3.519 -0.4765  0.0090 -0.0660
 9351SOL    HW139686   3.351   4.360   3.495  0.0863  0.3237 -1.5705
 9351SOL    HW239687   3.491   4.318   3.441 -1.3141  1.4661 -0.7035
 9352SOL     OW39688   4.639   2.673  10.185  0.0873 -0.3353 -0.4849
 9352SOL    HW139689   4.545   2.664  10.198  0.1047 -0.4588 -0.4395
 9352SOL    HW239690   4.647   2.596  10.129 -3.0221 -2.5790  2.1363
 9353SOL     OW39691   2.045   1.158  17.514  0.7083  0.5493 -0.5699
 9353SOL    HW139692   2.026   1.123  17.427 -3.7938  0.1913  0.5840
 9353SOL    HW239693   2.001   1.091  17.567  1.4096  0.5241 -0.0025
 9354SOL     OW39694   2.404   3.867  15.096  0.1898  0.1310  0.5283
 9354SOL    HW139695   2.365   3.827  15.018 -1.0361 -2.2128  2.3326
 9354SOL    HW239696   2.476   3.910  15.050  1.1004 -1.1023  0.7980
 9355SOL     OW39697   4.332   2.565   1.482 -0.2202 -0.4051  0.2535
 9355SOL    HW139698   4.316   2.477   1.446  0.1325 -0.1155 -0.6225
 9355SOL    HW239699   4.246   2.576   1.522  0.1123  0.7362  0.6471
 9356SOL     OW39700   3.416   0.189  15.893 -0.0351  0.5409  0.5683
 9356SOL    HW139701   3.385   0.279  15.885  2.0531  1.1582 -0.4358
 9356SOL    HW239702   3.511   0.201  15.889 -0.4504  3.1843 -1.2631
 9357SOL     OW39703   3.390   3.234  10.772 -0.3109  0.2419 -0.2454
 9357SOL    HW139704   3.327   3.307  10.778 -0.6437  0.0206 -1.0577
 9357SOL    HW239705   3.338   3.156  10.792  1.7971 -1.6316 -2.0950
 9358SOL     OW39706   3.865   0.985  16.580 -0.4651  0.0687  0.9751
 9358SOL    HW139707   3.770   1.000  16.587 -0.4738  0.5391 -0.0661
 9358SOL    HW239708   3.892   1.047  16.513 -0.4539 -0.6893  0.2794
 9359SOL     OW39709   1.893   2.120   1.976 -0.4091 -0.4634  0.4150
 9359SOL    HW139710   1.983   2.154   1.969 -0.6654  0.0993 -0.2300
 9359SOL    HW239711   1.920   2.033   1.949  1.0233 -0.0973  0.6516
 9360SOL     OW39712   0.714   3.846   3.703  0.3116 -0.2691  0.7074
 9360SOL    HW139713   0.628   3.805   3.690  1.8481 -2.3086 -3.0409
 9360SOL    HW239714   0.684   3.906   3.771  0.6015 -0.0066  0.6015
 9361SOL     OW39715   0.639   4.612   8.964  0.3792  0.1896  0.3326
 9361SOL    HW139716   0.660   4.700   8.932  1.5762  0.0569  0.7342
 9361SOL    HW239717   0.609   4.577   8.881  1.0355  2.4095 -0.8471
 9362SOL     OW39718   4.122   3.498   1.960 -0.4956 -0.4366  0.2847
 9362SOL    HW139719   4.142   3.571   1.902  2.5685 -0.9184  0.7197
 9362SOL    HW239720   4.076   3.549   2.027 -0.6015 -1.1457  0.7472
 9363SOL     OW39721   3.108   4.527   7.493 -0.0259 -0.2279  0.2823
 9363SOL    HW139722   3.134   4.455   7.550  0.6360 -0.3644 -0.1969
 9363SOL    HW239723   3.057   4.576   7.557  1.2421 -2.8024  3.2920
 9364SOL     OW39724   2.361   2.342   3.184  0.3889  0.4756  0.6516
 9364SOL    HW139725   2.440   2.344   3.130 -0.8396  1.4779 -1.0785
 9364SOL    HW239726   2.296   2.383   3.127  0.6626  0.5937  0.4265
 9365SOL     OW39727   2.553   0.047   6.610  0.0881  0.1124 -0.3806
 9365SOL    HW139728   2.497   0.086   6.543 -1.2605 -0.6982  0.2791
 9365SOL    HW239729   2.640   0.070   6.578  0.2918 -1.0437 -0.6492
 9366SOL     OW39730   0.711   1.070   3.470  0.5801  0.2388 -0.2718
 9366SOL    HW139731   0.727   1.069   3.376  1.6993  1.9475 -0.0880
 9366SOL    HW239732   0.782   1.127   3.498  1.8943 -1.2795 -0.4819
 9367SOL     OW39733   1.485   1.596   8.771  0.0004  0.0488  0.6418
 9367SOL    HW139734   1.563   1.545   8.795 -0.5386 -1.1066 -0.0616
 9367SOL    HW239735   1.455   1.549   8.693  1.7449 -0.8681  0.5261
 9368SOL     OW39736   0.771   3.650   9.786  0.0085 -0.3085  0.3372
 9368SOL    HW139737   0.703   3.625   9.724  3.0121 -1.4110 -2.5719
 9368SOL    HW239738   0.857   3.648   9.742 -1.1535 -2.8856 -1.8143
 9369SOL     OW39739   0.821   0.459  17.122  0.1927 -0.0904 -0.3322
 9369SOL    HW139740   0.746   0.400  17.123 -0.0881  0.2806  0.3962
 9369SOL    HW239741   0.778   0.540  17.096  0.9211  0.1874 -0.6730
 9370SOL     OW39742   3.997   2.528   5.243  0.3503  0.1446 -0.3105
 9370SOL    HW139743   4.026   2.455   5.189  0.2241 -0.6091  0.6515
 9370SOL    HW239744   3.993   2.605   5.186 -2.9644  0.6757  0.6106
 9371SOL     OW39745   0.400   1.100   4.014  0.1391 -1.0142  0.8805
 9371SOL    HW139746   0.354   1.166   3.962 -0.0817 -1.4758  0.4797
 9371SOL    HW239747   0.376   1.015   3.975 -0.5938 -0.2013 -0.4259
 9372SOL     OW39748   0.655   1.388   9.983  0.2482 -0.3034  0.0773
 9372SOL    HW139749   0.610   1.457  10.033  0.4405 -0.8105  0.9588
 9372SOL    HW239750   0.716   1.452   9.947 -0.5607  0.3902 -0.0758
 9373SOL     OW39751   0.810   4.195   3.345 -0.3140 -0.3747 -0.3657
 9373SOL    HW139752   0.783   4.126   3.405 -1.2157 -0.0993 -0.4558
 9373SOL    HW239753   0.765   4.276   3.371  2.7568  0.7888  1.4260
 9374SOL     OW39754   3.375   3.989   4.026 -0.3857 -0.5446 -0.2242
 9374SOL    HW139755   3.461   4.031   4.031 -0.5990 -0.1041 -0.2336
 9374SOL    HW239756   3.372   3.960   3.935 -0.9347 -0.0170 -0.3828
 9375SOL     OW39757   0.455   3.844  10.904  0.3537 -0.4288  1.0839
 9375SOL    HW139758   0.538   3.856  10.951  0.7906  1.7028 -0.2360
 9375SOL    HW239759   0.387   3.845  10.972 -1.8279  0.1743 -1.0856
 9376SOL     OW39760   2.516   2.939  16.808 -0.6965  0.4065  0.2239
 9376SOL    HW139761   2.563   3.000  16.751  1.4499  0.4923  2.1145
 9376SOL    HW239762   2.563   2.857  16.796  1.4579  1.2264  3.1274
 9377SOL     OW39763   0.891   2.562   6.250 -0.1689  0.1754  0.6080
 9377SOL    HW139764   0.873   2.597   6.163  0.3653 -1.2908 -0.0934
 9377SOL    HW239765   0.949   2.487   6.236  1.0099  1.3443 -0.6527
 9378SOL     OW39766   2.502   4.196  11.839 -0.3149 -0.1162 -0.1171
 9378SOL    HW139767   2.441   4.209  11.766 -2.9082  3.0781  2.6238
 9378SOL    HW239768   2.469   4.108  11.857  0.2174  0.2805  2.7416
 9379SOL     OW39769   0.881   3.427   6.392  0.2474  0.3826 -0.0837
 9379SOL    HW139770   0.963   3.394   6.355 -0.8418 -2.2130 -0.1446
 9379SOL    HW239771   0.874   3.379   6.475 -0.9584  1.6601  0.5503
 9380SOL     OW39772   3.018   1.098   1.047  0.1278 -0.6506  0.0032
 9380SOL    HW139773   2.967   1.145   0.981  1.8384  1.2266  0.0248
 9380SOL    HW239774   3.011   1.009   1.011 -0.4924  0.0418 -1.5883
 9381SOL     OW39775   2.419   3.108  10.546  0.3054  0.0349 -0.5186
 9381SOL    HW139776   2.483   3.050  10.504 -0.3794 -0.4875 -0.8354
 9381SOL    HW239777   2.340   3.075  10.503 -0.9854  2.6425 -0.1243
 9382SOL     OW39778   4.521   0.825   2.248 -0.2105 -0.0328  0.3287
 9382SOL    HW139779   4.609   0.861   2.260  0.3045 -1.6622  1.4104
 9382SOL    HW239780   4.472   0.900   2.214  1.5380  0.1243 -1.8840
 9383SOL     OW39781   2.671   3.069   5.088 -0.0687  0.5285 -0.3845
 9383SOL    HW139782   2.766   3.078   5.082 -0.3159  2.3976 -1.5170
 9383SOL    HW239783   2.666   2.978   5.061  1.2337  0.3472  0.0036
 9384SOL     OW39784   1.946   3.900   5.950 -0.4825 -0.0259  0.0504
 9384SOL    HW139785   1.919   3.828   5.893 -2.1961  2.1182 -1.8354
 9384SOL    HW239786   1.935   3.974   5.890  1.8057 -1.8011 -2.5093
 9385SOL     OW39787   2.097   2.944   6.849  0.0750 -0.3308 -0.6878
 9385SOL    HW139788   2.139   2.866   6.885  0.1973  0.4086  0.7789
 9385SOL    HW239789   2.171   2.987   6.807  1.2463 -0.4344  1.2931
 9386SOL     OW39790   4.275   0.930   2.565 -0.0566 -0.0996  0.9605
 9386SOL    HW139791   4.279   0.863   2.498  0.6746  0.6069  0.3043
 9386SOL    HW239792   4.182   0.941   2.587  0.0182  1.1081  0.7041
 9387SOL     OW39793   0.934   1.183   6.276  0.1778 -0.6426 -0.4037
 9387SOL    HW139794   0.984   1.156   6.199  1.2284  0.7046 -0.2011
 9387SOL    HW239795   1.002   1.204   6.341 -1.2685 -1.5639  1.4039
 9388SOL     OW39796   0.543   3.567   6.742 -0.1673  0.3900 -0.5114
 9388SOL    HW139797   0.455   3.556   6.706 -0.5095 -0.1216  0.4830
 9388SOL    HW239798   0.592   3.580   6.661  0.1931  0.0605 -0.3448
 9389SOL     OW39799   3.973   0.628  15.585 -0.0214 -0.1681  0.5609
 9389SOL    HW139800   3.988   0.539  15.617 -1.5723 -0.9572 -0.8493
 9389SOL    HW239801   4.032   0.680  15.639 -0.5413  0.8871  0.1152
 9390SOL     OW39802   1.315   3.933   6.947  0.0337 -0.0024  0.5861
 9390SOL    HW139803   1.256   3.878   6.997  0.3291 -1.8850 -1.1411
 9390SOL    HW239804   1.256   3.958   6.876  0.6071 -1.2762 -0.3348
 9391SOL     OW39805   4.284   0.884   3.356  0.0290  0.0427  0.0805
 9391SOL    HW139806   4.255   0.916   3.441 -0.1827  0.1320 -0.0278
 9391SOL    HW239807   4.254   0.955   3.300  0.1030 -1.0587 -1.3555
 9392SOL     OW39808   2.864   0.316   3.922  0.2068  0.2851 -0.4580
 9392SOL    HW139809   2.894   0.226   3.923 -1.0608 -0.1541 -1.4966
 9392SOL    HW239810   2.782   0.315   3.873  0.8909  2.2766 -1.6565
 9393SOL     OW39811   2.042   1.554   9.754  0.1283 -0.0625 -0.5603
 9393SOL    HW139812   2.070   1.492   9.686  0.3617 -0.2904 -0.2544
 9393SOL    HW239813   1.947   1.556   9.748 -0.0577 -4.3510  0.9529
 9394SOL     OW39814   2.675   3.804   7.210 -0.2206 -0.3590 -0.1785
 9394SOL    HW139815   2.716   3.789   7.295 -1.3091 -0.0438  0.3979
 9394SOL    HW239816   2.583   3.829   7.221  0.1368  1.5985 -1.6579
 9395SOL     OW39817   2.507   3.180   7.577  0.1591  0.2592 -0.3891
 9395SOL    HW139818   2.425   3.214   7.613 -0.7407 -3.1329  0.6857
 9395SOL    HW239819   2.532   3.236   7.503 -0.5644  2.3083  0.9151
 9396SOL     OW39820   1.372   0.836   9.151 -0.9999  0.2196 -0.7626
 9396SOL    HW139821   1.419   0.858   9.232 -1.2052  0.9011 -0.8267
 9396SOL    HW239822   1.428   0.761   9.129 -2.9711 -0.8587 -2.1585
 9397SOL     OW39823   1.463   4.380   1.050  0.1416  0.4619  0.6314
 9397SOL    HW139824   1.390   4.396   1.110 -0.6847  0.1388 -0.2814
 9397SOL    HW239825   1.544   4.393   1.100  0.6315  0.1458 -0.0733
 9398SOL     OW39826   1.422   3.735  12.175  0.3309 -0.1436  0.1261
 9398SOL    HW139827   1.344   3.680  12.172  0.0840  0.1691  0.7283
 9398SOL    HW239828   1.489   3.668  12.189  0.7159  0.3657  0.7456
 9399SOL     OW39829   0.799   2.857  13.863  0.2014  0.4183  0.5584
 9399SOL    HW139830   0.859   2.875  13.935  0.6699  0.8554  0.0645
 9399SOL    HW239831   0.821   2.766  13.844  1.3182  0.7568  0.2376
 9400SOL     OW39832   1.381   2.818   9.023  0.1389  0.4913  0.0063
 9400SOL    HW139833   1.363   2.853   8.936  0.8838 -1.9692 -1.1298
 9400SOL    HW239834   1.309   2.854   9.075  1.4807  1.3257  1.2903
 9401SOL     OW39835   2.599   0.735  11.681 -0.0060  0.1381 -0.6009
 9401SOL    HW139836   2.600   0.761  11.588  2.5872 -0.2306 -0.6898
 9401SOL    HW239837   2.670   0.780  11.727 -0.6504  0.7956 -0.2401
 9402SOL     OW39838   1.474   0.705   8.306 -0.4115  0.4340  0.2244
 9402SOL    HW139839   1.447   0.720   8.215 -0.2108 -1.2717 -0.1080
 9402SOL    HW239840   1.384   0.686   8.333 -0.5914  0.4318 -0.3639
 9403SOL     OW39841   1.081   3.609   3.597  0.1844  0.4090  0.1187
 9403SOL    HW139842   1.100   3.686   3.651  1.0080  0.2166  0.1040
 9403SOL    HW239843   0.990   3.589   3.618 -0.0900  1.0799 -0.4318
 9404SOL     OW39844   3.232   3.970   5.155 -0.4136 -0.6264 -0.7587
 9404SOL    HW139845   3.230   4.063   5.178  2.8206 -0.8183  0.3021
 9404SOL    HW239846   3.316   3.939   5.191  0.5421  1.1315 -1.4670
 9405SOL     OW39847   1.152   2.307   7.001 -0.0616 -0.3358 -0.7071
 9405SOL    HW139848   1.241   2.319   7.035  0.4270 -0.4164 -1.9692
 9405SOL    HW239849   1.105   2.247   7.059  0.3207 -1.5974 -1.7148
 9406SOL     OW39850   0.934   3.337   3.746  0.2844  0.8635  0.1468
 9406SOL    HW139851   1.013   3.330   3.693 -0.6650  1.8805 -1.4337
 9406SOL    HW239852   0.882   3.397   3.692 -0.7982  0.5298  0.8257
 9407SOL     OW39853   0.931   2.851  17.524 -0.5988 -0.2791  0.1747
 9407SOL    HW139854   1.020   2.817  17.522  0.0182  1.2963  0.8467
 9407SOL    HW239855   0.900   2.853  17.434 -1.2828 -2.7139  0.3591
 9408SOL     OW39856   2.546   1.923  12.775  0.4308 -0.2302  0.6755
 9408SOL    HW139857   2.604   1.924  12.699  0.5789  2.8133  0.8529
 9408SOL    HW239858   2.525   2.016  12.783  0.3272 -0.1066 -1.0373
 9409SOL     OW39859   0.696   2.518   3.980  0.1885  0.9233  0.7721
 9409SOL    HW139860   0.602   2.509   3.968  0.6463 -0.5300 -1.7869
 9409SOL    HW239861   0.721   2.512   3.887 -1.3005 -1.6289  0.5447
 9410SOL     OW39862   1.143   2.725   6.409 -0.1336  0.3826  0.0456
 9410SOL    HW139863   1.136   2.816   6.439 -3.8625 -0.1055  0.5984
 9410SOL    HW239864   1.065   2.691   6.452 -0.9844  4.1216  1.5032
 9411SOL     OW39865   1.565   2.380   6.336 -0.4311  0.6192 -0.9844
 9411SOL    HW139866   1.587   2.292   6.365  0.4784  1.2101  0.1625
 9411SOL    HW239867   1.471   2.370   6.344  0.0160 -2.2253  0.8565
 9412SOL     OW39868   2.672   4.649   3.236 -0.3620 -0.2201 -0.4158
 9412SOL    HW139869   2.732   4.724   3.237 -2.4736  1.4677  0.6182
 9412SOL    HW239870   2.722   4.569   3.253  0.3056  0.6977  2.0180
 9413SOL     OW39871   0.299   0.875   8.774  0.1699 -0.4135  0.1443
 9413SOL    HW139872   0.391   0.890   8.795  0.7195 -3.2798 -0.2180
 9413SOL    HW239873   0.286   0.950   8.716  0.7869 -0.6701 -0.3214
 9414SOL     OW39874   0.971   2.212   6.368  0.4691  0.1762 -0.0174
 9414SOL    HW139875   1.040   2.225   6.433  0.3397 -0.0376  0.1650
 9414SOL    HW239876   1.012   2.271   6.306  0.1096  1.9213  1.3879
 9415SOL     OW39877   4.055   4.550  16.044 -0.7619  0.5065 -0.2810
 9415SOL    HW139878   4.116   4.554  15.970  0.4662  0.4762  0.7167
 9415SOL    HW239879   3.988   4.618  16.038 -0.3580  0.8778 -0.6764
 9416SOL     OW39880   3.347   0.639   4.454 -0.2950  0.0724  0.1000
 9416SOL    HW139881   3.379   0.719   4.412  0.5940  0.1143  0.8686
 9416SOL    HW239882   3.430   0.603   4.486 -0.0287  1.4615  0.9524
 9417SOL     OW39883   2.490   2.489   5.533 -0.0970 -0.0434  0.5382
 9417SOL    HW139884   2.419   2.503   5.470 -0.1938  1.5248  1.0122
 9417SOL    HW239885   2.444   2.419   5.580 -2.6970  1.4445  0.2138
 9418SOL     OW39886   2.766   1.343   9.719  1.3019 -0.4552  0.4277
 9418SOL    HW139887   2.856   1.351   9.751  2.1678 -2.3183 -1.5573
 9418SOL    HW239888   2.739   1.435   9.727  0.2437 -0.7427  0.1304
 9419SOL     OW39889   2.347   2.029   9.865  0.0395 -0.3580 -0.1009
 9419SOL    HW139890   2.434   1.995   9.846 -0.0901  0.2579 -1.7847
 9419SOL    HW239891   2.293   1.956   9.835 -0.7638  0.5074 -0.7407
 9420SOL     OW39892   0.443   3.221   4.006  0.1183  0.0722 -0.5393
 9420SOL    HW139893   0.413   3.132   4.022  1.0146  0.1786  1.6573
 9420SOL    HW239894   0.526   3.221   3.958 -1.1500 -0.3824 -2.7436
 9421SOL     OW39895   3.876   1.129   5.028 -0.6532  0.6097  0.7235
 9421SOL    HW139896   3.958   1.092   5.061  0.3894  2.6708  0.4747
 9421SOL    HW239897   3.858   1.085   4.945 -0.0529  0.9697  0.4036
 9422SOL     OW39898   4.592   1.288  12.572 -0.0076  0.1556  0.2462
 9422SOL    HW139899   4.533   1.356  12.604  0.5778  1.6652 -1.9149
 9422SOL    HW239900   4.612   1.319  12.484 -2.5526  0.4908 -0.2050
 9423SOL     OW39901   4.404   2.052   8.298 -0.0947  0.5069  0.2375
 9423SOL    HW139902   4.452   2.111   8.357  0.9034  0.4805 -0.5413
 9423SOL    HW239903   4.457   1.974   8.311 -1.3019  0.1706  3.0798
 9424SOL     OW39904   3.704   0.989   4.587  0.1187  0.0409  0.6066
 9424SOL    HW139905   3.758   0.997   4.666 -0.3909 -2.2824  1.1734
 9424SOL    HW239906   3.682   1.081   4.570  1.9037  0.0954 -1.3787
 9425SOL     OW39907   4.232   0.301   3.089 -0.1400 -0.0058  0.0514
 9425SOL    HW139908   4.246   0.345   3.173  0.0430 -0.0201  0.0301
 9425SOL    HW239909   4.262   0.213   3.111  0.5439 -0.5327 -2.9244
 9426SOL     OW39910   4.452   4.686   6.127  0.1528 -0.3087  0.1010
 9426SOL    HW139911   4.531   4.726   6.090 -0.0078  0.9447  1.0999
 9426SOL    HW239912   4.380   4.714   6.071 -0.5256 -1.4368  0.4140
 9427SOL     OW39913   0.907   2.675   1.381 -0.2331  0.0809 -0.4765
 9427SOL    HW139914   0.875   2.585   1.372  0.9172 -0.3440 -0.3297
 9427SOL    HW239915   0.902   2.708   1.291  1.0239  1.1115 -0.1671
 9428SOL     OW39916   2.626   3.261   5.892 -0.4112 -0.4391 -0.6461
 9428SOL    HW139917   2.600   3.333   5.834 -2.2945 -0.0501  0.6965
 9428SOL    HW239918   2.569   3.187   5.868 -0.2967 -0.3429 -1.2051
 9429SOL     OW39919   2.592   4.061   6.088 -0.0740  0.0994 -0.1762
 9429SOL    HW139920   2.653   4.134   6.104 -1.6918  1.1383  1.2943
 9429SOL    HW239921   2.618   4.036   6.000  0.1422  1.6676 -0.5689
 9430SOL     OW39922   3.158   2.302  11.736 -0.1414  0.0693  0.2930
 9430SOL    HW139923   3.118   2.216  11.752 -0.0295 -0.4051 -1.8751
 9430SOL    HW239924   3.240   2.300  11.785 -0.2831 -1.0708  0.4987
 9431SOL     OW39925   4.407   1.614   8.539 -0.4364 -0.1963  1.3494
 9431SOL    HW139926   4.332   1.639   8.594  0.3012  0.7544  1.9219
 9431SOL    HW239927   4.400   1.518   8.542  1.2786 -0.4666 -3.5985
 9432SOL     OW39928   2.723   3.748  16.458  0.0172  0.3256 -0.2979
 9432SOL    HW139929   2.731   3.842  16.472 -2.1281  0.5604 -0.7470
 9432SOL    HW239930   2.777   3.728  16.535  0.2453 -0.6603 -0.7025
 9433SOL     OW39931   0.266   3.314   2.341  0.1196 -0.1504  0.1146
 9433SOL    HW139932   0.360   3.327   2.357  0.4135 -1.0434 -0.8858
 9433SOL    HW239933   0.218   3.318   2.423  0.3061  3.1860  0.0675
 9434SOL     OW39934   4.624   0.211   5.618 -0.5852  0.1431  0.0262
 9434SOL    HW139935   4.567   0.288   5.613  0.8508  1.0132 -3.4835
 9434SOL    HW239936   4.626   0.196   5.523 -0.9168  0.5520 -0.0493
 9435SOL     OW39937   1.344   0.257   1.266 -0.6089  0.3956  0.6705
 9435SOL    HW139938   1.426   0.219   1.297 -0.7550 -0.0470  0.5247
 9435SOL    HW239939   1.354   0.222   1.177 -0.2494 -0.1258  0.9152
 9436SOL     OW39940   3.732   1.601  17.296  0.6262 -0.4722 -0.1896
 9436SOL    HW139941   3.721   1.519  17.248 -0.2674 -0.9088  0.7603
 9436SOL    HW239942   3.764   1.571  17.382 -0.9630  1.2250  0.9769
 9437SOL     OW39943   1.507   0.529   7.825 -0.2451  0.0873  0.1685
 9437SOL    HW139944   1.555   0.501   7.747  1.7390  1.5295  0.8663
 9437SOL    HW239945   1.547   0.616   7.832 -0.1275 -0.0053  0.6656
 9438SOL     OW39946   0.297   1.622   3.793  0.0223 -1.0176 -0.1311
 9438SOL    HW139947   0.384   1.581   3.799 -0.3485 -1.6751  0.5900
 9438SOL    HW239948   0.281   1.658   3.880  1.3003 -0.8198  0.0272
 9439SOL     OW39949   4.128   0.431   6.904  0.3924 -0.6612 -0.5468
 9439SOL    HW139950   4.115   0.373   6.829 -2.6261  0.2160 -0.6684
 9439SOL    HW239951   4.060   0.401   6.963 -0.0676 -0.5250 -1.0121
 9440SOL     OW39952   2.693   4.429   8.792  0.0310 -0.5065  0.0527
 9440SOL    HW139953   2.695   4.510   8.741  2.0895  0.0541  1.0283
 9440SOL    HW239954   2.783   4.399   8.779  0.0462 -0.1967 -0.5139
 9441SOL     OW39955   2.157   2.527   3.456 -0.4331 -0.3143 -0.2031
 9441SOL    HW139956   2.186   2.599   3.400  1.8028 -0.9919  0.0837
 9441SOL    HW239957   2.079   2.504   3.407  0.5840  0.1178 -2.0365
 9442SOL     OW39958   1.988   0.590   5.498 -0.0995  0.1227 -0.1474
 9442SOL    HW139959   1.916   0.586   5.435 -0.2363 -1.9948  0.1417
 9442SOL    HW239960   1.997   0.495   5.505  0.7766  0.2935  1.0206
 9443SOL     OW39961   3.846   1.530   8.040  0.0191 -0.3963 -0.2751
 9443SOL    HW139962   3.865   1.613   7.995 -1.5598  1.0666  1.7841
 9443SOL    HW239963   3.930   1.484   8.030  0.4438 -0.2868  2.8285
 9444SOL     OW39964   2.907   0.008   4.525 -0.3086  0.6289  0.3684
 9444SOL    HW139965   2.854   4.734   4.604  1.5913 -3.3199  1.0661
 9444SOL    HW239966   2.904   0.102   4.510 -0.8372  0.3191 -1.3555
 9445SOL     OW39967   3.228   4.589   3.593  0.4318 -0.5019 -0.0108
 9445SOL    HW139968   3.234   4.554   3.504 -0.4192  0.7491 -0.5685
 9445SOL    HW239969   3.149   4.541   3.617 -0.2076  1.2314  1.3736
 9446SOL     OW39970   2.658   2.874   0.435 -0.2792  1.3462 -0.4636
 9446SOL    HW139971   2.740   2.829   0.416 -2.7728 -3.4082  0.1652
 9446SOL    HW239972   2.656   2.861   0.530 -0.6878  0.1824 -0.6325
 9447SOL     OW39973   2.566   3.767   0.038 -0.3369 -0.0370 -0.1303
 9447SOL    HW139974   2.570   3.796   0.129 -1.6396 -1.4294  0.3623
 9447SOL    HW239975   2.483   3.722   0.026 -1.4375  1.9583 -0.0740
 9448SOL     OW39976   2.786   3.097   6.277 -0.1445  0.8135 -0.7242
 9448SOL    HW139977   2.767   3.159   6.347 -0.6044  0.6313 -0.6866
 9448SOL    HW239978   2.695   3.070   6.262 -0.6344  2.0507  0.0678
 9449SOL     OW39979   2.627   0.668   7.051 -0.4199  0.2144 -0.3284
 9449SOL    HW139980   2.646   0.574   7.060 -0.1884  0.1204 -1.7727
 9449SOL    HW239981   2.669   0.693   7.133 -0.3325  1.7391 -0.8485
 9450SOL     OW39982   2.765   4.646   4.804  0.7466  0.2266 -0.0663
 9450SOL    HW139983   2.853   4.664   4.835  0.5674  0.7672  0.1312
 9450SOL    HW239984   2.775   4.555   4.775 -0.9804 -0.1855  0.6374
 9451SOL     OW39985   2.404   1.672   4.358 -0.2845 -0.2779 -0.0753
 9451SOL    HW139986   2.386   1.585   4.322  0.0603 -0.4412  0.1459
 9451SOL    HW239987   2.373   1.740   4.299  0.0629 -2.0270 -2.2580
 9452SOL     OW39988   0.718   1.291  10.353  0.7736 -0.3362  0.0803
 9452SOL    HW139989   0.787   1.225  10.357  0.4048 -0.7507 -0.3744
 9452SOL    HW239990   0.744   1.356  10.418 -0.0546 -2.0258  2.0780
 9453SOL     OW39991   1.401   4.239   3.868  0.3427  0.1214 -0.1765
 9453SOL    HW139992   1.321   4.192   3.844  0.6131 -1.0285  1.1850
 9453SOL    HW239993   1.437   4.227   3.780  1.9628  1.3443  0.3175
 9454SOL     OW39994   2.171   0.302   6.339  0.1325  0.5515  0.4734
 9454SOL    HW139995   2.106   0.343   6.396  2.1624  1.2648  2.2492
 9454SOL    HW239996   2.180   0.370   6.271 -1.5595  0.3495  0.0478
 9455SOL     OW39997   1.258   0.358   9.476  0.1089  0.0075 -0.1278
 9455SOL    HW139998   1.240   0.266   9.462 -2.0366  0.3546  0.4243
 9455SOL    HW239999   1.294   0.350   9.565  0.4051  3.3740  0.0513
 9456SOL     OW40000   3.882   0.745  10.790 -0.5330 -0.3365  0.1397
 9456SOL    HW140001   3.878   0.836  10.820 -0.3086  0.3540 -1.9241
 9456SOL    HW240002   3.799   0.711  10.822  0.0841 -0.0013  2.1094
 9457SOL     OW40003   1.247   4.725   0.986 -0.3291 -0.1333 -0.4515
 9457SOL    HW140004   1.175   0.044   0.961 -1.2565 -0.5228  1.3142
 9457SOL    HW240005   1.267   4.666   0.913 -3.2939 -1.1007 -0.4934
 9458SOL     OW40006   4.216   4.069  16.651  0.3486  0.7782  0.5885
 9458SOL    HW140007   4.235   3.975  16.663  1.6682  1.0128  0.3693
 9458SOL    HW240008   4.159   4.068  16.575 -0.2450 -0.1092  1.0424
 9459SOL     OW40009   1.196   4.473   7.284 -0.1828  0.2178 -0.1107
 9459SOL    HW140010   1.164   4.383   7.282 -0.1059  0.1570  2.2247
 9459SOL    HW240011   1.236   4.477   7.197 -0.6479  0.0321 -0.3313
 9460SOL     OW40012   0.610   3.801  13.641  0.1801 -0.9747 -0.0219
 9460SOL    HW140013   0.697   3.840  13.640  0.9546 -2.7943 -2.4027
 9460SOL    HW240014   0.556   3.866  13.596  4.4227  1.1619 -2.0271
 9461SOL     OW40015   4.440   4.187   7.182  0.1880  0.1080  0.2465
 9461SOL    HW140016   4.509   4.203   7.247 -1.5023  1.0483  1.8129
 9461SOL    HW240017   4.381   4.262   7.188 -0.1957 -0.0250 -1.8340
 9462SOL     OW40018   0.991   1.005   7.893 -0.1530 -0.2750 -0.0407
 9462SOL    HW140019   0.896   1.014   7.903 -0.3719 -2.2789 -0.2522
 9462SOL    HW240020   1.016   1.095   7.911 -0.4222 -0.1185 -0.4441
 9463SOL     OW40021   4.124   1.306   8.423  0.0547  0.3501 -0.6509
 9463SOL    HW140022   4.070   1.229   8.404  0.0988  0.5606 -1.6408
 9463SOL    HW240023   4.063   1.373   8.453 -0.2971 -0.1299 -0.2913
 9464SOL     OW40024   3.399   2.357   4.033  0.4136 -0.0759 -0.0766
 9464SOL    HW140025   3.430   2.301   3.962  1.9382  0.8756 -0.1595
 9464SOL    HW240026   3.420   2.445   4.001  2.7871 -0.8857 -0.7320
 9465SOL     OW40027   1.004   0.551  16.065 -0.3667  0.5209 -0.3049
 9465SOL    HW140028   1.054   0.629  16.043 -0.0313 -0.0227 -1.4629
 9465SOL    HW240029   0.925   0.581  16.021 -0.2921  0.6620 -0.3425
 9466SOL     OW40030   3.444   2.199   6.254 -0.1268 -0.2178  0.7864
 9466SOL    HW140031   3.389   2.121   6.246 -0.4432 -0.0003  0.8668
 9466SOL    HW240032   3.426   2.223   6.345  0.9698  3.2449  0.0965
 9467SOL     OW40033   4.727   0.702  10.055  0.5383  0.0519 -0.4784
 9467SOL    HW140034   0.047   0.761  10.009  2.7375 -1.8530 -0.1025
 9467SOL    HW240035   0.028   0.699  10.142 -2.0414 -2.3793  0.5978
 9468SOL     OW40036   0.074   4.205   4.785 -0.1859 -0.4373 -0.6018
 9468SOL    HW140037   0.148   4.257   4.755 -0.1151  0.1642  0.6031
 9468SOL    HW240038   0.101   4.114   4.777  2.1955 -0.0628  3.1111
 9469SOL     OW40039   1.412   1.802   8.625  0.3326  0.5653 -0.0458
 9469SOL    HW140040   1.320   1.778   8.612  0.1335  0.6242  1.3424
 9469SOL    HW240041   1.436   1.725   8.676  0.3283  0.4123 -0.2707
 9470SOL     OW40042   0.550   3.857   7.525  0.3336 -0.1585  0.0488
 9470SOL    HW140043   0.498   3.788   7.485  0.4586  0.4606 -1.1756
 9470SOL    HW240044   0.624   3.797   7.532  0.3523 -0.0076  1.2316
 9471SOL     OW40045   4.073   3.805  16.124  0.3519  0.5183  0.4473
 9471SOL    HW140046   4.102   3.884  16.078  1.1009  0.8048  1.4138
 9471SOL    HW240047   4.113   3.816  16.210  1.5018  0.6319 -0.0984
 9472SOL     OW40048   1.798   4.645   4.593  0.0644  0.5975 -0.7449
 9472SOL    HW140049   1.893   4.653   4.583  0.0194  1.7277 -0.2745
 9472SOL    HW240050   1.780   4.606   4.507 -1.0080  2.4778 -1.3765
 9473SOL     OW40051   1.904   2.789   3.098 -0.9006  0.0604 -0.1016
 9473SOL    HW140052   1.840   2.854   3.070  0.1902 -0.7125 -4.4388
 9473SOL    HW240053   1.848   2.713   3.082 -0.5156 -0.1221 -0.6030
 9474SOL     OW40054   1.344   0.501   1.830 -0.9029  0.2004 -0.4640
 9474SOL    HW140055   1.280   0.431   1.815  0.3145 -1.1616  0.6721
 9474SOL    HW240056   1.329   0.557   1.754  1.4327  1.3928 -0.0669
 9475SOL     OW40057   2.784   4.595   0.223  0.1204  0.5736 -0.0157
 9475SOL    HW140058   2.835   4.676   0.222 -2.7424  2.3785 -1.6976
 9475SOL    HW240059   2.854   4.530   0.224  0.5372  1.0786  1.8587
 9476SOL     OW40060   0.521   3.378   2.442 -0.0057  0.0471 -0.2791
 9476SOL    HW140061   0.553   3.392   2.531 -0.6398 -1.0283  0.1049
 9476SOL    HW240062   0.577   3.439   2.393  0.1168  0.5893  0.5291
 9477SOL     OW40063   2.510   4.610  13.444 -0.1597  0.0087 -0.0922
 9477SOL    HW140064   2.465   4.651  13.517  0.9893 -0.9777  1.1818
 9477SOL    HW240065   2.561   4.680  13.405 -0.3387  0.6632  0.8511
 9478SOL     OW40066   2.562   3.017   1.481  0.0207  1.2380 -0.1295
 9478SOL    HW140067   2.509   2.952   1.436  0.8433  0.1096  0.5416
 9478SOL    HW240068   2.496   3.086   1.483 -0.3464  0.8239  1.5814
 9479SOL     OW40069   1.671   1.513  12.746  0.2654  0.0800  0.2775
 9479SOL    HW140070   1.664   1.592  12.693 -3.1331 -0.4525 -0.0830
 9479SOL    HW240071   1.585   1.471  12.736  0.1034  0.9063 -1.7263
 9480SOL     OW40072   0.762   3.698   5.085  0.2264  0.5333 -0.0606
 9480SOL    HW140073   0.812   3.659   5.157 -1.7624  1.1669  1.6700
 9480SOL    HW240074   0.770   3.787   5.119 -1.1368 -0.0269  1.7369
 9481SOL     OW40075   2.962   1.158   7.966  0.4479  0.5139 -0.4404
 9481SOL    HW140076   2.898   1.229   7.953 -0.0452  0.4343  1.5648
 9481SOL    HW240077   2.898   1.101   8.008  0.6002  0.4146 -0.3452
 9482SOL     OW40078   3.808   2.044  10.567 -0.5217 -0.2643  1.0617
 9482SOL    HW140079   3.764   1.959  10.562  0.6447 -0.6830 -2.2136
 9482SOL    HW240080   3.866   2.033  10.642  0.4403 -2.7862 -0.0544
 9483SOL     OW40081   1.466   0.218   4.266  0.0202 -0.0186  0.0730
 9483SOL    HW140082   1.473   0.310   4.292  1.5320 -0.1816  0.2833
 9483SOL    HW240083   1.401   0.193   4.332 -2.7162  0.3073 -2.5059
 9484SOL     OW40084   2.739   3.598  12.047  0.0745 -0.1562 -0.1646
 9484SOL    HW140085   2.661   3.591  11.993 -0.3861 -2.4890  0.8027
 9484SOL    HW240086   2.798   3.528  12.017  0.1425 -0.8251  1.5310
 9485SOL     OW40087   3.732   0.413   9.131 -0.2877  0.3160 -0.7568
 9485SOL    HW140088   3.679   0.366   9.195 -0.1174  2.9663  1.3188
 9485SOL    HW240089   3.673   0.434   9.058 -0.6776  0.1892 -0.4779
 9486SOL     OW40090   3.323   4.634   6.025  0.3582  0.2581  0.1787
 9486SOL    HW140091   3.312   4.726   6.003 -0.2159  0.0201 -0.5384
 9486SOL    HW240092   3.263   4.638   6.100  0.6056 -1.1984  0.4576
 9487SOL     OW40093   2.106   3.412  11.559 -0.7025 -0.2538  0.0786
 9487SOL    HW140094   2.170   3.481  11.578 -0.1638 -1.8208  4.0255
 9487SOL    HW240095   2.093   3.377  11.647 -0.6665  0.0809  0.2144
 9488SOL     OW40096   3.270   2.329   4.281 -0.1026  0.1151  0.0297
 9488SOL    HW140097   3.190   2.316   4.230 -0.2900 -0.8634  0.5869
 9488SOL    HW240098   3.328   2.346   4.207 -0.5071  1.4807  0.0111
 9489SOL     OW40099   1.100   3.512  14.880  0.0745  0.0090 -0.1597
 9489SOL    HW140100   1.036   3.575  14.912  0.3826  0.6947 -0.9092
 9489SOL    HW240101   1.105   3.534  14.787 -1.2499  2.4671  0.3633
 9490SOL     OW40102   2.411   2.256   5.290 -0.4342 -0.0210  0.0771
 9490SOL    HW140103   2.327   2.228   5.255 -0.3040  0.1608 -0.3763
 9490SOL    HW240104   2.401   2.350   5.298 -2.4734 -0.3472  1.2121
 9491SOL     OW40105   3.859   2.985  13.420  0.2173 -0.0985 -0.5025
 9491SOL    HW140106   3.793   3.018  13.481  1.3217  0.2859  0.4748
 9491SOL    HW240107   3.933   2.968  13.478  0.2867 -1.6255 -1.0285
 9492SOL     OW40108   2.705   0.093   8.390  0.1791  0.5474 -0.1577
 9492SOL    HW140109   2.682   0.185   8.404  4.5456  1.5142  0.5391
 9492SOL    HW240110   2.730   0.090   8.298 -0.2900  0.8898 -0.2975
 9493SOL     OW40111   2.267   1.363   9.073  0.0823 -0.5215 -0.5516
 9493SOL    HW140112   2.323   1.415   9.130  0.1887 -1.0936 -0.1358
 9493SOL    HW240113   2.275   1.277   9.115  1.1809 -0.0118  0.2855
 9494SOL     OW40114   0.006   2.414   4.692  0.1451 -0.0469 -0.0455
 9494SOL    HW140115   0.082   2.377   4.737 -0.0227 -2.9916 -2.1642
 9494SOL    HW240116   4.671   2.395   4.749 -0.0215 -1.9415 -0.8877
 9495SOL     OW40117   3.175   1.190   8.374 -0.3141 -0.0993  0.1632
 9495SOL    HW140118   3.235   1.262   8.392 -0.0689 -0.2428 -0.0781
 9495SOL    HW240119   3.166   1.167   8.467 -1.9455 -0.0369  0.0269
 9496SOL     OW40120   1.758   3.437   6.622 -0.2899 -0.0384 -0.0291
 9496SOL    HW140121   1.844   3.426   6.582  0.2659  1.2312  0.8444
 9496SOL    HW240122   1.785   3.483   6.701 -0.3034 -1.5876  0.8897
 9497SOL     OW40123   4.050   4.588   8.903  0.4578  0.4819 -0.0961
 9497SOL    HW140124   4.118   4.541   8.951 -0.9272 -2.2471 -0.7643
 9497SOL    HW240125   4.002   4.515   8.862 -0.1268 -0.4075  2.1249
 9498SOL     OW40126   3.199   0.100  16.570  0.4277 -0.4202  0.5923
 9498SOL    HW140127   3.106   0.079  16.579 -0.1344  2.0906  0.5796
 9498SOL    HW240128   3.231   0.107  16.660 -0.1777  0.1149  0.7629
 9499SOL     OW40129   0.506   2.152   4.814 -0.5519 -0.0588  0.2127
 9499SOL    HW140130   0.583   2.208   4.825  1.0548 -2.8067  3.1255
 9499SOL    HW240131   0.506   2.150   4.719 -2.8199 -0.8723  0.2262
 9500SOL     OW40132   0.623   1.878   5.295 -0.1936 -0.0264  0.0407
 9500SOL    HW140133   0.590   1.903   5.209 -0.6613 -1.6088 -0.2366
 9500SOL    HW240134   0.627   1.961   5.341 -2.2026 -0.8163  1.6164
 9501SOL     OW40135   0.555   0.070  12.373 -0.5489 -0.0011 -0.5655
 9501SOL    HW140136   0.484   0.128  12.402 -1.3471 -2.2542  1.9020
 9501SOL    HW240137   0.508   4.736  12.333 -0.7224 -0.6527  0.8423
 9502SOL     OW40138   3.659   3.648   6.140 -0.2700  0.0026 -0.5539
 9502SOL    HW140139   3.669   3.600   6.058 -0.3306 -0.1098 -0.4959
 9502SOL    HW240140   3.575   3.616   6.172  0.1214 -0.7706 -0.2913
 9503SOL     OW40141   1.324   0.951   5.234  0.0461 -0.3012 -0.5452
 9503SOL    HW140142   1.371   1.032   5.253  0.1630 -0.0092 -2.1564
 9503SOL    HW240143   1.358   0.915   5.152  0.8040 -0.5123 -0.1339
 9504SOL     OW40144   0.891   1.252   9.079  1.0572  0.7300 -0.1139
 9504SOL    HW140145   0.836   1.296   9.143  2.1525  1.4750  0.3061
 9504SOL    HW240146   0.878   1.161   9.107 -2.0605  0.9353 -0.8566
 9505SOL     OW40147   2.947   1.432   9.494 -0.0376  0.3660 -0.4265
 9505SOL    HW140148   2.890   1.436   9.570 -0.2025  0.8269 -0.5750
 9505SOL    HW240149   2.896   1.486   9.434  0.5086  1.4664  0.1120
 9506SOL     OW40150   1.092   2.960   8.068 -0.0195  0.1998 -0.7853
 9506SOL    HW140151   1.136   2.887   8.112 -0.3348  0.9415  0.7645
 9506SOL    HW240152   1.136   3.032   8.113 -1.5243 -0.2194  1.3585
 9507SOL     OW40153   4.237   1.724   8.750  0.0281  0.3099 -0.0674
 9507SOL    HW140154   4.240   1.817   8.772  2.7003  0.4854 -1.0856
 9507SOL    HW240155   4.269   1.687   8.832 -1.4805 -0.1280  0.3159
 9508SOL     OW40156   3.582   0.690  14.598 -0.7891 -0.4678  0.5549
 9508SOL    HW140157   3.631   0.621  14.643  1.5608  0.0151 -1.2149
 9508SOL    HW240158   3.492   0.667  14.621 -0.6569 -1.3814  0.1872
 9509SOL     OW40159   3.553   0.458   8.932 -0.5387  0.2569 -0.0097
 9509SOL    HW140160   3.529   0.547   8.956  1.3101  0.7079  0.1782
 9509SOL    HW240161   3.468   0.417   8.918 -2.0891  2.7180  2.1593
 9510SOL     OW40162   1.145   3.419   5.720  0.0485  0.4857  0.1732
 9510SOL    HW140163   1.173   3.445   5.633 -0.4315  0.2261 -0.0571
 9510SOL    HW240164   1.121   3.327   5.709  0.7449  0.5270 -1.6466
 9511SOL     OW40165   3.219   3.653  16.687 -0.2392  0.1873  0.7969
 9511SOL    HW140166   3.301   3.702  16.683 -0.0153 -0.2951 -0.6670
 9511SOL    HW240167   3.164   3.725  16.717  1.3783  1.1527  1.4230
 9512SOL     OW40168   0.469   1.011   3.195 -0.5904  0.3397 -0.2670
 9512SOL    HW140169   0.512   1.049   3.119 -1.0098  0.9994 -0.1727
 9512SOL    HW240170   0.406   0.962   3.144  0.8500  0.5797 -2.2720
 9513SOL     OW40171   2.799   0.701   8.981  0.2678 -0.5617 -0.0821
 9513SOL    HW140172   2.873   0.755   9.009 -1.1346  1.0283  0.5357
 9513SOL    HW240173   2.838   0.613   8.987 -1.8860 -1.6049 -1.4703
 9514SOL     OW40174   0.356   1.830   5.100 -0.2788 -0.3998 -0.3051
 9514SOL    HW140175   0.429   1.876   5.057  0.8756 -1.9262  0.0227
 9514SOL    HW240176   0.335   1.893   5.169 -0.3280  0.9908 -1.5987
 9515SOL     OW40177   3.636   1.226   6.687 -0.0934  0.6357  0.2930
 9515SOL    HW140178   3.647   1.189   6.599 -0.6169  1.1035  0.0292
 9515SOL    HW240179   3.611   1.147   6.735 -1.6430  0.1382 -1.2982
 9516SOL     OW40180   2.845   3.156   5.584 -0.0988 -1.1192 -0.0992
 9516SOL    HW140181   2.843   3.251   5.582 -0.1219 -1.1243 -0.3076
 9516SOL    HW240182   2.846   3.140   5.490 -0.9510 -2.3486  0.1047
 9517SOL     OW40183   4.618   4.306   2.596 -0.2530 -0.2109  0.4826
 9517SOL    HW140184   4.693   4.313   2.655 -0.8997 -1.7904  1.4921
 9517SOL    HW240185   4.619   4.212   2.579  0.2330 -0.1510  0.1830
 9518SOL     OW40186   1.469   1.180  10.606  0.0875  0.6863  0.0088
 9518SOL    HW140187   1.493   1.252  10.664  1.7886  0.2735 -0.1817
 9518SOL    HW240188   1.540   1.116  10.621 -0.5144 -0.6120 -2.7447
 9519SOL     OW40189   1.356   2.024   7.037 -0.4264 -0.2517  0.5060
 9519SOL    HW140190   1.441   1.981   7.024 -0.7486 -0.7341 -0.0321
 9519SOL    HW240191   1.353   2.080   6.959  2.3322 -0.3734  0.3181
 9520SOL     OW40192   1.682   0.183   4.842  0.6077 -0.2247  0.4649
 9520SOL    HW140193   1.775   0.204   4.833  0.4478  0.9294  1.5709
 9520SOL    HW240194   1.655   0.260   4.892  0.0861 -0.4007  0.4580
 9521SOL     OW40195   4.289   3.159   0.033  0.4530 -0.3105  0.1760
 9521SOL    HW140196   4.213   3.128   0.083  0.1372  1.4783  0.7927
 9521SOL    HW240197   4.240   3.209  17.721  0.7842  2.0947  1.7879
 9522SOL     OW40198   0.342   4.342   0.363 -0.1247  0.2562 -0.5019
 9522SOL    HW140199   0.300   4.273   0.311  1.0352 -0.8883  0.0778
 9522SOL    HW240200   0.431   4.335   0.328  1.0484  0.6436  2.4479
 9523SOL     OW40201   0.782   1.664  13.658  0.0630  0.3171  0.7034
 9523SOL    HW140202   0.844   1.667  13.586 -1.2633 -0.6219 -0.4802
 9523SOL    HW240203   0.762   1.571  13.672  5.0818 -0.8907 -0.3926
 9524SOL     OW40204   1.862   0.937   5.321  0.4247  0.1737  0.0919
 9524SOL    HW140205   1.878   0.948   5.414  0.2959 -2.1367  0.3781
 9524SOL    HW240206   1.927   0.868   5.305  0.1559 -0.3263  1.1633
 9525SOL     OW40207   2.458   3.292   5.515 -0.1157 -0.0751  0.1170
 9525SOL    HW140208   2.465   3.204   5.553  0.3888 -0.1546 -0.1636
 9525SOL    HW240209   2.388   3.285   5.450  1.5065  0.8405 -1.7125
 9526SOL     OW40210   4.503   2.709   8.379  0.5873  0.1194  0.6821
 9526SOL    HW140211   4.505   2.675   8.468  2.2707 -2.6007 -0.3880
 9526SOL    HW240212   4.575   2.663   8.334  1.5810 -0.0451  2.4612
 9527SOL     OW40213   0.229   3.524   4.919 -0.8386 -0.2147  0.0591
 9527SOL    HW140214   0.308   3.472   4.931 -1.9131 -1.9778 -0.5596
 9527SOL    HW240215   0.187   3.481   4.845  1.2879 -0.2565 -1.1018
 9528SOL     OW40216   2.697   4.685  15.931 -0.2637 -0.1257 -0.7056
 9528SOL    HW140217   2.689   4.686  15.836 -1.9604  0.7825 -0.5504
 9528SOL    HW240218   2.686   0.040  15.944 -0.7034 -0.2590 -0.1576
 9529SOL     OW40219   3.086   2.357  17.404 -0.3499  0.1226 -0.2092
 9529SOL    HW140220   3.103   2.451  17.394 -1.4301  0.4519  1.2465
 9529SOL    HW240221   3.002   2.347  17.447 -1.3309  3.2870 -1.4136
 9530SOL     OW40222   4.715   0.192   3.609  0.2433  0.0571  0.3052
 9530SOL    HW140223   0.072   0.197   3.605  0.2161  0.8785  0.5860
 9530SOL    HW240224   4.709   0.100   3.635  3.9848 -1.1446 -3.0598
 9531SOL     OW40225   3.166   0.958  10.768 -0.0814 -0.2491  0.1792
 9531SOL    HW140226   3.116   0.880  10.791 -0.9491 -0.3811 -2.1414
 9531SOL    HW240227   3.209   0.975  10.852  0.5278  1.9345 -0.5649
 9532SOL     OW40228   2.177   0.182  10.089 -0.2505  0.1553 -0.1806
 9532SOL    HW140229   2.194   0.097  10.048  1.0841 -0.4708  1.6530
 9532SOL    HW240230   2.267   0.214  10.087 -0.3670  0.5675  1.4628
 9533SOL     OW40231   2.990   2.832   7.707  0.2539 -0.3844 -0.1288
 9533SOL    HW140232   2.944   2.752   7.682 -2.3725  1.3777 -0.9812
 9533SOL    HW240233   2.998   2.868   7.619  1.5131  2.2716  1.0879
 9534SOL     OW40234   0.706   4.076   5.722 -0.0817 -0.5614  0.3480
 9534SOL    HW140235   0.691   4.134   5.648  0.8805  1.7507  1.9581
 9534SOL    HW240236   0.664   4.134   5.786  2.0293  1.4480 -0.1392
 9535SOL     OW40237   3.185   3.344   4.653 -0.0024  0.8883  0.2962
 9535SOL    HW140238   3.232   3.264   4.633  0.1128  1.2134 -0.7429
 9535SOL    HW240239   3.097   3.322   4.620  0.3085  0.6419 -0.3768
 9536SOL     OW40240   2.272   2.982   0.243 -0.2595  0.3240 -0.0998
 9536SOL    HW140241   2.351   2.932   0.225 -1.3781 -1.6168  0.3709
 9536SOL    HW240242   2.210   2.949   0.179 -1.3104  1.6980  0.2156
 9537SOL     OW40243   1.980   3.244   5.295  0.6071 -0.8886 -0.4894
 9537SOL    HW140244   1.888   3.216   5.289  0.1917  0.0637  1.4265
 9537SOL    HW240245   1.969   3.337   5.316 -3.1090 -1.6357  0.9092
 9538SOL     OW40246   4.292   1.000  14.535 -0.3105  0.3836 -0.1804
 9538SOL    HW140247   4.320   1.031  14.621 -1.8471 -1.6841  1.0592
 9538SOL    HW240248   4.275   1.086  14.496 -0.9189 -0.2712 -1.3662
 9539SOL     OW40249   2.077   2.384  13.691  0.4479  0.3729 -0.4648
 9539SOL    HW140250   2.099   2.292  13.706 -0.4721  0.0296 -1.1770
 9539SOL    HW240251   2.164   2.423  13.687 -0.5475  2.5406 -0.7897
 9540SOL     OW40252   1.964   2.452  15.903 -0.3134  0.0896  0.2628
 9540SOL    HW140253   1.936   2.402  15.826 -1.9707  0.8921  0.3406
 9540SOL    HW240254   2.036   2.501  15.864 -1.8073  1.0285 -1.3207
 9541SOL     OW40255   2.438   0.852   1.722  0.4145 -0.0100  0.4852
 9541SOL    HW140256   2.400   0.764   1.730 -0.6090  0.4979  1.1537
 9541SOL    HW240257   2.453   0.856   1.628 -2.6325  0.4826  0.0382
 9542SOL     OW40258   0.450   1.503  12.608 -0.0316  0.2259  0.2964
 9542SOL    HW140259   0.424   1.594  12.624 -1.8390 -0.0949 -0.8589
 9542SOL    HW240260   0.363   1.465  12.602 -1.3023  3.4623 -1.7843
 9543SOL     OW40261   3.040   3.358  17.637 -0.8175 -0.1157 -0.4358
 9543SOL    HW140262   3.058   3.436  17.585 -0.6400 -1.0202 -1.7107
 9543SOL    HW240263   3.084   3.376  17.720 -1.4976  1.0965 -0.3364
 9544SOL     OW40264   3.914   0.964   2.005  0.4047 -0.3661 -0.2189
 9544SOL    HW140265   3.839   0.909   1.982 -1.3795  1.7067  0.6024
 9544SOL    HW240266   3.877   1.000   2.085 -0.4645 -0.6289 -0.4961
 9545SOL     OW40267   4.550   1.192  15.786 -0.6510 -0.2176  0.0349
 9545SOL    HW140268   4.594   1.141  15.718 -0.1020 -0.9233  0.9235
 9545SOL    HW240269   4.458   1.191  15.761 -0.0317 -0.8500 -2.2596
 9546SOL     OW40270   2.511   1.877   1.801 -0.1766  0.9855  0.3361
 9546SOL    HW140271   2.491   1.936   1.874  0.3317  3.2526 -1.3569
 9546SOL    HW240272   2.430   1.826   1.809  0.2128  0.5985  1.7538
 9547SOL     OW40273   2.223   3.273  14.511  0.0408 -0.2884  0.0998
 9547SOL    HW140274   2.156   3.234  14.567  0.4081 -1.6659 -0.4124
 9547SOL    HW240275   2.296   3.213  14.528  0.7154  0.4137 -0.3244
 9548SOL     OW40276   1.559   0.955   9.432 -0.8039 -0.3524 -0.0020
 9548SOL    HW140277   1.484   0.896   9.439 -0.6064 -0.2390  2.9665
 9548SOL    HW240278   1.613   0.903   9.372 -0.6392 -2.4457  1.9928
 9549SOL     OW40279   0.936   1.365   4.805  0.1330 -0.4018 -0.2549
 9549SOL    HW140280   0.912   1.278   4.837  0.6229 -0.3684  0.2073
 9549SOL    HW240281   0.861   1.359   4.746 -0.1867  1.1963 -0.0296
 9550SOL     OW40282   0.502   4.013   4.353 -0.0954 -0.3534 -0.2087
 9550SOL    HW140283   0.418   4.025   4.397 -0.9187 -1.2318 -1.5228
 9550SOL    HW240284   0.493   3.922   4.324 -2.5330 -0.1104 -0.2241
 9551SOL     OW40285   3.731   1.861   3.210 -0.1819  0.2908 -0.4875
 9551SOL    HW140286   3.690   1.862   3.124  0.5615 -1.9592 -0.8775
 9551SOL    HW240287   3.824   1.870   3.190 -0.0790  3.6588  1.5315
 9552SOL     OW40288   3.247   4.039  12.191 -0.6182 -0.3361  0.2366
 9552SOL    HW140289   3.238   4.105  12.121  2.5245  0.4125  0.5271
 9552SOL    HW240290   3.342   4.038  12.202 -0.7198 -1.3925  0.9878
 9553SOL     OW40291   3.183   1.913   1.378 -0.1061 -0.3013 -0.3598
 9553SOL    HW140292   3.110   1.860   1.410 -0.7014 -0.4776 -2.0363
 9553SOL    HW240293   3.248   1.885   1.442  1.3538  0.6678 -1.4314
 9554SOL     OW40294   2.042   0.784   2.380  0.0039 -0.7974 -0.2658
 9554SOL    HW140295   2.111   0.798   2.445 -0.1509 -0.7665 -0.1086
 9554SOL    HW240296   2.089   0.796   2.297 -0.8124 -3.8987 -1.1721
 9555SOL     OW40297   0.565   0.392   4.857 -0.1768 -0.2573 -0.2346
 9555SOL    HW140298   0.470   0.382   4.850 -0.1413 -0.0455 -0.9785
 9555SOL    HW240299   0.583   0.464   4.918  3.0888 -0.6089 -0.7782
 9556SOL     OW40300   0.379   2.617   9.137  0.3657 -0.5444 -0.2131
 9556SOL    HW140301   0.349   2.583   9.221  0.1524 -0.0326 -0.0805
 9556SOL    HW240302   0.393   2.710   9.158 -1.9490  0.0908 -1.3518
 9557SOL     OW40303   1.022   3.176   8.456  0.1760  0.2656 -0.0536
 9557SOL    HW140304   0.999   3.268   8.444  0.6717  0.1002 -2.2700
 9557SOL    HW240305   0.937   3.136   8.474  0.1853 -0.2448 -1.1059
 9558SOL     OW40306   0.011   1.868   9.943 -0.3100  0.0893 -0.1097
 9558SOL    HW140307   4.725   1.816  10.019 -1.2816  1.6377  0.6206
 9558SOL    HW240308   4.665   1.911   9.932 -0.4415  0.1313  1.0720
 9559SOL     OW40309   0.346   0.851   7.407  0.2427 -0.4499 -0.4594
 9559SOL    HW140310   0.253   0.835   7.389  0.1028  0.0822 -0.2096
 9559SOL    HW240311   0.353   0.849   7.503 -1.2472 -0.6520 -0.3479
 9560SOL     OW40312   0.865   1.818  13.865  0.0174 -0.6020 -0.1406
 9560SOL    HW140313   0.836   1.740  13.912 -0.5610 -1.5848 -2.1324
 9560SOL    HW240314   0.853   1.786  13.775 -1.9092 -0.3769  0.0305
 9561SOL     OW40315   0.375   4.719  13.384  0.0614  0.3373 -0.1127
 9561SOL    HW140316   0.281   4.738  13.380 -0.0049 -0.1811 -1.0381
 9561SOL    HW240317   0.381   4.691  13.293  0.5457  1.2829 -0.3668
 9562SOL     OW40318   2.614   4.001   8.267  0.3575 -0.0196  0.3277
 9562SOL    HW140319   2.522   3.996   8.242  0.6909  0.1611 -0.9603
 9562SOL    HW240320   2.653   3.933   8.212 -0.7814  1.6626 -2.5730
 9563SOL     OW40321   3.607   2.972   2.539 -0.7455  0.2133  0.1318
 9563SOL    HW140322   3.560   3.046   2.578  1.4135  0.0295  3.1256
 9563SOL    HW240323   3.537   2.908   2.536  0.1891 -0.6554 -2.5131
 9564SOL     OW40324   4.310   4.295   5.183  0.0068  0.0270  0.1669
 9564SOL    HW140325   4.240   4.329   5.239  0.1252 -2.3602  1.7919
 9564SOL    HW240326   4.363   4.238   5.239 -1.7903 -1.5711  0.2484
 9565SOL     OW40327   3.743   1.230   2.795 -0.0284 -0.3891  0.4073
 9565SOL    HW140328   3.821   1.253   2.845  0.8526 -0.1967 -1.0547
 9565SOL    HW240329   3.757   1.277   2.713  1.6285 -2.2748 -0.3816
 9566SOL     OW40330   0.556   0.486   0.655  0.2052 -0.5607  0.0896
 9566SOL    HW140331   0.588   0.496   0.566 -0.5820 -2.1762 -0.3668
 9566SOL    HW240332   0.491   0.418   0.637  0.4258 -0.8069  0.2242
 9567SOL     OW40333   0.194   0.162  15.962 -0.1218  0.3344  0.3287
 9567SOL    HW140334   0.217   0.249  15.993 -2.7169 -0.1014  3.4169
 9567SOL    HW240335   0.264   0.104  15.992 -0.9694 -0.5379  0.6315
 9568SOL     OW40336   3.045   1.592   6.513 -0.6041  0.4874 -0.5281
 9568SOL    HW140337   3.052   1.676   6.467  2.2196  0.1827 -0.6172
 9568SOL    HW240338   3.034   1.529   6.442 -0.9913 -0.1152  0.0575
 9569SOL     OW40339   2.522   4.504   1.778  0.4288  0.0505 -0.3302
 9569SOL    HW140340   2.596   4.539   1.828  1.0429 -3.3370  1.1963
 9569SOL    HW240341   2.512   4.413   1.808  1.1205  0.8714  2.4580
 9570SOL     OW40342   2.902   2.325   8.608  0.0364  0.1073  0.6482
 9570SOL    HW140343   2.844   2.389   8.650  0.2514 -0.3732  1.6713
 9570SOL    HW240344   2.840   2.265   8.568  0.9058  0.3934 -1.1159
 9571SOL     OW40345   4.402   1.558   6.422 -0.2722 -0.1017 -0.6019
 9571SOL    HW140346   4.453   1.532   6.345  1.1092  0.4875  0.1158
 9571SOL    HW240347   4.476   1.562   6.482 -1.2005  0.8302  0.5003
   4.73876   4.73876  17.75295
